<event>
 8    1  0.1253488E-006  0.9118800E+02  0.7816164E-02  0.1184000E+00
        -11   -1    0    0    0    0  0.00000000000E+00  0.00000000000E+00  0.45593999997E+02  0.45594000000E+02  0.51100000000E-03 0.  1.
         11   -1    0    0    0    0 -0.00000000000E+00 -0.00000000000E+00 -0.45593999997E+02  0.45594000000E+02  0.51100000000E-03 0. -1.
         23    2    1    2    0    0  0.17763568394E-14  0.00000000000E+00  0.00000000000E+00  0.91188000000E+02  0.91188000000E+02 0.  0.
    9900012    2    3    3    0    0 -0.13096780852E+02 -0.24326460970E+02 -0.24340903516E+02  0.54367055471E+02  0.39999934557E+02 0.  0.
        -12    1    3    3    0    0  0.13096780852E+02  0.24326460970E+02  0.24340903516E+02  0.36820944529E+02  0.00000000000E+00 0.  1.
         11    1    4    4    0    0 -0.98592820142E+00 -0.16477181705E+02 -0.11907399977E+02  0.20353273590E+02  0.51100000000E-03 0. -1.
        -11    1    4    4    0    0 -0.18088563532E+02 -0.98867311520E+01 -0.16583671083E+02  0.26456789873E+02  0.51100000000E-03 0.  1.
         12    1    4    4    0    0  0.59777108814E+01  0.20374518866E+01  0.41501675438E+01  0.75569920083E+01  0.00000000000E+00 0. -1.
</event>
<event>
 8    1  0.1253488E-006  0.9118800E+02  0.7816164E-02  0.1184000E+00
        -11   -1    0    0    0    0  0.00000000000E+00  0.00000000000E+00  0.45593999997E+02  0.45594000000E+02  0.51100000000E-03 0. -1.
         11   -1    0    0    0    0 -0.00000000000E+00 -0.00000000000E+00 -0.45593999997E+02  0.45594000000E+02  0.51100000000E-03 0.  1.
         23    2    1    2    0    0  0.44408920985E-15  0.00000000000E+00  0.00000000000E+00  0.91188000000E+02  0.91188000000E+02 0.  0.
    9900012    2    3    3    0    0 -0.21150175615E+01 -0.12793434959E+02 -0.34462057816E+02  0.54367099600E+02  0.40000035158E+02 0.  0.
         12    1    3    3    0    0  0.21150175615E+01  0.12793434959E+02  0.34462057816E+02  0.36820900400E+02  0.00000000000E+00 0. -1.
         11    1    4    4    0    0  0.43609849538E+01 -0.22963253954E+02 -0.16420012546E+02  0.28564769108E+02  0.51100000000E-03 0.  1.
        -11    1    4    4    0    0 -0.53647985302E+01  0.10807696087E+02 -0.20061626807E+02  0.23410600769E+02  0.51100000000E-03 0. -1.
        -12    1    4    4    0    0 -0.11112039851E+01 -0.63787709181E+00  0.20195815368E+01  0.23917297223E+01  0.00000000000E+00 0.  1.
</event>
<event>
 8    1  0.1253488E-006  0.9118800E+02  0.7816164E-02  0.1184000E+00
        -11   -1    0    0    0    0  0.00000000000E+00  0.00000000000E+00  0.45593999997E+02  0.45594000000E+02  0.51100000000E-03 0.  1.
         11   -1    0    0    0    0 -0.00000000000E+00 -0.00000000000E+00 -0.45593999997E+02  0.45594000000E+02  0.51100000000E-03 0. -1.
         23    2    1    2    0    0  0.00000000000E+00  0.00000000000E+00 -0.71054273576E-14  0.91188000000E+02  0.91188000000E+02 0.  0.
    9900012    2    3    3    0    0  0.47321960427E+01  0.91804814505E+01 -0.35342682389E+02  0.54367080437E+02  0.39999991472E+02 0.  0.
        -12    1    3    3    0    0 -0.47321960427E+01 -0.91804814505E+01  0.35342682389E+02  0.36820919563E+02  0.00000000000E+00 0.  1.
         11    1    4    4    0    0  0.48061756497E+01  0.60459274783E+01 -0.26140354954E+02  0.27257489261E+02  0.51100000000E-03 0. -1.
        -11    1    4    4    0    0  0.53397503294E+01  0.12762869045E+02 -0.80431209691E+01  0.16002985816E+02  0.51100000000E-03 0.  1.
         12    1    4    4    0    0 -0.54137299363E+01 -0.96283150732E+01 -0.11592064657E+01  0.11106605359E+02  0.00000000000E+00 0. -1.
</event>
<event>
 8    1  0.1253488E-006  0.9118800E+02  0.7816164E-02  0.1184000E+00
        -11   -1    0    0    0    0  0.00000000000E+00  0.00000000000E+00  0.45593999997E+02  0.45594000000E+02  0.51100000000E-03 0.  1.
         11   -1    0    0    0    0 -0.00000000000E+00 -0.00000000000E+00 -0.45593999997E+02  0.45594000000E+02  0.51100000000E-03 0. -1.
         23    2    1    2    0    0 -0.88817841970E-15  0.00000000000E+00  0.35527136788E-14  0.91188000000E+02  0.91188000000E+02 0.  0.
    9900012    2    3    3    0    0  0.75904871076E+01 -0.20343915100E+02 -0.29737004432E+02  0.54367084629E+02  0.40000001030E+02 0.  0.
        -12    1    3    3    0    0 -0.75904871076E+01  0.20343915100E+02  0.29737004432E+02  0.36820915371E+02  0.00000000000E+00 0.  1.
         11    1    4    4    0    0  0.93856660263E+01 -0.93682526756E+01  0.46645785069E+01  0.14057495433E+02  0.51100000000E-03 0. -1.
        -11    1    4    4    0    0 -0.36068085520E+01 -0.63204033347E+01 -0.20301545676E+01  0.75550045714E+01  0.51100000000E-03 0.  1.
         12    1    4    4    0    0  0.18116296333E+01 -0.46552590895E+01 -0.32371428372E+02  0.32754584625E+02  0.00000000000E+00 0. -1.
</event>
<event>
 8    1  0.1253488E-006  0.9118800E+02  0.7816164E-02  0.1184000E+00
        -11   -1    0    0    0    0  0.00000000000E+00  0.00000000000E+00  0.45593999997E+02  0.45594000000E+02  0.51100000000E-03 0. -1.
         11   -1    0    0    0    0 -0.00000000000E+00 -0.00000000000E+00 -0.45593999997E+02  0.45594000000E+02  0.51100000000E-03 0.  1.
         23    2    1    2    0    0  0.88817841970E-15  0.00000000000E+00 -0.71054273576E-14  0.91188000000E+02  0.91188000000E+02 0.  0.
    9900012    2    3    3    0    0  0.63365191641E+01  0.16354975939E+02 -0.32375125074E+02  0.54367008207E+02  0.39999826808E+02 0.  0.
         12    1    3    3    0    0 -0.63365191641E+01 -0.16354975939E+02  0.32375125074E+02  0.36820991793E+02  0.00000000000E+00 0. -1.
         11    1    4    4    0    0  0.89345367908E+01  0.23480347753E+00  0.43574188659E+01  0.99432479489E+01  0.51100000000E-03 0. -1.
        -11    1    4    4    0    0 -0.34881910423E+01  0.10054901085E+02 -0.36784612631E+02  0.38293292353E+02  0.51100000000E-03 0.  1.
        -12    1    4    4    0    0  0.89017341564E+00  0.60652713762E+01  0.52068691066E-01  0.61304679043E+01  0.00000000000E+00 0.  1.
</event>
<event>
 8    1  0.1253488E-006  0.9118800E+02  0.7816164E-02  0.1184000E+00
        -11   -1    0    0    0    0  0.00000000000E+00  0.00000000000E+00  0.45593999997E+02  0.45594000000E+02  0.51100000000E-03 0. -1.
         11   -1    0    0    0    0 -0.00000000000E+00 -0.00000000000E+00 -0.45593999997E+02  0.45594000000E+02  0.51100000000E-03 0.  1.
         23    2    1    2    0    0  0.35527136788E-14  0.88817841970E-15  0.00000000000E+00  0.91188000000E+02  0.91188000000E+02 0.  0.
    9900012    2    3    3    0    0 -0.27382768208E+02 -0.76292678066E+01  0.23404251322E+02  0.54367072500E+02  0.39999973378E+02 0.  0.
        -12    1    3    3    0    0  0.27382768208E+02  0.76292678066E+01 -0.23404251322E+02  0.36820927500E+02  0.00000000000E+00 0.  1.
         11    1    4    4    0    0 -0.12712149556E+02 -0.56069469758E+01  0.11182426824E+02  0.17834889141E+02  0.51100000000E-03 0. -1.
        -11    1    4    4    0    0  0.80475138649E+01 -0.57734933432E+01  0.88088559756E+01  0.13254872638E+02  0.51100000000E-03 0.  1.
        -12    1    4    4    0    0 -0.22718132517E+02  0.37511725123E+01  0.34129685225E+01  0.23277310721E+02  0.00000000000E+00 0.  1.
</event>
<event>
 8    1  0.1253488E-006  0.9118800E+02  0.7816164E-02  0.1184000E+00
        -11   -1    0    0    0    0  0.00000000000E+00  0.00000000000E+00  0.45593999997E+02  0.45594000000E+02  0.51100000000E-03 0.  1.
         11   -1    0    0    0    0 -0.00000000000E+00 -0.00000000000E+00 -0.45593999997E+02  0.45594000000E+02  0.51100000000E-03 0. -1.
         23    2    1    2    0    0  0.00000000000E+00  0.35527136788E-14  0.00000000000E+00  0.91188000000E+02  0.91188000000E+02 0.  0.
    9900012    2    3    3    0    0 -0.16818478244E+02  0.25350288014E+02  0.20743153692E+02  0.54367126329E+02  0.40000096091E+02 0.  0.
         12    1    3    3    0    0  0.16818478244E+02 -0.25350288014E+02 -0.20743153692E+02  0.36820873671E+02  0.00000000000E+00 0. -1.
         11    1    4    4    0    0 -0.50404294044E+01  0.25889972811E+01 -0.29340776956E+00  0.56740570919E+01  0.51100000000E-03 0. -1.
        -11    1    4    4    0    0  0.11901476208E+02  0.49720949670E+01  0.12278591317E+02  0.17808162996E+02  0.51100000000E-03 0.  1.
        -12    1    4    4    0    0 -0.23679525047E+02  0.17789195766E+02  0.87579701451E+01  0.30884906241E+02  0.00000000000E+00 0.  1.
</event>
<event>
 8    1  0.1253488E-006  0.9118800E+02  0.7816164E-02  0.1184000E+00
        -11   -1    0    0    0    0  0.00000000000E+00  0.00000000000E+00  0.45593999997E+02  0.45594000000E+02  0.51100000000E-03 0. -1.
         11   -1    0    0    0    0 -0.00000000000E+00 -0.00000000000E+00 -0.45593999997E+02  0.45594000000E+02  0.51100000000E-03 0.  1.
         23    2    1    2    0    0  0.14210854715E-13 -0.55511151231E-15 -0.49960036108E-15  0.91188000000E+02  0.91188000000E+02 0.  0.
    9900012    2    3    3    0    0 -0.36817450170E+02 -0.40893778215E+00  0.29664349533E+00  0.54367083873E+02  0.39999999304E+02 0.  0.
        -12    1    3    3    0    0  0.36817450170E+02  0.40893778215E+00 -0.29664349533E+00  0.36820916127E+02  0.00000000000E+00 0.  1.
         11    1    4    4    0    0 -0.33709971748E+02  0.49743759261E+01 -0.10785395175E+02  0.35741171784E+02  0.51100000000E-03 0. -1.
        -11    1    4    4    0    0 -0.46154784012E+01 -0.61305655964E+01  0.13589246613E+02  0.15606219887E+02  0.51100000000E-03 0.  1.
        -12    1    4    4    0    0  0.15079999800E+01  0.74725188808E+00 -0.25072079425E+01  0.30196922014E+01  0.00000000000E+00 0.  1.
</event>
<event>
 8    1  0.1253488E-006  0.9118800E+02  0.7816164E-02  0.1184000E+00
        -11   -1    0    0    0    0  0.00000000000E+00  0.00000000000E+00  0.45593999997E+02  0.45594000000E+02  0.51100000000E-03 0. -1.
         11   -1    0    0    0    0 -0.00000000000E+00 -0.00000000000E+00 -0.45593999997E+02  0.45594000000E+02  0.51100000000E-03 0.  1.
         23    2    1    2    0    0 -0.22204460493E-15  0.10658141036E-13  0.00000000000E+00  0.91188000000E+02  0.91188000000E+02 0.  0.
    9900012    2    3    3    0    0 -0.79231561239E+00  0.31014309462E+02  0.19830902414E+02  0.54367084123E+02  0.39999999876E+02 0.  0.
        -12    1    3    3    0    0  0.79231561239E+00 -0.31014309462E+02 -0.19830902414E+02  0.36820915877E+02  0.00000000000E+00 0.  1.
         11    1    4    4    0    0  0.12034512095E+01  0.15799889181E+02  0.59099355729E+01  0.16911893202E+02  0.51100000000E-03 0. -1.
        -11    1    4    4    0    0  0.55073369721E+00 -0.25201437727E+01 -0.84264443227E+01  0.88124568893E+01  0.51100000000E-03 0.  1.
        -12    1    4    4    0    0 -0.25465005191E+01  0.17734564054E+02  0.22347411164E+02  0.28642734032E+02  0.00000000000E+00 0.  1.
</event>
<event>
 8    1  0.1253488E-006  0.9118800E+02  0.7816164E-02  0.1184000E+00
        -11   -1    0    0    0    0  0.00000000000E+00  0.00000000000E+00  0.45593999997E+02  0.45594000000E+02  0.51100000000E-03 0. -1.
         11   -1    0    0    0    0 -0.00000000000E+00 -0.00000000000E+00 -0.45593999997E+02  0.45594000000E+02  0.51100000000E-03 0.  1.
         23    2    1    2    0    0 -0.88817841970E-15  0.00000000000E+00  0.00000000000E+00  0.91188000000E+02  0.91188000000E+02 0.  0.
    9900012    2    3    3    0    0 -0.68252718946E+01 -0.34818832478E+02  0.98409599384E+01  0.54367083063E+02  0.39999997459E+02 0.  0.
        -12    1    3    3    0    0  0.68252718946E+01  0.34818832478E+02 -0.98409599384E+01  0.36820916937E+02  0.00000000000E+00 0.  1.
         11    1    4    4    0    0 -0.21056978369E+00 -0.27671638891E+02  0.12842032891E+02  0.30507077008E+02  0.51100000000E-03 0. -1.
        -11    1    4    4    0    0 -0.13305033099E+02 -0.69300971927E+01  0.24839485019E+01  0.15205924940E+02  0.51100000000E-03 0.  1.
         12    1    4    4    0    0  0.66903309883E+01 -0.21709639437E+00 -0.54850214545E+01  0.86540811144E+01  0.00000000000E+00 0. -1.
</event>
<event>
 8    1  0.1253488E-006  0.9118800E+02  0.7816164E-02  0.1184000E+00
        -11   -1    0    0    0    0  0.00000000000E+00  0.00000000000E+00  0.45593999997E+02  0.45594000000E+02  0.51100000000E-03 0.  1.
         11   -1    0    0    0    0 -0.00000000000E+00 -0.00000000000E+00 -0.45593999997E+02  0.45594000000E+02  0.51100000000E-03 0. -1.
         23    2    1    2    0    0  0.17763568394E-14  0.00000000000E+00 -0.35527136788E-14  0.91188000000E+02  0.91188000000E+02 0.  0.
    9900012    2    3    3    0    0 -0.15277158815E+02 -0.27037818117E+02  0.19782444088E+02  0.54367078175E+02  0.39999986315E+02 0.  0.
         12    1    3    3    0    0  0.15277158815E+02  0.27037818117E+02 -0.19782444088E+02  0.36820921825E+02  0.00000000000E+00 0. -1.
         11    1    4    4    0    0  0.44076367527E+01 -0.95725237236E+01  0.11448250661E+02  0.15560299343E+02  0.51100000000E-03 0.  1.
        -11    1    4    4    0    0 -0.22879034957E+01 -0.12237828522E+02 -0.76481949186E+01  0.14611428237E+02  0.51100000000E-03 0. -1.
         12    1    4    4    0    0 -0.17396892072E+02 -0.52274658714E+01  0.15982388345E+02  0.24195350594E+02  0.00000000000E+00 0. -1.
</event>
<event>
 8    1  0.1253488E-006  0.9118800E+02  0.7816164E-02  0.1184000E+00
        -11   -1    0    0    0    0  0.00000000000E+00  0.00000000000E+00  0.45593999997E+02  0.45594000000E+02  0.51100000000E-03 0.  1.
         11   -1    0    0    0    0 -0.00000000000E+00 -0.00000000000E+00 -0.45593999997E+02  0.45594000000E+02  0.51100000000E-03 0. -1.
         23    2    1    2    0    0  0.44408920985E-15  0.00000000000E+00 -0.12212453271E-14  0.91188000000E+02  0.91188000000E+02 0.  0.
    9900012    2    3    3    0    0  0.22977076082E+01 -0.36736720981E+02 -0.95623272334E+00  0.54367075111E+02  0.39999979330E+02 0.  0.
         12    1    3    3    0    0 -0.22977076082E+01  0.36736720981E+02  0.95623272334E+00  0.36820924889E+02  0.00000000000E+00 0. -1.
         11    1    4    4    0    0  0.50583460761E+01  0.41347211052E+01  0.59376385947E+01  0.88282691387E+01  0.51100000000E-03 0. -1.
        -11    1    4    4    0    0 -0.88870849838E+01 -0.19600520380E+02  0.21471724577E+01  0.21628014900E+02  0.51100000000E-03 0.  1.
         12    1    4    4    0    0  0.61264465159E+01 -0.21270921706E+02 -0.90410437757E+01  0.23910791072E+02  0.00000000000E+00 0. -1.
</event>
<event>
 8    1  0.1253488E-006  0.9118800E+02  0.7816164E-02  0.1184000E+00
        -11   -1    0    0    0    0  0.00000000000E+00  0.00000000000E+00  0.45593999997E+02  0.45594000000E+02  0.51100000000E-03 0.  1.
         11   -1    0    0    0    0 -0.00000000000E+00 -0.00000000000E+00 -0.45593999997E+02  0.45594000000E+02  0.51100000000E-03 0. -1.
         23    2    1    2    0    0  0.00000000000E+00  0.88817841970E-15  0.00000000000E+00  0.91188000000E+02  0.91188000000E+02 0.  0.
    9900012    2    3    3    0    0  0.16954264965E+02  0.50896850562E+01  0.32286644631E+02  0.54367089962E+02  0.40000013186E+02 0.  0.
         12    1    3    3    0    0 -0.16954264965E+02 -0.50896850562E+01 -0.32286644631E+02  0.36820910038E+02  0.00000000000E+00 0. -1.
         11    1    4    4    0    0  0.73253146600E+01 -0.86638059885E+01  0.93628447152E+01  0.14710018032E+02  0.51100000000E-03 0. -1.
        -11    1    4    4    0    0  0.13237517839E+02  0.18299112041E+02  0.24813901556E+02  0.33553227724E+02  0.51100000000E-03 0.  1.
        -12    1    4    4    0    0 -0.36085675332E+01 -0.45456209966E+01 -0.18901016397E+01  0.61038442063E+01  0.00000000000E+00 0.  1.
</event>
<event>
 8    1  0.1253488E-006  0.9118800E+02  0.7816164E-02  0.1184000E+00
        -11   -1    0    0    0    0  0.00000000000E+00  0.00000000000E+00  0.45593999997E+02  0.45594000000E+02  0.51100000000E-03 0.  1.
         11   -1    0    0    0    0 -0.00000000000E+00 -0.00000000000E+00 -0.45593999997E+02  0.45594000000E+02  0.51100000000E-03 0. -1.
         23    2    1    2    0    0 -0.17763568394E-14 -0.77715611724E-15  0.00000000000E+00  0.91188000000E+02  0.91188000000E+02 0.  0.
    9900012    2    3    3    0    0  0.15164112828E+02 -0.28713013704E+00  0.33552163661E+02  0.54367075950E+02  0.39999981243E+02 0.  0.
         12    1    3    3    0    0 -0.15164112828E+02  0.28713013704E+00 -0.33552163661E+02  0.36820924050E+02  0.00000000000E+00 0. -1.
         11    1    4    4    0    0 -0.21021938299E+01  0.57688286794E-01  0.91142976109E+01  0.93537675852E+01  0.51100000000E-03 0. -1.
        -11    1    4    4    0    0  0.27345979329E+01 -0.77450799594E+01  0.27253681384E+02  0.28464494351E+02  0.51100000000E-03 0.  1.
        -12    1    4    4    0    0  0.14531708725E+02  0.74002615356E+01 -0.28158153341E+01  0.16548814013E+02  0.00000000000E+00 0.  1.
</event>
<event>
 8    1  0.1253488E-006  0.9118800E+02  0.7816164E-02  0.1184000E+00
        -11   -1    0    0    0    0  0.00000000000E+00  0.00000000000E+00  0.45593999997E+02  0.45594000000E+02  0.51100000000E-03 0. -1.
         11   -1    0    0    0    0 -0.00000000000E+00 -0.00000000000E+00 -0.45593999997E+02  0.45594000000E+02  0.51100000000E-03 0.  1.
         23    2    1    2    0    0  0.00000000000E+00  0.00000000000E+00  0.17763568394E-14  0.91188000000E+02  0.91188000000E+02 0.  0.
    9900012    2    3    3    0    0  0.28773385744E+02 -0.19651985473E+02 -0.11902747154E+02  0.54367032468E+02  0.39999882117E+02 0.  0.
         12    1    3    3    0    0 -0.28773385744E+02  0.19651985473E+02  0.11902747154E+02  0.36820967532E+02  0.00000000000E+00 0. -1.
         11    1    4    4    0    0  0.15516881225E+02 -0.29195286144E+01  0.52978156997E+01  0.16654251762E+02  0.51100000000E-03 0. -1.
        -11    1    4    4    0    0 -0.43783755681E+01  0.40127059406E+01 -0.97922582245E+00  0.60192080088E+01  0.51100000000E-03 0.  1.
        -12    1    4    4    0    0  0.17634880087E+02 -0.20745162799E+02 -0.16221337032E+02  0.31693572697E+02  0.00000000000E+00 0.  1.
</event>
<event>
 8    1  0.1253488E-006  0.9118800E+02  0.7816164E-02  0.1184000E+00
        -11   -1    0    0    0    0  0.00000000000E+00  0.00000000000E+00  0.45593999997E+02  0.45594000000E+02  0.51100000000E-03 0.  1.
         11   -1    0    0    0    0 -0.00000000000E+00 -0.00000000000E+00 -0.45593999997E+02  0.45594000000E+02  0.51100000000E-03 0. -1.
         23    2    1    2    0    0 -0.35527136788E-14 -0.35527136788E-14  0.28449465006E-15  0.91188000000E+02  0.91188000000E+02 0.  0.
    9900012    2    3    3    0    0  0.29977583964E+02  0.21380446679E+02 -0.32173204889E-01  0.54367081005E+02  0.39999992766E+02 0.  0.
         12    1    3    3    0    0 -0.29977583964E+02 -0.21380446679E+02  0.32173204889E-01  0.36820918995E+02  0.00000000000E+00 0. -1.
         11    1    4    4    0    0 -0.93858616405E+00  0.69058673790E+00  0.23398324158E+01  0.26139376475E+01  0.51100000000E-03 0. -1.
        -11    1    4    4    0    0  0.67310337039E+00 -0.91570482358E+01 -0.10504169013E+01  0.92416436021E+01  0.51100000000E-03 0.  1.
        -12    1    4    4    0    0  0.30243066758E+02  0.29846908177E+02 -0.13215887194E+01  0.42511499755E+02  0.00000000000E+00 0.  1.
</event>
<event>
 8    1  0.1253488E-006  0.9118800E+02  0.7816164E-02  0.1184000E+00
        -11   -1    0    0    0    0  0.00000000000E+00  0.00000000000E+00  0.45593999997E+02  0.45594000000E+02  0.51100000000E-03 0. -1.
         11   -1    0    0    0    0 -0.00000000000E+00 -0.00000000000E+00 -0.45593999997E+02  0.45594000000E+02  0.51100000000E-03 0.  1.
         23    2    1    2    0    0  0.00000000000E+00  0.35527136788E-14  0.17763568394E-14  0.91188000000E+02  0.91188000000E+02 0.  0.
    9900012    2    3    3    0    0 -0.31407983277E+02  0.13304031059E+02  0.13868013430E+02  0.54367075888E+02  0.39999981102E+02 0.  0.
        -12    1    3    3    0    0  0.31407983277E+02 -0.13304031059E+02 -0.13868013430E+02  0.36820924112E+02  0.00000000000E+00 0.  1.
         11    1    4    4    0    0 -0.87325918286E+01 -0.10598408899E+02  0.14087999136E+02  0.19673742683E+02  0.51100000000E-03 0. -1.
        -11    1    4    4    0    0 -0.17385991800E+02  0.15457469888E+02 -0.47556307347E+01  0.23744938622E+02  0.51100000000E-03 0.  1.
         12    1    4    4    0    0 -0.52893996477E+01  0.84449700700E+01  0.45356450288E+01  0.10948394583E+02  0.00000000000E+00 0. -1.
</event>
<event>
 8    1  0.1253488E-006  0.9118800E+02  0.7816164E-02  0.1184000E+00
        -11   -1    0    0    0    0  0.00000000000E+00  0.00000000000E+00  0.45593999997E+02  0.45594000000E+02  0.51100000000E-03 0.  1.
         11   -1    0    0    0    0 -0.00000000000E+00 -0.00000000000E+00 -0.45593999997E+02  0.45594000000E+02  0.51100000000E-03 0. -1.
         23    2    1    2    0    0  0.66613381478E-15  0.00000000000E+00  0.00000000000E+00  0.91188000000E+02  0.91188000000E+02 0.  0.
    9900012    2    3    3    0    0 -0.12757454024E+01 -0.26995060313E+01 -0.36699664662E+02  0.54367078699E+02  0.39999987511E+02 0.  0.
        -12    1    3    3    0    0  0.12757454024E+01  0.26995060313E+01  0.36699664662E+02  0.36820921301E+02  0.00000000000E+00 0.  1.
         11    1    4    4    0    0  0.44642487226E+01  0.10211842426E+01 -0.59960530340E+00  0.46186427331E+01  0.51100000000E-03 0. -1.
        -11    1    4    4    0    0  0.10963674853E+02  0.46132070317E+01 -0.38802673243E+01  0.12511607418E+02  0.51100000000E-03 0.  1.
        -12    1    4    4    0    0 -0.16703668978E+02 -0.83338973057E+01 -0.32219792034E+02  0.37236828549E+02  0.00000000000E+00 0.  1.
</event>
<event>
 8    1  0.1253488E-006  0.9118800E+02  0.7816164E-02  0.1184000E+00
        -11   -1    0    0    0    0  0.00000000000E+00  0.00000000000E+00  0.45593999997E+02  0.45594000000E+02  0.51100000000E-03 0.  1.
         11   -1    0    0    0    0 -0.00000000000E+00 -0.00000000000E+00 -0.45593999997E+02  0.45594000000E+02  0.51100000000E-03 0. -1.
         23    2    1    2    0    0  0.35527136788E-14  0.35527136788E-14  0.77715611724E-15  0.91188000000E+02  0.91188000000E+02 0.  0.
    9900012    2    3    3    0    0  0.29586854029E+02 -0.21914783584E+02  0.37404362366E+00  0.54367087742E+02  0.40000008126E+02 0.  0.
         12    1    3    3    0    0 -0.29586854029E+02  0.21914783584E+02 -0.37404362366E+00  0.36820912258E+02  0.00000000000E+00 0. -1.
         11    1    4    4    0    0  0.27472100081E+02 -0.63151075541E+01  0.79651857157E+01  0.29292337736E+02  0.51100000000E-03 0. -1.
        -11    1    4    4    0    0 -0.51174887624E+01 -0.15839293566E+02 -0.57155771100E+01  0.17599424248E+02  0.51100000000E-03 0.  1.
         12    1    4    4    0    0  0.72322427106E+01  0.23961753623E+00 -0.18755649821E+01  0.74753257581E+01  0.00000000000E+00 0. -1.
</event>
<event>
 8    1  0.1253488E-006  0.9118800E+02  0.7816164E-02  0.1184000E+00
        -11   -1    0    0    0    0  0.00000000000E+00  0.00000000000E+00  0.45593999997E+02  0.45594000000E+02  0.51100000000E-03 0. -1.
         11   -1    0    0    0    0 -0.00000000000E+00 -0.00000000000E+00 -0.45593999997E+02  0.45594000000E+02  0.51100000000E-03 0.  1.
         23    2    1    2    0    0  0.00000000000E+00  0.00000000000E+00  0.00000000000E+00  0.91188000000E+02  0.91188000000E+02 0.  0.
    9900012    2    3    3    0    0 -0.54237978333E+01 -0.34286391670E+02  0.12280283659E+02  0.54367087418E+02  0.40000007386E+02 0.  0.
        -12    1    3    3    0    0  0.54237978333E+01  0.34286391670E+02 -0.12280283659E+02  0.36820912582E+02  0.00000000000E+00 0.  1.
         11    1    4    4    0    0  0.42340093832E+01 -0.26474440375E+02  0.21432599530E+02  0.34324614368E+02  0.51100000000E-03 0. -1.
        -11    1    4    4    0    0 -0.25987184682E+00  0.16354467000E+01 -0.61683404233E+01  0.63867552892E+01  0.51100000000E-03 0.  1.
         12    1    4    4    0    0 -0.93979353696E+01 -0.94473979948E+01 -0.29839754482E+01  0.13655717761E+02  0.00000000000E+00 0. -1.
</event>
<event>
 8    1  0.1253488E-006  0.9118800E+02  0.7816164E-02  0.1184000E+00
        -11   -1    0    0    0    0  0.00000000000E+00  0.00000000000E+00  0.45593999997E+02  0.45594000000E+02  0.51100000000E-03 0.  1.
         11   -1    0    0    0    0 -0.00000000000E+00 -0.00000000000E+00 -0.45593999997E+02  0.45594000000E+02  0.51100000000E-03 0. -1.
         23    2    1    2    0    0  0.35527136788E-14  0.35527136788E-14  0.00000000000E+00  0.91188000000E+02  0.91188000000E+02 0.  0.
    9900012    2    3    3    0    0 -0.11261666859E+02 -0.10183166024E+02 -0.33544855251E+02  0.54367091204E+02  0.40000016019E+02 0.  0.
        -12    1    3    3    0    0  0.11261666859E+02  0.10183166024E+02  0.33544855251E+02  0.36820908796E+02  0.00000000000E+00 0.  1.
         11    1    4    4    0    0 -0.13290620764E+02  0.85474683718E+00 -0.13843649329E+02  0.19209836528E+02  0.51100000000E-03 0. -1.
        -11    1    4    4    0    0  0.19737231169E+01 -0.19431566143E+02 -0.88620953093E+01  0.21448032060E+02  0.51100000000E-03 0.  1.
        -12    1    4    4    0    0  0.55230788023E-01  0.83936532822E+01 -0.10839110613E+02  0.13709222617E+02  0.00000000000E+00 0.  1.
</event>
<event>
 8    1  0.1253488E-006  0.9118800E+02  0.7816164E-02  0.1184000E+00
        -11   -1    0    0    0    0  0.00000000000E+00  0.00000000000E+00  0.45593999997E+02  0.45594000000E+02  0.51100000000E-03 0.  1.
         11   -1    0    0    0    0 -0.00000000000E+00 -0.00000000000E+00 -0.45593999997E+02  0.45594000000E+02  0.51100000000E-03 0. -1.
         23    2    1    2    0    0  0.35527136788E-14 -0.35527136788E-14 -0.17763568394E-14  0.91188000000E+02  0.91188000000E+02 0.  0.
    9900012    2    3    3    0    0 -0.30843144538E+02 -0.19282912589E+02  0.57139293877E+01  0.54367091919E+02  0.40000017647E+02 0.  0.
        -12    1    3    3    0    0  0.30843144538E+02  0.19282912589E+02 -0.57139293877E+01  0.36820908081E+02  0.00000000000E+00 0.  1.
         11    1    4    4    0    0 -0.28660357101E+02 -0.25127845472E+02 -0.73697395400E+01  0.38821872036E+02  0.51100000000E-03 0. -1.
        -11    1    4    4    0    0 -0.15397382881E+01  0.30897880565E+01  0.17628623895E+01  0.38762440965E+01  0.51100000000E-03 0.  1.
         12    1    4    4    0    0 -0.64304914812E+00  0.27551448261E+01  0.11320806538E+02  0.11668975786E+02  0.00000000000E+00 0. -1.
</event>
<event>
 8    1  0.1253488E-006  0.9118800E+02  0.7816164E-02  0.1184000E+00
        -11   -1    0    0    0    0  0.00000000000E+00  0.00000000000E+00  0.45593999997E+02  0.45594000000E+02  0.51100000000E-03 0.  1.
         11   -1    0    0    0    0 -0.00000000000E+00 -0.00000000000E+00 -0.45593999997E+02  0.45594000000E+02  0.51100000000E-03 0. -1.
         23    2    1    2    0    0  0.00000000000E+00  0.35527136788E-14  0.00000000000E+00  0.91188000000E+02  0.91188000000E+02 0.  0.
    9900012    2    3    3    0    0  0.34697458544E+02  0.83623650966E+01 -0.90519126337E+01  0.54367083366E+02  0.39999998150E+02 0.  0.
        -12    1    3    3    0    0 -0.34697458544E+02 -0.83623650966E+01  0.90519126337E+01  0.36820916634E+02  0.00000000000E+00 0.  1.
         11    1    4    4    0    0  0.14838266016E+02  0.11688695705E+02  0.87461549747E+01  0.20815738583E+02  0.51100000000E-03 0. -1.
        -11    1    4    4    0    0  0.88094644093E+01 -0.10913006214E+02 -0.46502046013E+01  0.14775817097E+02  0.51100000000E-03 0.  1.
        -12    1    4    4    0    0  0.11049728119E+02  0.75866756054E+01 -0.13147863007E+02  0.18775527686E+02  0.00000000000E+00 0.  1.
</event>
<event>
 8    1  0.1253488E-006  0.9118800E+02  0.7816164E-02  0.1184000E+00
        -11   -1    0    0    0    0  0.00000000000E+00  0.00000000000E+00  0.45593999997E+02  0.45594000000E+02  0.51100000000E-03 0.  1.
         11   -1    0    0    0    0 -0.00000000000E+00 -0.00000000000E+00 -0.45593999997E+02  0.45594000000E+02  0.51100000000E-03 0. -1.
         23    2    1    2    0    0  0.00000000000E+00  0.88817841970E-15  0.17763568394E-14  0.91188000000E+02  0.91188000000E+02 0.  0.
    9900012    2    3    3    0    0 -0.34028758189E+02 -0.67963568072E+01 -0.12313779810E+02  0.54367136037E+02  0.40000118224E+02 0.  0.
        -12    1    3    3    0    0  0.34028758189E+02  0.67963568072E+01  0.12313779810E+02  0.36820863963E+02  0.00000000000E+00 0.  1.
         11    1    4    4    0    0 -0.20041005184E+02 -0.65507179839E+01 -0.51879665440E+01  0.21713332126E+02  0.51100000000E-03 0. -1.
        -11    1    4    4    0    0 -0.98480951379E+01 -0.62044520735E+01  0.91685912003E+01  0.14816992550E+02  0.51100000000E-03 0.  1.
         12    1    4    4    0    0 -0.41396578672E+01  0.59588132503E+01 -0.16294404466E+02  0.17836811361E+02  0.00000000000E+00 0. -1.
</event>
<event>
 8    1  0.1253488E-006  0.9118800E+02  0.7816164E-02  0.1184000E+00
        -11   -1    0    0    0    0  0.00000000000E+00  0.00000000000E+00  0.45593999997E+02  0.45594000000E+02  0.51100000000E-03 0. -1.
         11   -1    0    0    0    0 -0.00000000000E+00 -0.00000000000E+00 -0.45593999997E+02  0.45594000000E+02  0.51100000000E-03 0.  1.
         23    2    1    2    0    0  0.00000000000E+00  0.00000000000E+00  0.00000000000E+00  0.91188000000E+02  0.91188000000E+02 0.  0.
    9900012    2    3    3    0    0 -0.16352537646E+02 -0.32890646577E+02  0.25649368801E+01  0.54367095328E+02  0.40000025418E+02 0.  0.
        -12    1    3    3    0    0  0.16352537646E+02  0.32890646577E+02 -0.25649368801E+01  0.36820904672E+02  0.00000000000E+00 0.  1.
         11    1    4    4    0    0 -0.11067461335E+02 -0.91505644182E+01 -0.35614973379E-01  0.14360459542E+02  0.51100000000E-03 0. -1.
        -11    1    4    4    0    0 -0.65909934937E+01 -0.31412875569E+02  0.28189765856E+01  0.32220437241E+02  0.51100000000E-03 0.  1.
        -12    1    4    4    0    0  0.13059171825E+01  0.76727934108E+01 -0.21842473215E+00  0.77861985446E+01  0.00000000000E+00 0.  1.
</event>
<event>
 8    1  0.1253488E-006  0.9118800E+02  0.7816164E-02  0.1184000E+00
        -11   -1    0    0    0    0  0.00000000000E+00  0.00000000000E+00  0.45593999997E+02  0.45594000000E+02  0.51100000000E-03 0. -1.
         11   -1    0    0    0    0 -0.00000000000E+00 -0.00000000000E+00 -0.45593999997E+02  0.45594000000E+02  0.51100000000E-03 0.  1.
         23    2    1    2    0    0 -0.17763568394E-14  0.00000000000E+00  0.00000000000E+00  0.91188000000E+02  0.91188000000E+02 0.  0.
    9900012    2    3    3    0    0 -0.15507018042E+02 -0.10683459695E+02 -0.31641361104E+02  0.54367086756E+02  0.40000005878E+02 0.  0.
         12    1    3    3    0    0  0.15507018042E+02  0.10683459695E+02  0.31641361104E+02  0.36820913244E+02  0.00000000000E+00 0. -1.
         11    1    4    4    0    0 -0.25739553137E+01 -0.92583141011E+01  0.23696843688E+01  0.98973243971E+01  0.51100000000E-03 0. -1.
        -11    1    4    4    0    0  0.41215276217E+01  0.76950870579E+01 -0.66988326350E+01  0.11003440993E+02  0.51100000000E-03 0.  1.
        -12    1    4    4    0    0 -0.17054590350E+02 -0.91202326523E+01 -0.27312212838E+02  0.33466321365E+02  0.00000000000E+00 0.  1.
</event>
<event>
 8    1  0.1253488E-006  0.9118800E+02  0.7816164E-02  0.1184000E+00
        -11   -1    0    0    0    0  0.00000000000E+00  0.00000000000E+00  0.45593999997E+02  0.45594000000E+02  0.51100000000E-03 0.  1.
         11   -1    0    0    0    0 -0.00000000000E+00 -0.00000000000E+00 -0.45593999997E+02  0.45594000000E+02  0.51100000000E-03 0. -1.
         23    2    1    2    0    0 -0.35527136788E-14  0.88817841970E-15 -0.71054273576E-14  0.91188000000E+02  0.91188000000E+02 0.  0.
    9900012    2    3    3    0    0  0.23595391833E+02 -0.16011445717E+01  0.28221847514E+02  0.54367097555E+02  0.40000030497E+02 0.  0.
         12    1    3    3    0    0 -0.23595391833E+02  0.16011445717E+01 -0.28221847514E+02  0.36820902445E+02  0.00000000000E+00 0. -1.
         11    1    4    4    0    0  0.11772175617E+00 -0.85083551411E+01 -0.69416236141E+01  0.10981443634E+02  0.51100000000E-03 0. -1.
        -11    1    4    4    0    0  0.17510340965E+02  0.25552836314E+01  0.27815817891E+02  0.32967578624E+02  0.51100000000E-03 0.  1.
         12    1    4    4    0    0  0.59673291123E+01  0.43519269379E+01  0.73476532380E+01  0.10418075298E+02  0.00000000000E+00 0. -1.
</event>
<event>
 8    1  0.1253488E-006  0.9118800E+02  0.7816164E-02  0.1184000E+00
        -11   -1    0    0    0    0  0.00000000000E+00  0.00000000000E+00  0.45593999997E+02  0.45594000000E+02  0.51100000000E-03 0.  1.
         11   -1    0    0    0    0 -0.00000000000E+00 -0.00000000000E+00 -0.45593999997E+02  0.45594000000E+02  0.51100000000E-03 0. -1.
         23    2    1    2    0    0  0.00000000000E+00  0.44408920985E-15  0.00000000000E+00  0.91188000000E+02  0.91188000000E+02 0.  0.
    9900012    2    3    3    0    0 -0.45585514844E+01  0.32520039450E+01  0.36392627991E+02  0.54367091627E+02  0.40000016982E+02 0.  0.
         12    1    3    3    0    0  0.45585514844E+01 -0.32520039450E+01 -0.36392627991E+02  0.36820908373E+02  0.00000000000E+00 0. -1.
         11    1    4    4    0    0  0.57416148736E+01  0.33028748148E+01 -0.21464009216E+01  0.69629132248E+01  0.51100000000E-03 0. -1.
        -11    1    4    4    0    0 -0.11283597356E+01 -0.10423406229E+02  0.28311458546E+02  0.30190383873E+02  0.51100000000E-03 0.  1.
        -12    1    4    4    0    0 -0.91718066224E+01  0.10372535359E+02  0.10227570367E+02  0.17213794530E+02  0.00000000000E+00 0.  1.
</event>
<event>
 8    1  0.1253488E-006  0.9118800E+02  0.7816164E-02  0.1184000E+00
        -11   -1    0    0    0    0  0.00000000000E+00  0.00000000000E+00  0.45593999997E+02  0.45594000000E+02  0.51100000000E-03 0.  1.
         11   -1    0    0    0    0 -0.00000000000E+00 -0.00000000000E+00 -0.45593999997E+02  0.45594000000E+02  0.51100000000E-03 0. -1.
         23    2    1    2    0    0  0.00000000000E+00  0.00000000000E+00  0.00000000000E+00  0.91188000000E+02  0.91188000000E+02 0.  0.
    9900012    2    3    3    0    0  0.92791503179E+01  0.67172061817E+01 -0.34993629465E+02  0.54367114722E+02  0.40000069631E+02 0.  0.
        -12    1    3    3    0    0 -0.92791503179E+01 -0.67172061817E+01  0.34993629465E+02  0.36820885278E+02  0.00000000000E+00 0.  1.
         11    1    4    4    0    0  0.10514766619E+02  0.80366817947E+01 -0.40766968761E+02  0.42861338214E+02  0.51100000000E-03 0. -1.
        -11    1    4    4    0    0 -0.52853711122E+01 -0.84025698249E-01  0.48464637035E+01  0.71715004568E+01  0.51100000000E-03 0.  1.
        -12    1    4    4    0    0  0.40497548110E+01 -0.12354499147E+01  0.92687559171E+00  0.43342760507E+01  0.00000000000E+00 0.  1.
</event>
<event>
 8    1  0.1253488E-006  0.9118800E+02  0.7816164E-02  0.1184000E+00
        -11   -1    0    0    0    0  0.00000000000E+00  0.00000000000E+00  0.45593999997E+02  0.45594000000E+02  0.51100000000E-03 0. -1.
         11   -1    0    0    0    0 -0.00000000000E+00 -0.00000000000E+00 -0.45593999997E+02  0.45594000000E+02  0.51100000000E-03 0.  1.
         23    2    1    2    0    0  0.17763568394E-14  0.00000000000E+00  0.00000000000E+00  0.91188000000E+02  0.91188000000E+02 0.  0.
    9900012    2    3    3    0    0 -0.11779372144E+02  0.17664396833E+02  0.30083138458E+02  0.54367085521E+02  0.40000003062E+02 0.  0.
        -12    1    3    3    0    0  0.11779372144E+02 -0.17664396833E+02 -0.30083138458E+02  0.36820914479E+02  0.00000000000E+00 0.  1.
         11    1    4    4    0    0  0.86872283466E+01 -0.14231928091E+01  0.78915393493E+01  0.11822428163E+02  0.51100000000E-03 0.  1.
        -11    1    4    4    0    0 -0.38061468693E+01 -0.65989462974E-01  0.15956802368E+02  0.16404592365E+02  0.51100000000E-03 0. -1.
         12    1    4    4    0    0 -0.16660453621E+02  0.19153579105E+02  0.62347967408E+01  0.26140064992E+02  0.00000000000E+00 0. -1.
</event>
<event>
 8    1  0.1253488E-006  0.9118800E+02  0.7816164E-02  0.1184000E+00
        -11   -1    0    0    0    0  0.00000000000E+00  0.00000000000E+00  0.45593999997E+02  0.45594000000E+02  0.51100000000E-03 0. -1.
         11   -1    0    0    0    0 -0.00000000000E+00 -0.00000000000E+00 -0.45593999997E+02  0.45594000000E+02  0.51100000000E-03 0.  1.
         23    2    1    2    0    0 -0.17763568394E-14  0.00000000000E+00  0.00000000000E+00  0.91188000000E+02  0.91188000000E+02 0.  0.
    9900012    2    3    3    0    0  0.15925087151E+02  0.61328799940E+01  0.32627563865E+02  0.54367101837E+02  0.40000040258E+02 0.  0.
        -12    1    3    3    0    0 -0.15925087151E+02 -0.61328799940E+01 -0.32627563865E+02  0.36820898163E+02  0.00000000000E+00 0.  1.
         11    1    4    4    0    0  0.38837137827E+01 -0.76601350179E+00  0.19222293512E+02  0.19625661200E+02  0.51100000000E-03 0. -1.
        -11    1    4    4    0    0 -0.77840777089E+00  0.62501075506E+01  0.19528863272E+02  0.20519411882E+02  0.51100000000E-03 0.  1.
        -12    1    4    4    0    0  0.12819781139E+02  0.64878594518E+00 -0.61235929188E+01  0.14222028754E+02  0.00000000000E+00 0.  1.
</event>
<event>
 8    1  0.1253488E-006  0.9118800E+02  0.7816164E-02  0.1184000E+00
        -11   -1    0    0    0    0  0.00000000000E+00  0.00000000000E+00  0.45593999997E+02  0.45594000000E+02  0.51100000000E-03 0.  1.
         11   -1    0    0    0    0 -0.00000000000E+00 -0.00000000000E+00 -0.45593999997E+02  0.45594000000E+02  0.51100000000E-03 0. -1.
         23    2    1    2    0    0  0.35527136788E-14  0.00000000000E+00  0.88817841970E-15  0.91188000000E+02  0.91188000000E+02 0.  0.
    9900012    2    3    3    0    0 -0.22915619573E+02 -0.27866013911E+02 -0.73579914661E+01  0.54367076734E+02  0.39999983031E+02 0.  0.
        -12    1    3    3    0    0  0.22915619573E+02  0.27866013911E+02  0.73579914661E+01  0.36820923266E+02  0.00000000000E+00 0.  1.
         11    1    4    4    0    0 -0.75444522118E+01  0.37249123393E+01 -0.37862758181E+01  0.92265711910E+01  0.51100000000E-03 0. -1.
        -11    1    4    4    0    0  0.67203271196E+01 -0.87933472816E+01  0.51674610735E+01  0.12214270638E+02  0.51100000000E-03 0.  1.
         12    1    4    4    0    0 -0.22091494481E+02 -0.22797578969E+02 -0.87391767215E+01  0.32926234905E+02  0.00000000000E+00 0. -1.
</event>
<event>
 8    1  0.1253488E-006  0.9118800E+02  0.7816164E-02  0.1184000E+00
        -11   -1    0    0    0    0  0.00000000000E+00  0.00000000000E+00  0.45593999997E+02  0.45594000000E+02  0.51100000000E-03 0.  1.
         11   -1    0    0    0    0 -0.00000000000E+00 -0.00000000000E+00 -0.45593999997E+02  0.45594000000E+02  0.51100000000E-03 0. -1.
         23    2    1    2    0    0  0.00000000000E+00  0.00000000000E+00  0.00000000000E+00  0.91188000000E+02  0.91188000000E+02 0.  0.
    9900012    2    3    3    0    0  0.22533324179E+02  0.17554800166E+02 -0.23234810441E+02  0.54367107511E+02  0.40000053194E+02 0.  0.
        -12    1    3    3    0    0 -0.22533324179E+02 -0.17554800166E+02  0.23234810441E+02  0.36820892489E+02  0.00000000000E+00 0.  1.
         11    1    4    4    0    0  0.11123949295E+02  0.98188262036E+01 -0.17095478756E+02  0.22636408507E+02  0.51100000000E-03 0. -1.
        -11    1    4    4    0    0  0.19772901651E+02  0.10389150168E+02 -0.49269201648E+01  0.22873054529E+02  0.51100000000E-03 0.  1.
        -12    1    4    4    0    0 -0.83635267670E+01 -0.26531762052E+01 -0.12124115203E+01  0.88576444755E+01  0.00000000000E+00 0.  1.
</event>
<event>
 8    1  0.1253488E-006  0.9118800E+02  0.7816164E-02  0.1184000E+00
        -11   -1    0    0    0    0  0.00000000000E+00  0.00000000000E+00  0.45593999997E+02  0.45594000000E+02  0.51100000000E-03 0. -1.
         11   -1    0    0    0    0 -0.00000000000E+00 -0.00000000000E+00 -0.45593999997E+02  0.45594000000E+02  0.51100000000E-03 0.  1.
         23    2    1    2    0    0 -0.35527136788E-14 -0.35527136788E-14 -0.17763568394E-14  0.91188000000E+02  0.91188000000E+02 0.  0.
    9900012    2    3    3    0    0  0.23687388899E+02 -0.28020738004E+02  0.30864061210E+01  0.54367081301E+02  0.39999993441E+02 0.  0.
        -12    1    3    3    0    0 -0.23687388899E+02  0.28020738004E+02 -0.30864061210E+01  0.36820918699E+02  0.00000000000E+00 0.  1.
         11    1    4    4    0    0  0.10568084671E+02  0.28173488902E+01  0.98607315476E+01  0.14726027818E+02  0.51100000000E-03 0. -1.
        -11    1    4    4    0    0  0.89765672594E+01 -0.32366990000E+02 -0.88889499733E+01  0.34744988607E+02  0.51100000000E-03 0.  1.
        -12    1    4    4    0    0  0.41427369679E+01  0.15289031054E+01  0.21146245467E+01  0.48960648754E+01  0.00000000000E+00 0.  1.
</event>
<event>
 8    1  0.1253488E-006  0.9118800E+02  0.7816164E-02  0.1184000E+00
        -11   -1    0    0    0    0  0.00000000000E+00  0.00000000000E+00  0.45593999997E+02  0.45594000000E+02  0.51100000000E-03 0.  1.
         11   -1    0    0    0    0 -0.00000000000E+00 -0.00000000000E+00 -0.45593999997E+02  0.45594000000E+02  0.51100000000E-03 0. -1.
         23    2    1    2    0    0 -0.17763568394E-14  0.00000000000E+00  0.17763568394E-14  0.91188000000E+02  0.91188000000E+02 0.  0.
    9900012    2    3    3    0    0 -0.84573690091E+01 -0.33314782589E+02  0.13205206921E+02  0.54367091275E+02  0.40000016179E+02 0.  0.
        -12    1    3    3    0    0  0.84573690091E+01  0.33314782589E+02 -0.13205206921E+02  0.36820908725E+02  0.00000000000E+00 0.  1.
         11    1    4    4    0    0 -0.42986980955E+01  0.11411255991E+01  0.74170467667E+01  0.86483267717E+01  0.51100000000E-03 0.  1.
        -11    1    4    4    0    0 -0.49359007458E+01  0.29488358292E+01  0.59933835140E+01  0.83053835027E+01  0.51100000000E-03 0. -1.
         12    1    4    4    0    0  0.77722983224E+00 -0.37404744018E+02 -0.20522336006E+00  0.37413381000E+02  0.00000000000E+00 0. -1.
</event>
<event>
 8    1  0.1253488E-006  0.9118800E+02  0.7816164E-02  0.1184000E+00
        -11   -1    0    0    0    0  0.00000000000E+00  0.00000000000E+00  0.45593999997E+02  0.45594000000E+02  0.51100000000E-03 0.  1.
         11   -1    0    0    0    0 -0.00000000000E+00 -0.00000000000E+00 -0.45593999997E+02  0.45594000000E+02  0.51100000000E-03 0. -1.
         23    2    1    2    0    0  0.00000000000E+00  0.22204460493E-14 -0.17763568394E-14  0.91188000000E+02  0.91188000000E+02 0.  0.
    9900012    2    3    3    0    0  0.34061801935E+02 -0.14335511443E+01 -0.13911070592E+02  0.54367091470E+02  0.40000016625E+02 0.  0.
        -12    1    3    3    0    0 -0.34061801935E+02  0.14335511443E+01  0.13911070592E+02  0.36820908530E+02  0.00000000000E+00 0.  1.
         11    1    4    4    0    0  0.24751544144E+02 -0.14466665473E+02 -0.68523567057E+01  0.29476738966E+02  0.51100000000E-03 0. -1.
        -11    1    4    4    0    0  0.47177928408E+01  0.30994764657E+01 -0.11709632644E+02  0.12999223845E+02  0.51100000000E-03 0.  1.
        -12    1    4    4    0    0  0.45924649504E+01  0.99336378626E+01  0.46509187574E+01  0.11891128659E+02  0.00000000000E+00 0.  1.
</event>
<event>
 8    1  0.1253488E-006  0.9118800E+02  0.7816164E-02  0.1184000E+00
        -11   -1    0    0    0    0  0.00000000000E+00  0.00000000000E+00  0.45593999997E+02  0.45594000000E+02  0.51100000000E-03 0. -1.
         11   -1    0    0    0    0 -0.00000000000E+00 -0.00000000000E+00 -0.45593999997E+02  0.45594000000E+02  0.51100000000E-03 0.  1.
         23    2    1    2    0    0 -0.17763568394E-14  0.00000000000E+00 -0.15543122345E-14  0.91188000000E+02  0.91188000000E+02 0.  0.
    9900012    2    3    3    0    0  0.12239647036E+02  0.34686295155E+02  0.16827356228E+01  0.54367087052E+02  0.40000006553E+02 0.  0.
         12    1    3    3    0    0 -0.12239647036E+02 -0.34686295155E+02 -0.16827356228E+01  0.36820912948E+02  0.00000000000E+00 0. -1.
         11    1    4    4    0    0  0.85390966265E+01  0.14189091102E+02  0.10560877265E+02  0.19641247577E+02  0.51100000000E-03 0.  1.
        -11    1    4    4    0    0  0.76365065612E+00 -0.40350134438E+01  0.49343303006E+01  0.64196660032E+01  0.51100000000E-03 0. -1.
         12    1    4    4    0    0  0.29368997535E+01  0.24532217497E+02 -0.13812471943E+02  0.28306173472E+02  0.00000000000E+00 0. -1.
</event>
<event>
 8    1  0.1253488E-006  0.9118800E+02  0.7816164E-02  0.1184000E+00
        -11   -1    0    0    0    0  0.00000000000E+00  0.00000000000E+00  0.45593999997E+02  0.45594000000E+02  0.51100000000E-03 0. -1.
         11   -1    0    0    0    0 -0.00000000000E+00 -0.00000000000E+00 -0.45593999997E+02  0.45594000000E+02  0.51100000000E-03 0.  1.
         23    2    1    2    0    0  0.00000000000E+00  0.00000000000E+00 -0.35527136788E-14  0.91188000000E+02  0.91188000000E+02 0.  0.
    9900012    2    3    3    0    0  0.24326562476E+02  0.21491736764E+02  0.17381024544E+02  0.54367130846E+02  0.40000106389E+02 0.  0.
         12    1    3    3    0    0 -0.24326562476E+02 -0.21491736764E+02 -0.17381024544E+02  0.36820869154E+02  0.00000000000E+00 0. -1.
         11    1    4    4    0    0  0.11366216002E+02  0.28907724284E+01  0.53983461734E+01  0.12910831619E+02  0.51100000000E-03 0. -1.
        -11    1    4    4    0    0  0.15446151469E+02  0.18570014475E+02  0.21059143759E+02  0.32045538986E+02  0.51100000000E-03 0.  1.
         12    1    4    4    0    0 -0.24858049945E+01  0.30949860273E-01 -0.90764653878E+01  0.94107602403E+01  0.00000000000E+00 0. -1.
</event>
<event>
 8    1  0.1253488E-006  0.9118800E+02  0.7816164E-02  0.1184000E+00
        -11   -1    0    0    0    0  0.00000000000E+00  0.00000000000E+00  0.45593999997E+02  0.45594000000E+02  0.51100000000E-03 0. -1.
         11   -1    0    0    0    0 -0.00000000000E+00 -0.00000000000E+00 -0.45593999997E+02  0.45594000000E+02  0.51100000000E-03 0.  1.
         23    2    1    2    0    0  0.00000000000E+00  0.00000000000E+00 -0.88817841970E-15  0.91188000000E+02  0.91188000000E+02 0.  0.
    9900012    2    3    3    0    0 -0.33797649489E+02 -0.13200971690E+02 -0.62636966307E+01  0.54367073070E+02  0.39999974678E+02 0.  0.
        -12    1    3    3    0    0  0.33797649489E+02  0.13200971690E+02  0.62636966307E+01  0.36820926930E+02  0.00000000000E+00 0.  1.
         11    1    4    4    0    0 -0.14972488277E+02  0.15510530890E+01 -0.21210474654E+01  0.15201316176E+02  0.51100000000E-03 0.  1.
        -11    1    4    4    0    0 -0.11067164950E+02 -0.40678018935E+01 -0.17031104547E+02  0.20714431554E+02  0.51100000000E-03 0. -1.
         12    1    4    4    0    0 -0.77579962618E+01 -0.10684222885E+02  0.12888455381E+02  0.18451325339E+02  0.00000000000E+00 0. -1.
</event>
<event>
 8    1  0.1253488E-006  0.9118800E+02  0.7816164E-02  0.1184000E+00
        -11   -1    0    0    0    0  0.00000000000E+00  0.00000000000E+00  0.45593999997E+02  0.45594000000E+02  0.51100000000E-03 0.  1.
         11   -1    0    0    0    0 -0.00000000000E+00 -0.00000000000E+00 -0.45593999997E+02  0.45594000000E+02  0.51100000000E-03 0. -1.
         23    2    1    2    0    0  0.71054273576E-14  0.88817841970E-15  0.00000000000E+00  0.91188000000E+02  0.91188000000E+02 0.  0.
    9900012    2    3    3    0    0  0.22645746274E+02  0.62789819768E+01 -0.28346507620E+02  0.54367082939E+02  0.39999997176E+02 0.  0.
        -12    1    3    3    0    0 -0.22645746274E+02 -0.62789819768E+01  0.28346507620E+02  0.36820917061E+02  0.00000000000E+00 0.  1.
         11    1    4    4    0    0  0.20810067861E+02 -0.89798120263E+01 -0.27111626248E+02  0.35337462083E+02  0.51100000000E-03 0. -1.
        -11    1    4    4    0    0 -0.19860565178E+01  0.40722331471E+01 -0.48800499597E+01  0.66590082721E+01  0.51100000000E-03 0.  1.
        -12    1    4    4    0    0  0.38217349310E+01  0.11186560856E+02  0.36451685877E+01  0.12370612584E+02  0.00000000000E+00 0.  1.
</event>
<event>
 8    1  0.1253488E-006  0.9118800E+02  0.7816164E-02  0.1184000E+00
        -11   -1    0    0    0    0  0.00000000000E+00  0.00000000000E+00  0.45593999997E+02  0.45594000000E+02  0.51100000000E-03 0.  1.
         11   -1    0    0    0    0 -0.00000000000E+00 -0.00000000000E+00 -0.45593999997E+02  0.45594000000E+02  0.51100000000E-03 0. -1.
         23    2    1    2    0    0  0.00000000000E+00  0.35527136788E-14  0.88817841970E-15  0.91188000000E+02  0.91188000000E+02 0.  0.
    9900012    2    3    3    0    0 -0.29937791083E+02 -0.20917674340E+02 -0.46860770136E+01  0.54367085393E+02  0.40000002770E+02 0.  0.
        -12    1    3    3    0    0  0.29937791083E+02  0.20917674340E+02  0.46860770136E+01  0.36820914607E+02  0.00000000000E+00 0.  1.
         11    1    4    4    0    0 -0.17875420938E+02 -0.72652256565E+01  0.26901574116E+01  0.19482071879E+02  0.51100000000E-03 0. -1.
        -11    1    4    4    0    0 -0.14143973857E+02 -0.11966124700E+01  0.69354441236E+01  0.15798236083E+02  0.51100000000E-03 0.  1.
        -12    1    4    4    0    0  0.20816037127E+01 -0.12455836214E+02 -0.14311678549E+02  0.19086777431E+02  0.00000000000E+00 0.  1.
</event>
<event>
 8    1  0.1253488E-006  0.9118800E+02  0.7816164E-02  0.1184000E+00
        -11   -1    0    0    0    0  0.00000000000E+00  0.00000000000E+00  0.45593999997E+02  0.45594000000E+02  0.51100000000E-03 0.  1.
         11   -1    0    0    0    0 -0.00000000000E+00 -0.00000000000E+00 -0.45593999997E+02  0.45594000000E+02  0.51100000000E-03 0. -1.
         23    2    1    2    0    0  0.00000000000E+00  0.17763568394E-14  0.00000000000E+00  0.91188000000E+02  0.91188000000E+02 0.  0.
    9900012    2    3    3    0    0  0.31459978489E+02  0.81879565982E+01  0.17291802520E+02  0.54367091345E+02  0.40000016339E+02 0.  0.
        -12    1    3    3    0    0 -0.31459978489E+02 -0.81879565982E+01 -0.17291802520E+02  0.36820908655E+02  0.00000000000E+00 0.  1.
         11    1    4    4    0    0  0.19812836144E+02 -0.15265994529E+01  0.38067115504E+01  0.20232894876E+02  0.51100000000E-03 0. -1.
        -11    1    4    4    0    0  0.54501381054E+01  0.18557653150E+02  0.39761417527E+01  0.19745890694E+02  0.51100000000E-03 0.  1.
        -12    1    4    4    0    0  0.61970042398E+01 -0.88430970991E+01  0.95089492169E+01  0.14388305775E+02  0.00000000000E+00 0.  1.
</event>
<event>
 8    1  0.1253488E-006  0.9118800E+02  0.7816164E-02  0.1184000E+00
        -11   -1    0    0    0    0  0.00000000000E+00  0.00000000000E+00  0.45593999997E+02  0.45594000000E+02  0.51100000000E-03 0.  1.
         11   -1    0    0    0    0 -0.00000000000E+00 -0.00000000000E+00 -0.45593999997E+02  0.45594000000E+02  0.51100000000E-03 0. -1.
         23    2    1    2    0    0  0.71054273576E-14  0.00000000000E+00  0.88817841970E-15  0.91188000000E+02  0.91188000000E+02 0.  0.
    9900012    2    3    3    0    0  0.36534559681E+02  0.29918842325E+01  0.34719361328E+01  0.54367085252E+02  0.40000002450E+02 0.  0.
         12    1    3    3    0    0 -0.36534559681E+02 -0.29918842325E+01 -0.34719361328E+01  0.36820914748E+02  0.00000000000E+00 0. -1.
         11    1    4    4    0    0  0.23555134954E+02  0.49400599888E+01 -0.92866553818E+01  0.25797103400E+02  0.51100000000E-03 0. -1.
        -11    1    4    4    0    0  0.14763959838E+02 -0.57724080245E+01  0.78192927202E+00  0.15871566342E+02  0.51100000000E-03 0.  1.
         12    1    4    4    0    0 -0.17845351109E+01  0.38242322683E+01  0.11976662243E+02  0.12698415510E+02  0.00000000000E+00 0. -1.
</event>
<event>
 8    1  0.1253488E-006  0.9118800E+02  0.7816164E-02  0.1184000E+00
        -11   -1    0    0    0    0  0.00000000000E+00  0.00000000000E+00  0.45593999997E+02  0.45594000000E+02  0.51100000000E-03 0.  1.
         11   -1    0    0    0    0 -0.00000000000E+00 -0.00000000000E+00 -0.45593999997E+02  0.45594000000E+02  0.51100000000E-03 0. -1.
         23    2    1    2    0    0  0.00000000000E+00 -0.35527136788E-14 -0.35527136788E-14  0.91188000000E+02  0.91188000000E+02 0.  0.
    9900012    2    3    3    0    0 -0.18819529901E+02  0.17156363825E+02 -0.26594460276E+02  0.54367070588E+02  0.39999969019E+02 0.  0.
        -12    1    3    3    0    0  0.18819529901E+02 -0.17156363825E+02  0.26594460276E+02  0.36820929412E+02  0.00000000000E+00 0.  1.
         11    1    4    4    0    0 -0.63594470431E+01  0.18946172207E+02 -0.39040471598E+01  0.20362750121E+02  0.51100000000E-03 0. -1.
        -11    1    4    4    0    0  0.20639217837E+01  0.77035497326E+01 -0.71651904672E+01  0.10721212912E+02  0.51100000000E-03 0.  1.
         12    1    4    4    0    0 -0.14524004641E+02 -0.94933581146E+01 -0.15525222649E+02  0.23283107555E+02  0.00000000000E+00 0. -1.
</event>
<event>
 8    1  0.1253488E-006  0.9118800E+02  0.7816164E-02  0.1184000E+00
        -11   -1    0    0    0    0  0.00000000000E+00  0.00000000000E+00  0.45593999997E+02  0.45594000000E+02  0.51100000000E-03 0.  1.
         11   -1    0    0    0    0 -0.00000000000E+00 -0.00000000000E+00 -0.45593999997E+02  0.45594000000E+02  0.51100000000E-03 0. -1.
         23    2    1    2    0    0 -0.35527136788E-14  0.00000000000E+00 -0.35527136788E-14  0.91188000000E+02  0.91188000000E+02 0.  0.
    9900012    2    3    3    0    0  0.13756128475E+02 -0.13926012966E+02  0.31186768182E+02  0.54367089944E+02  0.40000013145E+02 0.  0.
         12    1    3    3    0    0 -0.13756128475E+02  0.13926012966E+02 -0.31186768182E+02  0.36820910056E+02  0.00000000000E+00 0. -1.
         11    1    4    4    0    0 -0.65064608940E+01  0.23736466334E+01  0.13829504708E+02  0.15466849467E+02  0.51100000000E-03 0.  1.
        -11    1    4    4    0    0  0.45303440652E+01  0.18883386419E+01 -0.43092008166E+01  0.65313897537E+01  0.51100000000E-03 0. -1.
        -12    1    4    4    0    0  0.15732245304E+02 -0.18187998241E+02  0.21666464290E+02  0.32368850723E+02  0.00000000000E+00 0.  1.
</event>
<event>
 8    1  0.1253488E-006  0.9118800E+02  0.7816164E-02  0.1184000E+00
        -11   -1    0    0    0    0  0.00000000000E+00  0.00000000000E+00  0.45593999997E+02  0.45594000000E+02  0.51100000000E-03 0.  1.
         11   -1    0    0    0    0 -0.00000000000E+00 -0.00000000000E+00 -0.45593999997E+02  0.45594000000E+02  0.51100000000E-03 0. -1.
         23    2    1    2    0    0  0.00000000000E+00  0.00000000000E+00  0.00000000000E+00  0.91188000000E+02  0.91188000000E+02 0.  0.
    9900012    2    3    3    0    0  0.14570822149E+02 -0.26381566900E+02  0.21153831731E+02  0.54367074875E+02  0.39999978791E+02 0.  0.
        -12    1    3    3    0    0 -0.14570822149E+02  0.26381566900E+02 -0.21153831731E+02  0.36820925125E+02  0.00000000000E+00 0.  1.
         11    1    4    4    0    0 -0.95813295476E+01 -0.11027259942E+02 -0.16542849693E+01  0.14701666462E+02  0.51100000000E-03 0. -1.
        -11    1    4    4    0    0 -0.14106173876E+01  0.12983538292E+01  0.17432048300E+01  0.25912019258E+01  0.51100000000E-03 0.  1.
        -12    1    4    4    0    0  0.25562769084E+02 -0.16652660787E+02  0.21064911870E+02  0.37074206487E+02  0.00000000000E+00 0.  1.
</event>
<event>
 8    1  0.1253488E-006  0.9118800E+02  0.7816164E-02  0.1184000E+00
        -11   -1    0    0    0    0  0.00000000000E+00  0.00000000000E+00  0.45593999997E+02  0.45594000000E+02  0.51100000000E-03 0. -1.
         11   -1    0    0    0    0 -0.00000000000E+00 -0.00000000000E+00 -0.45593999997E+02  0.45594000000E+02  0.51100000000E-03 0.  1.
         23    2    1    2    0    0  0.27755575616E-14  0.00000000000E+00  0.71054273576E-14  0.91188000000E+02  0.91188000000E+02 0.  0.
    9900012    2    3    3    0    0 -0.59464605179E+00  0.17563369362E+02  0.32356673485E+02  0.54367083848E+02  0.39999999248E+02 0.  0.
        -12    1    3    3    0    0  0.59464605179E+00 -0.17563369362E+02 -0.32356673485E+02  0.36820916152E+02  0.00000000000E+00 0.  1.
         11    1    4    4    0    0  0.13119197435E+02  0.86274194994E+01  0.17407270077E+01  0.15797969469E+02  0.51100000000E-03 0. -1.
        -11    1    4    4    0    0 -0.23795120431E+01 -0.44587892894E+01  0.30826262016E+01  0.59199209497E+01  0.51100000000E-03 0.  1.
         12    1    4    4    0    0 -0.11334331444E+02  0.13394739152E+02  0.27533320275E+02  0.32649193430E+02  0.00000000000E+00 0. -1.
</event>
<event>
 8    1  0.1253488E-006  0.9118800E+02  0.7816164E-02  0.1184000E+00
        -11   -1    0    0    0    0  0.00000000000E+00  0.00000000000E+00  0.45593999997E+02  0.45594000000E+02  0.51100000000E-03 0.  1.
         11   -1    0    0    0    0 -0.00000000000E+00 -0.00000000000E+00 -0.45593999997E+02  0.45594000000E+02  0.51100000000E-03 0. -1.
         23    2    1    2    0    0  0.00000000000E+00  0.00000000000E+00  0.00000000000E+00  0.91188000000E+02  0.91188000000E+02 0.  0.
    9900012    2    3    3    0    0  0.16805133774E+02  0.16458776350E+02  0.28328009787E+02  0.54367082323E+02  0.39999995771E+02 0.  0.
         12    1    3    3    0    0 -0.16805133774E+02 -0.16458776350E+02 -0.28328009787E+02  0.36820917677E+02  0.00000000000E+00 0. -1.
         11    1    4    4    0    0 -0.11129301555E+01  0.35870069917E+00 -0.62360984150E+01  0.63447776498E+01  0.51100000000E-03 0. -1.
        -11    1    4    4    0    0  0.13382857667E+02  0.58067945498E+00  0.49478912066E+01  0.14280045364E+02  0.51100000000E-03 0.  1.
         12    1    4    4    0    0  0.45352062626E+01  0.15519396196E+02  0.29616216996E+02  0.33742259309E+02  0.00000000000E+00 0. -1.
</event>
<event>
 8    1  0.1253488E-006  0.9118800E+02  0.7816164E-02  0.1184000E+00
        -11   -1    0    0    0    0  0.00000000000E+00  0.00000000000E+00  0.45593999997E+02  0.45594000000E+02  0.51100000000E-03 0. -1.
         11   -1    0    0    0    0 -0.00000000000E+00 -0.00000000000E+00 -0.45593999997E+02  0.45594000000E+02  0.51100000000E-03 0.  1.
         23    2    1    2    0    0  0.35527136788E-14 -0.31086244690E-14  0.00000000000E+00  0.91188000000E+02  0.91188000000E+02 0.  0.
    9900012    2    3    3    0    0  0.29876583604E+02 -0.15877531802E+01  0.21462759005E+02  0.54367065301E+02  0.39999956966E+02 0.  0.
         12    1    3    3    0    0 -0.29876583604E+02  0.15877531802E+01 -0.21462759005E+02  0.36820934699E+02  0.00000000000E+00 0. -1.
         11    1    4    4    0    0  0.26752715608E+00  0.31743874303E+01 -0.10463457328E+01  0.33530800752E+01  0.51100000000E-03 0. -1.
        -11    1    4    4    0    0  0.21622007442E+02 -0.18514626610E+02  0.20288654178E+02  0.34956145281E+02  0.51100000000E-03 0.  1.
        -12    1    4    4    0    0  0.79870490062E+01  0.13752485999E+02  0.22204505606E+01  0.16057839944E+02  0.00000000000E+00 0.  1.
</event>
<event>
 8    1  0.1253488E-006  0.9118800E+02  0.7816164E-02  0.1184000E+00
        -11   -1    0    0    0    0  0.00000000000E+00  0.00000000000E+00  0.45593999997E+02  0.45594000000E+02  0.51100000000E-03 0.  1.
         11   -1    0    0    0    0 -0.00000000000E+00 -0.00000000000E+00 -0.45593999997E+02  0.45594000000E+02  0.51100000000E-03 0. -1.
         23    2    1    2    0    0  0.00000000000E+00  0.35527136788E-14  0.00000000000E+00  0.91188000000E+02  0.91188000000E+02 0.  0.
    9900012    2    3    3    0    0 -0.52693164161E+01 -0.28641465015E+02 -0.22531801575E+02  0.54367064435E+02  0.39999954992E+02 0.  0.
        -12    1    3    3    0    0  0.52693164161E+01  0.28641465015E+02  0.22531801575E+02  0.36820935565E+02  0.00000000000E+00 0.  1.
         11    1    4    4    0    0 -0.26740995176E+01 -0.12089467119E+02 -0.17294595362E+02  0.21269909554E+02  0.51100000000E-03 0. -1.
        -11    1    4    4    0    0  0.76531877878E+01 -0.46777212442E+01 -0.12843013299E+02  0.15665099751E+02  0.51100000000E-03 0.  1.
         12    1    4    4    0    0 -0.10248404686E+02 -0.11874276652E+02  0.76058070858E+01  0.17432055130E+02  0.00000000000E+00 0. -1.
</event>
<event>
 8    1  0.1253488E-006  0.9118800E+02  0.7816164E-02  0.1184000E+00
        -11   -1    0    0    0    0  0.00000000000E+00  0.00000000000E+00  0.45593999997E+02  0.45594000000E+02  0.51100000000E-03 0. -1.
         11   -1    0    0    0    0 -0.00000000000E+00 -0.00000000000E+00 -0.45593999997E+02  0.45594000000E+02  0.51100000000E-03 0.  1.
         23    2    1    2    0    0 -0.83266726847E-15  0.71054273576E-14 -0.17763568394E-14  0.91188000000E+02  0.91188000000E+02 0.  0.
    9900012    2    3    3    0    0 -0.48874595086E+00 -0.35288773664E+02  0.10499720107E+02  0.54367074677E+02  0.39999978342E+02 0.  0.
        -12    1    3    3    0    0  0.48874595086E+00  0.35288773664E+02 -0.10499720107E+02  0.36820925323E+02  0.00000000000E+00 0.  1.
         11    1    4    4    0    0  0.66487928150E+01  0.40558846448E+00  0.13271694921E+02  0.14849539866E+02  0.51100000000E-03 0. -1.
        -11    1    4    4    0    0  0.11395248872E+01 -0.67144338779E+01  0.49331636523E+01  0.84094139600E+01  0.51100000000E-03 0.  1.
        -12    1    4    4    0    0 -0.82770636530E+01 -0.28979928250E+02 -0.77051384661E+01  0.31108120851E+02  0.00000000000E+00 0.  1.
</event>
<event>
 8    1  0.1253488E-006  0.9118800E+02  0.7816164E-02  0.1184000E+00
        -11   -1    0    0    0    0  0.00000000000E+00  0.00000000000E+00  0.45593999997E+02  0.45594000000E+02  0.51100000000E-03 0.  1.
         11   -1    0    0    0    0 -0.00000000000E+00 -0.00000000000E+00 -0.45593999997E+02  0.45594000000E+02  0.51100000000E-03 0. -1.
         23    2    1    2    0    0  0.00000000000E+00  0.88817841970E-15  0.00000000000E+00  0.91188000000E+02  0.91188000000E+02 0.  0.
    9900012    2    3    3    0    0  0.34898536751E+02  0.15404916560E+01  0.11640404084E+02  0.54367082179E+02  0.39999995444E+02 0.  0.
         12    1    3    3    0    0 -0.34898536751E+02 -0.15404916560E+01 -0.11640404084E+02  0.36820917821E+02  0.00000000000E+00 0. -1.
         11    1    4    4    0    0  0.15580152956E+02  0.35901025916E+01  0.31749733897E+01  0.16300627566E+02  0.51100000000E-03 0. -1.
        -11    1    4    4    0    0  0.10063491120E+02  0.14214009976E+02 -0.26418543560E+00  0.17417856565E+02  0.51100000000E-03 0.  1.
        -12    1    4    4    0    0  0.92548926744E+01 -0.16263620912E+02  0.87296161297E+01  0.20648598048E+02  0.00000000000E+00 0.  1.
</event>
<event>
 8    1  0.1253488E-006  0.9118800E+02  0.7816164E-02  0.1184000E+00
        -11   -1    0    0    0    0  0.00000000000E+00  0.00000000000E+00  0.45593999997E+02  0.45594000000E+02  0.51100000000E-03 0. -1.
         11   -1    0    0    0    0 -0.00000000000E+00 -0.00000000000E+00 -0.45593999997E+02  0.45594000000E+02  0.51100000000E-03 0.  1.
         23    2    1    2    0    0  0.11102230246E-14 -0.71054273576E-14  0.88817841970E-15  0.91188000000E+02  0.91188000000E+02 0.  0.
    9900012    2    3    3    0    0 -0.83618053456E+00 -0.36452696658E+02  0.51265686000E+01  0.54367082071E+02  0.39999995197E+02 0.  0.
        -12    1    3    3    0    0  0.83618053456E+00  0.36452696658E+02 -0.51265686000E+01  0.36820917929E+02  0.00000000000E+00 0.  1.
         11    1    4    4    0    0 -0.13177137513E+02 -0.27178121305E+02  0.80720594997E+01  0.31264122818E+02  0.51100000000E-03 0. -1.
        -11    1    4    4    0    0  0.59819624327E+01 -0.69443321037E+01 -0.98338474203E+01  0.13442922980E+02  0.51100000000E-03 0.  1.
         12    1    4    4    0    0  0.63589945460E+01 -0.23302432491E+01  0.68883565205E+01  0.96600362727E+01  0.00000000000E+00 0. -1.
</event>
<event>
 8    1  0.1253488E-006  0.9118800E+02  0.7816164E-02  0.1184000E+00
        -11   -1    0    0    0    0  0.00000000000E+00  0.00000000000E+00  0.45593999997E+02  0.45594000000E+02  0.51100000000E-03 0.  1.
         11   -1    0    0    0    0 -0.00000000000E+00 -0.00000000000E+00 -0.45593999997E+02  0.45594000000E+02  0.51100000000E-03 0. -1.
         23    2    1    2    0    0  0.00000000000E+00  0.35527136788E-14 -0.88817841970E-15  0.91188000000E+02  0.91188000000E+02 0.  0.
    9900012    2    3    3    0    0  0.18697548560E+02  0.31472209650E+02 -0.39598727308E+01  0.54367097044E+02  0.40000029332E+02 0.  0.
        -12    1    3    3    0    0 -0.18697548560E+02 -0.31472209650E+02  0.39598727308E+01  0.36820902956E+02  0.00000000000E+00 0.  1.
         11    1    4    4    0    0  0.40137001723E+01  0.23295218443E+02 -0.68854064407E+01  0.24620841040E+02  0.51100000000E-03 0. -1.
        -11    1    4    4    0    0  0.14361350232E+01  0.12667420170E+02 -0.49707293107E+01  0.13683353672E+02  0.51100000000E-03 0.  1.
        -12    1    4    4    0    0  0.13247713365E+02 -0.44904289626E+01  0.78962630206E+01  0.16062902333E+02  0.00000000000E+00 0.  1.
</event>
<event>
 8    1  0.1253488E-006  0.9118800E+02  0.7816164E-02  0.1184000E+00
        -11   -1    0    0    0    0  0.00000000000E+00  0.00000000000E+00  0.45593999997E+02  0.45594000000E+02  0.51100000000E-03 0. -1.
         11   -1    0    0    0    0 -0.00000000000E+00 -0.00000000000E+00 -0.45593999997E+02  0.45594000000E+02  0.51100000000E-03 0.  1.
         23    2    1    2    0    0  0.35527136788E-14 -0.35527136788E-14  0.00000000000E+00  0.91188000000E+02  0.91188000000E+02 0.  0.
    9900012    2    3    3    0    0 -0.29872204257E+02  0.16364577351E+02  0.13986770687E+02  0.54367112813E+02  0.40000065279E+02 0.  0.
        -12    1    3    3    0    0  0.29872204257E+02 -0.16364577351E+02 -0.13986770687E+02  0.36820887187E+02  0.00000000000E+00 0.  1.
         11    1    4    4    0    0  0.16088743710E+00 -0.70072924173E+01  0.57128544850E+01  0.90423856596E+01  0.51100000000E-03 0. -1.
        -11    1    4    4    0    0 -0.12644350146E+02  0.20843511538E+02  0.12287706784E+02  0.27300536664E+02  0.51100000000E-03 0.  1.
         12    1    4    4    0    0 -0.17388741548E+02  0.25283582297E+01 -0.40137905823E+01  0.18024190489E+02  0.00000000000E+00 0. -1.
</event>
<event>
 8    1  0.1253488E-006  0.9118800E+02  0.7816164E-02  0.1184000E+00
        -11   -1    0    0    0    0  0.00000000000E+00  0.00000000000E+00  0.45593999997E+02  0.45594000000E+02  0.51100000000E-03 0. -1.
         11   -1    0    0    0    0 -0.00000000000E+00 -0.00000000000E+00 -0.45593999997E+02  0.45594000000E+02  0.51100000000E-03 0.  1.
         23    2    1    2    0    0 -0.26645352591E-14  0.00000000000E+00  0.00000000000E+00  0.91188000000E+02  0.91188000000E+02 0.  0.
    9900012    2    3    3    0    0  0.77354749962E+01 -0.38338636438E+01  0.35794459051E+02  0.54367090415E+02  0.40000014220E+02 0.  0.
        -12    1    3    3    0    0 -0.77354749962E+01  0.38338636438E+01 -0.35794459051E+02  0.36820909585E+02  0.00000000000E+00 0.  1.
         11    1    4    4    0    0 -0.13459585492E+02  0.24213439206E+01  0.75473674612E+01  0.15620054541E+02  0.51100000000E-03 0. -1.
        -11    1    4    4    0    0  0.47938352808E+01 -0.70367650243E+01  0.38630156678E+01  0.93498560961E+01  0.51100000000E-03 0.  1.
         12    1    4    4    0    0  0.16401225207E+02  0.78155745986E+00  0.24384075922E+02  0.29397179779E+02  0.00000000000E+00 0. -1.
</event>
<event>
 8    1  0.1253488E-006  0.9118800E+02  0.7816164E-02  0.1184000E+00
        -11   -1    0    0    0    0  0.00000000000E+00  0.00000000000E+00  0.45593999997E+02  0.45594000000E+02  0.51100000000E-03 0. -1.
         11   -1    0    0    0    0 -0.00000000000E+00 -0.00000000000E+00 -0.45593999997E+02  0.45594000000E+02  0.51100000000E-03 0.  1.
         23    2    1    2    0    0  0.00000000000E+00  0.00000000000E+00 -0.35527136788E-14  0.91188000000E+02  0.91188000000E+02 0.  0.
    9900012    2    3    3    0    0 -0.20858103494E+02  0.17796102906E+02  0.24576761776E+02  0.54367095891E+02  0.40000026702E+02 0.  0.
        -12    1    3    3    0    0  0.20858103494E+02 -0.17796102906E+02 -0.24576761776E+02  0.36820904109E+02  0.00000000000E+00 0.  1.
         11    1    4    4    0    0  0.37574258547E+01  0.91680684377E+00 -0.27396709195E+01  0.47396815136E+01  0.51100000000E-03 0.  1.
        -11    1    4    4    0    0 -0.25590987477E+02  0.21605755249E+01  0.11948000396E+02  0.28325279175E+02  0.51100000000E-03 0. -1.
         12    1    4    4    0    0  0.97545812738E+00  0.14718720538E+02  0.15368432299E+02  0.21302135202E+02  0.00000000000E+00 0. -1.
</event>
<event>
 8    1  0.1253488E-006  0.9118800E+02  0.7816164E-02  0.1184000E+00
        -11   -1    0    0    0    0  0.00000000000E+00  0.00000000000E+00  0.45593999997E+02  0.45594000000E+02  0.51100000000E-03 0.  1.
         11   -1    0    0    0    0 -0.00000000000E+00 -0.00000000000E+00 -0.45593999997E+02  0.45594000000E+02  0.51100000000E-03 0. -1.
         23    2    1    2    0    0 -0.17763568394E-14  0.55511151231E-16  0.00000000000E+00  0.91188000000E+02  0.91188000000E+02 0.  0.
    9900012    2    3    3    0    0  0.12864060108E+02 -0.46598153343E+00 -0.34497479207E+02  0.54367119336E+02  0.40000080149E+02 0.  0.
        -12    1    3    3    0    0 -0.12864060108E+02  0.46598153343E+00  0.34497479207E+02  0.36820880664E+02  0.00000000000E+00 0.  1.
         11    1    4    4    0    0 -0.45877260100E+01 -0.96485304483E+00  0.47231697634E-01  0.46883261870E+01  0.51100000000E-03 0. -1.
        -11    1    4    4    0    0 -0.85825391369E+01 -0.99972120084E+00 -0.40148422014E+01  0.95277688196E+01  0.51100000000E-03 0.  1.
        -12    1    4    4    0    0  0.26034325255E+02  0.14985927122E+01 -0.30529868703E+02  0.40151024329E+02  0.00000000000E+00 0.  1.
</event>
<event>
 8    1  0.1253488E-006  0.9118800E+02  0.7816164E-02  0.1184000E+00
        -11   -1    0    0    0    0  0.00000000000E+00  0.00000000000E+00  0.45593999997E+02  0.45594000000E+02  0.51100000000E-03 0. -1.
         11   -1    0    0    0    0 -0.00000000000E+00 -0.00000000000E+00 -0.45593999997E+02  0.45594000000E+02  0.51100000000E-03 0.  1.
         23    2    1    2    0    0  0.33306690739E-15  0.00000000000E+00 -0.71054273576E-14  0.91188000000E+02  0.91188000000E+02 0.  0.
    9900012    2    3    3    0    0  0.75681070810E+00  0.27946316283E+02  0.23962658791E+02  0.54367104131E+02  0.40000045488E+02 0.  0.
        -12    1    3    3    0    0 -0.75681070810E+00 -0.27946316283E+02 -0.23962658791E+02  0.36820895869E+02  0.00000000000E+00 0.  1.
         11    1    4    4    0    0  0.45959651757E+01 -0.34623034903E+01  0.37085336775E+00  0.57661056040E+01  0.51100000000E-03 0.  1.
        -11    1    4    4    0    0 -0.63813746422E+01  0.31770756260E+01 -0.47108768954E+01  0.85444785237E+01  0.51100000000E-03 0. -1.
         12    1    4    4    0    0  0.25422201746E+01  0.28231544147E+02  0.28302682319E+02  0.40056520004E+02  0.00000000000E+00 0. -1.
</event>
<event>
 8    1  0.1253488E-006  0.9118800E+02  0.7816164E-02  0.1184000E+00
        -11   -1    0    0    0    0  0.00000000000E+00  0.00000000000E+00  0.45593999997E+02  0.45594000000E+02  0.51100000000E-03 0.  1.
         11   -1    0    0    0    0 -0.00000000000E+00 -0.00000000000E+00 -0.45593999997E+02  0.45594000000E+02  0.51100000000E-03 0. -1.
         23    2    1    2    0    0  0.00000000000E+00  0.00000000000E+00  0.00000000000E+00  0.91188000000E+02  0.91188000000E+02 0.  0.
    9900012    2    3    3    0    0  0.31708618607E+02  0.18138583302E+02 -0.46191281575E+01  0.54367067867E+02  0.39999962817E+02 0.  0.
         12    1    3    3    0    0 -0.31708618607E+02 -0.18138583302E+02  0.46191281575E+01  0.36820932133E+02  0.00000000000E+00 0. -1.
         11    1    4    4    0    0 -0.89391659323E+01  0.74670591017E+01  0.17963342846E+01  0.11785265221E+02  0.51100000000E-03 0. -1.
        -11    1    4    4    0    0  0.19263359059E+02  0.47719794525E+01 -0.18324750907E+01  0.19930046546E+02  0.51100000000E-03 0.  1.
         12    1    4    4    0    0  0.21384425481E+02  0.58995447482E+01 -0.45829873513E+01  0.22651756101E+02  0.00000000000E+00 0. -1.
</event>
<event>
 8    1  0.1253488E-006  0.9118800E+02  0.7816164E-02  0.1184000E+00
        -11   -1    0    0    0    0  0.00000000000E+00  0.00000000000E+00  0.45593999997E+02  0.45594000000E+02  0.51100000000E-03 0.  1.
         11   -1    0    0    0    0 -0.00000000000E+00 -0.00000000000E+00 -0.45593999997E+02  0.45594000000E+02  0.51100000000E-03 0. -1.
         23    2    1    2    0    0 -0.17763568394E-14  0.00000000000E+00  0.88817841970E-15  0.91188000000E+02  0.91188000000E+02 0.  0.
    9900012    2    3    3    0    0 -0.15808378849E+02 -0.32998733452E+02 -0.41182590063E+01  0.54367064264E+02  0.39999954602E+02 0.  0.
         12    1    3    3    0    0  0.15808378849E+02  0.32998733452E+02  0.41182590063E+01  0.36820935736E+02  0.00000000000E+00 0. -1.
         11    1    4    4    0    0  0.58362236414E+01  0.33595216110E+01  0.47412659485E+01  0.82357449513E+01  0.51100000000E-03 0. -1.
        -11    1    4    4    0    0 -0.22163236551E+02 -0.23807317462E+02 -0.45104697614E+01  0.32838114393E+02  0.51100000000E-03 0.  1.
        -12    1    4    4    0    0  0.51863406157E+00 -0.12550937601E+02 -0.43490551934E+01  0.13293204919E+02  0.00000000000E+00 0.  1.
</event>
<event>
 8    1  0.1253488E-006  0.9118800E+02  0.7816164E-02  0.1184000E+00
        -11   -1    0    0    0    0  0.00000000000E+00  0.00000000000E+00  0.45593999997E+02  0.45594000000E+02  0.51100000000E-03 0.  1.
         11   -1    0    0    0    0 -0.00000000000E+00 -0.00000000000E+00 -0.45593999997E+02  0.45594000000E+02  0.51100000000E-03 0. -1.
         23    2    1    2    0    0  0.17763568394E-14  0.17763568394E-14  0.35527136788E-14  0.91188000000E+02  0.91188000000E+02 0.  0.
    9900012    2    3    3    0    0 -0.15299186121E+02  0.13879486007E+02  0.30480721606E+02  0.54367087227E+02  0.40000006952E+02 0.  0.
         12    1    3    3    0    0  0.15299186121E+02 -0.13879486007E+02 -0.30480721606E+02  0.36820912773E+02  0.00000000000E+00 0. -1.
         11    1    4    4    0    0 -0.33585962325E+01  0.20591826068E+02  0.17682659607E+02  0.27349221570E+02  0.51100000000E-03 0. -1.
        -11    1    4    4    0    0  0.10655819388E+01  0.24751477528E+01  0.10606971531E+02  0.10943932867E+02  0.51100000000E-03 0.  1.
         12    1    4    4    0    0 -0.13006171827E+02 -0.91874878135E+01  0.21910904679E+01  0.16073932791E+02  0.00000000000E+00 0. -1.
</event>
<event>
 8    1  0.1253488E-006  0.9118800E+02  0.7816164E-02  0.1184000E+00
        -11   -1    0    0    0    0  0.00000000000E+00  0.00000000000E+00  0.45593999997E+02  0.45594000000E+02  0.51100000000E-03 0. -1.
         11   -1    0    0    0    0 -0.00000000000E+00 -0.00000000000E+00 -0.45593999997E+02  0.45594000000E+02  0.51100000000E-03 0.  1.
         23    2    1    2    0    0  0.88817841970E-15  0.44408920985E-15  0.00000000000E+00  0.91188000000E+02  0.91188000000E+02 0.  0.
    9900012    2    3    3    0    0 -0.58542078875E+01 -0.94182577143E+00  0.36340321018E+02  0.54367113027E+02  0.40000065768E+02 0.  0.
        -12    1    3    3    0    0  0.58542078875E+01  0.94182577143E+00 -0.36340321018E+02  0.36820886973E+02  0.00000000000E+00 0.  1.
         11    1    4    4    0    0  0.50390584717E+01 -0.63832403383E+01  0.20741754738E+02  0.22279099115E+02  0.51100000000E-03 0. -1.
        -11    1    4    4    0    0 -0.18912912681E+02  0.20201385559E+01  0.12817972480E+02  0.22936426152E+02  0.51100000000E-03 0.  1.
        -12    1    4    4    0    0  0.80196463214E+01  0.34212760109E+01  0.27805937996E+01  0.91515877607E+01  0.00000000000E+00 0.  1.
</event>
<event>
 8    1  0.1253488E-006  0.9118800E+02  0.7816164E-02  0.1184000E+00
        -11   -1    0    0    0    0  0.00000000000E+00  0.00000000000E+00  0.45593999997E+02  0.45594000000E+02  0.51100000000E-03 0. -1.
         11   -1    0    0    0    0 -0.00000000000E+00 -0.00000000000E+00 -0.45593999997E+02  0.45594000000E+02  0.51100000000E-03 0.  1.
         23    2    1    2    0    0  0.00000000000E+00  0.00000000000E+00  0.00000000000E+00  0.91188000000E+02  0.91188000000E+02 0.  0.
    9900012    2    3    3    0    0  0.33387678111E+02  0.91343647450E+01  0.12554170574E+02  0.54367070249E+02  0.39999968246E+02 0.  0.
         12    1    3    3    0    0 -0.33387678111E+02 -0.91343647450E+01 -0.12554170574E+02  0.36820929751E+02  0.00000000000E+00 0. -1.
         11    1    4    4    0    0  0.26605038539E+02 -0.39628627328E+01  0.15344407952E+02  0.30967454083E+02  0.51100000000E-03 0. -1.
        -11    1    4    4    0    0  0.10837154389E+01 -0.43947749011E+01  0.95312251363E+00  0.46256813953E+01  0.51100000000E-03 0.  1.
        -12    1    4    4    0    0  0.56989241328E+01  0.17492002379E+02 -0.37433598908E+01  0.18773934771E+02  0.00000000000E+00 0.  1.
</event>
<event>
 8    1  0.1253488E-006  0.9118800E+02  0.7816164E-02  0.1184000E+00
        -11   -1    0    0    0    0  0.00000000000E+00  0.00000000000E+00  0.45593999997E+02  0.45594000000E+02  0.51100000000E-03 0.  1.
         11   -1    0    0    0    0 -0.00000000000E+00 -0.00000000000E+00 -0.45593999997E+02  0.45594000000E+02  0.51100000000E-03 0. -1.
         23    2    1    2    0    0  0.00000000000E+00  0.00000000000E+00 -0.17763568394E-14  0.91188000000E+02  0.91188000000E+02 0.  0.
    9900012    2    3    3    0    0 -0.29670796560E+02 -0.17896779051E+02  0.12455198052E+02  0.54367043638E+02  0.39999907581E+02 0.  0.
        -12    1    3    3    0    0  0.29670796560E+02  0.17896779051E+02 -0.12455198052E+02  0.36820956362E+02  0.00000000000E+00 0.  1.
         11    1    4    4    0    0 -0.20432904294E+02 -0.18588273605E+02 -0.21795680418E+01  0.27708807456E+02  0.51100000000E-03 0. -1.
        -11    1    4    4    0    0  0.41535279778E+01  0.24008925756E+01  0.11972793438E+02  0.12898211612E+02  0.51100000000E-03 0.  1.
         12    1    4    4    0    0 -0.13391420244E+02 -0.17093980209E+01  0.26619726557E+01  0.13760024570E+02  0.00000000000E+00 0. -1.
</event>
<event>
 8    1  0.1253488E-006  0.9118800E+02  0.7816164E-02  0.1184000E+00
        -11   -1    0    0    0    0  0.00000000000E+00  0.00000000000E+00  0.45593999997E+02  0.45594000000E+02  0.51100000000E-03 0.  1.
         11   -1    0    0    0    0 -0.00000000000E+00 -0.00000000000E+00 -0.45593999997E+02  0.45594000000E+02  0.51100000000E-03 0. -1.
         23    2    1    2    0    0  0.71054273576E-14 -0.44408920985E-15 -0.71054273576E-14  0.91188000000E+02  0.91188000000E+02 0.  0.
    9900012    2    3    3    0    0 -0.28730320949E+02  0.34086473646E+01  0.22775623853E+02  0.54367092072E+02  0.40000017998E+02 0.  0.
         12    1    3    3    0    0  0.28730320949E+02 -0.34086473646E+01 -0.22775623853E+02  0.36820907928E+02  0.00000000000E+00 0. -1.
         11    1    4    4    0    0  0.79731507958E+01 -0.24123061455E+01  0.71089339853E+01  0.10951132235E+02  0.51100000000E-03 0. -1.
        -11    1    4    4    0    0 -0.19980199876E+01  0.23913993391E+01  0.67272574917E+01  0.74139644112E+01  0.51100000000E-03 0.  1.
        -12    1    4    4    0    0 -0.34705451757E+02  0.34295541710E+01  0.89394323763E+01  0.36001995427E+02  0.00000000000E+00 0.  1.
</event>
<event>
 8    1  0.1253488E-006  0.9118800E+02  0.7816164E-02  0.1184000E+00
        -11   -1    0    0    0    0  0.00000000000E+00  0.00000000000E+00  0.45593999997E+02  0.45594000000E+02  0.51100000000E-03 0.  1.
         11   -1    0    0    0    0 -0.00000000000E+00 -0.00000000000E+00 -0.45593999997E+02  0.45594000000E+02  0.51100000000E-03 0. -1.
         23    2    1    2    0    0  0.00000000000E+00  0.00000000000E+00  0.17763568394E-14  0.91188000000E+02  0.91188000000E+02 0.  0.
    9900012    2    3    3    0    0 -0.28499684970E+02 -0.19577021875E+02  0.12660477804E+02  0.54367088454E+02  0.40000009748E+02 0.  0.
         12    1    3    3    0    0  0.28499684970E+02  0.19577021875E+02 -0.12660477804E+02  0.36820911546E+02  0.00000000000E+00 0. -1.
         11    1    4    4    0    0  0.30434475990E+00  0.75033423706E+01  0.87966986575E+01  0.11566100466E+02  0.51100000000E-03 0. -1.
        -11    1    4    4    0    0 -0.16753561214E+02 -0.10339671557E+02  0.88423341317E+01  0.21581878844E+02  0.51100000000E-03 0.  1.
         12    1    4    4    0    0 -0.12050468516E+02 -0.16740692688E+02 -0.49785549856E+01  0.21219109144E+02  0.00000000000E+00 0. -1.
</event>
<event>
 8    1  0.1253488E-006  0.9118800E+02  0.7816164E-02  0.1184000E+00
        -11   -1    0    0    0    0  0.00000000000E+00  0.00000000000E+00  0.45593999997E+02  0.45594000000E+02  0.51100000000E-03 0. -1.
         11   -1    0    0    0    0 -0.00000000000E+00 -0.00000000000E+00 -0.45593999997E+02  0.45594000000E+02  0.51100000000E-03 0.  1.
         23    2    1    2    0    0  0.00000000000E+00  0.71054273576E-14  0.88817841970E-15  0.91188000000E+02  0.91188000000E+02 0.  0.
    9900012    2    3    3    0    0 -0.79834713924E+01  0.35068159886E+02  0.78908966423E+01  0.54367110507E+02  0.40000060022E+02 0.  0.
        -12    1    3    3    0    0  0.79834713924E+01 -0.35068159886E+02 -0.78908966423E+01  0.36820889493E+02  0.00000000000E+00 0.  1.
         11    1    4    4    0    0 -0.76371923064E+00  0.15405567001E+02 -0.17301604743E+01  0.15521218291E+02  0.51100000000E-03 0. -1.
        -11    1    4    4    0    0 -0.18288694331E+02  0.18729593475E+02  0.42983041636E+01  0.26528276066E+02  0.51100000000E-03 0.  1.
        -12    1    4    4    0    0  0.11068942169E+02  0.93299940924E+00  0.53227529530E+01  0.12317616151E+02  0.00000000000E+00 0.  1.
</event>
<event>
 8    1  0.1253488E-006  0.9118800E+02  0.7816164E-02  0.1184000E+00
        -11   -1    0    0    0    0  0.00000000000E+00  0.00000000000E+00  0.45593999997E+02  0.45594000000E+02  0.51100000000E-03 0.  1.
         11   -1    0    0    0    0 -0.00000000000E+00 -0.00000000000E+00 -0.45593999997E+02  0.45594000000E+02  0.51100000000E-03 0. -1.
         23    2    1    2    0    0  0.00000000000E+00  0.00000000000E+00  0.00000000000E+00  0.91188000000E+02  0.91188000000E+02 0.  0.
    9900012    2    3    3    0    0  0.23888613914E+02 -0.66440627523E+01  0.27220849219E+02  0.54367026673E+02  0.39999868905E+02 0.  0.
         12    1    3    3    0    0 -0.23888613914E+02  0.66440627523E+01 -0.27220849219E+02  0.36820973327E+02  0.00000000000E+00 0. -1.
         11    1    4    4    0    0  0.25322736206E+01  0.54473894980E+01 -0.36244555836E+01  0.70159205078E+01  0.51100000000E-03 0. -1.
        -11    1    4    4    0    0  0.24759999104E+02 -0.92448466987E+01  0.33113564238E+02  0.42367828395E+02  0.51100000000E-03 0.  1.
        -12    1    4    4    0    0 -0.34036588106E+01 -0.28466055517E+01 -0.22682594355E+01  0.49832777699E+01  0.00000000000E+00 0.  1.
</event>
<event>
 8    1  0.1253488E-006  0.9118800E+02  0.7816164E-02  0.1184000E+00
        -11   -1    0    0    0    0  0.00000000000E+00  0.00000000000E+00  0.45593999997E+02  0.45594000000E+02  0.51100000000E-03 0. -1.
         11   -1    0    0    0    0 -0.00000000000E+00 -0.00000000000E+00 -0.45593999997E+02  0.45594000000E+02  0.51100000000E-03 0.  1.
         23    2    1    2    0    0  0.00000000000E+00  0.33306690739E-15  0.71054273576E-14  0.91188000000E+02  0.91188000000E+02 0.  0.
    9900012    2    3    3    0    0  0.64143482909E+01  0.69029296075E+00 -0.36251340978E+02  0.54367080795E+02  0.39999992289E+02 0.  0.
         12    1    3    3    0    0 -0.64143482909E+01 -0.69029296075E+00  0.36251340978E+02  0.36820919205E+02  0.00000000000E+00 0. -1.
         11    1    4    4    0    0  0.26986004433E+01  0.84804544387E+01 -0.17408919428E+01  0.90681451718E+01  0.51100000000E-03 0.  1.
        -11    1    4    4    0    0  0.10048904778E+02 -0.81584971663E+01 -0.31746217429E+01  0.13327407352E+02  0.51100000000E-03 0. -1.
        -12    1    4    4    0    0 -0.63331569307E+01  0.36833568840E+00 -0.31335827293E+02  0.31971528271E+02  0.00000000000E+00 0.  1.
</event>
<event>
 8    1  0.1253488E-006  0.9118800E+02  0.7816164E-02  0.1184000E+00
        -11   -1    0    0    0    0  0.00000000000E+00  0.00000000000E+00  0.45593999997E+02  0.45594000000E+02  0.51100000000E-03 0. -1.
         11   -1    0    0    0    0 -0.00000000000E+00 -0.00000000000E+00 -0.45593999997E+02  0.45594000000E+02  0.51100000000E-03 0.  1.
         23    2    1    2    0    0  0.00000000000E+00  0.00000000000E+00  0.00000000000E+00  0.91188000000E+02  0.91188000000E+02 0.  0.
    9900012    2    3    3    0    0 -0.26020449854E+02 -0.13198370212E+02 -0.22461487637E+02  0.54367092709E+02  0.40000019448E+02 0.  0.
         12    1    3    3    0    0  0.26020449854E+02  0.13198370212E+02  0.22461487637E+02  0.36820907291E+02  0.00000000000E+00 0. -1.
         11    1    4    4    0    0 -0.38783706645E+01  0.28280352597E+01 -0.17155267901E+01  0.50973105526E+01  0.51100000000E-03 0. -1.
        -11    1    4    4    0    0 -0.10729641462E+02  0.96941596903E+01 -0.14434709828E+02  0.20431906080E+02  0.51100000000E-03 0.  1.
         12    1    4    4    0    0 -0.11412437728E+02 -0.25720565162E+02 -0.63112510194E+01  0.28837876076E+02  0.00000000000E+00 0. -1.
</event>
<event>
 8    1  0.1253488E-006  0.9118800E+02  0.7816164E-02  0.1184000E+00
        -11   -1    0    0    0    0  0.00000000000E+00  0.00000000000E+00  0.45593999997E+02  0.45594000000E+02  0.51100000000E-03 0.  1.
         11   -1    0    0    0    0 -0.00000000000E+00 -0.00000000000E+00 -0.45593999997E+02  0.45594000000E+02  0.51100000000E-03 0. -1.
         23    2    1    2    0    0 -0.17763568394E-14 -0.22204460493E-15  0.00000000000E+00  0.91188000000E+02  0.91188000000E+02 0.  0.
    9900012    2    3    3    0    0 -0.13332474791E+02 -0.19783752325E+01  0.34265307418E+02  0.54367080062E+02  0.39999990618E+02 0.  0.
         12    1    3    3    0    0  0.13332474791E+02  0.19783752325E+01 -0.34265307418E+02  0.36820919938E+02  0.00000000000E+00 0. -1.
         11    1    4    4    0    0 -0.10879004145E+02 -0.14024222414E+02  0.41734083085E+01  0.18233180816E+02  0.51100000000E-03 0. -1.
        -11    1    4    4    0    0  0.60013054944E+01  0.10664472432E+01  0.10405581040E+02  0.12059398592E+02  0.51100000000E-03 0.  1.
        -12    1    4    4    0    0 -0.84547761401E+01  0.10979399938E+02  0.19686318070E+02  0.24074500654E+02  0.00000000000E+00 0.  1.
</event>
<event>
 8    1  0.1253488E-006  0.9118800E+02  0.7816164E-02  0.1184000E+00
        -11   -1    0    0    0    0  0.00000000000E+00  0.00000000000E+00  0.45593999997E+02  0.45594000000E+02  0.51100000000E-03 0. -1.
         11   -1    0    0    0    0 -0.00000000000E+00 -0.00000000000E+00 -0.45593999997E+02  0.45594000000E+02  0.51100000000E-03 0.  1.
         23    2    1    2    0    0 -0.24980018054E-15  0.00000000000E+00  0.35527136788E-14  0.91188000000E+02  0.91188000000E+02 0.  0.
    9900012    2    3    3    0    0 -0.14775857999E+00 -0.22239727163E+02 -0.29345393628E+02  0.54367089852E+02  0.40000012937E+02 0.  0.
         12    1    3    3    0    0  0.14775857999E+00  0.22239727163E+02  0.29345393628E+02  0.36820910148E+02  0.00000000000E+00 0. -1.
         11    1    4    4    0    0  0.74493615836E+01  0.41178735911E+01 -0.20171620404E+02  0.21893929316E+02  0.51100000000E-03 0. -1.
        -11    1    4    4    0    0  0.26902451634E+01 -0.15587425339E+02 -0.20069044124E+01  0.15944682917E+02  0.51100000000E-03 0.  1.
         12    1    4    4    0    0 -0.10287365327E+02 -0.10770175416E+02 -0.71668688116E+01  0.16528477619E+02  0.00000000000E+00 0. -1.
</event>
<event>
 8    1  0.1253488E-006  0.9118800E+02  0.7816164E-02  0.1184000E+00
        -11   -1    0    0    0    0  0.00000000000E+00  0.00000000000E+00  0.45593999997E+02  0.45594000000E+02  0.51100000000E-03 0.  1.
         11   -1    0    0    0    0 -0.00000000000E+00 -0.00000000000E+00 -0.45593999997E+02  0.45594000000E+02  0.51100000000E-03 0. -1.
         23    2    1    2    0    0  0.00000000000E+00  0.00000000000E+00  0.00000000000E+00  0.91188000000E+02  0.91188000000E+02 0.  0.
    9900012    2    3    3    0    0 -0.20329046999E+02 -0.16169449014E+02 -0.26097101964E+02  0.54367082518E+02  0.39999996217E+02 0.  0.
        -12    1    3    3    0    0  0.20329046999E+02  0.16169449014E+02  0.26097101964E+02  0.36820917482E+02  0.00000000000E+00 0.  1.
         11    1    4    4    0    0 -0.54388331077E+01 -0.72313797777E+01 -0.13500794108E+02  0.16252544443E+02  0.51100000000E-03 0. -1.
        -11    1    4    4    0    0  0.48455030600E+01 -0.12933965606E+02  0.95226369629E+00  0.13844608070E+02  0.51100000000E-03 0.  1.
        -12    1    4    4    0    0 -0.19735716951E+02  0.39958963696E+01 -0.13548571552E+02  0.24269930005E+02  0.00000000000E+00 0.  1.
</event>
<event>
 8    1  0.1253488E-006  0.9118800E+02  0.7816164E-02  0.1184000E+00
        -11   -1    0    0    0    0  0.00000000000E+00  0.00000000000E+00  0.45593999997E+02  0.45594000000E+02  0.51100000000E-03 0.  1.
         11   -1    0    0    0    0 -0.00000000000E+00 -0.00000000000E+00 -0.45593999997E+02  0.45594000000E+02  0.51100000000E-03 0. -1.
         23    2    1    2    0    0  0.71054273576E-14 -0.35527136788E-14  0.17763568394E-14  0.91188000000E+02  0.91188000000E+02 0.  0.
    9900012    2    3    3    0    0  0.26523490386E+02 -0.24188262700E+02  0.81982984108E+01  0.54367086221E+02  0.40000004658E+02 0.  0.
         12    1    3    3    0    0 -0.26523490386E+02  0.24188262700E+02 -0.81982984108E+01  0.36820913779E+02  0.00000000000E+00 0. -1.
         11    1    4    4    0    0  0.26037467481E+01  0.52822458319E+00 -0.59212823981E+01  0.64900002957E+01  0.51100000000E-03 0. -1.
        -11    1    4    4    0    0 -0.30041016485E+01 -0.41091702985E+01  0.12991653402E+02  0.13953242119E+02  0.51100000000E-03 0.  1.
         12    1    4    4    0    0  0.26923845286E+02 -0.20607316985E+02  0.11279274066E+01  0.33923843806E+02  0.00000000000E+00 0. -1.
</event>
<event>
 8    1  0.1253488E-006  0.9118800E+02  0.7816164E-02  0.1184000E+00
        -11   -1    0    0    0    0  0.00000000000E+00  0.00000000000E+00  0.45593999997E+02  0.45594000000E+02  0.51100000000E-03 0.  1.
         11   -1    0    0    0    0 -0.00000000000E+00 -0.00000000000E+00 -0.45593999997E+02  0.45594000000E+02  0.51100000000E-03 0. -1.
         23    2    1    2    0    0  0.00000000000E+00  0.35527136788E-14 -0.17763568394E-14  0.91188000000E+02  0.91188000000E+02 0.  0.
    9900012    2    3    3    0    0  0.35439753743E+02  0.94865963131E+01  0.31320404924E+01  0.54367063936E+02  0.39999953855E+02 0.  0.
         12    1    3    3    0    0 -0.35439753743E+02 -0.94865963131E+01 -0.31320404924E+01  0.36820936064E+02  0.00000000000E+00 0. -1.
         11    1    4    4    0    0  0.46094978925E+01 -0.77587843162E+01 -0.10963780982E+02  0.14200376705E+02  0.51100000000E-03 0. -1.
        -11    1    4    4    0    0  0.19213828674E+02  0.36856824401E+01  0.93953244489E+01  0.21703170024E+02  0.51100000000E-03 0.  1.
         12    1    4    4    0    0  0.11616427177E+02  0.13559698189E+02  0.47004970258E+01  0.18463517206E+02  0.00000000000E+00 0. -1.
</event>
<event>
 8    1  0.1253488E-006  0.9118800E+02  0.7816164E-02  0.1184000E+00
        -11   -1    0    0    0    0  0.00000000000E+00  0.00000000000E+00  0.45593999997E+02  0.45594000000E+02  0.51100000000E-03 0.  1.
         11   -1    0    0    0    0 -0.00000000000E+00 -0.00000000000E+00 -0.45593999997E+02  0.45594000000E+02  0.51100000000E-03 0. -1.
         23    2    1    2    0    0 -0.44408920985E-15 -0.11102230246E-14 -0.71054273576E-14  0.91188000000E+02  0.91188000000E+02 0.  0.
    9900012    2    3    3    0    0 -0.73744371865E+00  0.15221264498E+01 -0.36782078454E+02  0.54367055043E+02  0.39999933581E+02 0.  0.
        -12    1    3    3    0    0  0.73744371865E+00 -0.15221264498E+01  0.36782078454E+02  0.36820944957E+02  0.00000000000E+00 0.  1.
         11    1    4    4    0    0 -0.69969855643E+01  0.79357527492E+01 -0.39125288462E+02  0.40530509202E+02  0.51100000000E-03 0. -1.
        -11    1    4    4    0    0  0.73688049981E+01 -0.14419861248E+01 -0.12377636385E+01  0.76099060553E+01  0.51100000000E-03 0.  1.
        -12    1    4    4    0    0 -0.11092631524E+01 -0.49716401746E+01  0.35809736462E+01  0.62266397857E+01  0.00000000000E+00 0.  1.
</event>
<event>
 8    1  0.1253488E-006  0.9118800E+02  0.7816164E-02  0.1184000E+00
        -11   -1    0    0    0    0  0.00000000000E+00  0.00000000000E+00  0.45593999997E+02  0.45594000000E+02  0.51100000000E-03 0. -1.
         11   -1    0    0    0    0 -0.00000000000E+00 -0.00000000000E+00 -0.45593999997E+02  0.45594000000E+02  0.51100000000E-03 0.  1.
         23    2    1    2    0    0  0.00000000000E+00  0.00000000000E+00 -0.35527136788E-14  0.91188000000E+02  0.91188000000E+02 0.  0.
    9900012    2    3    3    0    0  0.28831011324E+02  0.85145601390E+01  0.21261604279E+02  0.54367071646E+02  0.39999971431E+02 0.  0.
         12    1    3    3    0    0 -0.28831011324E+02 -0.85145601390E+01 -0.21261604279E+02  0.36820928354E+02  0.00000000000E+00 0. -1.
         11    1    4    4    0    0  0.18246693563E+02  0.19571200029E+00  0.11498814234E+02  0.21568561802E+02  0.51100000000E-03 0. -1.
        -11    1    4    4    0    0  0.14600881178E+02  0.15101565353E+02  0.12512328896E+02  0.24449977135E+02  0.51100000000E-03 0.  1.
         12    1    4    4    0    0 -0.40165634165E+01 -0.67827172142E+01 -0.27495388508E+01  0.83485327081E+01  0.00000000000E+00 0. -1.
</event>
<event>
 8    1  0.1253488E-006  0.9118800E+02  0.7816164E-02  0.1184000E+00
        -11   -1    0    0    0    0  0.00000000000E+00  0.00000000000E+00  0.45593999997E+02  0.45594000000E+02  0.51100000000E-03 0.  1.
         11   -1    0    0    0    0 -0.00000000000E+00 -0.00000000000E+00 -0.45593999997E+02  0.45594000000E+02  0.51100000000E-03 0. -1.
         23    2    1    2    0    0  0.00000000000E+00  0.00000000000E+00  0.17763568394E-14  0.91188000000E+02  0.91188000000E+02 0.  0.
    9900012    2    3    3    0    0 -0.63653207739E+01  0.35263077526E+02  0.84722143709E+01  0.54367077123E+02  0.39999983917E+02 0.  0.
        -12    1    3    3    0    0  0.63653207739E+01 -0.35263077526E+02 -0.84722143709E+01  0.36820922877E+02  0.00000000000E+00 0.  1.
         11    1    4    4    0    0 -0.11061155596E+00  0.63456281853E+00 -0.53391723418E+01  0.53778868009E+01  0.51100000000E-03 0. -1.
        -11    1    4    4    0    0  0.10630068078E+02  0.24460350820E+02  0.39882225431E+01  0.26966887638E+02  0.51100000000E-03 0.  1.
        -12    1    4    4    0    0 -0.16884777296E+02  0.10168163888E+02  0.98231641696E+01  0.22022302684E+02  0.00000000000E+00 0.  1.
</event>
<event>
 8    1  0.1253488E-006  0.9118800E+02  0.7816164E-02  0.1184000E+00
        -11   -1    0    0    0    0  0.00000000000E+00  0.00000000000E+00  0.45593999997E+02  0.45594000000E+02  0.51100000000E-03 0.  1.
         11   -1    0    0    0    0 -0.00000000000E+00 -0.00000000000E+00 -0.45593999997E+02  0.45594000000E+02  0.51100000000E-03 0. -1.
         23    2    1    2    0    0  0.88817841970E-15  0.00000000000E+00  0.00000000000E+00  0.91188000000E+02  0.91188000000E+02 0.  0.
    9900012    2    3    3    0    0  0.61368444127E+01 -0.16839303024E+01  0.36266841030E+02  0.54367078788E+02  0.39999987713E+02 0.  0.
         12    1    3    3    0    0 -0.61368444127E+01  0.16839303024E+01 -0.36266841030E+02  0.36820921212E+02  0.00000000000E+00 0. -1.
         11    1    4    4    0    0  0.62706461738E+01 -0.26573596433E+01 -0.67669284074E+01  0.96007231000E+01  0.51100000000E-03 0. -1.
        -11    1    4    4    0    0 -0.30564207780E+01 -0.21638243509E+00  0.21081175834E+01  0.37192323586E+01  0.51100000000E-03 0.  1.
        -12    1    4    4    0    0  0.29226190169E+01  0.11898117760E+01  0.40925651854E+02  0.41047123330E+02  0.00000000000E+00 0.  1.
</event>
<event>
 8    1  0.1253488E-006  0.9118800E+02  0.7816164E-02  0.1184000E+00
        -11   -1    0    0    0    0  0.00000000000E+00  0.00000000000E+00  0.45593999997E+02  0.45594000000E+02  0.51100000000E-03 0.  1.
         11   -1    0    0    0    0 -0.00000000000E+00 -0.00000000000E+00 -0.45593999997E+02  0.45594000000E+02  0.51100000000E-03 0. -1.
         23    2    1    2    0    0 -0.35527136788E-14  0.00000000000E+00  0.35527136788E-14  0.91188000000E+02  0.91188000000E+02 0.  0.
    9900012    2    3    3    0    0  0.16673652385E+02 -0.27453109519E+02 -0.18002680502E+02  0.54367076446E+02  0.39999982373E+02 0.  0.
        -12    1    3    3    0    0 -0.16673652385E+02  0.27453109519E+02  0.18002680502E+02  0.36820923554E+02  0.00000000000E+00 0.  1.
         11    1    4    4    0    0  0.17480400402E+02 -0.10147730895E+02 -0.22580780902E+02  0.30305651403E+02  0.51100000000E-03 0. -1.
        -11    1    4    4    0    0 -0.24134905560E+01 -0.19472072171E+01 -0.50047719401E+01  0.58876391741E+01  0.51100000000E-03 0.  1.
         12    1    4    4    0    0  0.16067425392E+01 -0.15358171406E+02  0.95828723393E+01  0.18173785869E+02  0.00000000000E+00 0. -1.
</event>
<event>
 8    1  0.1253488E-006  0.9118800E+02  0.7816164E-02  0.1184000E+00
        -11   -1    0    0    0    0  0.00000000000E+00  0.00000000000E+00  0.45593999997E+02  0.45594000000E+02  0.51100000000E-03 0.  1.
         11   -1    0    0    0    0 -0.00000000000E+00 -0.00000000000E+00 -0.45593999997E+02  0.45594000000E+02  0.51100000000E-03 0. -1.
         23    2    1    2    0    0  0.00000000000E+00  0.00000000000E+00 -0.35527136788E-14  0.91188000000E+02  0.91188000000E+02 0.  0.
    9900012    2    3    3    0    0  0.23375972238E+02 -0.40928187383E+01 -0.28152919814E+02  0.54367161643E+02  0.40000176596E+02 0.  0.
        -12    1    3    3    0    0 -0.23375972238E+02  0.40928187383E+01  0.28152919814E+02  0.36820838357E+02  0.00000000000E+00 0.  1.
         11    1    4    4    0    0  0.35870590985E+01 -0.16296684070E+01 -0.12217423136E+01  0.41249808042E+01  0.51100000000E-03 0. -1.
        -11    1    4    4    0    0  0.77277873537E+01  0.49507928813E+01  0.82365609941E+01  0.12331665938E+02  0.51100000000E-03 0.  1.
        -12    1    4    4    0    0  0.12061125786E+02 -0.74139432126E+01 -0.35167738495E+02  0.37910514900E+02  0.00000000000E+00 0.  1.
</event>
<event>
 8    1  0.1253488E-006  0.9118800E+02  0.7816164E-02  0.1184000E+00
        -11   -1    0    0    0    0  0.00000000000E+00  0.00000000000E+00  0.45593999997E+02  0.45594000000E+02  0.51100000000E-03 0. -1.
         11   -1    0    0    0    0 -0.00000000000E+00 -0.00000000000E+00 -0.45593999997E+02  0.45594000000E+02  0.51100000000E-03 0.  1.
         23    2    1    2    0    0  0.35527136788E-14  0.00000000000E+00  0.17763568394E-14  0.91188000000E+02  0.91188000000E+02 0.  0.
    9900012    2    3    3    0    0 -0.30199477333E+02 -0.17738991287E+02 -0.11362195043E+02  0.54367085844E+02  0.40000003798E+02 0.  0.
        -12    1    3    3    0    0  0.30199477333E+02  0.17738991287E+02  0.11362195043E+02  0.36820914156E+02  0.00000000000E+00 0.  1.
         11    1    4    4    0    0 -0.35394292186E+02 -0.18946780608E+02  0.13935405100E+01  0.40170615755E+02  0.51100000000E-03 0. -1.
        -11    1    4    4    0    0  0.35573953653E+01 -0.49231769163E+00 -0.55196419831E+01  0.65851261474E+01  0.51100000000E-03 0.  1.
         12    1    4    4    0    0  0.16374194873E+01  0.17001070124E+01 -0.72360935701E+01  0.76113439409E+01  0.00000000000E+00 0. -1.
</event>
<event>
 8    1  0.1253488E-006  0.9118800E+02  0.7816164E-02  0.1184000E+00
        -11   -1    0    0    0    0  0.00000000000E+00  0.00000000000E+00  0.45593999997E+02  0.45594000000E+02  0.51100000000E-03 0. -1.
         11   -1    0    0    0    0 -0.00000000000E+00 -0.00000000000E+00 -0.45593999997E+02  0.45594000000E+02  0.51100000000E-03 0.  1.
         23    2    1    2    0    0  0.00000000000E+00  0.00000000000E+00  0.00000000000E+00  0.91188000000E+02  0.91188000000E+02 0.  0.
    9900012    2    3    3    0    0 -0.16084788632E+02 -0.27917053456E+02  0.17823985031E+02  0.54367126282E+02  0.40000095984E+02 0.  0.
        -12    1    3    3    0    0  0.16084788632E+02  0.27917053456E+02 -0.17823985031E+02  0.36820873718E+02  0.00000000000E+00 0.  1.
         11    1    4    4    0    0  0.30895926875E+01 -0.65682433197E+01  0.23093864558E+02  0.24207725704E+02  0.51100000000E-03 0. -1.
        -11    1    4    4    0    0 -0.35894907394E+01 -0.40960103805E+01 -0.42132331257E+01  0.68857155356E+01  0.51100000000E-03 0.  1.
        -12    1    4    4    0    0 -0.15584890580E+02 -0.17252799756E+02 -0.10566464016E+01  0.23273685042E+02  0.00000000000E+00 0.  1.
</event>
<event>
 8    1  0.1253488E-006  0.9118800E+02  0.7816164E-02  0.1184000E+00
        -11   -1    0    0    0    0  0.00000000000E+00  0.00000000000E+00  0.45593999997E+02  0.45594000000E+02  0.51100000000E-03 0. -1.
         11   -1    0    0    0    0 -0.00000000000E+00 -0.00000000000E+00 -0.45593999997E+02  0.45594000000E+02  0.51100000000E-03 0.  1.
         23    2    1    2    0    0  0.00000000000E+00  0.00000000000E+00  0.88817841970E-15  0.91188000000E+02  0.91188000000E+02 0.  0.
    9900012    2    3    3    0    0 -0.57447226367E+01 -0.35856985573E+02 -0.60871964764E+01  0.54367092712E+02  0.40000019455E+02 0.  0.
         12    1    3    3    0    0  0.57447226367E+01  0.35856985573E+02  0.60871964764E+01  0.36820907288E+02  0.00000000000E+00 0. -1.
         11    1    4    4    0    0 -0.11343883268E+02 -0.21517629217E+01  0.22230244762E+01  0.11758214547E+02  0.51100000000E-03 0. -1.
        -11    1    4    4    0    0 -0.82725754192E+01 -0.19398842388E+02 -0.83487350529E+01  0.22681533619E+02  0.51100000000E-03 0.  1.
        -12    1    4    4    0    0  0.13871736050E+02 -0.14306380264E+02  0.38514100337E-01  0.19927344545E+02  0.00000000000E+00 0.  1.
</event>
<event>
 8    1  0.1253488E-006  0.9118800E+02  0.7816164E-02  0.1184000E+00
        -11   -1    0    0    0    0  0.00000000000E+00  0.00000000000E+00  0.45593999997E+02  0.45594000000E+02  0.51100000000E-03 0. -1.
         11   -1    0    0    0    0 -0.00000000000E+00 -0.00000000000E+00 -0.45593999997E+02  0.45594000000E+02  0.51100000000E-03 0.  1.
         23    2    1    2    0    0 -0.17763568394E-14  0.17763568394E-14  0.00000000000E+00  0.91188000000E+02  0.91188000000E+02 0.  0.
    9900012    2    3    3    0    0 -0.85100192003E+01 -0.14715471570E+02 -0.32661991225E+02  0.54367201514E+02  0.40000267491E+02 0.  0.
         12    1    3    3    0    0  0.85100192003E+01  0.14715471570E+02  0.32661991225E+02  0.36820798486E+02  0.00000000000E+00 0. -1.
         11    1    4    4    0    0 -0.12754047907E+02 -0.38804363205E+01 -0.92217521023E+01  0.16210004200E+02  0.51100000000E-03 0. -1.
        -11    1    4    4    0    0 -0.11830742688E+02 -0.40578305791E+01 -0.11723014525E+02  0.17142389896E+02  0.51100000000E-03 0.  1.
         12    1    4    4    0    0  0.16074771395E+02 -0.67772046704E+01 -0.11717224598E+02  0.21014807418E+02  0.00000000000E+00 0. -1.
</event>
<event>
 8    1  0.1253488E-006  0.9118800E+02  0.7816164E-02  0.1184000E+00
        -11   -1    0    0    0    0  0.00000000000E+00  0.00000000000E+00  0.45593999997E+02  0.45594000000E+02  0.51100000000E-03 0. -1.
         11   -1    0    0    0    0 -0.00000000000E+00 -0.00000000000E+00 -0.45593999997E+02  0.45594000000E+02  0.51100000000E-03 0.  1.
         23    2    1    2    0    0  0.00000000000E+00  0.17763568394E-14 -0.71054273576E-14  0.91188000000E+02  0.91188000000E+02 0.  0.
    9900012    2    3    3    0    0  0.74804211972E+01 -0.14325540143E+02 -0.33084777926E+02  0.54367077522E+02  0.39999984827E+02 0.  0.
         12    1    3    3    0    0 -0.74804211972E+01  0.14325540143E+02  0.33084777926E+02  0.36820922478E+02  0.00000000000E+00 0. -1.
         11    1    4    4    0    0 -0.42486487648E+01 -0.13444084057E+02 -0.22493904737E+02  0.26547507661E+02  0.51100000000E-03 0. -1.
        -11    1    4    4    0    0  0.12328846272E+02 -0.90462243991E+01 -0.12093769474E+02  0.19495996682E+02  0.51100000000E-03 0.  1.
        -12    1    4    4    0    0 -0.59977631040E+00  0.81647683128E+01  0.15028962841E+01  0.83235731789E+01  0.00000000000E+00 0.  1.
</event>
<event>
 8    1  0.1253488E-006  0.9118800E+02  0.7816164E-02  0.1184000E+00
        -11   -1    0    0    0    0  0.00000000000E+00  0.00000000000E+00  0.45593999997E+02  0.45594000000E+02  0.51100000000E-03 0. -1.
         11   -1    0    0    0    0 -0.00000000000E+00 -0.00000000000E+00 -0.45593999997E+02  0.45594000000E+02  0.51100000000E-03 0.  1.
         23    2    1    2    0    0  0.88817841970E-15  0.35527136788E-14  0.00000000000E+00  0.91188000000E+02  0.91188000000E+02 0.  0.
    9900012    2    3    3    0    0  0.49773586858E+01  0.27472009965E+02  0.24006143284E+02  0.54367077329E+02  0.39999984387E+02 0.  0.
        -12    1    3    3    0    0 -0.49773586858E+01 -0.27472009965E+02 -0.24006143284E+02  0.36820922671E+02  0.00000000000E+00 0.  1.
         11    1    4    4    0    0  0.47417545989E+01  0.62182903963E+01  0.22419853078E+02  0.23744497982E+02  0.51100000000E-03 0. -1.
        -11    1    4    4    0    0  0.68711201410E+01  0.11987650038E+00  0.45968537025E+01  0.82678731601E+01  0.51100000000E-03 0.  1.
        -12    1    4    4    0    0 -0.66355160542E+01  0.21133843068E+02 -0.30105634969E+01  0.22354706187E+02  0.00000000000E+00 0.  1.
</event>
<event>
 8    1  0.1253488E-006  0.9118800E+02  0.7816164E-02  0.1184000E+00
        -11   -1    0    0    0    0  0.00000000000E+00  0.00000000000E+00  0.45593999997E+02  0.45594000000E+02  0.51100000000E-03 0.  1.
         11   -1    0    0    0    0 -0.00000000000E+00 -0.00000000000E+00 -0.45593999997E+02  0.45594000000E+02  0.51100000000E-03 0. -1.
         23    2    1    2    0    0 -0.71054273576E-14 -0.88817841970E-15  0.00000000000E+00  0.91188000000E+02  0.91188000000E+02 0.  0.
    9900012    2    3    3    0    0 -0.30385283347E+02  0.55222072444E+01  0.20050464903E+02  0.54367063568E+02  0.39999953016E+02 0.  0.
         12    1    3    3    0    0  0.30385283347E+02 -0.55222072444E+01 -0.20050464903E+02  0.36820936432E+02  0.00000000000E+00 0. -1.
         11    1    4    4    0    0  0.47255116075E+01 -0.39302128475E+01  0.17382951240E+01  0.63873862556E+01  0.51100000000E-03 0. -1.
        -11    1    4    4    0    0 -0.15409569636E+02  0.15771191090E+02  0.15825677547E+02  0.27141064365E+02  0.51100000000E-03 0.  1.
        -12    1    4    4    0    0 -0.19701225318E+02 -0.63187709982E+01  0.24864922322E+01  0.20838612948E+02  0.00000000000E+00 0.  1.
</event>
<event>
 8    1  0.1253488E-006  0.9118800E+02  0.7816164E-02  0.1184000E+00
        -11   -1    0    0    0    0  0.00000000000E+00  0.00000000000E+00  0.45593999997E+02  0.45594000000E+02  0.51100000000E-03 0. -1.
         11   -1    0    0    0    0 -0.00000000000E+00 -0.00000000000E+00 -0.45593999997E+02  0.45594000000E+02  0.51100000000E-03 0.  1.
         23    2    1    2    0    0  0.17763568394E-14 -0.17763568394E-14  0.00000000000E+00  0.91188000000E+02  0.91188000000E+02 0.  0.
    9900012    2    3    3    0    0 -0.93131163916E+01  0.54402128402E+01 -0.35205824509E+02  0.54367080239E+02  0.39999991021E+02 0.  0.
         12    1    3    3    0    0  0.93131163916E+01 -0.54402128402E+01  0.35205824509E+02  0.36820919761E+02  0.00000000000E+00 0. -1.
         11    1    4    4    0    0 -0.16051318627E+01  0.69398554354E+01 -0.13847487227E+02  0.15572120746E+02  0.51100000000E-03 0. -1.
        -11    1    4    4    0    0 -0.17758154125E+02  0.70915567020E+01 -0.11642480214E+02  0.22387263347E+02  0.51100000000E-03 0.  1.
         12    1    4    4    0    0  0.10050169596E+02 -0.85911992972E+01 -0.97158570682E+01  0.16407696147E+02  0.00000000000E+00 0. -1.
</event>
<event>
 8    1  0.1253488E-006  0.9118800E+02  0.7816164E-02  0.1184000E+00
        -11   -1    0    0    0    0  0.00000000000E+00  0.00000000000E+00  0.45593999997E+02  0.45594000000E+02  0.51100000000E-03 0. -1.
         11   -1    0    0    0    0 -0.00000000000E+00 -0.00000000000E+00 -0.45593999997E+02  0.45594000000E+02  0.51100000000E-03 0.  1.
         23    2    1    2    0    0  0.35527136788E-14  0.00000000000E+00  0.00000000000E+00  0.91188000000E+02  0.91188000000E+02 0.  0.
    9900012    2    3    3    0    0  0.22992630923E+02 -0.98727718197E+01 -0.27012005889E+02  0.54367066249E+02  0.39999959128E+02 0.  0.
         12    1    3    3    0    0 -0.22992630923E+02  0.98727718197E+01  0.27012005889E+02  0.36820933751E+02  0.00000000000E+00 0. -1.
         11    1    4    4    0    0 -0.29777533378E+00  0.38311589600E+01 -0.30560019556E+00  0.38548464129E+01  0.51100000000E-03 0. -1.
        -11    1    4    4    0    0  0.24994556809E+02 -0.17430221194E+02 -0.81977086687E+01  0.31555394287E+02  0.51100000000E-03 0.  1.
         12    1    4    4    0    0 -0.17041505526E+01  0.37262904141E+01 -0.18508697024E+02  0.18956825549E+02  0.00000000000E+00 0. -1.
</event>
<event>
 8    1  0.1253488E-006  0.9118800E+02  0.7816164E-02  0.1184000E+00
        -11   -1    0    0    0    0  0.00000000000E+00  0.00000000000E+00  0.45593999997E+02  0.45594000000E+02  0.51100000000E-03 0.  1.
         11   -1    0    0    0    0 -0.00000000000E+00 -0.00000000000E+00 -0.45593999997E+02  0.45594000000E+02  0.51100000000E-03 0. -1.
         23    2    1    2    0    0  0.35527136788E-14  0.00000000000E+00  0.00000000000E+00  0.91188000000E+02  0.91188000000E+02 0.  0.
    9900012    2    3    3    0    0 -0.27966548885E+02 -0.21708733279E+02  0.10118734256E+02  0.54367004086E+02  0.39999817416E+02 0.  0.
         12    1    3    3    0    0  0.27966548885E+02  0.21708733279E+02 -0.10118734256E+02  0.36820995914E+02  0.00000000000E+00 0. -1.
         11    1    4    4    0    0  0.45475593149E+01 -0.70454614552E+01 -0.22552381717E+01  0.86836007687E+01  0.51100000000E-03 0. -1.
        -11    1    4    4    0    0 -0.22581099596E+02 -0.18686928232E+02 -0.40888741691E-02  0.29310533306E+02  0.51100000000E-03 0.  1.
        -12    1    4    4    0    0 -0.99330086046E+01  0.40236564087E+01  0.12378061302E+02  0.16372870012E+02  0.00000000000E+00 0.  1.
</event>
<event>
 8    1  0.1253488E-006  0.9118800E+02  0.7816164E-02  0.1184000E+00
        -11   -1    0    0    0    0  0.00000000000E+00  0.00000000000E+00  0.45593999997E+02  0.45594000000E+02  0.51100000000E-03 0. -1.
         11   -1    0    0    0    0 -0.00000000000E+00 -0.00000000000E+00 -0.45593999997E+02  0.45594000000E+02  0.51100000000E-03 0.  1.
         23    2    1    2    0    0  0.35527136788E-14  0.00000000000E+00 -0.35527136788E-14  0.91188000000E+02  0.91188000000E+02 0.  0.
    9900012    2    3    3    0    0 -0.17676025472E+02  0.45096461667E+01  0.31984391516E+02  0.54367080868E+02  0.39999992455E+02 0.  0.
        -12    1    3    3    0    0  0.17676025472E+02 -0.45096461667E+01 -0.31984391516E+02  0.36820919132E+02  0.00000000000E+00 0.  1.
         11    1    4    4    0    0  0.46380322098E+01  0.55144601237E+01  0.18197524942E+00  0.72078934847E+01  0.51100000000E-03 0. -1.
        -11    1    4    4    0    0  0.27169834328E+01 -0.65544040782E+01  0.11337743482E+01  0.71852387802E+01  0.51100000000E-03 0.  1.
         12    1    4    4    0    0 -0.25031041115E+02  0.55495901213E+01  0.30668641919E+02  0.39973948603E+02  0.00000000000E+00 0. -1.
</event>
<event>
 8    1  0.1253488E-006  0.9118800E+02  0.7816164E-02  0.1184000E+00
        -11   -1    0    0    0    0  0.00000000000E+00  0.00000000000E+00  0.45593999997E+02  0.45594000000E+02  0.51100000000E-03 0. -1.
         11   -1    0    0    0    0 -0.00000000000E+00 -0.00000000000E+00 -0.45593999997E+02  0.45594000000E+02  0.51100000000E-03 0.  1.
         23    2    1    2    0    0  0.00000000000E+00 -0.71054273576E-14  0.88817841970E-15  0.91188000000E+02  0.91188000000E+02 0.  0.
    9900012    2    3    3    0    0  0.16309038058E+02  0.32791591046E+02 -0.38090280699E+01  0.54367056768E+02  0.39999937513E+02 0.  0.
        -12    1    3    3    0    0 -0.16309038058E+02 -0.32791591046E+02  0.38090280699E+01  0.36820943232E+02  0.00000000000E+00 0.  1.
         11    1    4    4    0    0  0.48562045878E+00  0.44613943834E+01 -0.65094402907E+01  0.79064960781E+01  0.51100000000E-03 0. -1.
        -11    1    4    4    0    0 -0.31594768336E+01  0.44373941383E+01  0.13127212280E+02  0.14212545976E+02  0.51100000000E-03 0.  1.
        -12    1    4    4    0    0  0.18982894433E+02  0.23892802524E+02 -0.10426800059E+02  0.32248014714E+02  0.00000000000E+00 0.  1.
</event>
<event>
 8    1  0.1253488E-006  0.9118800E+02  0.7816164E-02  0.1184000E+00
        -11   -1    0    0    0    0  0.00000000000E+00  0.00000000000E+00  0.45593999997E+02  0.45594000000E+02  0.51100000000E-03 0.  1.
         11   -1    0    0    0    0 -0.00000000000E+00 -0.00000000000E+00 -0.45593999997E+02  0.45594000000E+02  0.51100000000E-03 0. -1.
         23    2    1    2    0    0  0.00000000000E+00  0.00000000000E+00  0.00000000000E+00  0.91188000000E+02  0.91188000000E+02 0.  0.
    9900012    2    3    3    0    0 -0.11432320217E+02 -0.13031686544E+02 -0.32484725319E+02  0.54367079604E+02  0.39999989574E+02 0.  0.
         12    1    3    3    0    0  0.11432320217E+02  0.13031686544E+02  0.32484725319E+02  0.36820920396E+02  0.00000000000E+00 0. -1.
         11    1    4    4    0    0 -0.32609403298E+01 -0.43192023993E+00 -0.61981679788E+01  0.70169490152E+01  0.51100000000E-03 0. -1.
        -11    1    4    4    0    0 -0.20026155915E+02 -0.50013698044E+01 -0.40569801292E+01  0.21036152421E+02  0.51100000000E-03 0.  1.
         12    1    4    4    0    0  0.11854776028E+02 -0.75983965001E+01 -0.22229577211E+02  0.26313978168E+02  0.00000000000E+00 0. -1.
</event>
<event>
 8    1  0.1253488E-006  0.9118800E+02  0.7816164E-02  0.1184000E+00
        -11   -1    0    0    0    0  0.00000000000E+00  0.00000000000E+00  0.45593999997E+02  0.45594000000E+02  0.51100000000E-03 0. -1.
         11   -1    0    0    0    0 -0.00000000000E+00 -0.00000000000E+00 -0.45593999997E+02  0.45594000000E+02  0.51100000000E-03 0.  1.
         23    2    1    2    0    0  0.00000000000E+00  0.00000000000E+00 -0.66613381478E-15  0.91188000000E+02  0.91188000000E+02 0.  0.
    9900012    2    3    3    0    0 -0.24618913994E+02  0.27337835182E+02 -0.15265479773E+01  0.54367102300E+02  0.40000041314E+02 0.  0.
        -12    1    3    3    0    0  0.24618913994E+02 -0.27337835182E+02  0.15265479773E+01  0.36820897700E+02  0.00000000000E+00 0.  1.
         11    1    4    4    0    0  0.25371509853E+01  0.13842371504E+02  0.14044598003E+01  0.14142874233E+02  0.51100000000E-03 0. -1.
        -11    1    4    4    0    0 -0.88418469658E+01  0.12380953460E+02 -0.12353765776E+02  0.19598004885E+02  0.51100000000E-03 0.  1.
         12    1    4    4    0    0 -0.18314218013E+02  0.11145102180E+01  0.94227579990E+01  0.20626223182E+02  0.00000000000E+00 0. -1.
</event>
<event>
 8    1  0.1253488E-006  0.9118800E+02  0.7816164E-02  0.1184000E+00
        -11   -1    0    0    0    0  0.00000000000E+00  0.00000000000E+00  0.45593999997E+02  0.45594000000E+02  0.51100000000E-03 0.  1.
         11   -1    0    0    0    0 -0.00000000000E+00 -0.00000000000E+00 -0.45593999997E+02  0.45594000000E+02  0.51100000000E-03 0. -1.
         23    2    1    2    0    0  0.17763568394E-14  0.00000000000E+00  0.00000000000E+00  0.91188000000E+02  0.91188000000E+02 0.  0.
    9900012    2    3    3    0    0  0.15436356036E+02 -0.29463382071E+01  0.33298912297E+02  0.54367088052E+02  0.40000008833E+02 0.  0.
         12    1    3    3    0    0 -0.15436356036E+02  0.29463382071E+01 -0.33298912297E+02  0.36820911948E+02  0.00000000000E+00 0. -1.
         11    1    4    4    0    0  0.64308266410E+01 -0.18012640830E+01  0.36076409660E+02  0.36689336568E+02  0.51100000000E-03 0. -1.
        -11    1    4    4    0    0 -0.14073343865E+01 -0.48643981011E+00  0.46420158531E+01  0.48749897647E+01  0.51100000000E-03 0.  1.
         12    1    4    4    0    0  0.10412863782E+02 -0.65863431401E+00 -0.74195132159E+01  0.12802761720E+02  0.00000000000E+00 0. -1.
</event>
<event>
 8    1  0.1253488E-006  0.9118800E+02  0.7816164E-02  0.1184000E+00
        -11   -1    0    0    0    0  0.00000000000E+00  0.00000000000E+00  0.45593999997E+02  0.45594000000E+02  0.51100000000E-03 0.  1.
         11   -1    0    0    0    0 -0.00000000000E+00 -0.00000000000E+00 -0.45593999997E+02  0.45594000000E+02  0.51100000000E-03 0. -1.
         23    2    1    2    0    0  0.17763568394E-14 -0.17763568394E-14  0.35527136788E-14  0.91188000000E+02  0.91188000000E+02 0.  0.
    9900012    2    3    3    0    0  0.14889837866E+02 -0.12979139520E+02  0.31074338833E+02  0.54367083821E+02  0.39999999187E+02 0.  0.
         12    1    3    3    0    0 -0.14889837866E+02  0.12979139520E+02 -0.31074338833E+02  0.36820916179E+02  0.00000000000E+00 0. -1.
         11    1    4    4    0    0  0.11538207010E+02 -0.80514652437E+01  0.38484656041E+02  0.40975908342E+02  0.51100000000E-03 0. -1.
        -11    1    4    4    0    0 -0.20167255288E+01  0.11312604751E+00 -0.53884971592E+01  0.57546399763E+01  0.51100000000E-03 0.  1.
         12    1    4    4    0    0  0.53683563844E+01 -0.50408003237E+01 -0.20218200493E+01  0.76365355028E+01  0.00000000000E+00 0. -1.
</event>
<event>
 8    1  0.1253488E-006  0.9118800E+02  0.7816164E-02  0.1184000E+00
        -11   -1    0    0    0    0  0.00000000000E+00  0.00000000000E+00  0.45593999997E+02  0.45594000000E+02  0.51100000000E-03 0. -1.
         11   -1    0    0    0    0 -0.00000000000E+00 -0.00000000000E+00 -0.45593999997E+02  0.45594000000E+02  0.51100000000E-03 0.  1.
         23    2    1    2    0    0  0.88817841970E-15  0.00000000000E+00  0.00000000000E+00  0.91188000000E+02  0.91188000000E+02 0.  0.
    9900012    2    3    3    0    0  0.41769893550E+01 -0.34345562393E+02 -0.12598188296E+02  0.54367092291E+02  0.40000018496E+02 0.  0.
         12    1    3    3    0    0 -0.41769893550E+01  0.34345562393E+02  0.12598188296E+02  0.36820907709E+02  0.00000000000E+00 0. -1.
         11    1    4    4    0    0  0.50384138887E+01 -0.12290271485E+02 -0.90345167497E+01  0.16064211181E+02  0.51100000000E-03 0. -1.
        -11    1    4    4    0    0  0.12403072062E+02 -0.21357690717E+02 -0.39640897167E+01  0.25014019207E+02  0.51100000000E-03 0.  1.
         12    1    4    4    0    0 -0.13264496596E+02 -0.69760019132E+00  0.40041817062E+00  0.13288861903E+02  0.00000000000E+00 0. -1.
</event>
<event>
 8    1  0.1253488E-006  0.9118800E+02  0.7816164E-02  0.1184000E+00
        -11   -1    0    0    0    0  0.00000000000E+00  0.00000000000E+00  0.45593999997E+02  0.45594000000E+02  0.51100000000E-03 0. -1.
         11   -1    0    0    0    0 -0.00000000000E+00 -0.00000000000E+00 -0.45593999997E+02  0.45594000000E+02  0.51100000000E-03 0.  1.
         23    2    1    2    0    0  0.35527136788E-14  0.00000000000E+00  0.88817841970E-15  0.91188000000E+02  0.91188000000E+02 0.  0.
    9900012    2    3    3    0    0 -0.31966415329E+02  0.17077220016E+02 -0.65035349788E+01  0.54367093986E+02  0.40000022360E+02 0.  0.
         12    1    3    3    0    0  0.31966415329E+02 -0.17077220016E+02  0.65035349788E+01  0.36820906014E+02  0.00000000000E+00 0. -1.
         11    1    4    4    0    0 -0.35852244011E+01 -0.62608165180E+00 -0.93806219199E+01  0.10061902410E+02  0.51100000000E-03 0. -1.
        -11    1    4    4    0    0 -0.21123712354E+02  0.80377817750E+01 -0.11633836838E+02  0.25419742707E+02  0.51100000000E-03 0.  1.
         12    1    4    4    0    0 -0.72574785737E+01  0.96655198932E+01  0.14510923779E+02  0.18885448869E+02  0.00000000000E+00 0. -1.
</event>
<event>
 8    1  0.1253488E-006  0.9118800E+02  0.7816164E-02  0.1184000E+00
        -11   -1    0    0    0    0  0.00000000000E+00  0.00000000000E+00  0.45593999997E+02  0.45594000000E+02  0.51100000000E-03 0.  1.
         11   -1    0    0    0    0 -0.00000000000E+00 -0.00000000000E+00 -0.45593999997E+02  0.45594000000E+02  0.51100000000E-03 0. -1.
         23    2    1    2    0    0  0.71054273576E-14 -0.88817841970E-15  0.00000000000E+00  0.91188000000E+02  0.91188000000E+02 0.  0.
    9900012    2    3    3    0    0  0.26844254132E+02 -0.43437975292E+01  0.24825523927E+02  0.54366957169E+02  0.39999710457E+02 0.  0.
         12    1    3    3    0    0 -0.26844254132E+02  0.43437975292E+01 -0.24825523927E+02  0.36821042831E+02  0.00000000000E+00 0. -1.
         11    1    4    4    0    0  0.27759777127E+01  0.41532763343E+01  0.24342437331E+02  0.24849748732E+02  0.51100000000E-03 0. -1.
        -11    1    4    4    0    0 -0.67788261137E+00 -0.43593290812E+01  0.37050099664E+00  0.44272504020E+01  0.51100000000E-03 0.  1.
        -12    1    4    4    0    0  0.24746159031E+02 -0.41377447824E+01  0.11258559943E+00  0.25089958035E+02  0.00000000000E+00 0.  1.
</event>
<event>
 8    1  0.1253488E-006  0.9118800E+02  0.7816164E-02  0.1184000E+00
        -11   -1    0    0    0    0  0.00000000000E+00  0.00000000000E+00  0.45593999997E+02  0.45594000000E+02  0.51100000000E-03 0.  1.
         11   -1    0    0    0    0 -0.00000000000E+00 -0.00000000000E+00 -0.45593999997E+02  0.45594000000E+02  0.51100000000E-03 0. -1.
         23    2    1    2    0    0 -0.88817841970E-15 -0.88817841970E-15  0.00000000000E+00  0.91188000000E+02  0.91188000000E+02 0.  0.
    9900012    2    3    3    0    0  0.12544350168E+01  0.69093685570E+01 -0.36145072356E+02  0.54367092398E+02  0.40000018739E+02 0.  0.
        -12    1    3    3    0    0 -0.12544350168E+01 -0.69093685570E+01  0.36145072356E+02  0.36820907602E+02  0.00000000000E+00 0.  1.
         11    1    4    4    0    0  0.90795563565E+01  0.89951204195E+01 -0.26623635691E+02  0.29532499262E+02  0.51100000000E-03 0. -1.
        -11    1    4    4    0    0 -0.72933147690E+01  0.84756424765E+01 -0.88110295980E+01  0.14235982528E+02  0.51100000000E-03 0.  1.
         12    1    4    4    0    0 -0.53180657076E+00 -0.10561394339E+02 -0.71040706694E+00  0.10598610608E+02  0.00000000000E+00 0. -1.
</event>
<event>
 8    1  0.1253488E-006  0.9118800E+02  0.7816164E-02  0.1184000E+00
        -11   -1    0    0    0    0  0.00000000000E+00  0.00000000000E+00  0.45593999997E+02  0.45594000000E+02  0.51100000000E-03 0. -1.
         11   -1    0    0    0    0 -0.00000000000E+00 -0.00000000000E+00 -0.45593999997E+02  0.45594000000E+02  0.51100000000E-03 0.  1.
         23    2    1    2    0    0  0.17763568394E-14 -0.35527136788E-14  0.71054273576E-14  0.91188000000E+02  0.91188000000E+02 0.  0.
    9900012    2    3    3    0    0 -0.11976398529E+02  0.12732508670E+02 -0.32407268359E+02  0.54367055672E+02  0.39999935015E+02 0.  0.
         12    1    3    3    0    0  0.11976398529E+02 -0.12732508670E+02  0.32407268359E+02  0.36820944328E+02  0.00000000000E+00 0. -1.
         11    1    4    4    0    0  0.31128420967E+01 -0.37145999522E+01 -0.98037209619E+01  0.10936223465E+02  0.51100000000E-03 0. -1.
        -11    1    4    4    0    0 -0.13330497534E+01  0.13725314335E+02 -0.25612422917E+02  0.29088786210E+02  0.51100000000E-03 0.  1.
         12    1    4    4    0    0 -0.13756190872E+02  0.27217942872E+01  0.30088755205E+01  0.14342045996E+02  0.00000000000E+00 0. -1.
</event>
<event>
 8    1  0.1253488E-006  0.9118800E+02  0.7816164E-02  0.1184000E+00
        -11   -1    0    0    0    0  0.00000000000E+00  0.00000000000E+00  0.45593999997E+02  0.45594000000E+02  0.51100000000E-03 0. -1.
         11   -1    0    0    0    0 -0.00000000000E+00 -0.00000000000E+00 -0.45593999997E+02  0.45594000000E+02  0.51100000000E-03 0.  1.
         23    2    1    2    0    0 -0.10658141036E-13 -0.35527136788E-14  0.00000000000E+00  0.91188000000E+02  0.91188000000E+02 0.  0.
    9900012    2    3    3    0    0 -0.29017755795E+02 -0.18399611165E+02 -0.13236572253E+02  0.54367045539E+02  0.39999911916E+02 0.  0.
        -12    1    3    3    0    0  0.29017755795E+02  0.18399611165E+02  0.13236572253E+02  0.36820954461E+02  0.00000000000E+00 0.  1.
         11    1    4    4    0    0 -0.32911969275E+01 -0.22881510045E+01  0.55941001681E+01  0.68819742217E+01  0.51100000000E-03 0. -1.
        -11    1    4    4    0    0  0.51468445254E+01 -0.10506167761E+02 -0.19698083431E+01  0.11863798497E+02  0.51100000000E-03 0.  1.
        -12    1    4    4    0    0 -0.30873403392E+02 -0.56052923990E+01 -0.16860864078E+02  0.35621272821E+02  0.00000000000E+00 0.  1.
</event>
<event>
 8    1  0.1253488E-006  0.9118800E+02  0.7816164E-02  0.1184000E+00
        -11   -1    0    0    0    0  0.00000000000E+00  0.00000000000E+00  0.45593999997E+02  0.45594000000E+02  0.51100000000E-03 0.  1.
         11   -1    0    0    0    0 -0.00000000000E+00 -0.00000000000E+00 -0.45593999997E+02  0.45594000000E+02  0.51100000000E-03 0. -1.
         23    2    1    2    0    0  0.00000000000E+00  0.00000000000E+00  0.35527136788E-14  0.91188000000E+02  0.91188000000E+02 0.  0.
    9900012    2    3    3    0    0  0.13065248733E+02 -0.23416479690E+02 -0.25233878239E+02  0.54367070401E+02  0.39999968594E+02 0.  0.
        -12    1    3    3    0    0 -0.13065248733E+02  0.23416479690E+02  0.25233878239E+02  0.36820929599E+02  0.00000000000E+00 0.  1.
         11    1    4    4    0    0  0.50299335558E+01 -0.10024709417E+02 -0.22823274756E+02  0.25430235967E+02  0.51100000000E-03 0. -1.
        -11    1    4    4    0    0  0.18843012678E+01 -0.17947499257E+02 -0.77129449850E+01  0.19625311245E+02  0.51100000000E-03 0.  1.
        -12    1    4    4    0    0  0.61510139097E+01  0.45557289844E+01  0.53023415027E+01  0.93115231895E+01  0.00000000000E+00 0.  1.
</event>
<event>
 8    1  0.1253488E-006  0.9118800E+02  0.7816164E-02  0.1184000E+00
        -11   -1    0    0    0    0  0.00000000000E+00  0.00000000000E+00  0.45593999997E+02  0.45594000000E+02  0.51100000000E-03 0.  1.
         11   -1    0    0    0    0 -0.00000000000E+00 -0.00000000000E+00 -0.45593999997E+02  0.45594000000E+02  0.51100000000E-03 0. -1.
         23    2    1    2    0    0  0.00000000000E+00  0.00000000000E+00 -0.17763568394E-14  0.91188000000E+02  0.91188000000E+02 0.  0.
    9900012    2    3    3    0    0 -0.24065732808E+02  0.26304034128E+02 -0.92041825492E+01  0.54367099911E+02  0.40000035866E+02 0.  0.
        -12    1    3    3    0    0  0.24065732808E+02 -0.26304034128E+02  0.92041825492E+01  0.36820900089E+02  0.00000000000E+00 0.  1.
         11    1    4    4    0    0 -0.62116257529E+01  0.16958237771E+02 -0.22449888236E+02  0.28812559846E+02  0.51100000000E-03 0. -1.
        -11    1    4    4    0    0 -0.15197730091E+02  0.10950158628E+02  0.10985149917E+02  0.21715213397E+02  0.51100000000E-03 0.  1.
         12    1    4    4    0    0 -0.26563769635E+01 -0.16043622713E+01  0.22605557698E+01  0.38393266673E+01  0.00000000000E+00 0. -1.
</event>
<event>
 8    1  0.1253488E-006  0.9118800E+02  0.7816164E-02  0.1184000E+00
        -11   -1    0    0    0    0  0.00000000000E+00  0.00000000000E+00  0.45593999997E+02  0.45594000000E+02  0.51100000000E-03 0.  1.
         11   -1    0    0    0    0 -0.00000000000E+00 -0.00000000000E+00 -0.45593999997E+02  0.45594000000E+02  0.51100000000E-03 0. -1.
         23    2    1    2    0    0  0.00000000000E+00  0.00000000000E+00  0.00000000000E+00  0.91188000000E+02  0.91188000000E+02 0.  0.
    9900012    2    3    3    0    0 -0.30724160104E+02  0.83733969340E+01 -0.18485059039E+02  0.54367011447E+02  0.39999834196E+02 0.  0.
        -12    1    3    3    0    0  0.30724160104E+02 -0.83733969340E+01  0.18485059039E+02  0.36820988553E+02  0.00000000000E+00 0.  1.
         11    1    4    4    0    0 -0.12833263420E+02  0.81665558049E+01 -0.10588860052E+02  0.18534002298E+02  0.51100000000E-03 0. -1.
        -11    1    4    4    0    0 -0.24601590865E+02  0.48704249818E+01 -0.10597301227E+02  0.27226129107E+02  0.51100000000E-03 0.  1.
         12    1    4    4    0    0  0.67106941814E+01 -0.46635838527E+01  0.27011022399E+01  0.86068800420E+01  0.00000000000E+00 0. -1.
</event>
<event>
 8    1  0.1253488E-006  0.9118800E+02  0.7816164E-02  0.1184000E+00
        -11   -1    0    0    0    0  0.00000000000E+00  0.00000000000E+00  0.45593999997E+02  0.45594000000E+02  0.51100000000E-03 0. -1.
         11   -1    0    0    0    0 -0.00000000000E+00 -0.00000000000E+00 -0.45593999997E+02  0.45594000000E+02  0.51100000000E-03 0.  1.
         23    2    1    2    0    0  0.35527136788E-14 -0.35527136788E-14 -0.35527136788E-14  0.91188000000E+02  0.91188000000E+02 0.  0.
    9900012    2    3    3    0    0 -0.22950140353E+02  0.20319166598E+02 -0.20401066776E+02  0.54367068465E+02  0.39999964181E+02 0.  0.
         12    1    3    3    0    0  0.22950140353E+02 -0.20319166598E+02  0.20401066776E+02  0.36820931535E+02  0.00000000000E+00 0. -1.
         11    1    4    4    0    0  0.29776017171E+01  0.10509471476E+02  0.51778227127E+01  0.12088215376E+02  0.51100000000E-03 0. -1.
        -11    1    4    4    0    0 -0.19505259617E+02  0.15600786610E+02 -0.18099373710E+02  0.30845210723E+02  0.51100000000E-03 0.  1.
         12    1    4    4    0    0 -0.64224824527E+01 -0.57910914874E+01 -0.74795157788E+01  0.11433642366E+02  0.00000000000E+00 0. -1.
</event>
<event>
 8    1  0.1253488E-006  0.9118800E+02  0.7816164E-02  0.1184000E+00
        -11   -1    0    0    0    0  0.00000000000E+00  0.00000000000E+00  0.45593999997E+02  0.45594000000E+02  0.51100000000E-03 0. -1.
         11   -1    0    0    0    0 -0.00000000000E+00 -0.00000000000E+00 -0.45593999997E+02  0.45594000000E+02  0.51100000000E-03 0.  1.
         23    2    1    2    0    0  0.00000000000E+00  0.35527136788E-14  0.00000000000E+00  0.91188000000E+02  0.91188000000E+02 0.  0.
    9900012    2    3    3    0    0 -0.22382273829E+01 -0.28568329277E+02 -0.23121871117E+02  0.54367081714E+02  0.39999994383E+02 0.  0.
         12    1    3    3    0    0  0.22382273829E+01  0.28568329277E+02  0.23121871117E+02  0.36820918286E+02  0.00000000000E+00 0. -1.
         11    1    4    4    0    0  0.17415389637E+00  0.46881686601E+01 -0.35742953352E+01  0.58978676120E+01  0.51100000000E-03 0. -1.
        -11    1    4    4    0    0  0.12829624237E+02 -0.18106673791E+02 -0.57267353729E+01  0.22918254561E+02  0.51100000000E-03 0.  1.
        -12    1    4    4    0    0 -0.15242005516E+02 -0.15149824146E+02 -0.13820840409E+02  0.25550959540E+02  0.00000000000E+00 0.  1.
</event>
<event>
 8    1  0.1253488E-006  0.9118800E+02  0.7816164E-02  0.1184000E+00
        -11   -1    0    0    0    0  0.00000000000E+00  0.00000000000E+00  0.45593999997E+02  0.45594000000E+02  0.51100000000E-03 0.  1.
         11   -1    0    0    0    0 -0.00000000000E+00 -0.00000000000E+00 -0.45593999997E+02  0.45594000000E+02  0.51100000000E-03 0. -1.
         23    2    1    2    0    0  0.00000000000E+00  0.44408920985E-15 -0.35527136788E-14  0.91188000000E+02  0.91188000000E+02 0.  0.
    9900012    2    3    3    0    0  0.22886119975E+02  0.23838463233E+01  0.28745799332E+02  0.54367106610E+02  0.40000051138E+02 0.  0.
         12    1    3    3    0    0 -0.22886119975E+02 -0.23838463233E+01 -0.28745799332E+02  0.36820893390E+02  0.00000000000E+00 0. -1.
         11    1    4    4    0    0  0.17119869731E+02 -0.36704635515E+01 -0.12992529252E+01  0.17557058430E+02  0.51100000000E-03 0. -1.
        -11    1    4    4    0    0  0.36997335877E+01 -0.69905012199E+01  0.91923919079E+01  0.12126632062E+02  0.51100000000E-03 0.  1.
         12    1    4    4    0    0  0.20665166565E+01  0.13044811095E+02  0.20852660350E+02  0.24683416118E+02  0.00000000000E+00 0. -1.
</event>
<event>
 8    1  0.1253488E-006  0.9118800E+02  0.7816164E-02  0.1184000E+00
        -11   -1    0    0    0    0  0.00000000000E+00  0.00000000000E+00  0.45593999997E+02  0.45594000000E+02  0.51100000000E-03 0.  1.
         11   -1    0    0    0    0 -0.00000000000E+00 -0.00000000000E+00 -0.45593999997E+02  0.45594000000E+02  0.51100000000E-03 0. -1.
         23    2    1    2    0    0  0.00000000000E+00 -0.44408920985E-15  0.00000000000E+00  0.91188000000E+02  0.91188000000E+02 0.  0.
    9900012    2    3    3    0    0  0.19297939311E+01 -0.30615345085E+01 -0.36642644422E+02  0.54367075400E+02  0.39999979989E+02 0.  0.
        -12    1    3    3    0    0 -0.19297939311E+01  0.30615345085E+01  0.36642644422E+02  0.36820924600E+02  0.00000000000E+00 0.  1.
         11    1    4    4    0    0 -0.46468791959E+01  0.14133764815E+01 -0.17557694596E+02  0.18217128180E+02  0.51100000000E-03 0. -1.
        -11    1    4    4    0    0  0.15291937470E+02 -0.73268040445E+01 -0.20784378116E+02  0.26823791362E+02  0.51100000000E-03 0.  1.
        -12    1    4    4    0    0 -0.87152643430E+01  0.28518930545E+01  0.16994282903E+01  0.93261558574E+01  0.00000000000E+00 0.  1.
</event>
<event>
 8    1  0.1253488E-006  0.9118800E+02  0.7816164E-02  0.1184000E+00
        -11   -1    0    0    0    0  0.00000000000E+00  0.00000000000E+00  0.45593999997E+02  0.45594000000E+02  0.51100000000E-03 0.  1.
         11   -1    0    0    0    0 -0.00000000000E+00 -0.00000000000E+00 -0.45593999997E+02  0.45594000000E+02  0.51100000000E-03 0. -1.
         23    2    1    2    0    0  0.00000000000E+00 -0.35527136788E-14 -0.44408920985E-15  0.91188000000E+02  0.91188000000E+02 0.  0.
    9900012    2    3    3    0    0 -0.24554258465E+02  0.27257604116E+02  0.31448658413E+01  0.54367098706E+02  0.40000033121E+02 0.  0.
         12    1    3    3    0    0  0.24554258465E+02 -0.27257604116E+02 -0.31448658413E+01  0.36820901294E+02  0.00000000000E+00 0. -1.
         11    1    4    4    0    0  0.11188341162E+01  0.48610658999E+00 -0.48816132372E+01  0.50317231099E+01  0.51100000000E-03 0. -1.
        -11    1    4    4    0    0 -0.33775623208E+01  0.24809039613E+02 -0.13378693074E+01  0.25073616976E+02  0.51100000000E-03 0.  1.
        -12    1    4    4    0    0 -0.22295530260E+02  0.19624579136E+01  0.93643483859E+01  0.24261758620E+02  0.00000000000E+00 0.  1.
</event>
<event>
 8    1  0.1253488E-006  0.9118800E+02  0.7816164E-02  0.1184000E+00
        -11   -1    0    0    0    0  0.00000000000E+00  0.00000000000E+00  0.45593999997E+02  0.45594000000E+02  0.51100000000E-03 0. -1.
         11   -1    0    0    0    0 -0.00000000000E+00 -0.00000000000E+00 -0.45593999997E+02  0.45594000000E+02  0.51100000000E-03 0.  1.
         23    2    1    2    0    0  0.00000000000E+00  0.00000000000E+00  0.17763568394E-14  0.91188000000E+02  0.91188000000E+02 0.  0.
    9900012    2    3    3    0    0  0.19410379472E+02  0.27004812597E+02  0.15803739165E+02  0.54367069726E+02  0.39999967055E+02 0.  0.
         12    1    3    3    0    0 -0.19410379472E+02 -0.27004812597E+02 -0.15803739165E+02  0.36820930274E+02  0.00000000000E+00 0. -1.
         11    1    4    4    0    0  0.18312232961E+02  0.40302450871E+01  0.15611727829E+02  0.24398909761E+02  0.51100000000E-03 0. -1.
        -11    1    4    4    0    0 -0.21386805335E+01  0.25231775634E+02  0.24180735727E+01  0.25437443585E+02  0.51100000000E-03 0.  1.
        -12    1    4    4    0    0  0.32368270443E+01 -0.22572081247E+01 -0.22260622367E+01  0.45307163799E+01  0.00000000000E+00 0.  1.
</event>
<event>
 8    1  0.1253488E-006  0.9118800E+02  0.7816164E-02  0.1184000E+00
        -11   -1    0    0    0    0  0.00000000000E+00  0.00000000000E+00  0.45593999997E+02  0.45594000000E+02  0.51100000000E-03 0. -1.
         11   -1    0    0    0    0 -0.00000000000E+00 -0.00000000000E+00 -0.45593999997E+02  0.45594000000E+02  0.51100000000E-03 0.  1.
         23    2    1    2    0    0 -0.71054273576E-14 -0.17763568394E-14 -0.17763568394E-14  0.91188000000E+02  0.91188000000E+02 0.  0.
    9900012    2    3    3    0    0 -0.32142997514E+02 -0.15570325320E+02 -0.89539380062E+01  0.54367077611E+02  0.39999985029E+02 0.  0.
         12    1    3    3    0    0  0.32142997514E+02  0.15570325320E+02  0.89539380062E+01  0.36820922389E+02  0.00000000000E+00 0. -1.
         11    1    4    4    0    0 -0.11378849901E+02  0.52841848559E+01 -0.18785945231E+02  0.22590099007E+02  0.51100000000E-03 0. -1.
        -11    1    4    4    0    0 -0.80387787104E+01 -0.11762679733E+02  0.23495485397E+01  0.14439632137E+02  0.51100000000E-03 0.  1.
        -12    1    4    4    0    0 -0.12725368903E+02 -0.90918304429E+01  0.74824586851E+01  0.17337346466E+02  0.00000000000E+00 0.  1.
</event>
<event>
 8    1  0.1253488E-006  0.9118800E+02  0.7816164E-02  0.1184000E+00
        -11   -1    0    0    0    0  0.00000000000E+00  0.00000000000E+00  0.45593999997E+02  0.45594000000E+02  0.51100000000E-03 0.  1.
         11   -1    0    0    0    0 -0.00000000000E+00 -0.00000000000E+00 -0.45593999997E+02  0.45594000000E+02  0.51100000000E-03 0. -1.
         23    2    1    2    0    0  0.88817841970E-15  0.00000000000E+00  0.00000000000E+00  0.91188000000E+02  0.91188000000E+02 0.  0.
    9900012    2    3    3    0    0  0.76198873922E+01 -0.35579663063E+02  0.56396057735E+01  0.54367078490E+02  0.39999987034E+02 0.  0.
         12    1    3    3    0    0 -0.76198873922E+01  0.35579663063E+02 -0.56396057735E+01  0.36820921510E+02  0.00000000000E+00 0. -1.
         11    1    4    4    0    0  0.64755655298E+01 -0.29729157059E+02 -0.90448134037E+01  0.31742154592E+02  0.51100000000E-03 0. -1.
        -11    1    4    4    0    0  0.32192864242E+01  0.45803966026E+01  0.89105888243E+01  0.10523422997E+02  0.51100000000E-03 0.  1.
        -12    1    4    4    0    0 -0.20749645618E+01 -0.10430902607E+02  0.57738303529E+01  0.12101500901E+02  0.00000000000E+00 0.  1.
</event>
<event>
 8    1  0.1253488E-006  0.9118800E+02  0.7816164E-02  0.1184000E+00
        -11   -1    0    0    0    0  0.00000000000E+00  0.00000000000E+00  0.45593999997E+02  0.45594000000E+02  0.51100000000E-03 0. -1.
         11   -1    0    0    0    0 -0.00000000000E+00 -0.00000000000E+00 -0.45593999997E+02  0.45594000000E+02  0.51100000000E-03 0.  1.
         23    2    1    2    0    0  0.16653345369E-15 -0.22204460493E-15  0.00000000000E+00  0.91188000000E+02  0.91188000000E+02 0.  0.
    9900012    2    3    3    0    0 -0.12059858137E+00 -0.10946148752E+01 -0.36804442349E+02  0.54367086074E+02  0.40000004322E+02 0.  0.
         12    1    3    3    0    0  0.12059858137E+00  0.10946148752E+01  0.36804442349E+02  0.36820913926E+02  0.00000000000E+00 0. -1.
         11    1    4    4    0    0  0.29031273182E+01  0.86035909349E-01  0.57905307898E+01  0.64781013802E+01  0.51100000000E-03 0. -1.
        -11    1    4    4    0    0 -0.10447442290E+02  0.50521964534E+01 -0.17613909297E+02  0.21093210766E+02  0.51100000000E-03 0.  1.
         12    1    4    4    0    0  0.74237163903E+01 -0.62328472379E+01 -0.24981063842E+02  0.26795773928E+02  0.00000000000E+00 0. -1.
</event>
<event>
 8    1  0.1253488E-006  0.9118800E+02  0.7816164E-02  0.1184000E+00
        -11   -1    0    0    0    0  0.00000000000E+00  0.00000000000E+00  0.45593999997E+02  0.45594000000E+02  0.51100000000E-03 0.  1.
         11   -1    0    0    0    0 -0.00000000000E+00 -0.00000000000E+00 -0.45593999997E+02  0.45594000000E+02  0.51100000000E-03 0. -1.
         23    2    1    2    0    0 -0.35527136788E-14  0.00000000000E+00  0.00000000000E+00  0.91188000000E+02  0.91188000000E+02 0.  0.
    9900012    2    3    3    0    0 -0.28787113532E+02  0.11407401593E+02  0.19923715811E+02  0.54367066167E+02  0.39999958941E+02 0.  0.
         12    1    3    3    0    0  0.28787113532E+02 -0.11407401593E+02 -0.19923715811E+02  0.36820933833E+02  0.00000000000E+00 0. -1.
         11    1    4    4    0    0 -0.38351758589E+01 -0.28341126064E+00 -0.55251435532E+01  0.67317239513E+01  0.51100000000E-03 0. -1.
        -11    1    4    4    0    0 -0.27001546779E+02  0.11360963666E+01  0.10006206353E+02  0.28818369302E+02  0.51100000000E-03 0.  1.
        -12    1    4    4    0    0  0.20496091058E+01  0.10554716487E+02  0.15442653011E+02  0.18816972913E+02  0.00000000000E+00 0.  1.
</event>
<event>
 8    1  0.1253488E-006  0.9118800E+02  0.7816164E-02  0.1184000E+00
        -11   -1    0    0    0    0  0.00000000000E+00  0.00000000000E+00  0.45593999997E+02  0.45594000000E+02  0.51100000000E-03 0. -1.
         11   -1    0    0    0    0 -0.00000000000E+00 -0.00000000000E+00 -0.45593999997E+02  0.45594000000E+02  0.51100000000E-03 0.  1.
         23    2    1    2    0    0  0.35527136788E-14  0.88817841970E-15  0.00000000000E+00  0.91188000000E+02  0.91188000000E+02 0.  0.
    9900012    2    3    3    0    0 -0.23491667161E+02  0.24659239094E+01  0.28246080323E+02  0.54367078497E+02  0.39999987049E+02 0.  0.
        -12    1    3    3    0    0  0.23491667161E+02 -0.24659239094E+01 -0.28246080323E+02  0.36820921503E+02  0.00000000000E+00 0.  1.
         11    1    4    4    0    0 -0.16687125306E+02 -0.15878609595E+01 -0.11894518994E+01  0.16804649639E+02  0.51100000000E-03 0. -1.
        -11    1    4    4    0    0 -0.10690236775E+02  0.76111650477E+01  0.77378373787E+01  0.15234340263E+02  0.51100000000E-03 0.  1.
        -12    1    4    4    0    0  0.38856949199E+01 -0.35573801789E+01  0.21697694844E+02  0.22328088594E+02  0.00000000000E+00 0.  1.
</event>
<event>
 8    1  0.1253488E-006  0.9118800E+02  0.7816164E-02  0.1184000E+00
        -11   -1    0    0    0    0  0.00000000000E+00  0.00000000000E+00  0.45593999997E+02  0.45594000000E+02  0.51100000000E-03 0.  1.
         11   -1    0    0    0    0 -0.00000000000E+00 -0.00000000000E+00 -0.45593999997E+02  0.45594000000E+02  0.51100000000E-03 0. -1.
         23    2    1    2    0    0  0.00000000000E+00 -0.22204460493E-15  0.00000000000E+00  0.91188000000E+02  0.91188000000E+02 0.  0.
    9900012    2    3    3    0    0 -0.31752750331E+02  0.13010306496E+01 -0.18597056224E+02  0.54367077489E+02  0.39999984753E+02 0.  0.
        -12    1    3    3    0    0  0.31752750331E+02 -0.13010306496E+01  0.18597056224E+02  0.36820922511E+02  0.00000000000E+00 0.  1.
         11    1    4    4    0    0  0.13779551053E+01 -0.64737159002E+00 -0.98976833558E+01  0.10014089390E+02  0.51100000000E-03 0. -1.
        -11    1    4    4    0    0  0.11593579988E+01 -0.74925002178E+01 -0.37034144910E+01  0.84378284906E+01  0.51100000000E-03 0.  1.
        -12    1    4    4    0    0 -0.34290063435E+02  0.94409024574E+01 -0.49959583776E+01  0.35915159608E+02  0.00000000000E+00 0.  1.
</event>
<event>
 8    1  0.1253488E-006  0.9118800E+02  0.7816164E-02  0.1184000E+00
        -11   -1    0    0    0    0  0.00000000000E+00  0.00000000000E+00  0.45593999997E+02  0.45594000000E+02  0.51100000000E-03 0.  1.
         11   -1    0    0    0    0 -0.00000000000E+00 -0.00000000000E+00 -0.45593999997E+02  0.45594000000E+02  0.51100000000E-03 0. -1.
         23    2    1    2    0    0  0.00000000000E+00  0.00000000000E+00 -0.35527136788E-14  0.91188000000E+02  0.91188000000E+02 0.  0.
    9900012    2    3    3    0    0  0.19985693646E+02 -0.99179380898E+01  0.29291406466E+02  0.54367082857E+02  0.39999996990E+02 0.  0.
         12    1    3    3    0    0 -0.19985693646E+02  0.99179380898E+01 -0.29291406466E+02  0.36820917143E+02  0.00000000000E+00 0. -1.
         11    1    4    4    0    0  0.12199439355E+02 -0.55724343651E+01  0.99031773603E+01  0.16671870544E+02  0.51100000000E-03 0. -1.
        -11    1    4    4    0    0 -0.11732586518E+02  0.17563243448E+01  0.66013906666E+01  0.13576325740E+02  0.51100000000E-03 0.  1.
        -12    1    4    4    0    0  0.19518840808E+02 -0.61018280694E+01  0.12786838439E+02  0.24118886574E+02  0.00000000000E+00 0.  1.
</event>
<event>
 8    1  0.1253488E-006  0.9118800E+02  0.7816164E-02  0.1184000E+00
        -11   -1    0    0    0    0  0.00000000000E+00  0.00000000000E+00  0.45593999997E+02  0.45594000000E+02  0.51100000000E-03 0.  1.
         11   -1    0    0    0    0 -0.00000000000E+00 -0.00000000000E+00 -0.45593999997E+02  0.45594000000E+02  0.51100000000E-03 0. -1.
         23    2    1    2    0    0  0.00000000000E+00  0.88817841970E-15 -0.35527136788E-14  0.91188000000E+02  0.91188000000E+02 0.  0.
    9900012    2    3    3    0    0  0.20176242516E+02  0.74984566876E+01 -0.29874260198E+02  0.54367095107E+02  0.40000024915E+02 0.  0.
        -12    1    3    3    0    0 -0.20176242516E+02 -0.74984566876E+01  0.29874260198E+02  0.36820904893E+02  0.00000000000E+00 0.  1.
         11    1    4    4    0    0  0.11658820364E+02  0.20707005218E+02 -0.14808738825E+02  0.28000123271E+02  0.51100000000E-03 0. -1.
        -11    1    4    4    0    0 -0.30836881072E+01 -0.85392641181E+01 -0.54196011590E+01  0.10573563307E+02  0.51100000000E-03 0.  1.
         12    1    4    4    0    0  0.11601110259E+02 -0.46692844123E+01 -0.96459202144E+01  0.15793408529E+02  0.00000000000E+00 0. -1.
</event>
<event>
 8    1  0.1253488E-006  0.9118800E+02  0.7816164E-02  0.1184000E+00
        -11   -1    0    0    0    0  0.00000000000E+00  0.00000000000E+00  0.45593999997E+02  0.45594000000E+02  0.51100000000E-03 0. -1.
         11   -1    0    0    0    0 -0.00000000000E+00 -0.00000000000E+00 -0.45593999997E+02  0.45594000000E+02  0.51100000000E-03 0.  1.
         23    2    1    2    0    0  0.00000000000E+00  0.00000000000E+00  0.35527136788E-14  0.91188000000E+02  0.91188000000E+02 0.  0.
    9900012    2    3    3    0    0 -0.22207243123E+02 -0.22429234909E+02 -0.18961727895E+02  0.54367090852E+02  0.40000015216E+02 0.  0.
         12    1    3    3    0    0  0.22207243123E+02  0.22429234909E+02  0.18961727895E+02  0.36820909148E+02  0.00000000000E+00 0. -1.
         11    1    4    4    0    0 -0.10307975500E+02 -0.50082789039E+01 -0.15705035815E+02  0.19441845764E+02  0.51100000000E-03 0. -1.
        -11    1    4    4    0    0 -0.90848706066E+01 -0.19830852141E+02 -0.12377992343E+02  0.25080116931E+02  0.51100000000E-03 0.  1.
         12    1    4    4    0    0 -0.28143970157E+01  0.24098961361E+01  0.91213002629E+01  0.98451281574E+01  0.00000000000E+00 0. -1.
</event>
<event>
 8    1  0.1253488E-006  0.9118800E+02  0.7816164E-02  0.1184000E+00
        -11   -1    0    0    0    0  0.00000000000E+00  0.00000000000E+00  0.45593999997E+02  0.45594000000E+02  0.51100000000E-03 0. -1.
         11   -1    0    0    0    0 -0.00000000000E+00 -0.00000000000E+00 -0.45593999997E+02  0.45594000000E+02  0.51100000000E-03 0.  1.
         23    2    1    2    0    0  0.00000000000E+00  0.35527136788E-14  0.22204460493E-15  0.91188000000E+02  0.91188000000E+02 0.  0.
    9900012    2    3    3    0    0  0.32360156246E+02 -0.17497092987E+02 -0.15659274428E+01  0.54367080619E+02  0.39999991888E+02 0.  0.
        -12    1    3    3    0    0 -0.32360156246E+02  0.17497092987E+02  0.15659274428E+01  0.36820919381E+02  0.00000000000E+00 0.  1.
         11    1    4    4    0    0  0.15472570246E+02  0.50261825974E+01 -0.10028118835E+01  0.16299342731E+02  0.51100000000E-03 0.  1.
        -11    1    4    4    0    0  0.23370170073E+02 -0.13664638133E+02 -0.87602506461E+00  0.27086059232E+02  0.51100000000E-03 0. -1.
        -12    1    4    4    0    0 -0.64825840728E+01 -0.88586374514E+01  0.31290950532E+00  0.10981678657E+02  0.00000000000E+00 0.  1.
</event>
<event>
 8    1  0.1253488E-006  0.9118800E+02  0.7816164E-02  0.1184000E+00
        -11   -1    0    0    0    0  0.00000000000E+00  0.00000000000E+00  0.45593999997E+02  0.45594000000E+02  0.51100000000E-03 0.  1.
         11   -1    0    0    0    0 -0.00000000000E+00 -0.00000000000E+00 -0.45593999997E+02  0.45594000000E+02  0.51100000000E-03 0. -1.
         23    2    1    2    0    0 -0.66613381478E-15  0.00000000000E+00  0.35527136788E-14  0.91188000000E+02  0.91188000000E+02 0.  0.
    9900012    2    3    3    0    0  0.14291804232E+01  0.20250766769E+02 -0.30718769095E+02  0.54367097158E+02  0.40000029591E+02 0.  0.
        -12    1    3    3    0    0 -0.14291804232E+01 -0.20250766769E+02  0.30718769095E+02  0.36820902842E+02  0.00000000000E+00 0.  1.
         11    1    4    4    0    0  0.58026908910E+01  0.12637436460E+02  0.10214220580E+01  0.13943433047E+02  0.51100000000E-03 0. -1.
        -11    1    4    4    0    0  0.35665923462E+01 -0.70635148661E+01 -0.13908391561E+02  0.16001786753E+02  0.51100000000E-03 0.  1.
         12    1    4    4    0    0 -0.79401028140E+01  0.14676845175E+02 -0.17831799592E+02  0.24421877357E+02  0.00000000000E+00 0. -1.
</event>
<event>
 8    1  0.1253488E-006  0.9118800E+02  0.7816164E-02  0.1184000E+00
        -11   -1    0    0    0    0  0.00000000000E+00  0.00000000000E+00  0.45593999997E+02  0.45594000000E+02  0.51100000000E-03 0.  1.
         11   -1    0    0    0    0 -0.00000000000E+00 -0.00000000000E+00 -0.45593999997E+02  0.45594000000E+02  0.51100000000E-03 0. -1.
         23    2    1    2    0    0  0.35527136788E-14  0.00000000000E+00  0.44408920985E-15  0.91188000000E+02  0.91188000000E+02 0.  0.
    9900012    2    3    3    0    0 -0.28027435315E+02 -0.23802756827E+02 -0.19163221845E+01  0.54367073156E+02  0.39999974874E+02 0.  0.
         12    1    3    3    0    0  0.28027435315E+02  0.23802756827E+02  0.19163221845E+01  0.36820926844E+02  0.00000000000E+00 0. -1.
         11    1    4    4    0    0 -0.10633087755E+02 -0.22571524394E+02  0.16143773426E+01  0.25002849501E+02  0.51100000000E-03 0. -1.
        -11    1    4    4    0    0 -0.18077863671E+02  0.70114011317E+01 -0.66883360055E+01  0.20511039455E+02  0.51100000000E-03 0.  1.
        -12    1    4    4    0    0  0.68351611097E+00 -0.82426335646E+01  0.31576364784E+01  0.88531842003E+01  0.00000000000E+00 0.  1.
</event>
<event>
 8    1  0.1253488E-006  0.9118800E+02  0.7816164E-02  0.1184000E+00
        -11   -1    0    0    0    0  0.00000000000E+00  0.00000000000E+00  0.45593999997E+02  0.45594000000E+02  0.51100000000E-03 0.  1.
         11   -1    0    0    0    0 -0.00000000000E+00 -0.00000000000E+00 -0.45593999997E+02  0.45594000000E+02  0.51100000000E-03 0. -1.
         23    2    1    2    0    0  0.00000000000E+00 -0.35527136788E-14 -0.35527136788E-14  0.91188000000E+02  0.91188000000E+02 0.  0.
    9900012    2    3    3    0    0 -0.50558999561E+01  0.28576641952E+02  0.22662621885E+02  0.54367068177E+02  0.39999963523E+02 0.  0.
        -12    1    3    3    0    0  0.50558999561E+01 -0.28576641952E+02 -0.22662621885E+02  0.36820931823E+02  0.00000000000E+00 0.  1.
         11    1    4    4    0    0  0.50826561567E+01  0.70798532614E+01  0.21408285719E+02  0.23114333507E+02  0.51100000000E-03 0. -1.
        -11    1    4    4    0    0 -0.55359588240E+01  0.70034538964E+01 -0.91842998978E+01  0.12808066656E+02  0.51100000000E-03 0.  1.
        -12    1    4    4    0    0 -0.46025972888E+01  0.14493334794E+02  0.10438636064E+02  0.18444668014E+02  0.00000000000E+00 0.  1.
</event>
<event>
 8    1  0.1253488E-006  0.9118800E+02  0.7816164E-02  0.1184000E+00
        -11   -1    0    0    0    0  0.00000000000E+00  0.00000000000E+00  0.45593999997E+02  0.45594000000E+02  0.51100000000E-03 0. -1.
         11   -1    0    0    0    0 -0.00000000000E+00 -0.00000000000E+00 -0.45593999997E+02  0.45594000000E+02  0.51100000000E-03 0.  1.
         23    2    1    2    0    0 -0.35527136788E-14  0.35527136788E-14  0.00000000000E+00  0.91188000000E+02  0.91188000000E+02 0.  0.
    9900012    2    3    3    0    0  0.18347604329E+02 -0.22347178603E+02  0.22798025904E+02  0.54367068979E+02  0.39999965351E+02 0.  0.
        -12    1    3    3    0    0 -0.18347604329E+02  0.22347178603E+02 -0.22798025904E+02  0.36820931021E+02  0.00000000000E+00 0.  1.
         11    1    4    4    0    0  0.25510460908E+02 -0.16420814482E+02  0.12725413064E+02  0.32899284215E+02  0.51100000000E-03 0. -1.
        -11    1    4    4    0    0 -0.99218552050E+01  0.84756541609E+00  0.10057865583E+02  0.14153523879E+02  0.51100000000E-03 0.  1.
         12    1    4    4    0    0  0.27589986262E+01 -0.67739295378E+01  0.14747257437E-01  0.73142608844E+01  0.00000000000E+00 0. -1.
</event>
<event>
 8    1  0.1253488E-006  0.9118800E+02  0.7816164E-02  0.1184000E+00
        -11   -1    0    0    0    0  0.00000000000E+00  0.00000000000E+00  0.45593999997E+02  0.45594000000E+02  0.51100000000E-03 0.  1.
         11   -1    0    0    0    0 -0.00000000000E+00 -0.00000000000E+00 -0.45593999997E+02  0.45594000000E+02  0.51100000000E-03 0. -1.
         23    2    1    2    0    0  0.00000000000E+00  0.35527136788E-14  0.00000000000E+00  0.91188000000E+02  0.91188000000E+02 0.  0.
    9900012    2    3    3    0    0  0.25157065204E+02 -0.16848977356E+02  0.20952671422E+02  0.54367076501E+02  0.39999982500E+02 0.  0.
         12    1    3    3    0    0 -0.25157065204E+02  0.16848977356E+02 -0.20952671422E+02  0.36820923499E+02  0.00000000000E+00 0. -1.
         11    1    4    4    0    0  0.26103083199E+02  0.29190168945E+01  0.93464502515E+01  0.27879163271E+02  0.51100000000E-03 0. -1.
        -11    1    4    4    0    0  0.58940430319E+01 -0.12246669823E+02  0.75027127164E+01  0.15524540682E+02  0.51100000000E-03 0.  1.
        -12    1    4    4    0    0 -0.68400610276E+01 -0.75213244273E+01  0.41035084539E+01  0.10963372548E+02  0.00000000000E+00 0.  1.
</event>
<event>
 8    1  0.1253488E-006  0.9118800E+02  0.7816164E-02  0.1184000E+00
        -11   -1    0    0    0    0  0.00000000000E+00  0.00000000000E+00  0.45593999997E+02  0.45594000000E+02  0.51100000000E-03 0.  1.
         11   -1    0    0    0    0 -0.00000000000E+00 -0.00000000000E+00 -0.45593999997E+02  0.45594000000E+02  0.51100000000E-03 0. -1.
         23    2    1    2    0    0  0.17763568394E-14  0.00000000000E+00 -0.35527136788E-14  0.91188000000E+02  0.91188000000E+02 0.  0.
    9900012    2    3    3    0    0  0.99516208810E+01 -0.25325053511E+02 -0.24807000695E+02  0.54367076913E+02  0.39999983439E+02 0.  0.
        -12    1    3    3    0    0 -0.99516208810E+01  0.25325053511E+02  0.24807000695E+02  0.36820923087E+02  0.00000000000E+00 0.  1.
         11    1    4    4    0    0 -0.51635126873E+01 -0.32670459693E+01 -0.73014112497E+01  0.95208223981E+01  0.51100000000E-03 0. -1.
        -11    1    4    4    0    0  0.11674609685E+02  0.49756959765E+00  0.50800479484E+01  0.12741702172E+02  0.51100000000E-03 0.  1.
        -12    1    4    4    0    0  0.34405238829E+01 -0.22555577139E+02 -0.22585637394E+02  0.32104552343E+02  0.00000000000E+00 0.  1.
</event>
<event>
 8    1  0.1253488E-006  0.9118800E+02  0.7816164E-02  0.1184000E+00
        -11   -1    0    0    0    0  0.00000000000E+00  0.00000000000E+00  0.45593999997E+02  0.45594000000E+02  0.51100000000E-03 0.  1.
         11   -1    0    0    0    0 -0.00000000000E+00 -0.00000000000E+00 -0.45593999997E+02  0.45594000000E+02  0.51100000000E-03 0. -1.
         23    2    1    2    0    0 -0.44408920985E-15  0.71054273576E-14  0.71054273576E-14  0.91188000000E+02  0.91188000000E+02 0.  0.
    9900012    2    3    3    0    0 -0.31360266328E+01  0.21328383121E+02  0.29850376419E+02  0.54367087980E+02  0.40000008669E+02 0.  0.
         12    1    3    3    0    0  0.31360266328E+01 -0.21328383121E+02 -0.29850376419E+02  0.36820912020E+02  0.00000000000E+00 0. -1.
         11    1    4    4    0    0 -0.31127383271E+01 -0.82227712306E+01 -0.26446742865E+01  0.91813620420E+01  0.51100000000E-03 0. -1.
        -11    1    4    4    0    0  0.41978223709E+01  0.75567149702E+01  0.61560369580E+01  0.10612372265E+02  0.51100000000E-03 0.  1.
         12    1    4    4    0    0 -0.42211106767E+01  0.21994439382E+02  0.26339013747E+02  0.34573353674E+02  0.00000000000E+00 0. -1.
</event>
<event>
 8    1  0.1253488E-006  0.9118800E+02  0.7816164E-02  0.1184000E+00
        -11   -1    0    0    0    0  0.00000000000E+00  0.00000000000E+00  0.45593999997E+02  0.45594000000E+02  0.51100000000E-03 0. -1.
         11   -1    0    0    0    0 -0.00000000000E+00 -0.00000000000E+00 -0.45593999997E+02  0.45594000000E+02  0.51100000000E-03 0.  1.
         23    2    1    2    0    0  0.16653345369E-15 -0.35527136788E-14  0.00000000000E+00  0.91188000000E+02  0.91188000000E+02 0.  0.
    9900012    2    3    3    0    0  0.16746716392E+00 -0.25463960276E+02  0.26595837361E+02  0.54367083619E+02  0.39999998726E+02 0.  0.
         12    1    3    3    0    0 -0.16746716392E+00  0.25463960276E+02 -0.26595837361E+02  0.36820916381E+02  0.00000000000E+00 0. -1.
         11    1    4    4    0    0 -0.71899735258E+01 -0.12398688567E+02  0.24174786775E+02  0.28104154735E+02  0.51100000000E-03 0. -1.
        -11    1    4    4    0    0 -0.60820378972E+01 -0.66098905257E+01  0.61602328575E+01  0.10891754077E+02  0.51100000000E-03 0.  1.
        -12    1    4    4    0    0  0.13439478587E+02 -0.64553811835E+01 -0.37391822711E+01  0.15371174808E+02  0.00000000000E+00 0.  1.
</event>
<event>
 8    1  0.1253488E-006  0.9118800E+02  0.7816164E-02  0.1184000E+00
        -11   -1    0    0    0    0  0.00000000000E+00  0.00000000000E+00  0.45593999997E+02  0.45594000000E+02  0.51100000000E-03 0.  1.
         11   -1    0    0    0    0 -0.00000000000E+00 -0.00000000000E+00 -0.45593999997E+02  0.45594000000E+02  0.51100000000E-03 0. -1.
         23    2    1    2    0    0  0.35527136788E-14 -0.17763568394E-14  0.00000000000E+00  0.91188000000E+02  0.91188000000E+02 0.  0.
    9900012    2    3    3    0    0 -0.11725782565E+02  0.15504658594E+02 -0.31271262069E+02  0.54367078688E+02  0.39999987485E+02 0.  0.
        -12    1    3    3    0    0  0.11725782565E+02 -0.15504658594E+02  0.31271262069E+02  0.36820921312E+02  0.00000000000E+00 0.  1.
         11    1    4    4    0    0 -0.12617765918E+02 -0.18168420200E+01 -0.29916123182E+02  0.32518969205E+02  0.51100000000E-03 0. -1.
        -11    1    4    4    0    0  0.24786299777E+01  0.11133007332E+02 -0.69496985787E+01  0.13356113560E+02  0.51100000000E-03 0.  1.
        -12    1    4    4    0    0 -0.15866466245E+01  0.61884932815E+01  0.55945596915E+01  0.84919959225E+01  0.00000000000E+00 0.  1.
</event>
<event>
 8    1  0.1253488E-006  0.9118800E+02  0.7816164E-02  0.1184000E+00
        -11   -1    0    0    0    0  0.00000000000E+00  0.00000000000E+00  0.45593999997E+02  0.45594000000E+02  0.51100000000E-03 0.  1.
         11   -1    0    0    0    0 -0.00000000000E+00 -0.00000000000E+00 -0.45593999997E+02  0.45594000000E+02  0.51100000000E-03 0. -1.
         23    2    1    2    0    0  0.00000000000E+00 -0.88817841970E-15  0.17763568394E-14  0.91188000000E+02  0.91188000000E+02 0.  0.
    9900012    2    3    3    0    0  0.36048351848E+02 -0.50314158178E+01  0.55659518533E+01  0.54367100552E+02  0.40000037329E+02 0.  0.
        -12    1    3    3    0    0 -0.36048351848E+02  0.50314158178E+01 -0.55659518533E+01  0.36820899448E+02  0.00000000000E+00 0.  1.
         11    1    4    4    0    0  0.77002487655E+01 -0.12497116540E+02 -0.49022213463E+01  0.15475901501E+02  0.51100000000E-03 0.  1.
        -11    1    4    4    0    0 -0.35843027809E+01  0.34165535338E+01 -0.27011312931E+00  0.49591355938E+01  0.51100000000E-03 0. -1.
        -12    1    4    4    0    0  0.31932405864E+02  0.40491471886E+01  0.10738286329E+02  0.33932063458E+02  0.00000000000E+00 0.  1.
</event>
<event>
 8    1  0.1253488E-006  0.9118800E+02  0.7816164E-02  0.1184000E+00
        -11   -1    0    0    0    0  0.00000000000E+00  0.00000000000E+00  0.45593999997E+02  0.45594000000E+02  0.51100000000E-03 0. -1.
         11   -1    0    0    0    0 -0.00000000000E+00 -0.00000000000E+00 -0.45593999997E+02  0.45594000000E+02  0.51100000000E-03 0.  1.
         23    2    1    2    0    0 -0.17763568394E-14 -0.17763568394E-14 -0.71054273576E-14  0.91188000000E+02  0.91188000000E+02 0.  0.
    9900012    2    3    3    0    0  0.70438520885E+01  0.14830715262E+02  0.32957749482E+02  0.54367092646E+02  0.40000019305E+02 0.  0.
        -12    1    3    3    0    0 -0.70438520885E+01 -0.14830715262E+02 -0.32957749482E+02  0.36820907354E+02  0.00000000000E+00 0.  1.
         11    1    4    4    0    0 -0.68573697187E+01  0.10169556634E+02  0.21169983297E+02  0.24466540308E+02  0.51100000000E-03 0. -1.
        -11    1    4    4    0    0  0.20609654314E+01 -0.55630687602E+01  0.12918923683E+02  0.14215973478E+02  0.51100000000E-03 0.  1.
        -12    1    4    4    0    0  0.11840256376E+02  0.10224227388E+02 -0.11311574976E+01  0.15684578860E+02  0.00000000000E+00 0.  1.
</event>
<event>
 8    1  0.1253488E-006  0.9118800E+02  0.7816164E-02  0.1184000E+00
        -11   -1    0    0    0    0  0.00000000000E+00  0.00000000000E+00  0.45593999997E+02  0.45594000000E+02  0.51100000000E-03 0.  1.
         11   -1    0    0    0    0 -0.00000000000E+00 -0.00000000000E+00 -0.45593999997E+02  0.45594000000E+02  0.51100000000E-03 0. -1.
         23    2    1    2    0    0  0.17763568394E-14 -0.35527136788E-14  0.35527136788E-14  0.91188000000E+02  0.91188000000E+02 0.  0.
    9900012    2    3    3    0    0  0.96274956680E+01 -0.28614018927E+02 -0.21079120356E+02  0.54367081122E+02  0.39999993034E+02 0.  0.
        -12    1    3    3    0    0 -0.96274956680E+01  0.28614018927E+02  0.21079120356E+02  0.36820918878E+02  0.00000000000E+00 0.  1.
         11    1    4    4    0    0 -0.18407011342E+01 -0.42042331164E+01  0.96919358713E+01  0.10723683041E+02  0.51100000000E-03 0.  1.
        -11    1    4    4    0    0  0.11001173398E+02 -0.61767359408E+01 -0.10926366094E+02  0.16690217473E+02  0.51100000000E-03 0. -1.
         12    1    4    4    0    0  0.46702340460E+00 -0.18233049870E+02 -0.19844690133E+02  0.26953180609E+02  0.00000000000E+00 0. -1.
</event>
<event>
 8    1  0.1253488E-006  0.9118800E+02  0.7816164E-02  0.1184000E+00
        -11   -1    0    0    0    0  0.00000000000E+00  0.00000000000E+00  0.45593999997E+02  0.45594000000E+02  0.51100000000E-03 0.  1.
         11   -1    0    0    0    0 -0.00000000000E+00 -0.00000000000E+00 -0.45593999997E+02  0.45594000000E+02  0.51100000000E-03 0. -1.
         23    2    1    2    0    0  0.17763568394E-14  0.35527136788E-14  0.00000000000E+00  0.91188000000E+02  0.91188000000E+02 0.  0.
    9900012    2    3    3    0    0 -0.14574250712E+02 -0.21870812620E+02 -0.25788416915E+02  0.54367032122E+02  0.39999881328E+02 0.  0.
        -12    1    3    3    0    0  0.14574250712E+02  0.21870812620E+02  0.25788416915E+02  0.36820967878E+02  0.00000000000E+00 0.  1.
         11    1    4    4    0    0 -0.95951435795E+01 -0.43771310291E+01 -0.74521672570E+01  0.12913591810E+02  0.51100000000E-03 0. -1.
        -11    1    4    4    0    0  0.89222608697E+01 -0.20945133577E+02 -0.98588678111E+01  0.24809325552E+02  0.51100000000E-03 0.  1.
        -12    1    4    4    0    0 -0.13901368003E+02  0.34514519857E+01 -0.84773818470E+01  0.16644114760E+02  0.00000000000E+00 0.  1.
</event>
<event>
 8    1  0.1253488E-006  0.9118800E+02  0.7816164E-02  0.1184000E+00
        -11   -1    0    0    0    0  0.00000000000E+00  0.00000000000E+00  0.45593999997E+02  0.45594000000E+02  0.51100000000E-03 0.  1.
         11   -1    0    0    0    0 -0.00000000000E+00 -0.00000000000E+00 -0.45593999997E+02  0.45594000000E+02  0.51100000000E-03 0. -1.
         23    2    1    2    0    0  0.35527136788E-14  0.35527136788E-14 -0.35527136788E-14  0.91188000000E+02  0.91188000000E+02 0.  0.
    9900012    2    3    3    0    0 -0.18734839969E+02 -0.26944756219E+02  0.16696244860E+02  0.54367099565E+02  0.40000035079E+02 0.  0.
         12    1    3    3    0    0  0.18734839969E+02  0.26944756219E+02 -0.16696244860E+02  0.36820900435E+02  0.00000000000E+00 0. -1.
         11    1    4    4    0    0 -0.51753343156E+01 -0.59239356900E+01  0.63645216309E+01  0.10118509534E+02  0.51100000000E-03 0. -1.
        -11    1    4    4    0    0 -0.19601802430E+02 -0.14614782316E+02 -0.64586586948E+01  0.25289064693E+02  0.51100000000E-03 0.  1.
         12    1    4    4    0    0  0.60422967758E+01 -0.64060382133E+01  0.16790381924E+02  0.18959525339E+02  0.00000000000E+00 0. -1.
</event>
<event>
 8    1  0.1253488E-006  0.9118800E+02  0.7816164E-02  0.1184000E+00
        -11   -1    0    0    0    0  0.00000000000E+00  0.00000000000E+00  0.45593999997E+02  0.45594000000E+02  0.51100000000E-03 0. -1.
         11   -1    0    0    0    0 -0.00000000000E+00 -0.00000000000E+00 -0.45593999997E+02  0.45594000000E+02  0.51100000000E-03 0.  1.
         23    2    1    2    0    0  0.35527136788E-14 -0.17763568394E-14  0.35527136788E-14  0.91188000000E+02  0.91188000000E+02 0.  0.
    9900012    2    3    3    0    0 -0.24690738788E+02  0.94461735129E+01 -0.25630397302E+02  0.54367081465E+02  0.39999993816E+02 0.  0.
         12    1    3    3    0    0  0.24690738788E+02 -0.94461735129E+01  0.25630397302E+02  0.36820918535E+02  0.00000000000E+00 0. -1.
         11    1    4    4    0    0  0.59818485833E+01 -0.54394710761E+01 -0.11620220305E+02  0.14156266396E+02  0.51100000000E-03 0.  1.
        -11    1    4    4    0    0 -0.29045260889E+00  0.58485716210E+01 -0.34697935663E+01  0.68065865438E+01  0.51100000000E-03 0. -1.
         12    1    4    4    0    0 -0.30382134762E+02  0.90370729680E+01 -0.10540383430E+02  0.33404228525E+02  0.00000000000E+00 0. -1.
</event>
<event>
 8    1  0.1253488E-006  0.9118800E+02  0.7816164E-02  0.1184000E+00
        -11   -1    0    0    0    0  0.00000000000E+00  0.00000000000E+00  0.45593999997E+02  0.45594000000E+02  0.51100000000E-03 0.  1.
         11   -1    0    0    0    0 -0.00000000000E+00 -0.00000000000E+00 -0.45593999997E+02  0.45594000000E+02  0.51100000000E-03 0. -1.
         23    2    1    2    0    0  0.00000000000E+00  0.00000000000E+00  0.00000000000E+00  0.91188000000E+02  0.91188000000E+02 0.  0.
    9900012    2    3    3    0    0 -0.15982335065E+02 -0.27738105838E+02  0.18191814833E+02  0.54367086424E+02  0.40000005121E+02 0.  0.
         12    1    3    3    0    0  0.15982335065E+02  0.27738105838E+02 -0.18191814833E+02  0.36820913576E+02  0.00000000000E+00 0. -1.
         11    1    4    4    0    0 -0.99093765434E+01 -0.26907508618E+02  0.22004246934E+01  0.28758505396E+02  0.51100000000E-03 0. -1.
        -11    1    4    4    0    0 -0.49137442639E+00 -0.95806783585E+01  0.83811714415E+01  0.12738715855E+02  0.51100000000E-03 0.  1.
         12    1    4    4    0    0 -0.55815840953E+01  0.87500811384E+01  0.76102186984E+01  0.12869865173E+02  0.00000000000E+00 0. -1.
</event>
<event>
 8    1  0.1253488E-006  0.9118800E+02  0.7816164E-02  0.1184000E+00
        -11   -1    0    0    0    0  0.00000000000E+00  0.00000000000E+00  0.45593999997E+02  0.45594000000E+02  0.51100000000E-03 0.  1.
         11   -1    0    0    0    0 -0.00000000000E+00 -0.00000000000E+00 -0.45593999997E+02  0.45594000000E+02  0.51100000000E-03 0. -1.
         23    2    1    2    0    0  0.35527136788E-14  0.00000000000E+00 -0.35527136788E-14  0.91188000000E+02  0.91188000000E+02 0.  0.
    9900012    2    3    3    0    0  0.27713726678E+02  0.16225317934E+02 -0.18013034918E+02  0.54367068244E+02  0.39999963675E+02 0.  0.
         12    1    3    3    0    0 -0.27713726678E+02 -0.16225317934E+02  0.18013034918E+02  0.36820931756E+02  0.00000000000E+00 0. -1.
         11    1    4    4    0    0  0.18565112190E+02 -0.43453084453E+01 -0.68189972186E+01  0.20249538747E+02  0.51100000000E-03 0. -1.
        -11    1    4    4    0    0 -0.31254522721E+01  0.13571500808E+02 -0.13961119672E+02  0.19719709654E+02  0.51100000000E-03 0.  1.
         12    1    4    4    0    0  0.12274066760E+02  0.69991255704E+01  0.27670819723E+01  0.14397819843E+02  0.00000000000E+00 0. -1.
</event>
<event>
 8    1  0.1253488E-006  0.9118800E+02  0.7816164E-02  0.1184000E+00
        -11   -1    0    0    0    0  0.00000000000E+00  0.00000000000E+00  0.45593999997E+02  0.45594000000E+02  0.51100000000E-03 0.  1.
         11   -1    0    0    0    0 -0.00000000000E+00 -0.00000000000E+00 -0.45593999997E+02  0.45594000000E+02  0.51100000000E-03 0. -1.
         23    2    1    2    0    0  0.00000000000E+00  0.00000000000E+00  0.53290705182E-14  0.91188000000E+02  0.91188000000E+02 0.  0.
    9900012    2    3    3    0    0  0.28214020558E+02  0.18446166669E+02  0.14815093152E+02  0.54367095531E+02  0.40000025882E+02 0.  0.
         12    1    3    3    0    0 -0.28214020558E+02 -0.18446166669E+02 -0.14815093152E+02  0.36820904469E+02  0.00000000000E+00 0. -1.
         11    1    4    4    0    0 -0.47480394537E+01  0.62253313733E+01 -0.35979306180E+01  0.86164803925E+01  0.51100000000E-03 0. -1.
        -11    1    4    4    0    0  0.12807896425E+02  0.99601133585E+01 -0.27304924722E+01  0.16453013656E+02  0.51100000000E-03 0.  1.
        -12    1    4    4    0    0  0.20154163587E+02  0.22607219371E+01  0.21143516242E+02  0.29297601483E+02  0.00000000000E+00 0.  1.
</event>
<event>
 8    1  0.1253488E-006  0.9118800E+02  0.7816164E-02  0.1184000E+00
        -11   -1    0    0    0    0  0.00000000000E+00  0.00000000000E+00  0.45593999997E+02  0.45594000000E+02  0.51100000000E-03 0.  1.
         11   -1    0    0    0    0 -0.00000000000E+00 -0.00000000000E+00 -0.45593999997E+02  0.45594000000E+02  0.51100000000E-03 0. -1.
         23    2    1    2    0    0  0.00000000000E+00  0.35527136788E-14  0.00000000000E+00  0.91188000000E+02  0.91188000000E+02 0.  0.
    9900012    2    3    3    0    0  0.53132343907E+01  0.29403145717E+02  0.21517550710E+02  0.54367076243E+02  0.39999981911E+02 0.  0.
         12    1    3    3    0    0 -0.53132343907E+01 -0.29403145717E+02 -0.21517550710E+02  0.36820923757E+02  0.00000000000E+00 0. -1.
         11    1    4    4    0    0 -0.34643882584E+01 -0.58453167689E+01 -0.48208831857E+01  0.83313041647E+01  0.51100000000E-03 0. -1.
        -11    1    4    4    0    0  0.10991881950E+02  0.29164760375E+02  0.23115710455E+02  0.38803875923E+02  0.51100000000E-03 0.  1.
        -12    1    4    4    0    0 -0.22142593012E+01  0.60837021104E+01  0.32227234410E+01  0.72318961551E+01  0.00000000000E+00 0.  1.
</event>
<event>
 8    1  0.1253488E-006  0.9118800E+02  0.7816164E-02  0.1184000E+00
        -11   -1    0    0    0    0  0.00000000000E+00  0.00000000000E+00  0.45593999997E+02  0.45594000000E+02  0.51100000000E-03 0.  1.
         11   -1    0    0    0    0 -0.00000000000E+00 -0.00000000000E+00 -0.45593999997E+02  0.45594000000E+02  0.51100000000E-03 0. -1.
         23    2    1    2    0    0 -0.88817841970E-15  0.00000000000E+00 -0.35527136788E-14  0.91188000000E+02  0.91188000000E+02 0.  0.
    9900012    2    3    3    0    0  0.42759402406E+01  0.27134292965E+02  0.24519859477E+02  0.54367122384E+02  0.40000087098E+02 0.  0.
         12    1    3    3    0    0 -0.42759402406E+01 -0.27134292965E+02 -0.24519859477E+02  0.36820877616E+02  0.00000000000E+00 0. -1.
         11    1    4    4    0    0 -0.75201379193E+01  0.66757455954E+01  0.45972987687E+01  0.11056817345E+02  0.51100000000E-03 0. -1.
        -11    1    4    4    0    0  0.18888344678E+02  0.20969521493E+02  0.78403300828E+01  0.29290974248E+02  0.51100000000E-03 0.  1.
        -12    1    4    4    0    0 -0.70922665183E+01 -0.51097412358E+00  0.12082230626E+02  0.14019330791E+02  0.00000000000E+00 0.  1.
</event>
<event>
 8    1  0.1253488E-006  0.9118800E+02  0.7816164E-02  0.1184000E+00
        -11   -1    0    0    0    0  0.00000000000E+00  0.00000000000E+00  0.45593999997E+02  0.45594000000E+02  0.51100000000E-03 0. -1.
         11   -1    0    0    0    0 -0.00000000000E+00 -0.00000000000E+00 -0.45593999997E+02  0.45594000000E+02  0.51100000000E-03 0.  1.
         23    2    1    2    0    0  0.00000000000E+00 -0.15543122345E-14  0.17763568394E-14  0.91188000000E+02  0.91188000000E+02 0.  0.
    9900012    2    3    3    0    0 -0.34144444439E+02 -0.15714087082E+01  0.13691985432E+02  0.54367042972E+02  0.39999906064E+02 0.  0.
        -12    1    3    3    0    0  0.34144444439E+02  0.15714087082E+01 -0.13691985432E+02  0.36820957028E+02  0.00000000000E+00 0.  1.
         11    1    4    4    0    0 -0.34495341738E+02 -0.13378252070E+02  0.87925945007E+01  0.38029146038E+02  0.51100000000E-03 0. -1.
        -11    1    4    4    0    0  0.40247340618E+01  0.10297280944E+02  0.15932891639E+01  0.11170096228E+02  0.51100000000E-03 0.  1.
         12    1    4    4    0    0 -0.36738367623E+01  0.15095624171E+01  0.33061017669E+01  0.51678007063E+01  0.00000000000E+00 0. -1.
</event>
<event>
 8    1  0.1253488E-006  0.9118800E+02  0.7816164E-02  0.1184000E+00
        -11   -1    0    0    0    0  0.00000000000E+00  0.00000000000E+00  0.45593999997E+02  0.45594000000E+02  0.51100000000E-03 0.  1.
         11   -1    0    0    0    0 -0.00000000000E+00 -0.00000000000E+00 -0.45593999997E+02  0.45594000000E+02  0.51100000000E-03 0. -1.
         23    2    1    2    0    0  0.17763568394E-14  0.12212453271E-14  0.71054273576E-14  0.91188000000E+02  0.91188000000E+02 0.  0.
    9900012    2    3    3    0    0 -0.11260742768E+02 -0.78221943415E+00 -0.35048009213E+02  0.54367093646E+02  0.40000021584E+02 0.  0.
        -12    1    3    3    0    0  0.11260742768E+02  0.78221943415E+00  0.35048009213E+02  0.36820906354E+02  0.00000000000E+00 0.  1.
         11    1    4    4    0    0  0.30989582579E+01 -0.95825960514E+01 -0.10640598384E+02  0.14651007597E+02  0.51100000000E-03 0. -1.
        -11    1    4    4    0    0  0.16875038794E+01  0.12946565280E+02 -0.44945186242E+01  0.13808038232E+02  0.51100000000E-03 0.  1.
        -12    1    4    4    0    0 -0.16047204906E+02 -0.41461886631E+01 -0.19912892205E+02  0.25908047817E+02  0.00000000000E+00 0.  1.
</event>
<event>
 8    1  0.1253488E-006  0.9118800E+02  0.7816164E-02  0.1184000E+00
        -11   -1    0    0    0    0  0.00000000000E+00  0.00000000000E+00  0.45593999997E+02  0.45594000000E+02  0.51100000000E-03 0. -1.
         11   -1    0    0    0    0 -0.00000000000E+00 -0.00000000000E+00 -0.45593999997E+02  0.45594000000E+02  0.51100000000E-03 0.  1.
         23    2    1    2    0    0  0.00000000000E+00 -0.35527136788E-14 -0.35527136788E-14  0.91188000000E+02  0.91188000000E+02 0.  0.
    9900012    2    3    3    0    0 -0.12865773278E+02  0.18099360364E+02 -0.29371142833E+02  0.54367095625E+02  0.40000026097E+02 0.  0.
         12    1    3    3    0    0  0.12865773278E+02 -0.18099360364E+02  0.29371142833E+02  0.36820904375E+02  0.00000000000E+00 0. -1.
         11    1    4    4    0    0 -0.11917228565E+02  0.90311922704E+01 -0.12412675136E+02  0.19433406155E+02  0.51100000000E-03 0.  1.
        -11    1    4    4    0    0 -0.11935343045E+02 -0.40048913731E+01 -0.31625078621E+01  0.12980486306E+02  0.51100000000E-03 0. -1.
        -12    1    4    4    0    0  0.10986798331E+02  0.13073059467E+02 -0.13795959835E+02  0.21953203164E+02  0.00000000000E+00 0.  1.
</event>
<event>
 8    1  0.1253488E-006  0.9118800E+02  0.7816164E-02  0.1184000E+00
        -11   -1    0    0    0    0  0.00000000000E+00  0.00000000000E+00  0.45593999997E+02  0.45594000000E+02  0.51100000000E-03 0. -1.
         11   -1    0    0    0    0 -0.00000000000E+00 -0.00000000000E+00 -0.45593999997E+02  0.45594000000E+02  0.51100000000E-03 0.  1.
         23    2    1    2    0    0 -0.71054273576E-14 -0.88817841970E-15  0.00000000000E+00  0.91188000000E+02  0.91188000000E+02 0.  0.
    9900012    2    3    3    0    0 -0.34567628564E+02 -0.78119297459E+01 -0.99915949095E+01  0.54367093442E+02  0.40000021121E+02 0.  0.
         12    1    3    3    0    0  0.34567628564E+02  0.78119297459E+01  0.99915949095E+01  0.36820906558E+02  0.00000000000E+00 0. -1.
         11    1    4    4    0    0 -0.99620989170E+00 -0.83752469894E+01 -0.11892775373E+02  0.14579962366E+02  0.51100000000E-03 0. -1.
        -11    1    4    4    0    0 -0.23252850720E+02  0.92494300680E+01 -0.34794856115E+01  0.25265665310E+02  0.51100000000E-03 0.  1.
         12    1    4    4    0    0 -0.10318567952E+02 -0.86861128245E+01  0.53806660746E+01  0.14521465766E+02  0.00000000000E+00 0. -1.
</event>
<event>
 8    1  0.1253488E-006  0.9118800E+02  0.7816164E-02  0.1184000E+00
        -11   -1    0    0    0    0  0.00000000000E+00  0.00000000000E+00  0.45593999997E+02  0.45594000000E+02  0.51100000000E-03 0. -1.
         11   -1    0    0    0    0 -0.00000000000E+00 -0.00000000000E+00 -0.45593999997E+02  0.45594000000E+02  0.51100000000E-03 0.  1.
         23    2    1    2    0    0  0.35527136788E-14  0.35527136788E-14  0.00000000000E+00  0.91188000000E+02  0.91188000000E+02 0.  0.
    9900012    2    3    3    0    0 -0.25424814253E+02  0.17232261733E+02 -0.20307817608E+02  0.54367089091E+02  0.40000011200E+02 0.  0.
         12    1    3    3    0    0  0.25424814253E+02 -0.17232261733E+02  0.20307817608E+02  0.36820910909E+02  0.00000000000E+00 0. -1.
         11    1    4    4    0    0  0.40156280048E+00  0.56920229224E+00 -0.26860985814E+01  0.27749540144E+01  0.51100000000E-03 0.  1.
        -11    1    4    4    0    0  0.44650755739E+01  0.17614129205E+02 -0.60558091445E+01  0.19153779579E+02  0.51100000000E-03 0. -1.
        -12    1    4    4    0    0 -0.30291452627E+02 -0.95106976393E+00 -0.11565909882E+02  0.32438355497E+02  0.00000000000E+00 0.  1.
</event>
<event>
 8    1  0.1253488E-006  0.9118800E+02  0.7816164E-02  0.1184000E+00
        -11   -1    0    0    0    0  0.00000000000E+00  0.00000000000E+00  0.45593999997E+02  0.45594000000E+02  0.51100000000E-03 0. -1.
         11   -1    0    0    0    0 -0.00000000000E+00 -0.00000000000E+00 -0.45593999997E+02  0.45594000000E+02  0.51100000000E-03 0.  1.
         23    2    1    2    0    0  0.71054273576E-14  0.44408920985E-15  0.35527136788E-14  0.91188000000E+02  0.91188000000E+02 0.  0.
    9900012    2    3    3    0    0  0.25170921320E+02  0.24404075648E+01 -0.26762818949E+02  0.54367090895E+02  0.40000015314E+02 0.  0.
         12    1    3    3    0    0 -0.25170921320E+02 -0.24404075648E+01  0.26762818949E+02  0.36820909105E+02  0.00000000000E+00 0. -1.
         11    1    4    4    0    0  0.16718180954E+01 -0.55163971960E+01  0.88639008339E+01  0.10573284826E+02  0.51100000000E-03 0. -1.
        -11    1    4    4    0    0  0.88944696206E+01  0.23113763104E+01 -0.87527259608E+01  0.12691109577E+02  0.51100000000E-03 0.  1.
         12    1    4    4    0    0  0.14604633604E+02  0.56454284503E+01 -0.26873993823E+02  0.31102696492E+02  0.00000000000E+00 0. -1.
</event>
<event>
 8    1  0.1253488E-006  0.9118800E+02  0.7816164E-02  0.1184000E+00
        -11   -1    0    0    0    0  0.00000000000E+00  0.00000000000E+00  0.45593999997E+02  0.45594000000E+02  0.51100000000E-03 0.  1.
         11   -1    0    0    0    0 -0.00000000000E+00 -0.00000000000E+00 -0.45593999997E+02  0.45594000000E+02  0.51100000000E-03 0. -1.
         23    2    1    2    0    0  0.00000000000E+00  0.00000000000E+00  0.00000000000E+00  0.91188000000E+02  0.91188000000E+02 0.  0.
    9900012    2    3    3    0    0 -0.13519105891E+02  0.21966838518E+02 -0.26276649919E+02  0.54367210363E+02  0.40000287663E+02 0.  0.
         12    1    3    3    0    0  0.13519105891E+02 -0.21966838518E+02  0.26276649919E+02  0.36820789637E+02  0.00000000000E+00 0. -1.
         11    1    4    4    0    0 -0.29755359526E+01 -0.39803390170E+00 -0.25537910569E+02  0.25713753551E+02  0.51100000000E-03 0. -1.
        -11    1    4    4    0    0 -0.33140297614E+01  0.43792260234E+00  0.38658781602E+01  0.51107322055E+01  0.51100000000E-03 0.  1.
         12    1    4    4    0    0 -0.72295401767E+01  0.21926949818E+02 -0.46046175095E+01  0.23542724606E+02  0.00000000000E+00 0. -1.
</event>
<event>
 8    1  0.1253488E-006  0.9118800E+02  0.7816164E-02  0.1184000E+00
        -11   -1    0    0    0    0  0.00000000000E+00  0.00000000000E+00  0.45593999997E+02  0.45594000000E+02  0.51100000000E-03 0.  1.
         11   -1    0    0    0    0 -0.00000000000E+00 -0.00000000000E+00 -0.45593999997E+02  0.45594000000E+02  0.51100000000E-03 0. -1.
         23    2    1    2    0    0  0.00000000000E+00 -0.35527136788E-14 -0.17763568394E-14  0.91188000000E+02  0.91188000000E+02 0.  0.
    9900012    2    3    3    0    0 -0.21156562369E+02  0.29730042674E+02 -0.49300148383E+01  0.54367073681E+02  0.39999976072E+02 0.  0.
         12    1    3    3    0    0  0.21156562369E+02 -0.29730042674E+02  0.49300148383E+01  0.36820926319E+02  0.00000000000E+00 0. -1.
         11    1    4    4    0    0 -0.48309896088E+01 -0.57996499024E+01  0.22920493666E+01  0.78884656398E+01  0.51100000000E-03 0. -1.
        -11    1    4    4    0    0 -0.48837522063E+00  0.18523569723E+02  0.63250079602E+01  0.19579756679E+02  0.51100000000E-03 0.  1.
        -12    1    4    4    0    0 -0.15837197540E+02  0.17006122853E+02 -0.13547072165E+02  0.26898851363E+02  0.00000000000E+00 0.  1.
</event>
<event>
 8    1  0.1253488E-006  0.9118800E+02  0.7816164E-02  0.1184000E+00
        -11   -1    0    0    0    0  0.00000000000E+00  0.00000000000E+00  0.45593999997E+02  0.45594000000E+02  0.51100000000E-03 0. -1.
         11   -1    0    0    0    0 -0.00000000000E+00 -0.00000000000E+00 -0.45593999997E+02  0.45594000000E+02  0.51100000000E-03 0.  1.
         23    2    1    2    0    0 -0.71054273576E-14  0.00000000000E+00  0.00000000000E+00  0.91188000000E+02  0.91188000000E+02 0.  0.
    9900012    2    3    3    0    0  0.36416158766E+02  0.25829840232E+01 -0.47928332403E+01  0.54367086429E+02  0.40000005132E+02 0.  0.
        -12    1    3    3    0    0 -0.36416158766E+02 -0.25829840232E+01  0.47928332403E+01  0.36820913571E+02  0.00000000000E+00 0.  1.
         11    1    4    4    0    0  0.92946990140E+01 -0.13920004710E+02 -0.29219494726E+01  0.16991049111E+02  0.51100000000E-03 0. -1.
        -11    1    4    4    0    0  0.23784947179E+01 -0.29896765205E+01 -0.43383039254E+01  0.57806819693E+01  0.51100000000E-03 0.  1.
         12    1    4    4    0    0  0.24742965034E+02  0.19492665254E+02  0.24674201576E+01  0.31595355349E+02  0.00000000000E+00 0. -1.
</event>
<event>
 8    1  0.1253488E-006  0.9118800E+02  0.7816164E-02  0.1184000E+00
        -11   -1    0    0    0    0  0.00000000000E+00  0.00000000000E+00  0.45593999997E+02  0.45594000000E+02  0.51100000000E-03 0.  1.
         11   -1    0    0    0    0 -0.00000000000E+00 -0.00000000000E+00 -0.45593999997E+02  0.45594000000E+02  0.51100000000E-03 0. -1.
         23    2    1    2    0    0  0.00000000000E+00  0.35527136788E-14  0.00000000000E+00  0.91188000000E+02  0.91188000000E+02 0.  0.
    9900012    2    3    3    0    0  0.11812259550E+02 -0.25023742611E+02  0.24291146903E+02  0.54367122936E+02  0.40000088356E+02 0.  0.
         12    1    3    3    0    0 -0.11812259550E+02  0.25023742611E+02 -0.24291146903E+02  0.36820877064E+02  0.00000000000E+00 0. -1.
         11    1    4    4    0    0  0.60388126527E+01 -0.24827407892E+01 -0.10354962329E+02  0.12241589161E+02  0.51100000000E-03 0. -1.
        -11    1    4    4    0    0  0.67041749002E+01 -0.17531215575E+02  0.28728546163E+02  0.34316451529E+02  0.51100000000E-03 0.  1.
         12    1    4    4    0    0 -0.93072800326E+00 -0.50097862465E+01  0.59175630692E+01  0.78090822463E+01  0.00000000000E+00 0. -1.
</event>
<event>
 8    1  0.1253488E-006  0.9118800E+02  0.7816164E-02  0.1184000E+00
        -11   -1    0    0    0    0  0.00000000000E+00  0.00000000000E+00  0.45593999997E+02  0.45594000000E+02  0.51100000000E-03 0.  1.
         11   -1    0    0    0    0 -0.00000000000E+00 -0.00000000000E+00 -0.45593999997E+02  0.45594000000E+02  0.51100000000E-03 0. -1.
         23    2    1    2    0    0  0.00000000000E+00  0.26645352591E-14  0.71054273576E-14  0.91188000000E+02  0.91188000000E+02 0.  0.
    9900012    2    3    3    0    0 -0.29154030299E+01 -0.43625534715E+01  0.36445151175E+02  0.54367075354E+02  0.39999979885E+02 0.  0.
         12    1    3    3    0    0  0.29154030299E+01  0.43625534715E+01 -0.36445151175E+02  0.36820924646E+02  0.00000000000E+00 0. -1.
         11    1    4    4    0    0  0.12135503673E+01  0.97041988153E+01  0.12419730880E+02  0.15808032595E+02  0.51100000000E-03 0. -1.
        -11    1    4    4    0    0  0.86376147898E+01 -0.14551756502E+02  0.16965946066E+02  0.23962581929E+02  0.51100000000E-03 0.  1.
         12    1    4    4    0    0 -0.12766568187E+02  0.48500421537E+00  0.70594742288E+01  0.14596460830E+02  0.00000000000E+00 0. -1.
</event>
<event>
 8    1  0.1253488E-006  0.9118800E+02  0.7816164E-02  0.1184000E+00
        -11   -1    0    0    0    0  0.00000000000E+00  0.00000000000E+00  0.45593999997E+02  0.45594000000E+02  0.51100000000E-03 0.  1.
         11   -1    0    0    0    0 -0.00000000000E+00 -0.00000000000E+00 -0.45593999997E+02  0.45594000000E+02  0.51100000000E-03 0. -1.
         23    2    1    2    0    0 -0.88817841970E-15  0.17763568394E-14 -0.71054273576E-14  0.91188000000E+02  0.91188000000E+02 0.  0.
    9900012    2    3    3    0    0 -0.60091919077E+01  0.11153977401E+02 -0.34572501176E+02  0.54367089680E+02  0.40000012543E+02 0.  0.
        -12    1    3    3    0    0  0.60091919077E+01 -0.11153977401E+02  0.34572501176E+02  0.36820910320E+02  0.00000000000E+00 0.  1.
         11    1    4    4    0    0 -0.67445275759E+01  0.12135799694E+01  0.10691416942E+01  0.69357402480E+01  0.51100000000E-03 0. -1.
        -11    1    4    4    0    0 -0.14345549745E+02  0.54359943655E+01 -0.14818756825E+02  0.21329331596E+02  0.51100000000E-03 0.  1.
         12    1    4    4    0    0  0.15080885414E+02  0.45044030662E+01 -0.20822886045E+02  0.26102017836E+02  0.00000000000E+00 0. -1.
</event>
<event>
 8    1  0.1253488E-006  0.9118800E+02  0.7816164E-02  0.1184000E+00
        -11   -1    0    0    0    0  0.00000000000E+00  0.00000000000E+00  0.45593999997E+02  0.45594000000E+02  0.51100000000E-03 0. -1.
         11   -1    0    0    0    0 -0.00000000000E+00 -0.00000000000E+00 -0.45593999997E+02  0.45594000000E+02  0.51100000000E-03 0.  1.
         23    2    1    2    0    0  0.00000000000E+00  0.00000000000E+00  0.35527136788E-14  0.91188000000E+02  0.91188000000E+02 0.  0.
    9900012    2    3    3    0    0  0.18941345616E+02 -0.25537938690E+02 -0.18569416794E+02  0.54367026000E+02  0.39999867371E+02 0.  0.
         12    1    3    3    0    0 -0.18941345616E+02  0.25537938690E+02  0.18569416794E+02  0.36820974000E+02  0.00000000000E+00 0. -1.
         11    1    4    4    0    0  0.98655564742E+01 -0.81937820090E+01  0.37533284372E+01  0.13362437756E+02  0.51100000000E-03 0. -1.
        -11    1    4    4    0    0  0.13129174046E+02 -0.16650628151E+02 -0.27287710019E+02  0.34557745113E+02  0.51100000000E-03 0.  1.
        -12    1    4    4    0    0 -0.40533849048E+01 -0.69352852969E+00  0.49649647878E+01  0.64468431307E+01  0.00000000000E+00 0.  1.
</event>
<event>
 8    1  0.1253488E-006  0.9118800E+02  0.7816164E-02  0.1184000E+00
        -11   -1    0    0    0    0  0.00000000000E+00  0.00000000000E+00  0.45593999997E+02  0.45594000000E+02  0.51100000000E-03 0.  1.
         11   -1    0    0    0    0 -0.00000000000E+00 -0.00000000000E+00 -0.45593999997E+02  0.45594000000E+02  0.51100000000E-03 0. -1.
         23    2    1    2    0    0  0.00000000000E+00 -0.66613381478E-15  0.17763568394E-14  0.91188000000E+02  0.91188000000E+02 0.  0.
    9900012    2    3    3    0    0  0.36134214989E+02  0.15129874055E+01 -0.69144187463E+01  0.54367084607E+02  0.40000000979E+02 0.  0.
         12    1    3    3    0    0 -0.36134214989E+02 -0.15129874055E+01  0.69144187463E+01  0.36820915393E+02  0.00000000000E+00 0. -1.
         11    1    4    4    0    0  0.57439686953E+01 -0.62397712365E+01  0.36359022392E+01  0.92275515068E+01  0.51100000000E-03 0. -1.
        -11    1    4    4    0    0  0.30436559705E+02  0.53369762504E+01  0.33031100759E+01  0.31076969263E+02  0.51100000000E-03 0.  1.
         12    1    4    4    0    0 -0.46313411350E-01  0.24157823917E+01 -0.13853431061E+02  0.14062563837E+02  0.00000000000E+00 0. -1.
</event>
<event>
 8    1  0.1253488E-006  0.9118800E+02  0.7816164E-02  0.1184000E+00
        -11   -1    0    0    0    0  0.00000000000E+00  0.00000000000E+00  0.45593999997E+02  0.45594000000E+02  0.51100000000E-03 0.  1.
         11   -1    0    0    0    0 -0.00000000000E+00 -0.00000000000E+00 -0.45593999997E+02  0.45594000000E+02  0.51100000000E-03 0. -1.
         23    2    1    2    0    0 -0.17763568394E-14  0.00000000000E+00  0.35527136788E-14  0.91188000000E+02  0.91188000000E+02 0.  0.
    9900012    2    3    3    0    0 -0.12150348202E+02  0.29682677839E+02 -0.18085222538E+02  0.54367250423E+02  0.40000378988E+02 0.  0.
        -12    1    3    3    0    0  0.12150348202E+02 -0.29682677839E+02  0.18085222538E+02  0.36820749577E+02  0.00000000000E+00 0.  1.
         11    1    4    4    0    0 -0.21118298046E+01  0.59721922642E+01 -0.13790664025E+02  0.15175945443E+02  0.51100000000E-03 0. -1.
        -11    1    4    4    0    0 -0.18713718757E+02  0.13951869459E+02 -0.94103869534E+01  0.25167703789E+02  0.51100000000E-03 0.  1.
        -12    1    4    4    0    0  0.86752003591E+01  0.97586161152E+01  0.51158284402E+01  0.14023601192E+02  0.00000000000E+00 0.  1.
</event>
<event>
 8    1  0.1253488E-006  0.9118800E+02  0.7816164E-02  0.1184000E+00
        -11   -1    0    0    0    0  0.00000000000E+00  0.00000000000E+00  0.45593999997E+02  0.45594000000E+02  0.51100000000E-03 0. -1.
         11   -1    0    0    0    0 -0.00000000000E+00 -0.00000000000E+00 -0.45593999997E+02  0.45594000000E+02  0.51100000000E-03 0.  1.
         23    2    1    2    0    0  0.00000000000E+00  0.00000000000E+00  0.00000000000E+00  0.91188000000E+02  0.91188000000E+02 0.  0.
    9900012    2    3    3    0    0 -0.19599351677E+02  0.30043096062E+02 -0.83100804681E+01  0.54367086859E+02  0.40000006112E+02 0.  0.
         12    1    3    3    0    0  0.19599351677E+02 -0.30043096062E+02  0.83100804681E+01  0.36820913141E+02  0.00000000000E+00 0. -1.
         11    1    4    4    0    0 -0.14000971162E+02  0.21327903405E+02  0.22685938936E+01  0.25613535009E+02  0.51100000000E-03 0. -1.
        -11    1    4    4    0    0 -0.47524725159E+01  0.12815568680E+02 -0.16547586098E+02  0.21462697909E+02  0.51100000000E-03 0.  1.
         12    1    4    4    0    0 -0.84590799908E+00 -0.41003760234E+01  0.59689117359E+01  0.72908539409E+01  0.00000000000E+00 0. -1.
</event>
<event>
 8    1  0.1253488E-006  0.9118800E+02  0.7816164E-02  0.1184000E+00
        -11   -1    0    0    0    0  0.00000000000E+00  0.00000000000E+00  0.45593999997E+02  0.45594000000E+02  0.51100000000E-03 0.  1.
         11   -1    0    0    0    0 -0.00000000000E+00 -0.00000000000E+00 -0.45593999997E+02  0.45594000000E+02  0.51100000000E-03 0. -1.
         23    2    1    2    0    0 -0.88817841970E-15  0.00000000000E+00  0.71054273576E-14  0.91188000000E+02  0.91188000000E+02 0.  0.
    9900012    2    3    3    0    0  0.64069179917E+01 -0.23424945226E+02  0.27676734427E+02  0.54367105313E+02  0.40000048182E+02 0.  0.
         12    1    3    3    0    0 -0.64069179917E+01  0.23424945226E+02 -0.27676734427E+02  0.36820894687E+02  0.00000000000E+00 0. -1.
         11    1    4    4    0    0 -0.12109029939E+02 -0.16387283892E+02  0.11462938081E+02  0.23378850039E+02  0.51100000000E-03 0. -1.
        -11    1    4    4    0    0  0.67301621912E+01 -0.10579888072E+02  0.13424138303E+02  0.18369447574E+02  0.51100000000E-03 0.  1.
         12    1    4    4    0    0  0.11785785740E+02  0.35422267388E+01  0.27896580434E+01  0.12618807700E+02  0.00000000000E+00 0. -1.
</event>
<event>
 8    1  0.1253488E-006  0.9118800E+02  0.7816164E-02  0.1184000E+00
        -11   -1    0    0    0    0  0.00000000000E+00  0.00000000000E+00  0.45593999997E+02  0.45594000000E+02  0.51100000000E-03 0.  1.
         11   -1    0    0    0    0 -0.00000000000E+00 -0.00000000000E+00 -0.45593999997E+02  0.45594000000E+02  0.51100000000E-03 0. -1.
         23    2    1    2    0    0  0.35527136788E-14 -0.26645352591E-14  0.00000000000E+00  0.91188000000E+02  0.91188000000E+02 0.  0.
    9900012    2    3    3    0    0  0.23678339089E+02 -0.66516733152E+01 -0.27402018285E+02  0.54367094172E+02  0.40000022783E+02 0.  0.
        -12    1    3    3    0    0 -0.23678339089E+02  0.66516733152E+01  0.27402018285E+02  0.36820905828E+02  0.00000000000E+00 0.  1.
         11    1    4    4    0    0 -0.36665904387E+00 -0.77951499382E+01 -0.13605240085E+02  0.15684430479E+02  0.51100000000E-03 0. -1.
        -11    1    4    4    0    0  0.27071697702E+02  0.64155838281E+01 -0.54395418056E+01  0.28348282975E+02  0.51100000000E-03 0.  1.
        -12    1    4    4    0    0 -0.30266995691E+01 -0.52721072052E+01 -0.83572363943E+01  0.10334380718E+02  0.00000000000E+00 0.  1.
</event>
<event>
 8    1  0.1253488E-006  0.9118800E+02  0.7816164E-02  0.1184000E+00
        -11   -1    0    0    0    0  0.00000000000E+00  0.00000000000E+00  0.45593999997E+02  0.45594000000E+02  0.51100000000E-03 0.  1.
         11   -1    0    0    0    0 -0.00000000000E+00 -0.00000000000E+00 -0.45593999997E+02  0.45594000000E+02  0.51100000000E-03 0. -1.
         23    2    1    2    0    0  0.00000000000E+00  0.17763568394E-14  0.00000000000E+00  0.91188000000E+02  0.91188000000E+02 0.  0.
    9900012    2    3    3    0    0 -0.10335704844E+02  0.92507039709E+01 -0.34108308592E+02  0.54367095155E+02  0.40000025026E+02 0.  0.
        -12    1    3    3    0    0  0.10335704844E+02 -0.92507039709E+01  0.34108308592E+02  0.36820904845E+02  0.00000000000E+00 0.  1.
         11    1    4    4    0    0  0.10040922174E+01 -0.10598746057E+02 -0.16786978727E+02  0.19878236195E+02  0.51100000000E-03 0. -1.
        -11    1    4    4    0    0 -0.57999918702E+01  0.19458133656E+02 -0.19842427850E+02  0.28389801238E+02  0.51100000000E-03 0.  1.
        -12    1    4    4    0    0 -0.55398051908E+01  0.39131637191E+00  0.25210979856E+01  0.60990577230E+01  0.00000000000E+00 0.  1.
</event>
<event>
 8    1  0.1253488E-006  0.9118800E+02  0.7816164E-02  0.1184000E+00
        -11   -1    0    0    0    0  0.00000000000E+00  0.00000000000E+00  0.45593999997E+02  0.45594000000E+02  0.51100000000E-03 0.  1.
         11   -1    0    0    0    0 -0.00000000000E+00 -0.00000000000E+00 -0.45593999997E+02  0.45594000000E+02  0.51100000000E-03 0. -1.
         23    2    1    2    0    0  0.71054273576E-14  0.22204460493E-15  0.17763568394E-14  0.91188000000E+02  0.91188000000E+02 0.  0.
    9900012    2    3    3    0    0  0.36069874029E+02  0.71104231914E+00  0.73646828216E+01  0.54367082756E+02  0.39999996758E+02 0.  0.
        -12    1    3    3    0    0 -0.36069874029E+02 -0.71104231914E+00 -0.73646828216E+01  0.36820917244E+02  0.00000000000E+00 0.  1.
         11    1    4    4    0    0  0.29787629318E+01 -0.38209313177E+01  0.10834701812E+02  0.11868584935E+02  0.51100000000E-03 0. -1.
        -11    1    4    4    0    0  0.16119531464E+02 -0.50465254337E+01  0.92194287430E+01  0.19243299617E+02  0.51100000000E-03 0.  1.
         12    1    4    4    0    0  0.16971579634E+02  0.95784990705E+01 -0.12689447733E+02  0.23255198204E+02  0.00000000000E+00 0. -1.
</event>
<event>
 8    1  0.1253488E-006  0.9118800E+02  0.7816164E-02  0.1184000E+00
        -11   -1    0    0    0    0  0.00000000000E+00  0.00000000000E+00  0.45593999997E+02  0.45594000000E+02  0.51100000000E-03 0.  1.
         11   -1    0    0    0    0 -0.00000000000E+00 -0.00000000000E+00 -0.45593999997E+02  0.45594000000E+02  0.51100000000E-03 0. -1.
         23    2    1    2    0    0  0.00000000000E+00 -0.35527136788E-14  0.35527136788E-14  0.91188000000E+02  0.91188000000E+02 0.  0.
    9900012    2    3    3    0    0 -0.18041334757E+02 -0.24271930766E+02 -0.21003851944E+02  0.54367106755E+02  0.40000051469E+02 0.  0.
        -12    1    3    3    0    0  0.18041334757E+02  0.24271930766E+02  0.21003851944E+02  0.36820893245E+02  0.00000000000E+00 0.  1.
         11    1    4    4    0    0 -0.23005511734E+02 -0.14645473031E+02 -0.28633220828E+02  0.39542442839E+02  0.51100000000E-03 0. -1.
        -11    1    4    4    0    0  0.91949619043E+00 -0.15451039409E+01  0.51483145692E+01  0.54532524787E+01  0.51100000000E-03 0.  1.
        -12    1    4    4    0    0  0.40446807869E+01 -0.80813537940E+01  0.24810543149E+01  0.93714114372E+01  0.00000000000E+00 0.  1.
</event>
<event>
 8    1  0.1253488E-006  0.9118800E+02  0.7816164E-02  0.1184000E+00
        -11   -1    0    0    0    0  0.00000000000E+00  0.00000000000E+00  0.45593999997E+02  0.45594000000E+02  0.51100000000E-03 0.  1.
         11   -1    0    0    0    0 -0.00000000000E+00 -0.00000000000E+00 -0.45593999997E+02  0.45594000000E+02  0.51100000000E-03 0. -1.
         23    2    1    2    0    0  0.00000000000E+00 -0.88817841970E-15  0.00000000000E+00  0.91188000000E+02  0.91188000000E+02 0.  0.
    9900012    2    3    3    0    0  0.31942739335E+02  0.40592929630E+01  0.17859497262E+02  0.54367107859E+02  0.40000053986E+02 0.  0.
         12    1    3    3    0    0 -0.31942739335E+02 -0.40592929630E+01 -0.17859497262E+02  0.36820892141E+02  0.00000000000E+00 0. -1.
         11    1    4    4    0    0 -0.40122874301E+00  0.14135961452E+02  0.41509406807E+00  0.14147745192E+02  0.51100000000E-03 0. -1.
        -11    1    4    4    0    0  0.32018726969E+02 -0.76776743025E+01  0.13489827824E+02  0.35582594261E+02  0.51100000000E-03 0.  1.
         12    1    4    4    0    0  0.32524110948E+00 -0.23989941867E+01  0.39545753700E+01  0.46367684052E+01  0.00000000000E+00 0. -1.
</event>
<event>
 8    1  0.1253488E-006  0.9118800E+02  0.7816164E-02  0.1184000E+00
        -11   -1    0    0    0    0  0.00000000000E+00  0.00000000000E+00  0.45593999997E+02  0.45594000000E+02  0.51100000000E-03 0. -1.
         11   -1    0    0    0    0 -0.00000000000E+00 -0.00000000000E+00 -0.45593999997E+02  0.45594000000E+02  0.51100000000E-03 0.  1.
         23    2    1    2    0    0  0.00000000000E+00  0.00000000000E+00  0.17763568394E-14  0.91188000000E+02  0.91188000000E+02 0.  0.
    9900012    2    3    3    0    0 -0.91562161305E+01 -0.33916054887E+02 -0.11029270525E+02  0.54367083645E+02  0.39999998785E+02 0.  0.
         12    1    3    3    0    0  0.91562161305E+01  0.33916054887E+02  0.11029270525E+02  0.36820916355E+02  0.00000000000E+00 0. -1.
         11    1    4    4    0    0 -0.56400622105E+01 -0.29464489494E-01 -0.39808030421E+01  0.69034747059E+01  0.51100000000E-03 0. -1.
        -11    1    4    4    0    0  0.29619648139E+00 -0.34507735988E+02 -0.15757525311E+02  0.37936409682E+02  0.51100000000E-03 0.  1.
         12    1    4    4    0    0 -0.38123504014E+01  0.62114559102E+00  0.87090578278E+01  0.95271992567E+01  0.00000000000E+00 0. -1.
</event>
<event>
 8    1  0.1253488E-006  0.9118800E+02  0.7816164E-02  0.1184000E+00
        -11   -1    0    0    0    0  0.00000000000E+00  0.00000000000E+00  0.45593999997E+02  0.45594000000E+02  0.51100000000E-03 0.  1.
         11   -1    0    0    0    0 -0.00000000000E+00 -0.00000000000E+00 -0.45593999997E+02  0.45594000000E+02  0.51100000000E-03 0. -1.
         23    2    1    2    0    0  0.00000000000E+00  0.00000000000E+00  0.71054273576E-14  0.91188000000E+02  0.91188000000E+02 0.  0.
    9900012    2    3    3    0    0  0.13721339244E+02  0.16030757135E+02 -0.30174641054E+02  0.54367227497E+02  0.40000326724E+02 0.  0.
        -12    1    3    3    0    0 -0.13721339244E+02 -0.16030757135E+02  0.30174641054E+02  0.36820772503E+02  0.00000000000E+00 0.  1.
         11    1    4    4    0    0 -0.10151821839E+01 -0.87995264224E+01 -0.13197147978E+01  0.89556634335E+01  0.51100000000E-03 0. -1.
        -11    1    4    4    0    0  0.15024836178E+02  0.60947913485E+01 -0.11567482542E+02  0.19917299927E+02  0.51100000000E-03 0.  1.
        -12    1    4    4    0    0 -0.28831475092E+00  0.18735492209E+02 -0.17287443714E+02  0.25494264136E+02  0.00000000000E+00 0.  1.
</event>
<event>
 8    1  0.1253488E-006  0.9118800E+02  0.7816164E-02  0.1184000E+00
        -11   -1    0    0    0    0  0.00000000000E+00  0.00000000000E+00  0.45593999997E+02  0.45594000000E+02  0.51100000000E-03 0.  1.
         11   -1    0    0    0    0 -0.00000000000E+00 -0.00000000000E+00 -0.45593999997E+02  0.45594000000E+02  0.51100000000E-03 0. -1.
         23    2    1    2    0    0 -0.88817841970E-15  0.00000000000E+00  0.00000000000E+00  0.91188000000E+02  0.91188000000E+02 0.  0.
    9900012    2    3    3    0    0  0.52384544588E+01 -0.19773306449E+02 -0.30616246822E+02  0.54367087158E+02  0.40000006794E+02 0.  0.
        -12    1    3    3    0    0 -0.52384544588E+01  0.19773306449E+02  0.30616246822E+02  0.36820912842E+02  0.00000000000E+00 0.  1.
         11    1    4    4    0    0 -0.62601328741E+01 -0.10734107041E+02 -0.43241703576E+01  0.13157080494E+02  0.51100000000E-03 0. -1.
        -11    1    4    4    0    0 -0.56950022625E+01 -0.11815403624E+02 -0.58697954870E+01  0.14369805597E+02  0.51100000000E-03 0.  1.
        -12    1    4    4    0    0  0.17193589595E+02  0.27762042164E+01 -0.20422280978E+02  0.26840201068E+02  0.00000000000E+00 0.  1.
</event>
<event>
 8    1  0.1253488E-006  0.9118800E+02  0.7816164E-02  0.1184000E+00
        -11   -1    0    0    0    0  0.00000000000E+00  0.00000000000E+00  0.45593999997E+02  0.45594000000E+02  0.51100000000E-03 0.  1.
         11   -1    0    0    0    0 -0.00000000000E+00 -0.00000000000E+00 -0.45593999997E+02  0.45594000000E+02  0.51100000000E-03 0. -1.
         23    2    1    2    0    0  0.00000000000E+00  0.00000000000E+00  0.00000000000E+00  0.91188000000E+02  0.91188000000E+02 0.  0.
    9900012    2    3    3    0    0 -0.36136753036E+02 -0.22222375989E+01 -0.67064484173E+01  0.54367085965E+02  0.40000004075E+02 0.  0.
        -12    1    3    3    0    0  0.36136753036E+02  0.22222375989E+01  0.67064484173E+01  0.36820914035E+02  0.00000000000E+00 0.  1.
         11    1    4    4    0    0 -0.13929433560E+02 -0.11872022475E+02 -0.11244548388E+02  0.21480547145E+02  0.51100000000E-03 0. -1.
        -11    1    4    4    0    0 -0.10226754595E+02 -0.58687159852E+01 -0.25060519309E+01  0.12054403071E+02  0.51100000000E-03 0.  1.
        -12    1    4    4    0    0 -0.11980564882E+02  0.15518500861E+02  0.70441519013E+01  0.20832135749E+02  0.00000000000E+00 0.  1.
</event>
<event>
 8    1  0.1253488E-006  0.9118800E+02  0.7816164E-02  0.1184000E+00
        -11   -1    0    0    0    0  0.00000000000E+00  0.00000000000E+00  0.45593999997E+02  0.45594000000E+02  0.51100000000E-03 0.  1.
         11   -1    0    0    0    0 -0.00000000000E+00 -0.00000000000E+00 -0.45593999997E+02  0.45594000000E+02  0.51100000000E-03 0. -1.
         23    2    1    2    0    0  0.00000000000E+00  0.00000000000E+00  0.00000000000E+00  0.91188000000E+02  0.91188000000E+02 0.  0.
    9900012    2    3    3    0    0 -0.79150814081E+01 -0.32831502661E+02  0.14670493674E+02  0.54367089292E+02  0.40000011659E+02 0.  0.
        -12    1    3    3    0    0  0.79150814081E+01  0.32831502661E+02 -0.14670493674E+02  0.36820910708E+02  0.00000000000E+00 0.  1.
         11    1    4    4    0    0 -0.10697686565E+01  0.48392346928E+00 -0.83145255739E+01  0.83970186783E+01  0.51100000000E-03 0. -1.
        -11    1    4    4    0    0 -0.65727120564E+01 -0.36856656459E+00  0.59750338071E+01  0.88902988896E+01  0.51100000000E-03 0.  1.
         12    1    4    4    0    0 -0.27260069522E+00 -0.32946859566E+02  0.17009985441E+02  0.37079771724E+02  0.00000000000E+00 0. -1.
</event>
<event>
 8    1  0.1253488E-006  0.9118800E+02  0.7816164E-02  0.1184000E+00
        -11   -1    0    0    0    0  0.00000000000E+00  0.00000000000E+00  0.45593999997E+02  0.45594000000E+02  0.51100000000E-03 0.  1.
         11   -1    0    0    0    0 -0.00000000000E+00 -0.00000000000E+00 -0.45593999997E+02  0.45594000000E+02  0.51100000000E-03 0. -1.
         23    2    1    2    0    0 -0.17763568394E-14  0.66613381478E-15 -0.71054273576E-14  0.91188000000E+02  0.91188000000E+02 0.  0.
    9900012    2    3    3    0    0 -0.99868404665E+01  0.97443203447E+00 -0.35427307564E+02  0.54367073593E+02  0.39999975869E+02 0.  0.
        -12    1    3    3    0    0  0.99868404665E+01 -0.97443203447E+00  0.35427307564E+02  0.36820926407E+02  0.00000000000E+00 0.  1.
         11    1    4    4    0    0  0.31583403571E+01 -0.79447934146E+01 -0.11211151853E+02  0.14099105729E+02  0.51100000000E-03 0. -1.
        -11    1    4    4    0    0 -0.29628189199E+00  0.37980029933E+01  0.59595881197E+01  0.70731393676E+01  0.51100000000E-03 0.  1.
         12    1    4    4    0    0 -0.12848898932E+02  0.51212224558E+01 -0.30175743830E+02  0.33194828496E+02  0.00000000000E+00 0. -1.
</event>
<event>
 8    1  0.1253488E-006  0.9118800E+02  0.7816164E-02  0.1184000E+00
        -11   -1    0    0    0    0  0.00000000000E+00  0.00000000000E+00  0.45593999997E+02  0.45594000000E+02  0.51100000000E-03 0.  1.
         11   -1    0    0    0    0 -0.00000000000E+00 -0.00000000000E+00 -0.45593999997E+02  0.45594000000E+02  0.51100000000E-03 0. -1.
         23    2    1    2    0    0  0.00000000000E+00  0.71054273576E-14  0.35527136788E-14  0.91188000000E+02  0.91188000000E+02 0.  0.
    9900012    2    3    3    0    0 -0.18008465476E+02  0.19985520921E+02  0.25140676392E+02  0.54367089029E+02  0.40000011060E+02 0.  0.
         12    1    3    3    0    0  0.18008465476E+02 -0.19985520921E+02 -0.25140676392E+02  0.36820910971E+02  0.00000000000E+00 0. -1.
         11    1    4    4    0    0  0.51534556439E+01 -0.66499667030E+01  0.39802446582E+01  0.93071214683E+01  0.51100000000E-03 0. -1.
        -11    1    4    4    0    0 -0.20762925530E+02  0.11688207999E+02  0.17276466892E+02  0.29431099051E+02  0.51100000000E-03 0.  1.
        -12    1    4    4    0    0 -0.23989955900E+01  0.14947279625E+02  0.38839648410E+01  0.15628868510E+02  0.00000000000E+00 0.  1.
</event>
<event>
 8    1  0.1253488E-006  0.9118800E+02  0.7816164E-02  0.1184000E+00
        -11   -1    0    0    0    0  0.00000000000E+00  0.00000000000E+00  0.45593999997E+02  0.45594000000E+02  0.51100000000E-03 0.  1.
         11   -1    0    0    0    0 -0.00000000000E+00 -0.00000000000E+00 -0.45593999997E+02  0.45594000000E+02  0.51100000000E-03 0. -1.
         23    2    1    2    0    0  0.00000000000E+00 -0.17763568394E-14  0.00000000000E+00  0.91188000000E+02  0.91188000000E+02 0.  0.
    9900012    2    3    3    0    0 -0.27475220917E+02 -0.69012544935E+01  0.23521592759E+02  0.54367076547E+02  0.39999982604E+02 0.  0.
         12    1    3    3    0    0  0.27475220917E+02  0.69012544935E+01 -0.23521592759E+02  0.36820923453E+02  0.00000000000E+00 0. -1.
         11    1    4    4    0    0 -0.27060113427E+02 -0.16833201105E+02  0.19992536437E+02  0.37620578299E+02  0.51100000000E-03 0.  1.
        -11    1    4    4    0    0  0.58927269744E+01  0.32682825628E+01 -0.43225649818E+00  0.67522402243E+01  0.51100000000E-03 0. -1.
         12    1    4    4    0    0 -0.63078344642E+01  0.66636640486E+01  0.39613128198E+01  0.99942580233E+01  0.00000000000E+00 0. -1.
</event>
<event>
 8    1  0.1253488E-006  0.9118800E+02  0.7816164E-02  0.1184000E+00
        -11   -1    0    0    0    0  0.00000000000E+00  0.00000000000E+00  0.45593999997E+02  0.45594000000E+02  0.51100000000E-03 0. -1.
         11   -1    0    0    0    0 -0.00000000000E+00 -0.00000000000E+00 -0.45593999997E+02  0.45594000000E+02  0.51100000000E-03 0.  1.
         23    2    1    2    0    0 -0.35527136788E-14 -0.17763568394E-14  0.35527136788E-14  0.91188000000E+02  0.91188000000E+02 0.  0.
    9900012    2    3    3    0    0  0.17819856182E+02  0.13393577907E+02 -0.29306073532E+02  0.54367066425E+02  0.39999959529E+02 0.  0.
         12    1    3    3    0    0 -0.17819856182E+02 -0.13393577907E+02  0.29306073532E+02  0.36820933575E+02  0.00000000000E+00 0. -1.
         11    1    4    4    0    0  0.21664079112E+01  0.30510014422E+01  0.12256090233E+01  0.39375183526E+01  0.51100000000E-03 0. -1.
        -11    1    4    4    0    0  0.11038504338E+02 -0.36091228024E+01 -0.33483935695E+02  0.35440771652E+02  0.51100000000E-03 0.  1.
        -12    1    4    4    0    0  0.46149439333E+01  0.13951699267E+02  0.29522531404E+01  0.14988776420E+02  0.00000000000E+00 0.  1.
</event>
<event>
 8    1  0.1253488E-006  0.9118800E+02  0.7816164E-02  0.1184000E+00
        -11   -1    0    0    0    0  0.00000000000E+00  0.00000000000E+00  0.45593999997E+02  0.45594000000E+02  0.51100000000E-03 0.  1.
         11   -1    0    0    0    0 -0.00000000000E+00 -0.00000000000E+00 -0.45593999997E+02  0.45594000000E+02  0.51100000000E-03 0. -1.
         23    2    1    2    0    0  0.00000000000E+00  0.00000000000E+00 -0.35527136788E-14  0.91188000000E+02  0.91188000000E+02 0.  0.
    9900012    2    3    3    0    0  0.16963526232E+02  0.10773786160E+02 -0.30853603660E+02  0.54367074574E+02  0.39999978107E+02 0.  0.
        -12    1    3    3    0    0 -0.16963526232E+02 -0.10773786160E+02  0.30853603660E+02  0.36820925426E+02  0.00000000000E+00 0.  1.
         11    1    4    4    0    0  0.53355449038E+01 -0.77031653081E+01 -0.12181897764E+02  0.15368976172E+02  0.51100000000E-03 0. -1.
        -11    1    4    4    0    0 -0.48959841945E+01 -0.15342185697E+01  0.23089176742E+01  0.56263299707E+01  0.51100000000E-03 0.  1.
        -12    1    4    4    0    0  0.16523965522E+02  0.20011170038E+02 -0.20980623570E+02  0.33371768432E+02  0.00000000000E+00 0.  1.
</event>
<event>
 8    1  0.1253488E-006  0.9118800E+02  0.7816164E-02  0.1184000E+00
        -11   -1    0    0    0    0  0.00000000000E+00  0.00000000000E+00  0.45593999997E+02  0.45594000000E+02  0.51100000000E-03 0. -1.
         11   -1    0    0    0    0 -0.00000000000E+00 -0.00000000000E+00 -0.45593999997E+02  0.45594000000E+02  0.51100000000E-03 0.  1.
         23    2    1    2    0    0 -0.35527136788E-14  0.35527136788E-14  0.00000000000E+00  0.91188000000E+02  0.91188000000E+02 0.  0.
    9900012    2    3    3    0    0 -0.29552156544E+02 -0.16515562293E+02  0.14480496780E+02  0.54367101840E+02  0.40000040265E+02 0.  0.
        -12    1    3    3    0    0  0.29552156544E+02  0.16515562293E+02 -0.14480496780E+02  0.36820898160E+02  0.00000000000E+00 0.  1.
         11    1    4    4    0    0 -0.17947493783E+01 -0.53322995049E+01  0.58981196997E+00  0.56570683010E+01  0.51100000000E-03 0. -1.
        -11    1    4    4    0    0  0.13867917239E+01  0.92930410868E+01  0.85304801616E+01  0.12690661763E+02  0.51100000000E-03 0.  1.
         12    1    4    4    0    0 -0.29144198890E+02 -0.20476303875E+02  0.53602046488E+01  0.36019371777E+02  0.00000000000E+00 0. -1.
</event>
<event>
 8    1  0.1253488E-006  0.9118800E+02  0.7816164E-02  0.1184000E+00
        -11   -1    0    0    0    0  0.00000000000E+00  0.00000000000E+00  0.45593999997E+02  0.45594000000E+02  0.51100000000E-03 0. -1.
         11   -1    0    0    0    0 -0.00000000000E+00 -0.00000000000E+00 -0.45593999997E+02  0.45594000000E+02  0.51100000000E-03 0.  1.
         23    2    1    2    0    0  0.35527136788E-14 -0.13322676296E-14  0.35527136788E-14  0.91188000000E+02  0.91188000000E+02 0.  0.
    9900012    2    3    3    0    0 -0.28957740511E+02 -0.15129552407E+01  0.22692261480E+02  0.54367102399E+02  0.40000041538E+02 0.  0.
        -12    1    3    3    0    0  0.28957740511E+02  0.15129552407E+01 -0.22692261480E+02  0.36820897601E+02  0.00000000000E+00 0.  1.
         11    1    4    4    0    0 -0.12288808359E+02  0.86760132577E+01 -0.32987167369E+01  0.15400310039E+02  0.51100000000E-03 0. -1.
        -11    1    4    4    0    0 -0.19911580297E+01 -0.10418128905E+02  0.19293074806E+01  0.10780739668E+02  0.51100000000E-03 0.  1.
         12    1    4    4    0    0 -0.14677774123E+02  0.22916040621E+00  0.24061670737E+02  0.28186052691E+02  0.00000000000E+00 0. -1.
</event>
<event>
 8    1  0.1253488E-006  0.9118800E+02  0.7816164E-02  0.1184000E+00
        -11   -1    0    0    0    0  0.00000000000E+00  0.00000000000E+00  0.45593999997E+02  0.45594000000E+02  0.51100000000E-03 0. -1.
         11   -1    0    0    0    0 -0.00000000000E+00 -0.00000000000E+00 -0.45593999997E+02  0.45594000000E+02  0.51100000000E-03 0.  1.
         23    2    1    2    0    0 -0.17763568394E-14 -0.35527136788E-14 -0.35527136788E-14  0.91188000000E+02  0.91188000000E+02 0.  0.
    9900012    2    3    3    0    0  0.15040993585E+02 -0.16706350208E+02 -0.29162414025E+02  0.54367081801E+02  0.39999994581E+02 0.  0.
         12    1    3    3    0    0 -0.15040993585E+02  0.16706350208E+02  0.29162414025E+02  0.36820918199E+02  0.00000000000E+00 0. -1.
         11    1    4    4    0    0 -0.81982820356E+01  0.26384897271E+01 -0.10397480645E+02  0.13501150336E+02  0.51100000000E-03 0. -1.
        -11    1    4    4    0    0  0.86365292378E+01  0.15281875179E+01 -0.11332059443E+02  0.14329709203E+02  0.51100000000E-03 0.  1.
        -12    1    4    4    0    0  0.14602746382E+02 -0.20873027453E+02 -0.74328739372E+01  0.26536222262E+02  0.00000000000E+00 0.  1.
</event>
<event>
 8    1  0.1253488E-006  0.9118800E+02  0.7816164E-02  0.1184000E+00
        -11   -1    0    0    0    0  0.00000000000E+00  0.00000000000E+00  0.45593999997E+02  0.45594000000E+02  0.51100000000E-03 0.  1.
         11   -1    0    0    0    0 -0.00000000000E+00 -0.00000000000E+00 -0.45593999997E+02  0.45594000000E+02  0.51100000000E-03 0. -1.
         23    2    1    2    0    0  0.00000000000E+00  0.00000000000E+00 -0.17763568394E-14  0.91188000000E+02  0.91188000000E+02 0.  0.
    9900012    2    3    3    0    0  0.21694635775E+02 -0.27540242859E+02 -0.11254185409E+02  0.54367097141E+02  0.40000029551E+02 0.  0.
        -12    1    3    3    0    0 -0.21694635775E+02  0.27540242859E+02  0.11254185409E+02  0.36820902859E+02  0.00000000000E+00 0.  1.
         11    1    4    4    0    0  0.14695141274E+02 -0.24157801610E+02 -0.20708659694E+01  0.28351984795E+02  0.51100000000E-03 0. -1.
        -11    1    4    4    0    0  0.10598141993E+02  0.77343873328E+00  0.42929162090E+01  0.11460713373E+02  0.51100000000E-03 0.  1.
        -12    1    4    4    0    0 -0.35986474920E+01 -0.41558799831E+01 -0.13476235649E+02  0.14554398973E+02  0.00000000000E+00 0.  1.
</event>
<event>
 8    1  0.1253488E-006  0.9118800E+02  0.7816164E-02  0.1184000E+00
        -11   -1    0    0    0    0  0.00000000000E+00  0.00000000000E+00  0.45593999997E+02  0.45594000000E+02  0.51100000000E-03 0.  1.
         11   -1    0    0    0    0 -0.00000000000E+00 -0.00000000000E+00 -0.45593999997E+02  0.45594000000E+02  0.51100000000E-03 0. -1.
         23    2    1    2    0    0  0.00000000000E+00  0.00000000000E+00  0.00000000000E+00  0.91188000000E+02  0.91188000000E+02 0.  0.
    9900012    2    3    3    0    0  0.25029137174E+02  0.22618869603E+02  0.14754975972E+02  0.54367078152E+02  0.39999986263E+02 0.  0.
         12    1    3    3    0    0 -0.25029137174E+02 -0.22618869603E+02 -0.14754975972E+02  0.36820921848E+02  0.00000000000E+00 0. -1.
         11    1    4    4    0    0  0.26203814925E+02  0.24203525508E+02  0.76699408727E+01  0.36486690133E+02  0.51100000000E-03 0. -1.
        -11    1    4    4    0    0  0.47660393956E+01 -0.48869031035E+01 -0.14410742458E+01  0.69766502497E+01  0.51100000000E-03 0.  1.
        -12    1    4    4    0    0 -0.59407171466E+01  0.33022471985E+01  0.85261093448E+01  0.10903737769E+02  0.00000000000E+00 0.  1.
</event>
<event>
 8    1  0.1253488E-006  0.9118800E+02  0.7816164E-02  0.1184000E+00
        -11   -1    0    0    0    0  0.00000000000E+00  0.00000000000E+00  0.45593999997E+02  0.45594000000E+02  0.51100000000E-03 0. -1.
         11   -1    0    0    0    0 -0.00000000000E+00 -0.00000000000E+00 -0.45593999997E+02  0.45594000000E+02  0.51100000000E-03 0.  1.
         23    2    1    2    0    0 -0.17763568394E-14  0.17763568394E-14  0.00000000000E+00  0.91188000000E+02  0.91188000000E+02 0.  0.
    9900012    2    3    3    0    0 -0.11569919824E+02 -0.12370674475E+02 -0.32693782000E+02  0.54367081854E+02  0.39999994702E+02 0.  0.
         12    1    3    3    0    0  0.11569919824E+02  0.12370674475E+02  0.32693782000E+02  0.36820918146E+02  0.00000000000E+00 0. -1.
         11    1    4    4    0    0 -0.21654875599E+02  0.88330213756E+00 -0.69743852591E+01  0.22767430902E+02  0.51100000000E-03 0. -1.
        -11    1    4    4    0    0  0.40924246066E+01 -0.18092283929E+01 -0.11746265640E+02  0.12569646109E+02  0.51100000000E-03 0.  1.
         12    1    4    4    0    0  0.59925311683E+01 -0.11444748219E+02 -0.13973131100E+02  0.19030004844E+02  0.00000000000E+00 0. -1.
</event>
<event>
 8    1  0.1253488E-006  0.9118800E+02  0.7816164E-02  0.1184000E+00
        -11   -1    0    0    0    0  0.00000000000E+00  0.00000000000E+00  0.45593999997E+02  0.45594000000E+02  0.51100000000E-03 0.  1.
         11   -1    0    0    0    0 -0.00000000000E+00 -0.00000000000E+00 -0.45593999997E+02  0.45594000000E+02  0.51100000000E-03 0. -1.
         23    2    1    2    0    0  0.35527136788E-14  0.00000000000E+00  0.00000000000E+00  0.91188000000E+02  0.91188000000E+02 0.  0.
    9900012    2    3    3    0    0  0.17016582799E+02 -0.50509477201E+01 -0.32259925702E+02  0.54367096028E+02  0.40000027014E+02 0.  0.
        -12    1    3    3    0    0 -0.17016582799E+02  0.50509477201E+01  0.32259925702E+02  0.36820903972E+02  0.00000000000E+00 0.  1.
         11    1    4    4    0    0  0.14077666093E+02  0.78452218854E+01 -0.78047995411E+01  0.17906509576E+02  0.51100000000E-03 0. -1.
        -11    1    4    4    0    0  0.34598201188E+00  0.37734990635E+01  0.25866816978E+01  0.45880193114E+01  0.51100000000E-03 0.  1.
         12    1    4    4    0    0  0.25929346944E+01 -0.16669668669E+02 -0.27041807859E+02  0.31872567141E+02  0.00000000000E+00 0. -1.
</event>
<event>
 8    1  0.1253488E-006  0.9118800E+02  0.7816164E-02  0.1184000E+00
        -11   -1    0    0    0    0  0.00000000000E+00  0.00000000000E+00  0.45593999997E+02  0.45594000000E+02  0.51100000000E-03 0.  1.
         11   -1    0    0    0    0 -0.00000000000E+00 -0.00000000000E+00 -0.45593999997E+02  0.45594000000E+02  0.51100000000E-03 0. -1.
         23    2    1    2    0    0  0.00000000000E+00 -0.17763568394E-14  0.00000000000E+00  0.91188000000E+02  0.91188000000E+02 0.  0.
    9900012    2    3    3    0    0 -0.17915781054E+02 -0.15011459279E+02  0.28451019275E+02  0.54367087216E+02  0.40000006926E+02 0.  0.
         12    1    3    3    0    0  0.17915781054E+02  0.15011459279E+02 -0.28451019275E+02  0.36820912784E+02  0.00000000000E+00 0. -1.
         11    1    4    4    0    0  0.10073520635E+02  0.32905415741E+01  0.44170187090E+01  0.11481007638E+02  0.51100000000E-03 0. -1.
        -11    1    4    4    0    0 -0.10288169091E+01 -0.21368860256E+01 -0.11226937064E+01  0.26239640886E+01  0.51100000000E-03 0.  1.
        -12    1    4    4    0    0 -0.26960484780E+02 -0.16165114828E+02  0.25156694272E+02  0.40262115490E+02  0.00000000000E+00 0.  1.
</event>
<event>
 8    1  0.1253488E-006  0.9118800E+02  0.7816164E-02  0.1184000E+00
        -11   -1    0    0    0    0  0.00000000000E+00  0.00000000000E+00  0.45593999997E+02  0.45594000000E+02  0.51100000000E-03 0.  1.
         11   -1    0    0    0    0 -0.00000000000E+00 -0.00000000000E+00 -0.45593999997E+02  0.45594000000E+02  0.51100000000E-03 0. -1.
         23    2    1    2    0    0 -0.13322676296E-14  0.00000000000E+00  0.00000000000E+00  0.91188000000E+02  0.91188000000E+02 0.  0.
    9900012    2    3    3    0    0  0.28620525406E+01 -0.13609579644E+02  0.34093496071E+02  0.54367102711E+02  0.40000042250E+02 0.  0.
         12    1    3    3    0    0 -0.28620525406E+01  0.13609579644E+02 -0.34093496071E+02  0.36820897289E+02  0.00000000000E+00 0. -1.
         11    1    4    4    0    0 -0.10883370600E+01  0.33429827701E+01 -0.24549003109E+01  0.42879537259E+01  0.51100000000E-03 0. -1.
        -11    1    4    4    0    0 -0.50689175246E+01 -0.95188625968E+01  0.36841559390E+02  0.38387539235E+02  0.51100000000E-03 0.  1.
         12    1    4    4    0    0  0.90193071253E+01 -0.74336998171E+01 -0.29316300739E+00  0.11691609750E+02  0.00000000000E+00 0. -1.
</event>
<event>
 8    1  0.1253488E-006  0.9118800E+02  0.7816164E-02  0.1184000E+00
        -11   -1    0    0    0    0  0.00000000000E+00  0.00000000000E+00  0.45593999997E+02  0.45594000000E+02  0.51100000000E-03 0. -1.
         11   -1    0    0    0    0 -0.00000000000E+00 -0.00000000000E+00 -0.45593999997E+02  0.45594000000E+02  0.51100000000E-03 0.  1.
         23    2    1    2    0    0  0.00000000000E+00  0.00000000000E+00  0.00000000000E+00  0.91188000000E+02  0.91188000000E+02 0.  0.
    9900012    2    3    3    0    0 -0.20740287468E+02  0.22941480450E+02 -0.19982719931E+02  0.54367080058E+02  0.39999990609E+02 0.  0.
         12    1    3    3    0    0  0.20740287468E+02 -0.22941480450E+02  0.19982719931E+02  0.36820919942E+02  0.00000000000E+00 0. -1.
         11    1    4    4    0    0 -0.10375763758E+02  0.25336645508E+02 -0.21719991696E+02  0.34947963012E+02  0.51100000000E-03 0. -1.
        -11    1    4    4    0    0 -0.11778257170E+02 -0.36562043513E+01 -0.43239584532E+01  0.13068733266E+02  0.51100000000E-03 0.  1.
         12    1    4    4    0    0  0.14137334595E+01  0.12610392937E+01  0.60612302185E+01  0.63503837803E+01  0.00000000000E+00 0. -1.
</event>
<event>
 8    1  0.1253488E-006  0.9118800E+02  0.7816164E-02  0.1184000E+00
        -11   -1    0    0    0    0  0.00000000000E+00  0.00000000000E+00  0.45593999997E+02  0.45594000000E+02  0.51100000000E-03 0. -1.
         11   -1    0    0    0    0 -0.00000000000E+00 -0.00000000000E+00 -0.45593999997E+02  0.45594000000E+02  0.51100000000E-03 0.  1.
         23    2    1    2    0    0  0.00000000000E+00  0.00000000000E+00  0.35527136788E-14  0.91188000000E+02  0.91188000000E+02 0.  0.
    9900012    2    3    3    0    0  0.19894345784E+02 -0.16586702575E+02 -0.26170464589E+02  0.54366852364E+02  0.39999471530E+02 0.  0.
         12    1    3    3    0    0 -0.19894345784E+02  0.16586702575E+02  0.26170464589E+02  0.36821147636E+02  0.00000000000E+00 0. -1.
         11    1    4    4    0    0  0.59279731448E+01  0.55643034021E+01 -0.37737719038E+01  0.89634643191E+01  0.51100000000E-03 0. -1.
        -11    1    4    4    0    0  0.95746855450E+01  0.31427949913E+01 -0.16061385544E+02  0.18961009190E+02  0.51100000000E-03 0.  1.
         12    1    4    4    0    0  0.43916870939E+01 -0.25293800968E+02 -0.63353071413E+01  0.26442378855E+02  0.00000000000E+00 0. -1.
</event>
<event>
 8    1  0.1253488E-006  0.9118800E+02  0.7816164E-02  0.1184000E+00
        -11   -1    0    0    0    0  0.00000000000E+00  0.00000000000E+00  0.45593999997E+02  0.45594000000E+02  0.51100000000E-03 0.  1.
         11   -1    0    0    0    0 -0.00000000000E+00 -0.00000000000E+00 -0.45593999997E+02  0.45594000000E+02  0.51100000000E-03 0. -1.
         23    2    1    2    0    0  0.17763568394E-14 -0.17763568394E-14  0.71054273576E-14  0.91188000000E+02  0.91188000000E+02 0.  0.
    9900012    2    3    3    0    0  0.59941567200E+01  0.62964618042E+01  0.35779964968E+02  0.54367065205E+02  0.39999956749E+02 0.  0.
         12    1    3    3    0    0 -0.59941567200E+01 -0.62964618042E+01 -0.35779964968E+02  0.36820934795E+02  0.00000000000E+00 0. -1.
         11    1    4    4    0    0  0.32535247600E+01  0.73259841310E+01  0.10578111033E+01  0.80854456552E+01  0.51100000000E-03 0. -1.
        -11    1    4    4    0    0  0.96196970981E+01 -0.98702645194E+01  0.52434557783E+01  0.14746339298E+02  0.51100000000E-03 0.  1.
        -12    1    4    4    0    0 -0.68790651382E+01  0.88407421927E+01  0.29478698086E+02  0.31535280252E+02  0.00000000000E+00 0.  1.
</event>
<event>
 8    1  0.1253488E-006  0.9118800E+02  0.7816164E-02  0.1184000E+00
        -11   -1    0    0    0    0  0.00000000000E+00  0.00000000000E+00  0.45593999997E+02  0.45594000000E+02  0.51100000000E-03 0.  1.
         11   -1    0    0    0    0 -0.00000000000E+00 -0.00000000000E+00 -0.45593999997E+02  0.45594000000E+02  0.51100000000E-03 0. -1.
         23    2    1    2    0    0  0.35527136788E-14  0.44408920985E-15  0.00000000000E+00  0.91188000000E+02  0.91188000000E+02 0.  0.
    9900012    2    3    3    0    0 -0.29452449685E+02  0.38805000337E+01 -0.21754888544E+02  0.54367078657E+02  0.39999987415E+02 0.  0.
        -12    1    3    3    0    0  0.29452449685E+02 -0.38805000337E+01  0.21754888544E+02  0.36820921343E+02  0.00000000000E+00 0.  1.
         11    1    4    4    0    0 -0.79655619818E+01 -0.20821279580E+01 -0.22156049924E+01  0.85260975987E+01  0.51100000000E-03 0. -1.
        -11    1    4    4    0    0 -0.27736148720E+02 -0.45104398366E-01 -0.23459669406E+02  0.36327015693E+02  0.51100000000E-03 0.  1.
        -12    1    4    4    0    0  0.62492610168E+01  0.60077323902E+01  0.39203858544E+01  0.95139653655E+01  0.00000000000E+00 0.  1.
</event>
<event>
 8    1  0.1253488E-006  0.9118800E+02  0.7816164E-02  0.1184000E+00
        -11   -1    0    0    0    0  0.00000000000E+00  0.00000000000E+00  0.45593999997E+02  0.45594000000E+02  0.51100000000E-03 0. -1.
         11   -1    0    0    0    0 -0.00000000000E+00 -0.00000000000E+00 -0.45593999997E+02  0.45594000000E+02  0.51100000000E-03 0.  1.
         23    2    1    2    0    0  0.35527136788E-14 -0.17763568394E-14  0.35527136788E-14  0.91188000000E+02  0.91188000000E+02 0.  0.
    9900012    2    3    3    0    0 -0.28615938717E+02  0.42951058438E+01  0.22769940334E+02  0.54366945348E+02  0.39999683508E+02 0.  0.
        -12    1    3    3    0    0  0.28615938717E+02 -0.42951058438E+01 -0.22769940334E+02  0.36821054652E+02  0.00000000000E+00 0.  1.
         11    1    4    4    0    0  0.11904090155E+01 -0.68272925961E+01  0.97687648838E+01  0.11977385584E+02  0.51100000000E-03 0. -1.
        -11    1    4    4    0    0  0.14960806149E+01 -0.26711264183E+01  0.70270462026E+01  0.76650213401E+01  0.51100000000E-03 0.  1.
         12    1    4    4    0    0 -0.31302428348E+02  0.13793524858E+02  0.59741292476E+01  0.34724538424E+02  0.00000000000E+00 0. -1.
</event>
<event>
 8    1  0.1253488E-006  0.9118800E+02  0.7816164E-02  0.1184000E+00
        -11   -1    0    0    0    0  0.00000000000E+00  0.00000000000E+00  0.45593999997E+02  0.45594000000E+02  0.51100000000E-03 0. -1.
         11   -1    0    0    0    0 -0.00000000000E+00 -0.00000000000E+00 -0.45593999997E+02  0.45594000000E+02  0.51100000000E-03 0.  1.
         23    2    1    2    0    0  0.35527136788E-14  0.17763568394E-14 -0.35527136788E-14  0.91188000000E+02  0.91188000000E+02 0.  0.
    9900012    2    3    3    0    0  0.30282719486E+02  0.97672810764E+01 -0.18529386642E+02  0.54367067795E+02  0.39999962653E+02 0.  0.
         12    1    3    3    0    0 -0.30282719486E+02 -0.97672810764E+01  0.18529386642E+02  0.36820932205E+02  0.00000000000E+00 0. -1.
         11    1    4    4    0    0  0.40888836623E+00  0.14655971133E+02 -0.17389315288E+02  0.22745394390E+02  0.51100000000E-03 0. -1.
        -11    1    4    4    0    0  0.30370506632E+02 -0.51780131413E+01 -0.57278718963E+00  0.30814080849E+02  0.51100000000E-03 0.  1.
        -12    1    4    4    0    0 -0.49667551200E+00  0.28932308473E+00 -0.56728416495E+00  0.80759255530E+00  0.00000000000E+00 0.  1.
</event>
<event>
 8    1  0.1253488E-006  0.9118800E+02  0.7816164E-02  0.1184000E+00
        -11   -1    0    0    0    0  0.00000000000E+00  0.00000000000E+00  0.45593999997E+02  0.45594000000E+02  0.51100000000E-03 0.  1.
         11   -1    0    0    0    0 -0.00000000000E+00 -0.00000000000E+00 -0.45593999997E+02  0.45594000000E+02  0.51100000000E-03 0. -1.
         23    2    1    2    0    0 -0.71054273576E-14  0.88817841970E-15 -0.88817841970E-15  0.91188000000E+02  0.91188000000E+02 0.  0.
    9900012    2    3    3    0    0  0.36106084859E+02 -0.23722316967E+01  0.68192921356E+01  0.54367087568E+02  0.40000007729E+02 0.  0.
         12    1    3    3    0    0 -0.36106084859E+02  0.23722316967E+01 -0.68192921356E+01  0.36820912432E+02  0.00000000000E+00 0. -1.
         11    1    4    4    0    0  0.45098624391E+00 -0.92886298889E+01  0.69570834773E+01  0.11613915988E+02  0.51100000000E-03 0. -1.
        -11    1    4    4    0    0  0.12301858586E+02  0.12165217043E+02  0.55151217903E+01  0.18158876590E+02  0.51100000000E-03 0.  1.
         12    1    4    4    0    0  0.23353240029E+02 -0.52488188512E+01 -0.56529131320E+01  0.24594294990E+02  0.00000000000E+00 0. -1.
</event>
<event>
 8    1  0.1253488E-006  0.9118800E+02  0.7816164E-02  0.1184000E+00
        -11   -1    0    0    0    0  0.00000000000E+00  0.00000000000E+00  0.45593999997E+02  0.45594000000E+02  0.51100000000E-03 0. -1.
         11   -1    0    0    0    0 -0.00000000000E+00 -0.00000000000E+00 -0.45593999997E+02  0.45594000000E+02  0.51100000000E-03 0.  1.
         23    2    1    2    0    0  0.00000000000E+00 -0.17763568394E-14 -0.66613381478E-15  0.91188000000E+02  0.91188000000E+02 0.  0.
    9900012    2    3    3    0    0 -0.35936397949E+02 -0.79010035511E+01 -0.13886791289E+01  0.54367095823E+02  0.40000026548E+02 0.  0.
         12    1    3    3    0    0  0.35936397949E+02  0.79010035511E+01  0.13886791289E+01  0.36820904177E+02  0.00000000000E+00 0. -1.
         11    1    4    4    0    0 -0.44924960883E+01  0.10138861446E+01 -0.29770135691E+01  0.54838942613E+01  0.51100000000E-03 0. -1.
        -11    1    4    4    0    0 -0.11111818749E+02 -0.19250730407E+02  0.10260928900E+02  0.24481621663E+02  0.51100000000E-03 0.  1.
        -12    1    4    4    0    0 -0.20332083112E+02  0.10335840712E+02 -0.86725944594E+01  0.24401579899E+02  0.00000000000E+00 0.  1.
</event>
<event>
 8    1  0.1253488E-006  0.9118800E+02  0.7816164E-02  0.1184000E+00
        -11   -1    0    0    0    0  0.00000000000E+00  0.00000000000E+00  0.45593999997E+02  0.45594000000E+02  0.51100000000E-03 0. -1.
         11   -1    0    0    0    0 -0.00000000000E+00 -0.00000000000E+00 -0.45593999997E+02  0.45594000000E+02  0.51100000000E-03 0.  1.
         23    2    1    2    0    0 -0.17763568394E-14  0.00000000000E+00  0.00000000000E+00  0.91188000000E+02  0.91188000000E+02 0.  0.
    9900012    2    3    3    0    0  0.12833784449E+02 -0.32434923621E+02 -0.11791968261E+02  0.54367071046E+02  0.39999970063E+02 0.  0.
         12    1    3    3    0    0 -0.12833784449E+02  0.32434923621E+02  0.11791968261E+02  0.36820928954E+02  0.00000000000E+00 0. -1.
         11    1    4    4    0    0  0.95450606773E+01  0.58465651199E+01 -0.80931155999E+01  0.13812640132E+02  0.51100000000E-03 0. -1.
        -11    1    4    4    0    0  0.67605096972E+01 -0.15736812745E+02 -0.45721965428E+01  0.17727288237E+02  0.51100000000E-03 0.  1.
         12    1    4    4    0    0 -0.34717859252E+01 -0.22544675996E+02  0.87334388147E+00  0.22827142677E+02  0.00000000000E+00 0. -1.
</event>
<event>
 8    1  0.1253488E-006  0.9118800E+02  0.7816164E-02  0.1184000E+00
        -11   -1    0    0    0    0  0.00000000000E+00  0.00000000000E+00  0.45593999997E+02  0.45594000000E+02  0.51100000000E-03 0. -1.
         11   -1    0    0    0    0 -0.00000000000E+00 -0.00000000000E+00 -0.45593999997E+02  0.45594000000E+02  0.51100000000E-03 0.  1.
         23    2    1    2    0    0 -0.71054273576E-14  0.00000000000E+00  0.17763568394E-14  0.91188000000E+02  0.91188000000E+02 0.  0.
    9900012    2    3    3    0    0  0.28101981753E+02  0.20226968252E+02 -0.12527084072E+02  0.54367089386E+02  0.40000011873E+02 0.  0.
         12    1    3    3    0    0 -0.28101981753E+02 -0.20226968252E+02  0.12527084072E+02  0.36820910614E+02  0.00000000000E+00 0. -1.
         11    1    4    4    0    0 -0.31569489908E+01  0.47876466731E+01 -0.47023735845E+01  0.74162123207E+01  0.51100000000E-03 0. -1.
        -11    1    4    4    0    0  0.12709405381E+00  0.15109295851E+02 -0.35916320621E+01  0.15530833691E+02  0.51100000000E-03 0.  1.
        -12    1    4    4    0    0  0.31131836690E+02  0.33002572768E+00 -0.42330784251E+01  0.31420043374E+02  0.00000000000E+00 0.  1.
</event>
<event>
 8    1  0.1253488E-006  0.9118800E+02  0.7816164E-02  0.1184000E+00
        -11   -1    0    0    0    0  0.00000000000E+00  0.00000000000E+00  0.45593999997E+02  0.45594000000E+02  0.51100000000E-03 0.  1.
         11   -1    0    0    0    0 -0.00000000000E+00 -0.00000000000E+00 -0.45593999997E+02  0.45594000000E+02  0.51100000000E-03 0. -1.
         23    2    1    2    0    0 -0.17763568394E-14  0.00000000000E+00  0.00000000000E+00  0.91188000000E+02  0.91188000000E+02 0.  0.
    9900012    2    3    3    0    0 -0.87752422488E+01 -0.29976982558E+02  0.19497573143E+02  0.54367085858E+02  0.40000003830E+02 0.  0.
         12    1    3    3    0    0  0.87752422488E+01  0.29976982558E+02 -0.19497573143E+02  0.36820914142E+02  0.00000000000E+00 0. -1.
         11    1    4    4    0    0 -0.67307722565E+01 -0.69282041074E+01 -0.10547024144E+02  0.14301853931E+02  0.51100000000E-03 0. -1.
        -11    1    4    4    0    0  0.27565466382E+01 -0.21162118761E+02  0.23847068132E+02  0.32001819926E+02  0.51100000000E-03 0.  1.
        -12    1    4    4    0    0 -0.48010166305E+01 -0.18866596903E+01  0.61975291542E+01  0.80634120006E+01  0.00000000000E+00 0.  1.
</event>
<event>
 8    1  0.1253488E-006  0.9118800E+02  0.7816164E-02  0.1184000E+00
        -11   -1    0    0    0    0  0.00000000000E+00  0.00000000000E+00  0.45593999997E+02  0.45594000000E+02  0.51100000000E-03 0. -1.
         11   -1    0    0    0    0 -0.00000000000E+00 -0.00000000000E+00 -0.45593999997E+02  0.45594000000E+02  0.51100000000E-03 0.  1.
         23    2    1    2    0    0  0.00000000000E+00  0.00000000000E+00  0.00000000000E+00  0.91188000000E+02  0.91188000000E+02 0.  0.
    9900012    2    3    3    0    0  0.14008372966E+02  0.13259441168E+02 -0.31364515722E+02  0.54367080135E+02  0.39999990783E+02 0.  0.
         12    1    3    3    0    0 -0.14008372966E+02 -0.13259441168E+02  0.31364515722E+02  0.36820919865E+02  0.00000000000E+00 0. -1.
         11    1    4    4    0    0 -0.22606724811E+01 -0.14559264740E+01 -0.96368707744E+01  0.10004980787E+02  0.51100000000E-03 0. -1.
        -11    1    4    4    0    0 -0.35211188571E+01  0.15015206312E+02 -0.18860051036E+02  0.24363009337E+02  0.51100000000E-03 0.  1.
        -12    1    4    4    0    0  0.19790164304E+02 -0.29983866978E+00 -0.28675939116E+01  0.19999090011E+02  0.00000000000E+00 0.  1.
</event>
<event>
 8    1  0.1253488E-006  0.9118800E+02  0.7816164E-02  0.1184000E+00
        -11   -1    0    0    0    0  0.00000000000E+00  0.00000000000E+00  0.45593999997E+02  0.45594000000E+02  0.51100000000E-03 0.  1.
         11   -1    0    0    0    0 -0.00000000000E+00 -0.00000000000E+00 -0.45593999997E+02  0.45594000000E+02  0.51100000000E-03 0. -1.
         23    2    1    2    0    0  0.35527136788E-14  0.00000000000E+00  0.00000000000E+00  0.91188000000E+02  0.91188000000E+02 0.  0.
    9900012    2    3    3    0    0  0.26883720575E+02 -0.20735694809E+02  0.14250415456E+02  0.54367111745E+02  0.40000062846E+02 0.  0.
         12    1    3    3    0    0 -0.26883720575E+02  0.20735694809E+02 -0.14250415456E+02  0.36820888255E+02  0.00000000000E+00 0. -1.
         11    1    4    4    0    0  0.16640490861E+02  0.75398321961E+01  0.62843863533E+01  0.19319640725E+02  0.51100000000E-03 0. -1.
        -11    1    4    4    0    0 -0.43991196584E+01 -0.61762598057E+01  0.10935881561E+01  0.76612253767E+01  0.51100000000E-03 0.  1.
         12    1    4    4    0    0  0.14642349373E+02 -0.22099267199E+02  0.68724409466E+01  0.27386245644E+02  0.00000000000E+00 0. -1.
</event>
<event>
 8    1  0.1253488E-006  0.9118800E+02  0.7816164E-02  0.1184000E+00
        -11   -1    0    0    0    0  0.00000000000E+00  0.00000000000E+00  0.45593999997E+02  0.45594000000E+02  0.51100000000E-03 0. -1.
         11   -1    0    0    0    0 -0.00000000000E+00 -0.00000000000E+00 -0.45593999997E+02  0.45594000000E+02  0.51100000000E-03 0.  1.
         23    2    1    2    0    0  0.26506574713E-14  0.44408920985E-15  0.00000000000E+00  0.91188000000E+02  0.91188000000E+02 0.  0.
    9900012    2    3    3    0    0  0.10805963282E+00 -0.22907745922E+01 -0.36749421985E+02  0.54367090976E+02  0.40000015499E+02 0.  0.
         12    1    3    3    0    0 -0.10805963282E+00  0.22907745922E+01  0.36749421985E+02  0.36820909024E+02  0.00000000000E+00 0. -1.
         11    1    4    4    0    0  0.16900117011E+02  0.56015849605E+01 -0.88937103989E+01  0.19902004773E+02  0.51100000000E-03 0. -1.
        -11    1    4    4    0    0 -0.74953162163E+01  0.83709615828E+00 -0.10488769029E+02  0.12918775916E+02  0.51100000000E-03 0.  1.
         12    1    4    4    0    0 -0.92967411618E+01 -0.87294557110E+01 -0.17366942557E+02  0.21546310288E+02  0.00000000000E+00 0. -1.
</event>
<event>
 8    1  0.1253488E-006  0.9118800E+02  0.7816164E-02  0.1184000E+00
        -11   -1    0    0    0    0  0.00000000000E+00  0.00000000000E+00  0.45593999997E+02  0.45594000000E+02  0.51100000000E-03 0. -1.
         11   -1    0    0    0    0 -0.00000000000E+00 -0.00000000000E+00 -0.45593999997E+02  0.45594000000E+02  0.51100000000E-03 0.  1.
         23    2    1    2    0    0  0.00000000000E+00  0.17763568394E-14  0.00000000000E+00  0.91188000000E+02  0.91188000000E+02 0.  0.
    9900012    2    3    3    0    0 -0.13416367594E+02  0.11539574435E+02  0.32289591305E+02  0.54367103702E+02  0.40000044509E+02 0.  0.
        -12    1    3    3    0    0  0.13416367594E+02 -0.11539574435E+02 -0.32289591305E+02  0.36820896298E+02  0.00000000000E+00 0.  1.
         11    1    4    4    0    0  0.48830151367E+00  0.15070533980E+02  0.23695902150E+02  0.28086566393E+02  0.51100000000E-03 0. -1.
        -11    1    4    4    0    0 -0.14589150607E+02 -0.15649533233E+01 -0.25943784519E+01  0.14900442750E+02  0.51100000000E-03 0.  1.
        -12    1    4    4    0    0  0.68448149956E+00 -0.19660062218E+01  0.11188067607E+02  0.11380094559E+02  0.00000000000E+00 0.  1.
</event>
<event>
 8    1  0.1253488E-006  0.9118800E+02  0.7816164E-02  0.1184000E+00
        -11   -1    0    0    0    0  0.00000000000E+00  0.00000000000E+00  0.45593999997E+02  0.45594000000E+02  0.51100000000E-03 0.  1.
         11   -1    0    0    0    0 -0.00000000000E+00 -0.00000000000E+00 -0.45593999997E+02  0.45594000000E+02  0.51100000000E-03 0. -1.
         23    2    1    2    0    0  0.71054273576E-14 -0.88817841970E-15  0.00000000000E+00  0.91188000000E+02  0.91188000000E+02 0.  0.
    9900012    2    3    3    0    0  0.34176627696E+02 -0.67923861095E+01 -0.11899642210E+02  0.54367083737E+02  0.39999998996E+02 0.  0.
        -12    1    3    3    0    0 -0.34176627696E+02  0.67923861095E+01  0.11899642210E+02  0.36820916263E+02  0.00000000000E+00 0.  1.
         11    1    4    4    0    0  0.68885208416E+01 -0.16762571048E+02 -0.95736841538E+01  0.20496120025E+02  0.51100000000E-03 0. -1.
        -11    1    4    4    0    0  0.10804996040E+02  0.13129915924E+02 -0.14171166328E+01  0.17063143069E+02  0.51100000000E-03 0.  1.
        -12    1    4    4    0    0  0.16483110815E+02 -0.31597309853E+01 -0.90884142294E+00  0.16807820643E+02  0.00000000000E+00 0.  1.
</event>
<event>
 8    1  0.1253488E-006  0.9118800E+02  0.7816164E-02  0.1184000E+00
        -11   -1    0    0    0    0  0.00000000000E+00  0.00000000000E+00  0.45593999997E+02  0.45594000000E+02  0.51100000000E-03 0.  1.
         11   -1    0    0    0    0 -0.00000000000E+00 -0.00000000000E+00 -0.45593999997E+02  0.45594000000E+02  0.51100000000E-03 0. -1.
         23    2    1    2    0    0  0.00000000000E+00  0.35527136788E-14  0.00000000000E+00  0.91188000000E+02  0.91188000000E+02 0.  0.
    9900012    2    3    3    0    0  0.46823158898E+01 -0.31200567608E+02  0.18983777732E+02  0.54367036974E+02  0.39999892390E+02 0.  0.
         12    1    3    3    0    0 -0.46823158898E+01  0.31200567608E+02 -0.18983777732E+02  0.36820963026E+02  0.00000000000E+00 0. -1.
         11    1    4    4    0    0  0.31562038690E+00 -0.10244242230E+02  0.77986116529E+00  0.10278730408E+02  0.51100000000E-03 0.  1.
        -11    1    4    4    0    0  0.16814763437E+02 -0.35419523704E+01  0.14242609983E+02  0.22318907577E+02  0.51100000000E-03 0. -1.
         12    1    4    4    0    0 -0.12448067934E+02 -0.17414373007E+02  0.39613065834E+01  0.21769398990E+02  0.00000000000E+00 0. -1.
</event>
<event>
 8    1  0.1253488E-006  0.9118800E+02  0.7816164E-02  0.1184000E+00
        -11   -1    0    0    0    0  0.00000000000E+00  0.00000000000E+00  0.45593999997E+02  0.45594000000E+02  0.51100000000E-03 0.  1.
         11   -1    0    0    0    0 -0.00000000000E+00 -0.00000000000E+00 -0.45593999997E+02  0.45594000000E+02  0.51100000000E-03 0. -1.
         23    2    1    2    0    0  0.00000000000E+00  0.99920072216E-15  0.00000000000E+00  0.91188000000E+02  0.91188000000E+02 0.  0.
    9900012    2    3    3    0    0  0.32456891177E+02  0.60487005793E+00 -0.17377150146E+02  0.54367068455E+02  0.39999964157E+02 0.  0.
        -12    1    3    3    0    0 -0.32456891177E+02 -0.60487005793E+00  0.17377150146E+02  0.36820931545E+02  0.00000000000E+00 0.  1.
         11    1    4    4    0    0  0.23458445074E+02  0.15459578897E+02 -0.15351434408E+02  0.32015055265E+02  0.51100000000E-03 0. -1.
        -11    1    4    4    0    0  0.43246421798E+01 -0.81870716973E+01  0.59079867775E+01  0.10983395695E+02  0.51100000000E-03 0.  1.
         12    1    4    4    0    0  0.46738039231E+01 -0.66676371415E+01 -0.79337025151E+01  0.11368617496E+02  0.00000000000E+00 0. -1.
</event>
<event>
 8    1  0.1253488E-006  0.9118800E+02  0.7816164E-02  0.1184000E+00
        -11   -1    0    0    0    0  0.00000000000E+00  0.00000000000E+00  0.45593999997E+02  0.45594000000E+02  0.51100000000E-03 0.  1.
         11   -1    0    0    0    0 -0.00000000000E+00 -0.00000000000E+00 -0.45593999997E+02  0.45594000000E+02  0.51100000000E-03 0. -1.
         23    2    1    2    0    0  0.35527136788E-14 -0.66613381478E-15 -0.35527136788E-14  0.91188000000E+02  0.91188000000E+02 0.  0.
    9900012    2    3    3    0    0  0.24252829348E+02 -0.16339666560E+01 -0.27657047388E+02  0.54367056929E+02  0.39999937880E+02 0.  0.
        -12    1    3    3    0    0 -0.24252829348E+02  0.16339666560E+01  0.27657047388E+02  0.36820943071E+02  0.00000000000E+00 0.  1.
         11    1    4    4    0    0  0.17843858342E+02  0.11301033823E+02  0.10854248621E+01  0.21149344987E+02  0.51100000000E-03 0.  1.
        -11    1    4    4    0    0 -0.20236973854E+01 -0.30077162093E+01 -0.64359260615E+01  0.73866672075E+01  0.51100000000E-03 0. -1.
        -12    1    4    4    0    0  0.84326683921E+01 -0.99272842696E+01 -0.22306546189E+02  0.25831044734E+02  0.00000000000E+00 0.  1.
</event>
<event>
 8    1  0.1253488E-006  0.9118800E+02  0.7816164E-02  0.1184000E+00
        -11   -1    0    0    0    0  0.00000000000E+00  0.00000000000E+00  0.45593999997E+02  0.45594000000E+02  0.51100000000E-03 0.  1.
         11   -1    0    0    0    0 -0.00000000000E+00 -0.00000000000E+00 -0.45593999997E+02  0.45594000000E+02  0.51100000000E-03 0. -1.
         23    2    1    2    0    0  0.35527136788E-14  0.00000000000E+00  0.26645352591E-14  0.91188000000E+02  0.91188000000E+02 0.  0.
    9900012    2    3    3    0    0  0.31273637817E+02  0.18784934103E+02 -0.49865786138E+01  0.54367080160E+02  0.39999990842E+02 0.  0.
         12    1    3    3    0    0 -0.31273637817E+02 -0.18784934103E+02  0.49865786138E+01  0.36820919840E+02  0.00000000000E+00 0. -1.
         11    1    4    4    0    0  0.91595134099E+01  0.20248731969E+01  0.99307957311E+01  0.13660801641E+02  0.51100000000E-03 0.  1.
        -11    1    4    4    0    0 -0.92739186565E+00 -0.36349236047E+01  0.32576200795E+01  0.49683814395E+01  0.51100000000E-03 0. -1.
         12    1    4    4    0    0  0.23041516273E+02  0.20394984511E+02 -0.18174994424E+02  0.35737897080E+02  0.00000000000E+00 0. -1.
</event>
<event>
 8    1  0.1253488E-006  0.9118800E+02  0.7816164E-02  0.1184000E+00
        -11   -1    0    0    0    0  0.00000000000E+00  0.00000000000E+00  0.45593999997E+02  0.45594000000E+02  0.51100000000E-03 0.  1.
         11   -1    0    0    0    0 -0.00000000000E+00 -0.00000000000E+00 -0.45593999997E+02  0.45594000000E+02  0.51100000000E-03 0. -1.
         23    2    1    2    0    0 -0.35527136788E-14  0.35527136788E-14 -0.17763568394E-14  0.91188000000E+02  0.91188000000E+02 0.  0.
    9900012    2    3    3    0    0  0.28706530759E+02 -0.21167278127E+02  0.91471661771E+01  0.54366956824E+02  0.39999709670E+02 0.  0.
         12    1    3    3    0    0 -0.28706530759E+02  0.21167278127E+02 -0.91471661771E+01  0.36821043176E+02  0.00000000000E+00 0. -1.
         11    1    4    4    0    0  0.62218441271E+01 -0.15483116324E+02 -0.80405737043E+01  0.18522663447E+02  0.51100000000E-03 0. -1.
        -11    1    4    4    0    0 -0.28509852314E+01  0.27636708645E+01 -0.20034691424E+00  0.39756927175E+01  0.51100000000E-03 0.  1.
        -12    1    4    4    0    0  0.25335671863E+02 -0.84478326675E+01  0.17388086796E+02  0.31868600659E+02  0.00000000000E+00 0.  1.
</event>
<event>
 8    1  0.1253488E-006  0.9118800E+02  0.7816164E-02  0.1184000E+00
        -11   -1    0    0    0    0  0.00000000000E+00  0.00000000000E+00  0.45593999997E+02  0.45594000000E+02  0.51100000000E-03 0. -1.
         11   -1    0    0    0    0 -0.00000000000E+00 -0.00000000000E+00 -0.45593999997E+02  0.45594000000E+02  0.51100000000E-03 0.  1.
         23    2    1    2    0    0  0.88817841970E-15 -0.35527136788E-14  0.00000000000E+00  0.91188000000E+02  0.91188000000E+02 0.  0.
    9900012    2    3    3    0    0  0.51547783248E+01  0.23237282435E+02 -0.28093349066E+02  0.54367091588E+02  0.40000016894E+02 0.  0.
         12    1    3    3    0    0 -0.51547783248E+01 -0.23237282435E+02  0.28093349066E+02  0.36820908412E+02  0.00000000000E+00 0. -1.
         11    1    4    4    0    0 -0.41623376331E+01  0.19803191491E+02  0.23156064668E+01  0.20367952312E+02  0.51100000000E-03 0. -1.
        -11    1    4    4    0    0  0.71396908282E+01  0.55361352666E+01 -0.10458501678E+02  0.13820428228E+02  0.51100000000E-03 0.  1.
         12    1    4    4    0    0  0.21774251296E+01 -0.21020443230E+01 -0.19950453855E+02  0.20178711048E+02  0.00000000000E+00 0. -1.
</event>
<event>
 8    1  0.1253488E-006  0.9118800E+02  0.7816164E-02  0.1184000E+00
        -11   -1    0    0    0    0  0.00000000000E+00  0.00000000000E+00  0.45593999997E+02  0.45594000000E+02  0.51100000000E-03 0.  1.
         11   -1    0    0    0    0 -0.00000000000E+00 -0.00000000000E+00 -0.45593999997E+02  0.45594000000E+02  0.51100000000E-03 0. -1.
         23    2    1    2    0    0 -0.35527136788E-14  0.22204460493E-15  0.00000000000E+00  0.91188000000E+02  0.91188000000E+02 0.  0.
    9900012    2    3    3    0    0 -0.22377883891E+02  0.97048780978E+00 -0.29224496464E+02  0.54367044993E+02  0.39999910670E+02 0.  0.
        -12    1    3    3    0    0  0.22377883891E+02 -0.97048780978E+00  0.29224496464E+02  0.36820955007E+02  0.00000000000E+00 0.  1.
         11    1    4    4    0    0  0.25482086521E+01  0.49024809813E+00 -0.55993420118E+00  0.26546632749E+01  0.51100000000E-03 0. -1.
        -11    1    4    4    0    0  0.14638796877E+01  0.10238889183E+02  0.15127581089E+01  0.10453048972E+02  0.51100000000E-03 0.  1.
         12    1    4    4    0    0 -0.26389972231E+02 -0.97586494715E+01 -0.30177320372E+02  0.41259332747E+02  0.00000000000E+00 0. -1.
</event>
<event>
 8    1  0.1253488E-006  0.9118800E+02  0.7816164E-02  0.1184000E+00
        -11   -1    0    0    0    0  0.00000000000E+00  0.00000000000E+00  0.45593999997E+02  0.45594000000E+02  0.51100000000E-03 0. -1.
         11   -1    0    0    0    0 -0.00000000000E+00 -0.00000000000E+00 -0.45593999997E+02  0.45594000000E+02  0.51100000000E-03 0.  1.
         23    2    1    2    0    0 -0.35527136788E-14 -0.35527136788E-14  0.00000000000E+00  0.91188000000E+02  0.91188000000E+02 0.  0.
    9900012    2    3    3    0    0  0.16197356640E+02 -0.16908235455E+02 -0.28417188536E+02  0.54367090280E+02  0.40000013911E+02 0.  0.
         12    1    3    3    0    0 -0.16197356640E+02  0.16908235455E+02  0.28417188536E+02  0.36820909720E+02  0.00000000000E+00 0. -1.
         11    1    4    4    0    0 -0.45426932138E+01  0.24578663279E+01 -0.14230490986E+02  0.15138825664E+02  0.51100000000E-03 0. -1.
        -11    1    4    4    0    0  0.40898395614E+01 -0.10224622054E+01  0.59577207782E+01  0.72984007653E+01  0.51100000000E-03 0.  1.
        -12    1    4    4    0    0  0.16650210293E+02 -0.18343639578E+02 -0.20144418328E+02  0.31929863851E+02  0.00000000000E+00 0.  1.
</event>
<event>
 8    1  0.1253488E-006  0.9118800E+02  0.7816164E-02  0.1184000E+00
        -11   -1    0    0    0    0  0.00000000000E+00  0.00000000000E+00  0.45593999997E+02  0.45594000000E+02  0.51100000000E-03 0.  1.
         11   -1    0    0    0    0 -0.00000000000E+00 -0.00000000000E+00 -0.45593999997E+02  0.45594000000E+02  0.51100000000E-03 0. -1.
         23    2    1    2    0    0  0.00000000000E+00  0.00000000000E+00  0.00000000000E+00  0.91188000000E+02  0.91188000000E+02 0.  0.
    9900012    2    3    3    0    0 -0.10616569080E+02 -0.32014240154E+02  0.14770105883E+02  0.54367093717E+02  0.40000021747E+02 0.  0.
         12    1    3    3    0    0  0.10616569080E+02  0.32014240154E+02 -0.14770105883E+02  0.36820906283E+02  0.00000000000E+00 0. -1.
         11    1    4    4    0    0  0.82082399416E+01 -0.19092748930E+02  0.11874464648E+01  0.20816298759E+02  0.51100000000E-03 0. -1.
        -11    1    4    4    0    0 -0.17784288163E+02 -0.19404488622E+01  0.27667858627E+01  0.18102523347E+02  0.51100000000E-03 0.  1.
        -12    1    4    4    0    0 -0.10405208584E+01 -0.10981042361E+02  0.10815873556E+02  0.15448271611E+02  0.00000000000E+00 0.  1.
</event>
<event>
 8    1  0.1253488E-006  0.9118800E+02  0.7816164E-02  0.1184000E+00
        -11   -1    0    0    0    0  0.00000000000E+00  0.00000000000E+00  0.45593999997E+02  0.45594000000E+02  0.51100000000E-03 0. -1.
         11   -1    0    0    0    0 -0.00000000000E+00 -0.00000000000E+00 -0.45593999997E+02  0.45594000000E+02  0.51100000000E-03 0.  1.
         23    2    1    2    0    0  0.00000000000E+00 -0.35527136788E-14  0.00000000000E+00  0.91188000000E+02  0.91188000000E+02 0.  0.
    9900012    2    3    3    0    0  0.91084497261E+01 -0.89535732112E+01 -0.34534805053E+02  0.54367040077E+02  0.39999899462E+02 0.  0.
         12    1    3    3    0    0 -0.91084497261E+01  0.89535732112E+01  0.34534805053E+02  0.36820959923E+02  0.00000000000E+00 0. -1.
         11    1    4    4    0    0  0.61081343178E+01  0.33186657849E+00  0.40675796870E+01  0.73460632343E+01  0.51100000000E-03 0. -1.
        -11    1    4    4    0    0  0.44343029826E+01  0.43132502984E+01 -0.12634702420E+00  0.61873366573E+01  0.51100000000E-03 0.  1.
        -12    1    4    4    0    0 -0.14339875744E+01 -0.13598690088E+02 -0.38476037715E+02  0.40833640185E+02  0.00000000000E+00 0.  1.
</event>
<event>
 8    1  0.1253488E-006  0.9118800E+02  0.7816164E-02  0.1184000E+00
        -11   -1    0    0    0    0  0.00000000000E+00  0.00000000000E+00  0.45593999997E+02  0.45594000000E+02  0.51100000000E-03 0. -1.
         11   -1    0    0    0    0 -0.00000000000E+00 -0.00000000000E+00 -0.45593999997E+02  0.45594000000E+02  0.51100000000E-03 0.  1.
         23    2    1    2    0    0  0.00000000000E+00 -0.88817841970E-15  0.00000000000E+00  0.91188000000E+02  0.91188000000E+02 0.  0.
    9900012    2    3    3    0    0  0.34272901068E+02 -0.73638820465E+01 -0.11265921652E+02  0.54367088861E+02  0.40000010677E+02 0.  0.
        -12    1    3    3    0    0 -0.34272901068E+02  0.73638820465E+01  0.11265921652E+02  0.36820911139E+02  0.00000000000E+00 0.  1.
         11    1    4    4    0    0  0.11171495107E+02 -0.72724439644E+01 -0.51026535225E+01  0.14273325379E+02  0.51100000000E-03 0. -1.
        -11    1    4    4    0    0  0.22337575534E+02  0.81133406281E+01 -0.14927048225E+02  0.28064396410E+02  0.51100000000E-03 0.  1.
         12    1    4    4    0    0  0.76383042677E+00 -0.82047787102E+01  0.87637800951E+01  0.12029367072E+02  0.00000000000E+00 0. -1.
</event>
<event>
 8    1  0.1253488E-006  0.9118800E+02  0.7816164E-02  0.1184000E+00
        -11   -1    0    0    0    0  0.00000000000E+00  0.00000000000E+00  0.45593999997E+02  0.45594000000E+02  0.51100000000E-03 0.  1.
         11   -1    0    0    0    0 -0.00000000000E+00 -0.00000000000E+00 -0.45593999997E+02  0.45594000000E+02  0.51100000000E-03 0. -1.
         23    2    1    2    0    0  0.00000000000E+00  0.35527136788E-14  0.00000000000E+00  0.91188000000E+02  0.91188000000E+02 0.  0.
    9900012    2    3    3    0    0  0.55371028790E+01 -0.19663393982E+02 -0.30634470233E+02  0.54367091027E+02  0.40000015614E+02 0.  0.
        -12    1    3    3    0    0 -0.55371028790E+01  0.19663393982E+02  0.30634470233E+02  0.36820908973E+02  0.00000000000E+00 0.  1.
         11    1    4    4    0    0 -0.28499065539E+01  0.54249023647E+01  0.69426207365E+00  0.61671332984E+01  0.51100000000E-03 0.  1.
        -11    1    4    4    0    0  0.58463157058E+01  0.41850301546E+01 -0.72539758131E+01  0.10213424993E+02  0.51100000000E-03 0. -1.
         12    1    4    4    0    0  0.25406937271E+01 -0.29273326501E+02 -0.24074756493E+02  0.37986532735E+02  0.00000000000E+00 0. -1.
</event>
<event>
 8    1  0.1253488E-006  0.9118800E+02  0.7816164E-02  0.1184000E+00
        -11   -1    0    0    0    0  0.00000000000E+00  0.00000000000E+00  0.45593999997E+02  0.45594000000E+02  0.51100000000E-03 0.  1.
         11   -1    0    0    0    0 -0.00000000000E+00 -0.00000000000E+00 -0.45593999997E+02  0.45594000000E+02  0.51100000000E-03 0. -1.
         23    2    1    2    0    0  0.00000000000E+00  0.00000000000E+00  0.17763568394E-14  0.91188000000E+02  0.91188000000E+02 0.  0.
    9900012    2    3    3    0    0  0.35375427044E+02 -0.43558405824E+01  0.92404509383E+01  0.54367080413E+02  0.39999991417E+02 0.  0.
        -12    1    3    3    0    0 -0.35375427044E+02  0.43558405824E+01 -0.92404509383E+01  0.36820919587E+02  0.00000000000E+00 0.  1.
         11    1    4    4    0    0  0.16177414597E+02 -0.67248030960E+01  0.98744569550E+01  0.20110609642E+02  0.51100000000E-03 0. -1.
        -11    1    4    4    0    0  0.58798712488E+01 -0.75119741460E+01  0.10573719834E+02  0.14241003927E+02  0.51100000000E-03 0.  1.
         12    1    4    4    0    0  0.13318141198E+02  0.98809366596E+01 -0.11207725851E+02  0.20015466844E+02  0.00000000000E+00 0. -1.
</event>
<event>
 8    1  0.1253488E-006  0.9118800E+02  0.7816164E-02  0.1184000E+00
        -11   -1    0    0    0    0  0.00000000000E+00  0.00000000000E+00  0.45593999997E+02  0.45594000000E+02  0.51100000000E-03 0.  1.
         11   -1    0    0    0    0 -0.00000000000E+00 -0.00000000000E+00 -0.45593999997E+02  0.45594000000E+02  0.51100000000E-03 0. -1.
         23    2    1    2    0    0  0.17763568394E-14  0.00000000000E+00 -0.71054273576E-14  0.91188000000E+02  0.91188000000E+02 0.  0.
    9900012    2    3    3    0    0 -0.89205999637E+01 -0.81045897477E+01  0.34792495000E+02  0.54367093072E+02  0.40000020277E+02 0.  0.
         12    1    3    3    0    0  0.89205999637E+01  0.81045897477E+01 -0.34792495000E+02  0.36820906928E+02  0.00000000000E+00 0. -1.
         11    1    4    4    0    0  0.15095111697E+01  0.55727199237E+01 -0.67919078156E+01  0.89142494556E+01  0.51100000000E-03 0. -1.
        -11    1    4    4    0    0 -0.61189722794E+01 -0.11488784975E+02  0.25105500093E+02  0.28279323491E+02  0.51100000000E-03 0.  1.
         12    1    4    4    0    0 -0.43111388540E+01 -0.21885246969E+01  0.16478902722E+02  0.17173520125E+02  0.00000000000E+00 0. -1.
</event>
<event>
 8    1  0.1253488E-006  0.9118800E+02  0.7816164E-02  0.1184000E+00
        -11   -1    0    0    0    0  0.00000000000E+00  0.00000000000E+00  0.45593999997E+02  0.45594000000E+02  0.51100000000E-03 0.  1.
         11   -1    0    0    0    0 -0.00000000000E+00 -0.00000000000E+00 -0.45593999997E+02  0.45594000000E+02  0.51100000000E-03 0. -1.
         23    2    1    2    0    0  0.22204460493E-15  0.00000000000E+00  0.00000000000E+00  0.91188000000E+02  0.91188000000E+02 0.  0.
    9900012    2    3    3    0    0  0.17075960385E+01  0.18658595830E+02  0.31697300814E+02  0.54367109714E+02  0.40000058214E+02 0.  0.
         12    1    3    3    0    0 -0.17075960385E+01 -0.18658595830E+02 -0.31697300814E+02  0.36820890286E+02  0.00000000000E+00 0. -1.
         11    1    4    4    0    0  0.25632771303E+01  0.18317254170E+02  0.23924981950E+01  0.18649832113E+02  0.51100000000E-03 0. -1.
        -11    1    4    4    0    0  0.12877515917E+01  0.27430928766E+01 -0.23900115141E+01  0.38594064297E+01  0.51100000000E-03 0.  1.
        -12    1    4    4    0    0 -0.21434326836E+01 -0.24017512169E+01  0.31694814133E+02  0.31857871171E+02  0.00000000000E+00 0.  1.
</event>
<event>
 8    1  0.1253488E-006  0.9118800E+02  0.7816164E-02  0.1184000E+00
        -11   -1    0    0    0    0  0.00000000000E+00  0.00000000000E+00  0.45593999997E+02  0.45594000000E+02  0.51100000000E-03 0.  1.
         11   -1    0    0    0    0 -0.00000000000E+00 -0.00000000000E+00 -0.45593999997E+02  0.45594000000E+02  0.51100000000E-03 0. -1.
         23    2    1    2    0    0 -0.71054273576E-14 -0.17763568394E-14  0.17763568394E-14  0.91188000000E+02  0.91188000000E+02 0.  0.
    9900012    2    3    3    0    0  0.35036533867E+02  0.10168021177E+02 -0.49832449262E+01  0.54367080809E+02  0.39999992320E+02 0.  0.
        -12    1    3    3    0    0 -0.35036533867E+02 -0.10168021177E+02  0.49832449262E+01  0.36820919191E+02  0.00000000000E+00 0.  1.
         11    1    4    4    0    0  0.87276956764E+01  0.25048280214E+01  0.84142021540E+01  0.12379242036E+02  0.51100000000E-03 0. -1.
        -11    1    4    4    0    0  0.29688372889E+02  0.29230777068E+01 -0.28849778544E+01  0.29971102175E+02  0.51100000000E-03 0.  1.
        -12    1    4    4    0    0 -0.33795346984E+01  0.47401154490E+01 -0.10512469226E+02  0.12016736598E+02  0.00000000000E+00 0.  1.
</event>
<event>
 8    1  0.1253488E-006  0.9118800E+02  0.7816164E-02  0.1184000E+00
        -11   -1    0    0    0    0  0.00000000000E+00  0.00000000000E+00  0.45593999997E+02  0.45594000000E+02  0.51100000000E-03 0. -1.
         11   -1    0    0    0    0 -0.00000000000E+00 -0.00000000000E+00 -0.45593999997E+02  0.45594000000E+02  0.51100000000E-03 0.  1.
         23    2    1    2    0    0  0.00000000000E+00  0.00000000000E+00  0.00000000000E+00  0.91188000000E+02  0.91188000000E+02 0.  0.
    9900012    2    3    3    0    0  0.25338737069E+02 -0.10625533566E+02  0.24511757960E+02  0.54367084231E+02  0.40000000121E+02 0.  0.
        -12    1    3    3    0    0 -0.25338737069E+02  0.10625533566E+02 -0.24511757960E+02  0.36820915769E+02  0.00000000000E+00 0.  1.
         11    1    4    4    0    0  0.26866264515E+02 -0.58912801243E+01  0.22145312325E+02  0.35311729053E+02  0.51100000000E-03 0. -1.
        -11    1    4    4    0    0  0.46901786360E+01  0.52189548245E+01  0.20707069205E+01  0.73159478203E+01  0.51100000000E-03 0.  1.
         12    1    4    4    0    0 -0.62177060820E+01 -0.99532082666E+01  0.29573871396E+00  0.11739407358E+02  0.00000000000E+00 0. -1.
</event>
<event>
 8    1  0.1253488E-006  0.9118800E+02  0.7816164E-02  0.1184000E+00
        -11   -1    0    0    0    0  0.00000000000E+00  0.00000000000E+00  0.45593999997E+02  0.45594000000E+02  0.51100000000E-03 0. -1.
         11   -1    0    0    0    0 -0.00000000000E+00 -0.00000000000E+00 -0.45593999997E+02  0.45594000000E+02  0.51100000000E-03 0.  1.
         23    2    1    2    0    0  0.00000000000E+00  0.00000000000E+00  0.00000000000E+00  0.91188000000E+02  0.91188000000E+02 0.  0.
    9900012    2    3    3    0    0 -0.31828541281E+02  0.15134776563E+02 -0.10661230766E+02  0.54367090952E+02  0.40000015442E+02 0.  0.
        -12    1    3    3    0    0  0.31828541281E+02 -0.15134776563E+02  0.10661230766E+02  0.36820909048E+02  0.00000000000E+00 0.  1.
         11    1    4    4    0    0 -0.59604694777E+01  0.16411517420E+02 -0.85547785314E+01  0.19443490849E+02  0.51100000000E-03 0. -1.
        -11    1    4    4    0    0 -0.14310069075E+02 -0.12306097497E+02 -0.15622010536E+01  0.18938283580E+02  0.51100000000E-03 0.  1.
         12    1    4    4    0    0 -0.11558002728E+02  0.11029356641E+02 -0.54425118087E+00  0.15985316523E+02  0.00000000000E+00 0. -1.
</event>
<event>
 8    1  0.1253488E-006  0.9118800E+02  0.7816164E-02  0.1184000E+00
        -11   -1    0    0    0    0  0.00000000000E+00  0.00000000000E+00  0.45593999997E+02  0.45594000000E+02  0.51100000000E-03 0.  1.
         11   -1    0    0    0    0 -0.00000000000E+00 -0.00000000000E+00 -0.45593999997E+02  0.45594000000E+02  0.51100000000E-03 0. -1.
         23    2    1    2    0    0  0.00000000000E+00  0.00000000000E+00  0.00000000000E+00  0.91188000000E+02  0.91188000000E+02 0.  0.
    9900012    2    3    3    0    0 -0.34468345953E+00  0.35093746424E+02 -0.11139558357E+02  0.54367087393E+02  0.40000007331E+02 0.  0.
        -12    1    3    3    0    0  0.34468345953E+00 -0.35093746424E+02  0.11139558357E+02  0.36820912607E+02  0.00000000000E+00 0.  1.
         11    1    4    4    0    0  0.61281434303E+01  0.41563537379E+00 -0.28812622587E+01  0.67844356531E+01  0.51100000000E-03 0. -1.
        -11    1    4    4    0    0 -0.59841507660E+01 -0.45274955868E+01 -0.27355362820E+01  0.79869540934E+01  0.51100000000E-03 0.  1.
         12    1    4    4    0    0 -0.48867612385E+00  0.39205606637E+02 -0.55227598166E+01  0.39595697647E+02  0.00000000000E+00 0. -1.
</event>
<event>
 8    1  0.1253488E-006  0.9118800E+02  0.7816164E-02  0.1184000E+00
        -11   -1    0    0    0    0  0.00000000000E+00  0.00000000000E+00  0.45593999997E+02  0.45594000000E+02  0.51100000000E-03 0. -1.
         11   -1    0    0    0    0 -0.00000000000E+00 -0.00000000000E+00 -0.45593999997E+02  0.45594000000E+02  0.51100000000E-03 0.  1.
         23    2    1    2    0    0  0.00000000000E+00 -0.35527136788E-14  0.35527136788E-14  0.91188000000E+02  0.91188000000E+02 0.  0.
    9900012    2    3    3    0    0  0.17223021097E+02 -0.16882360700E+02 -0.27823254350E+02  0.54367081473E+02  0.39999993835E+02 0.  0.
         12    1    3    3    0    0 -0.17223021097E+02  0.16882360700E+02  0.27823254350E+02  0.36820918527E+02  0.00000000000E+00 0. -1.
         11    1    4    4    0    0 -0.55087163000E+00 -0.38054232684E+01 -0.28789183062E+01  0.48034234333E+01  0.51100000000E-03 0.  1.
        -11    1    4    4    0    0  0.92723042619E+01 -0.19745298598E+01 -0.32370749811E+02  0.33730399317E+02  0.51100000000E-03 0. -1.
         12    1    4    4    0    0  0.85015884652E+01 -0.11102407572E+02  0.74264137677E+01  0.15833258723E+02  0.00000000000E+00 0. -1.
</event>
<event>
 8    1  0.1253488E-006  0.9118800E+02  0.7816164E-02  0.1184000E+00
        -11   -1    0    0    0    0  0.00000000000E+00  0.00000000000E+00  0.45593999997E+02  0.45594000000E+02  0.51100000000E-03 0. -1.
         11   -1    0    0    0    0 -0.00000000000E+00 -0.00000000000E+00 -0.45593999997E+02  0.45594000000E+02  0.51100000000E-03 0.  1.
         23    2    1    2    0    0  0.00000000000E+00 -0.17763568394E-14  0.00000000000E+00  0.91188000000E+02  0.91188000000E+02 0.  0.
    9900012    2    3    3    0    0  0.25046274688E+02 -0.13290875456E+02  0.23490785642E+02  0.54367078553E+02  0.39999987177E+02 0.  0.
        -12    1    3    3    0    0 -0.25046274688E+02  0.13290875456E+02 -0.23490785642E+02  0.36820921447E+02  0.00000000000E+00 0.  1.
         11    1    4    4    0    0  0.80791227856E+00 -0.39893741005E+01 -0.25220545726E+01  0.47883804665E+01  0.51100000000E-03 0. -1.
        -11    1    4    4    0    0  0.15571451402E+02  0.93505952611E+01  0.24914224026E+01  0.18333328022E+02  0.51100000000E-03 0.  1.
         12    1    4    4    0    0  0.86669110074E+01 -0.18652096617E+02  0.23521417812E+02  0.31245370065E+02  0.00000000000E+00 0. -1.
</event>
<event>
 8    1  0.1253488E-006  0.9118800E+02  0.7816164E-02  0.1184000E+00
        -11   -1    0    0    0    0  0.00000000000E+00  0.00000000000E+00  0.45593999997E+02  0.45594000000E+02  0.51100000000E-03 0.  1.
         11   -1    0    0    0    0 -0.00000000000E+00 -0.00000000000E+00 -0.45593999997E+02  0.45594000000E+02  0.51100000000E-03 0. -1.
         23    2    1    2    0    0  0.00000000000E+00 -0.17763568394E-14  0.88817841970E-15  0.91188000000E+02  0.91188000000E+02 0.  0.
    9900012    2    3    3    0    0  0.33625449676E+02 -0.14189568278E+02 -0.48734891795E+01  0.54367277430E+02  0.40000440554E+02 0.  0.
        -12    1    3    3    0    0 -0.33625449676E+02  0.14189568278E+02  0.48734891795E+01  0.36820722570E+02  0.00000000000E+00 0.  1.
         11    1    4    4    0    0  0.14542440477E+02  0.11278774528E+02 -0.44659276434E+01  0.18937735869E+02  0.51100000000E-03 0. -1.
        -11    1    4    4    0    0  0.81270509524E+00 -0.12917122752E+02 -0.24391952310E+01  0.13170505815E+02  0.51100000000E-03 0.  1.
         12    1    4    4    0    0  0.18270304104E+02 -0.12551220053E+02  0.20316336949E+01  0.22259035746E+02  0.00000000000E+00 0. -1.
</event>
<event>
 8    1  0.1253488E-006  0.9118800E+02  0.7816164E-02  0.1184000E+00
        -11   -1    0    0    0    0  0.00000000000E+00  0.00000000000E+00  0.45593999997E+02  0.45594000000E+02  0.51100000000E-03 0. -1.
         11   -1    0    0    0    0 -0.00000000000E+00 -0.00000000000E+00 -0.45593999997E+02  0.45594000000E+02  0.51100000000E-03 0.  1.
         23    2    1    2    0    0  0.00000000000E+00  0.00000000000E+00 -0.88817841970E-15  0.91188000000E+02  0.91188000000E+02 0.  0.
    9900012    2    3    3    0    0  0.35285213818E+02  0.98429432920E+01  0.37215618987E+01  0.54367083800E+02  0.39999999139E+02 0.  0.
         12    1    3    3    0    0 -0.35285213818E+02 -0.98429432920E+01 -0.37215618987E+01  0.36820916200E+02  0.00000000000E+00 0. -1.
         11    1    4    4    0    0 -0.75393761149E+00  0.16315231203E+01  0.10472094277E+02  0.10625208159E+02  0.51100000000E-03 0. -1.
        -11    1    4    4    0    0  0.20980692577E+02  0.92875188373E+01  0.62918255914E+01  0.23791480339E+02  0.51100000000E-03 0.  1.
        -12    1    4    4    0    0  0.15058458852E+02 -0.10760986656E+01 -0.13042357969E+02  0.19950395303E+02  0.00000000000E+00 0.  1.
</event>
<event>
 8    1  0.1253488E-006  0.9118800E+02  0.7816164E-02  0.1184000E+00
        -11   -1    0    0    0    0  0.00000000000E+00  0.00000000000E+00  0.45593999997E+02  0.45594000000E+02  0.51100000000E-03 0. -1.
         11   -1    0    0    0    0 -0.00000000000E+00 -0.00000000000E+00 -0.45593999997E+02  0.45594000000E+02  0.51100000000E-03 0.  1.
         23    2    1    2    0    0  0.53290705182E-14  0.00000000000E+00  0.00000000000E+00  0.91188000000E+02  0.91188000000E+02 0.  0.
    9900012    2    3    3    0    0  0.68443794558E+01  0.29713479366E+02 -0.20640683751E+02  0.54367160631E+02  0.40000174289E+02 0.  0.
         12    1    3    3    0    0 -0.68443794558E+01 -0.29713479366E+02  0.20640683751E+02  0.36820839369E+02  0.00000000000E+00 0. -1.
         11    1    4    4    0    0  0.93266579108E+01  0.34933314727E+01 -0.20857721452E+00  0.99615971249E+01  0.51100000000E-03 0. -1.
        -11    1    4    4    0    0 -0.15680441281E+02  0.18000464223E+02 -0.12035076719E+02  0.26734547367E+02  0.51100000000E-03 0.  1.
        -12    1    4    4    0    0  0.13198162826E+02  0.82196836696E+01 -0.83970298178E+01  0.17671016139E+02  0.00000000000E+00 0.  1.
</event>
<event>
 8    1  0.1253488E-006  0.9118800E+02  0.7816164E-02  0.1184000E+00
        -11   -1    0    0    0    0  0.00000000000E+00  0.00000000000E+00  0.45593999997E+02  0.45594000000E+02  0.51100000000E-03 0. -1.
         11   -1    0    0    0    0 -0.00000000000E+00 -0.00000000000E+00 -0.45593999997E+02  0.45594000000E+02  0.51100000000E-03 0.  1.
         23    2    1    2    0    0  0.00000000000E+00 -0.71054273576E-14  0.00000000000E+00  0.91188000000E+02  0.91188000000E+02 0.  0.
    9900012    2    3    3    0    0 -0.16419333635E+02 -0.28369795941E+02  0.16773207623E+02  0.54367077513E+02  0.39999984808E+02 0.  0.
        -12    1    3    3    0    0  0.16419333635E+02  0.28369795941E+02 -0.16773207623E+02  0.36820922487E+02  0.00000000000E+00 0.  1.
         11    1    4    4    0    0 -0.17617919911E+02  0.13893784772E+01  0.36837271231E+01  0.18052460229E+02  0.51100000000E-03 0. -1.
        -11    1    4    4    0    0 -0.22088252559E+01 -0.67592393990E+01 -0.33284088822E+01  0.78514032002E+01  0.51100000000E-03 0.  1.
         12    1    4    4    0    0  0.34074115312E+01 -0.22999935020E+02  0.16417889382E+02  0.28463214085E+02  0.00000000000E+00 0. -1.
</event>
<event>
 8    1  0.1253488E-006  0.9118800E+02  0.7816164E-02  0.1184000E+00
        -11   -1    0    0    0    0  0.00000000000E+00  0.00000000000E+00  0.45593999997E+02  0.45594000000E+02  0.51100000000E-03 0.  1.
         11   -1    0    0    0    0 -0.00000000000E+00 -0.00000000000E+00 -0.45593999997E+02  0.45594000000E+02  0.51100000000E-03 0. -1.
         23    2    1    2    0    0 -0.35527136788E-14  0.00000000000E+00  0.00000000000E+00  0.91188000000E+02  0.91188000000E+02 0.  0.
    9900012    2    3    3    0    0  0.27593876912E+02  0.77038061507E+01 -0.23130262676E+02  0.54367085784E+02  0.40000003663E+02 0.  0.
        -12    1    3    3    0    0 -0.27593876912E+02 -0.77038061507E+01  0.23130262676E+02  0.36820914216E+02  0.00000000000E+00 0.  1.
         11    1    4    4    0    0  0.18460517690E+02  0.70380136143E+01 -0.42702558484E+01  0.20212853195E+02  0.51100000000E-03 0. -1.
        -11    1    4    4    0    0  0.50292314705E+00  0.63398648123E+01 -0.22361477345E+02  0.23248279224E+02  0.51100000000E-03 0.  1.
        -12    1    4    4    0    0  0.86304360746E+01 -0.56740722759E+01  0.35014705177E+01  0.10905953366E+02  0.00000000000E+00 0.  1.
</event>
<event>
 8    1  0.1253488E-006  0.9118800E+02  0.7816164E-02  0.1184000E+00
        -11   -1    0    0    0    0  0.00000000000E+00  0.00000000000E+00  0.45593999997E+02  0.45594000000E+02  0.51100000000E-03 0. -1.
         11   -1    0    0    0    0 -0.00000000000E+00 -0.00000000000E+00 -0.45593999997E+02  0.45594000000E+02  0.51100000000E-03 0.  1.
         23    2    1    2    0    0  0.17763568394E-14  0.35527136788E-14  0.00000000000E+00  0.91188000000E+02  0.91188000000E+02 0.  0.
    9900012    2    3    3    0    0 -0.97132221477E+01  0.28741696749E+02 -0.20865005059E+02  0.54367078602E+02  0.39999987289E+02 0.  0.
         12    1    3    3    0    0  0.97132221477E+01 -0.28741696749E+02  0.20865005059E+02  0.36820921398E+02  0.00000000000E+00 0. -1.
         11    1    4    4    0    0  0.44054698609E+01  0.11596959505E+02 -0.20178734939E+01  0.12568589744E+02  0.51100000000E-03 0. -1.
        -11    1    4    4    0    0 -0.30261419301E+01  0.14683835552E+02 -0.24793754325E+02  0.28974174972E+02  0.51100000000E-03 0.  1.
         12    1    4    4    0    0 -0.11092550079E+02  0.24609016917E+01  0.59466227604E+01  0.12824313886E+02  0.00000000000E+00 0. -1.
</event>
<event>
 8    1  0.1253488E-006  0.9118800E+02  0.7816164E-02  0.1184000E+00
        -11   -1    0    0    0    0  0.00000000000E+00  0.00000000000E+00  0.45593999997E+02  0.45594000000E+02  0.51100000000E-03 0.  1.
         11   -1    0    0    0    0 -0.00000000000E+00 -0.00000000000E+00 -0.45593999997E+02  0.45594000000E+02  0.51100000000E-03 0. -1.
         23    2    1    2    0    0  0.00000000000E+00  0.00000000000E+00  0.00000000000E+00  0.91188000000E+02  0.91188000000E+02 0.  0.
    9900012    2    3    3    0    0  0.74418838815E+01  0.29277837008E+02  0.21052395740E+02  0.54367126274E+02  0.40000095966E+02 0.  0.
        -12    1    3    3    0    0 -0.74418838815E+01 -0.29277837008E+02 -0.21052395740E+02  0.36820873726E+02  0.00000000000E+00 0.  1.
         11    1    4    4    0    0 -0.14370398033E+01  0.28587119324E+01  0.16235298836E+01  0.35879195717E+01  0.51100000000E-03 0. -1.
        -11    1    4    4    0    0  0.10153643132E+02  0.14913050824E+02 -0.89430823970E+01  0.20136391850E+02  0.51100000000E-03 0.  1.
        -12    1    4    4    0    0 -0.12747194472E+01  0.11506074252E+02  0.28371948253E+02  0.30642814852E+02  0.00000000000E+00 0.  1.
</event>
<event>
 8    1  0.1253488E-006  0.9118800E+02  0.7816164E-02  0.1184000E+00
        -11   -1    0    0    0    0  0.00000000000E+00  0.00000000000E+00  0.45593999997E+02  0.45594000000E+02  0.51100000000E-03 0. -1.
         11   -1    0    0    0    0 -0.00000000000E+00 -0.00000000000E+00 -0.45593999997E+02  0.45594000000E+02  0.51100000000E-03 0.  1.
         23    2    1    2    0    0  0.00000000000E+00  0.00000000000E+00  0.00000000000E+00  0.91188000000E+02  0.91188000000E+02 0.  0.
    9900012    2    3    3    0    0  0.16187760606E+02  0.12512960191E+02 -0.30613026716E+02  0.54367147608E+02  0.40000144601E+02 0.  0.
         12    1    3    3    0    0 -0.16187760606E+02 -0.12512960191E+02  0.30613026716E+02  0.36820852392E+02  0.00000000000E+00 0. -1.
         11    1    4    4    0    0  0.47324741005E+01 -0.10493414797E+02 -0.57060914844E+01  0.12847861514E+02  0.51100000000E-03 0. -1.
        -11    1    4    4    0    0  0.14661978159E+01  0.15927807511E+02 -0.24513111962E+02  0.29270077664E+02  0.51100000000E-03 0.  1.
        -12    1    4    4    0    0  0.99890886897E+01  0.70785674766E+01 -0.39382326926E+00  0.12249208429E+02  0.00000000000E+00 0.  1.
</event>
<event>
 8    1  0.1253488E-006  0.9118800E+02  0.7816164E-02  0.1184000E+00
        -11   -1    0    0    0    0  0.00000000000E+00  0.00000000000E+00  0.45593999997E+02  0.45594000000E+02  0.51100000000E-03 0. -1.
         11   -1    0    0    0    0 -0.00000000000E+00 -0.00000000000E+00 -0.45593999997E+02  0.45594000000E+02  0.51100000000E-03 0.  1.
         23    2    1    2    0    0 -0.35527136788E-14  0.44408920985E-15  0.00000000000E+00  0.91188000000E+02  0.91188000000E+02 0.  0.
    9900012    2    3    3    0    0  0.20842325512E+02  0.38718728375E+01  0.30106246233E+02  0.54367082110E+02  0.39999995286E+02 0.  0.
        -12    1    3    3    0    0 -0.20842325512E+02 -0.38718728375E+01 -0.30106246233E+02  0.36820917890E+02  0.00000000000E+00 0.  1.
         11    1    4    4    0    0  0.36585384985E+01  0.92782284657E+01 -0.55624860035E+00  0.99889859432E+01  0.51100000000E-03 0. -1.
        -11    1    4    4    0    0 -0.49700034859E+01  0.27933174101E+01  0.37858570733E-01  0.57013147901E+01  0.51100000000E-03 0.  1.
         12    1    4    4    0    0  0.22153790499E+02 -0.81996730383E+01  0.30624636263E+02  0.38676781377E+02  0.00000000000E+00 0. -1.
</event>
<event>
 8    1  0.1253488E-006  0.9118800E+02  0.7816164E-02  0.1184000E+00
        -11   -1    0    0    0    0  0.00000000000E+00  0.00000000000E+00  0.45593999997E+02  0.45594000000E+02  0.51100000000E-03 0. -1.
         11   -1    0    0    0    0 -0.00000000000E+00 -0.00000000000E+00 -0.45593999997E+02  0.45594000000E+02  0.51100000000E-03 0.  1.
         23    2    1    2    0    0  0.88817841970E-15 -0.17763568394E-14  0.00000000000E+00  0.91188000000E+02  0.91188000000E+02 0.  0.
    9900012    2    3    3    0    0 -0.39093293921E+01 -0.10652488266E+02 -0.35028860767E+02  0.54367089512E+02  0.40000012160E+02 0.  0.
         12    1    3    3    0    0  0.39093293921E+01  0.10652488266E+02  0.35028860767E+02  0.36820910488E+02  0.00000000000E+00 0. -1.
         11    1    4    4    0    0 -0.17204058412E+02 -0.81136945714E+01 -0.36876823882E+01  0.19375517208E+02  0.51100000000E-03 0. -1.
        -11    1    4    4    0    0 -0.10080474610E+01 -0.27652078561E+00 -0.27626851605E+01  0.29538200666E+01  0.51100000000E-03 0.  1.
        -12    1    4    4    0    0  0.14302776481E+02 -0.22622729093E+01 -0.28578493218E+02  0.32037752237E+02  0.00000000000E+00 0.  1.
</event>
<event>
 8    1  0.1253488E-006  0.9118800E+02  0.7816164E-02  0.1184000E+00
        -11   -1    0    0    0    0  0.00000000000E+00  0.00000000000E+00  0.45593999997E+02  0.45594000000E+02  0.51100000000E-03 0.  1.
         11   -1    0    0    0    0 -0.00000000000E+00 -0.00000000000E+00 -0.45593999997E+02  0.45594000000E+02  0.51100000000E-03 0. -1.
         23    2    1    2    0    0 -0.71054273576E-14 -0.17763568394E-14 -0.17763568394E-14  0.91188000000E+02  0.91188000000E+02 0.  0.
    9900012    2    3    3    0    0 -0.33226570684E+02 -0.13594639637E+02 -0.81829290679E+01  0.54367088083E+02  0.40000008903E+02 0.  0.
        -12    1    3    3    0    0  0.33226570684E+02  0.13594639637E+02  0.81829290679E+01  0.36820911917E+02  0.00000000000E+00 0.  1.
         11    1    4    4    0    0 -0.69251224958E+01 -0.84436581165E+00 -0.72257606098E+01  0.10043997802E+02  0.51100000000E-03 0. -1.
        -11    1    4    4    0    0  0.11990282447E+01  0.23599683909E+01 -0.11049173324E+02  0.11361837481E+02  0.51100000000E-03 0.  1.
        -12    1    4    4    0    0 -0.27500476433E+02 -0.15110242216E+02  0.10092004866E+02  0.32961252799E+02  0.00000000000E+00 0.  1.
</event>
<event>
 8    1  0.1253488E-006  0.9118800E+02  0.7816164E-02  0.1184000E+00
        -11   -1    0    0    0    0  0.00000000000E+00  0.00000000000E+00  0.45593999997E+02  0.45594000000E+02  0.51100000000E-03 0.  1.
         11   -1    0    0    0    0 -0.00000000000E+00 -0.00000000000E+00 -0.45593999997E+02  0.45594000000E+02  0.51100000000E-03 0. -1.
         23    2    1    2    0    0  0.35527136788E-14 -0.12212453271E-14  0.00000000000E+00  0.91188000000E+02  0.91188000000E+02 0.  0.
    9900012    2    3    3    0    0 -0.25542764648E+02  0.41330704298E+00 -0.26517485653E+02  0.54367072609E+02  0.39999973627E+02 0.  0.
        -12    1    3    3    0    0  0.25542764648E+02 -0.41330704298E+00  0.26517485653E+02  0.36820927391E+02  0.00000000000E+00 0.  1.
         11    1    4    4    0    0  0.78559010521E+01 -0.48921504770E+01 -0.72255909070E+01  0.11741272582E+02  0.51100000000E-03 0. -1.
        -11    1    4    4    0    0 -0.14753133601E+02  0.11114402643E+02 -0.98571114371E+01  0.20936751021E+02  0.51100000000E-03 0.  1.
         12    1    4    4    0    0 -0.18645532099E+02 -0.58089451234E+01 -0.94347833089E+01  0.21689049006E+02  0.00000000000E+00 0. -1.
</event>
<event>
 8    1  0.1253488E-006  0.9118800E+02  0.7816164E-02  0.1184000E+00
        -11   -1    0    0    0    0  0.00000000000E+00  0.00000000000E+00  0.45593999997E+02  0.45594000000E+02  0.51100000000E-03 0. -1.
         11   -1    0    0    0    0 -0.00000000000E+00 -0.00000000000E+00 -0.45593999997E+02  0.45594000000E+02  0.51100000000E-03 0.  1.
         23    2    1    2    0    0  0.00000000000E+00  0.44408920985E-15  0.00000000000E+00  0.91188000000E+02  0.91188000000E+02 0.  0.
    9900012    2    3    3    0    0  0.82846738283E+01  0.35731592479E+01  0.35698408665E+02  0.54367086531E+02  0.40000005366E+02 0.  0.
        -12    1    3    3    0    0 -0.82846738283E+01 -0.35731592479E+01 -0.35698408665E+02  0.36820913469E+02  0.00000000000E+00 0.  1.
         11    1    4    4    0    0  0.26570837507E+01  0.26586210864E+01  0.23830235455E+01  0.44505237466E+01  0.51100000000E-03 0.  1.
        -11    1    4    4    0    0  0.68939848235E+01 -0.64209322503E+01  0.39269819804E+02  0.40384082823E+02  0.51100000000E-03 0. -1.
         12    1    4    4    0    0 -0.12663947458E+01  0.73354704118E+01 -0.59544346849E+01  0.95324799622E+01  0.00000000000E+00 0. -1.
</event>
<event>
 8    1  0.1253488E-006  0.9118800E+02  0.7816164E-02  0.1184000E+00
        -11   -1    0    0    0    0  0.00000000000E+00  0.00000000000E+00  0.45593999997E+02  0.45594000000E+02  0.51100000000E-03 0.  1.
         11   -1    0    0    0    0 -0.00000000000E+00 -0.00000000000E+00 -0.45593999997E+02  0.45594000000E+02  0.51100000000E-03 0. -1.
         23    2    1    2    0    0 -0.17763568394E-14  0.00000000000E+00 -0.17763568394E-14  0.91188000000E+02  0.91188000000E+02 0.  0.
    9900012    2    3    3    0    0  0.13561640887E+02  0.33953760672E+02 -0.43595720080E+01  0.54367057108E+02  0.39999938290E+02 0.  0.
         12    1    3    3    0    0 -0.13561640887E+02 -0.33953760672E+02  0.43595720080E+01  0.36820942892E+02  0.00000000000E+00 0. -1.
         11    1    4    4    0    0  0.55036690064E+00 -0.26207775448E+01 -0.18592246943E+01  0.32600759792E+01  0.51100000000E-03 0. -1.
        -11    1    4    4    0    0 -0.27914179735E+01  0.94122604089E+01  0.12819447098E+02  0.16146853702E+02  0.51100000000E-03 0.  1.
        -12    1    4    4    0    0  0.15802691960E+02  0.27162277808E+02 -0.15319794412E+02  0.34960127427E+02  0.00000000000E+00 0.  1.
</event>
<event>
 8    1  0.1253488E-006  0.9118800E+02  0.7816164E-02  0.1184000E+00
        -11   -1    0    0    0    0  0.00000000000E+00  0.00000000000E+00  0.45593999997E+02  0.45594000000E+02  0.51100000000E-03 0. -1.
         11   -1    0    0    0    0 -0.00000000000E+00 -0.00000000000E+00 -0.45593999997E+02  0.45594000000E+02  0.51100000000E-03 0.  1.
         23    2    1    2    0    0  0.44408920985E-15  0.00000000000E+00  0.00000000000E+00  0.91188000000E+02  0.91188000000E+02 0.  0.
    9900012    2    3    3    0    0  0.33726513277E+01  0.32612408482E+02  0.16758099228E+02  0.54367111177E+02  0.40000061549E+02 0.  0.
        -12    1    3    3    0    0 -0.33726513277E+01 -0.32612408482E+02 -0.16758099228E+02  0.36820888823E+02  0.00000000000E+00 0.  1.
         11    1    4    4    0    0  0.32507898817E+01  0.19731037836E+02  0.29310897383E+00  0.19999185035E+02  0.51100000000E-03 0. -1.
        -11    1    4    4    0    0  0.29968512816E+01  0.21146025434E+02  0.10686786262E+02  0.23881853155E+02  0.51100000000E-03 0.  1.
        -12    1    4    4    0    0 -0.28749898356E+01 -0.82646547871E+01  0.57782039922E+01  0.10486072987E+02  0.00000000000E+00 0.  1.
</event>
<event>
 8    1  0.1253488E-006  0.9118800E+02  0.7816164E-02  0.1184000E+00
        -11   -1    0    0    0    0  0.00000000000E+00  0.00000000000E+00  0.45593999997E+02  0.45594000000E+02  0.51100000000E-03 0. -1.
         11   -1    0    0    0    0 -0.00000000000E+00 -0.00000000000E+00 -0.45593999997E+02  0.45594000000E+02  0.51100000000E-03 0.  1.
         23    2    1    2    0    0  0.88817841970E-15  0.00000000000E+00 -0.35527136788E-14  0.91188000000E+02  0.91188000000E+02 0.  0.
    9900012    2    3    3    0    0 -0.45124975179E+01  0.19253406275E+02  0.31060029693E+02  0.54367058519E+02  0.39999941505E+02 0.  0.
        -12    1    3    3    0    0  0.45124975179E+01 -0.19253406275E+02 -0.31060029693E+02  0.36820941481E+02  0.00000000000E+00 0.  1.
         11    1    4    4    0    0 -0.73859844650E+01  0.19444346133E+02  0.32709653950E+01  0.21055511819E+02  0.51100000000E-03 0.  1.
        -11    1    4    4    0    0  0.75586166385E+01  0.31643939152E+01  0.45584937266E+01  0.93768832591E+01  0.51100000000E-03 0. -1.
        -12    1    4    4    0    0 -0.46851296914E+01 -0.33553337738E+01  0.23230570571E+02  0.23934663441E+02  0.00000000000E+00 0.  1.
</event>
<event>
 8    1  0.1253488E-006  0.9118800E+02  0.7816164E-02  0.1184000E+00
        -11   -1    0    0    0    0  0.00000000000E+00  0.00000000000E+00  0.45593999997E+02  0.45594000000E+02  0.51100000000E-03 0. -1.
         11   -1    0    0    0    0 -0.00000000000E+00 -0.00000000000E+00 -0.45593999997E+02  0.45594000000E+02  0.51100000000E-03 0.  1.
         23    2    1    2    0    0  0.00000000000E+00 -0.35527136788E-14  0.00000000000E+00  0.91188000000E+02  0.91188000000E+02 0.  0.
    9900012    2    3    3    0    0  0.22834434769E+02 -0.28566189831E+02  0.42825704527E+01  0.54367095308E+02  0.40000025373E+02 0.  0.
        -12    1    3    3    0    0 -0.22834434769E+02  0.28566189831E+02 -0.42825704527E+01  0.36820904692E+02  0.00000000000E+00 0.  1.
         11    1    4    4    0    0  0.15598230164E+02 -0.18199235453E+02 -0.79600266446E+01  0.25256266149E+02  0.51100000000E-03 0. -1.
        -11    1    4    4    0    0  0.67676801402E+01  0.60487550398E+01  0.83508099455E+00  0.91151682673E+01  0.51100000000E-03 0.  1.
         12    1    4    4    0    0  0.46852446432E+00 -0.16415709418E+02  0.11407516103E+02  0.19995660892E+02  0.00000000000E+00 0. -1.
</event>
<event>
 8    1  0.1253488E-006  0.9118800E+02  0.7816164E-02  0.1184000E+00
        -11   -1    0    0    0    0  0.00000000000E+00  0.00000000000E+00  0.45593999997E+02  0.45594000000E+02  0.51100000000E-03 0.  1.
         11   -1    0    0    0    0 -0.00000000000E+00 -0.00000000000E+00 -0.45593999997E+02  0.45594000000E+02  0.51100000000E-03 0. -1.
         23    2    1    2    0    0 -0.35527136788E-14  0.17763568394E-14  0.00000000000E+00  0.91188000000E+02  0.91188000000E+02 0.  0.
    9900012    2    3    3    0    0 -0.24629712906E+02  0.50151878488E+01  0.26907339478E+02  0.54367084955E+02  0.40000001772E+02 0.  0.
         12    1    3    3    0    0  0.24629712906E+02 -0.50151878488E+01 -0.26907339478E+02  0.36820915045E+02  0.00000000000E+00 0. -1.
         11    1    4    4    0    0 -0.15185308926E+02  0.12539630933E+01 -0.11923755357E+01  0.15283579106E+02  0.51100000000E-03 0. -1.
        -11    1    4    4    0    0 -0.18559368435E+01  0.13744788860E+02  0.19288261792E+02  0.23757120314E+02  0.51100000000E-03 0.  1.
         12    1    4    4    0    0 -0.75884671360E+01 -0.99835641045E+01  0.88114532215E+01  0.15326385535E+02  0.00000000000E+00 0. -1.
</event>
<event>
 8    1  0.1253488E-006  0.9118800E+02  0.7816164E-02  0.1184000E+00
        -11   -1    0    0    0    0  0.00000000000E+00  0.00000000000E+00  0.45593999997E+02  0.45594000000E+02  0.51100000000E-03 0.  1.
         11   -1    0    0    0    0 -0.00000000000E+00 -0.00000000000E+00 -0.45593999997E+02  0.45594000000E+02  0.51100000000E-03 0. -1.
         23    2    1    2    0    0  0.17763568394E-14 -0.71054273576E-14 -0.88817841970E-15  0.91188000000E+02  0.91188000000E+02 0.  0.
    9900012    2    3    3    0    0  0.77731367641E+01 -0.35891823741E+02 -0.26713059240E+01  0.54367074673E+02  0.39999978332E+02 0.  0.
        -12    1    3    3    0    0 -0.77731367641E+01  0.35891823741E+02  0.26713059240E+01  0.36820925327E+02  0.00000000000E+00 0.  1.
         11    1    4    4    0    0  0.30241490860E+01 -0.13062648529E+02 -0.42187041795E+01  0.14056163399E+02  0.51100000000E-03 0. -1.
        -11    1    4    4    0    0  0.16331194001E+02 -0.20510752104E+01 -0.17558861731E+00  0.16460426442E+02  0.51100000000E-03 0.  1.
         12    1    4    4    0    0 -0.11582206323E+02 -0.20778100001E+02  0.17229868728E+01  0.23850484832E+02  0.00000000000E+00 0. -1.
</event>
<event>
 8    1  0.1253488E-006  0.9118800E+02  0.7816164E-02  0.1184000E+00
        -11   -1    0    0    0    0  0.00000000000E+00  0.00000000000E+00  0.45593999997E+02  0.45594000000E+02  0.51100000000E-03 0.  1.
         11   -1    0    0    0    0 -0.00000000000E+00 -0.00000000000E+00 -0.45593999997E+02  0.45594000000E+02  0.51100000000E-03 0. -1.
         23    2    1    2    0    0 -0.17763568394E-14  0.00000000000E+00  0.17763568394E-14  0.91188000000E+02  0.91188000000E+02 0.  0.
    9900012    2    3    3    0    0  0.14396639173E+02  0.32782202352E+02 -0.85932777965E+01  0.54367076141E+02  0.39999981679E+02 0.  0.
        -12    1    3    3    0    0 -0.14396639173E+02 -0.32782202352E+02  0.85932777965E+01  0.36820923859E+02  0.00000000000E+00 0.  1.
         11    1    4    4    0    0  0.22218765456E+01  0.85462764001E+01  0.11110322371E+02  0.14192069587E+02  0.51100000000E-03 0. -1.
        -11    1    4    4    0    0  0.82225250100E+01 -0.13775549010E+01 -0.14177013618E+01  0.84567991851E+01  0.51100000000E-03 0.  1.
         12    1    4    4    0    0  0.39522376177E+01  0.25613480853E+02 -0.18285898806E+02  0.31718207370E+02  0.00000000000E+00 0. -1.
</event>
<event>
 8    1  0.1253488E-006  0.9118800E+02  0.7816164E-02  0.1184000E+00
        -11   -1    0    0    0    0  0.00000000000E+00  0.00000000000E+00  0.45593999997E+02  0.45594000000E+02  0.51100000000E-03 0.  1.
         11   -1    0    0    0    0 -0.00000000000E+00 -0.00000000000E+00 -0.45593999997E+02  0.45594000000E+02  0.51100000000E-03 0. -1.
         23    2    1    2    0    0  0.00000000000E+00  0.00000000000E+00 -0.77715611724E-15  0.91188000000E+02  0.91188000000E+02 0.  0.
    9900012    2    3    3    0    0  0.85894797741E+01  0.35801797683E+02  0.48169012540E+00  0.54367083316E+02  0.39999998035E+02 0.  0.
        -12    1    3    3    0    0 -0.85894797741E+01 -0.35801797683E+02 -0.48169012540E+00  0.36820916684E+02  0.00000000000E+00 0.  1.
         11    1    4    4    0    0 -0.35916928725E+01  0.21746578007E+02  0.58442025700E+01  0.22802820366E+02  0.51100000000E-03 0. -1.
        -11    1    4    4    0    0 -0.60824592894E+00  0.25357505000E+01  0.88601961906E+01  0.92359661382E+01  0.51100000000E-03 0.  1.
         12    1    4    4    0    0  0.12789418576E+02  0.11519469176E+02 -0.14222708635E+02  0.22328296812E+02  0.00000000000E+00 0. -1.
</event>
<event>
 8    1  0.1253488E-006  0.9118800E+02  0.7816164E-02  0.1184000E+00
        -11   -1    0    0    0    0  0.00000000000E+00  0.00000000000E+00  0.45593999997E+02  0.45594000000E+02  0.51100000000E-03 0. -1.
         11   -1    0    0    0    0 -0.00000000000E+00 -0.00000000000E+00 -0.45593999997E+02  0.45594000000E+02  0.51100000000E-03 0.  1.
         23    2    1    2    0    0  0.00000000000E+00  0.00000000000E+00  0.35527136788E-14  0.91188000000E+02  0.91188000000E+02 0.  0.
    9900012    2    3    3    0    0 -0.21273585436E+02  0.16368895328E+02 -0.25204625919E+02  0.54367091004E+02  0.40000015562E+02 0.  0.
         12    1    3    3    0    0  0.21273585436E+02 -0.16368895328E+02  0.25204625919E+02  0.36820908996E+02  0.00000000000E+00 0. -1.
         11    1    4    4    0    0 -0.17099073708E+02  0.47749330674E+01 -0.11069890338E+02  0.20921777644E+02  0.51100000000E-03 0. -1.
        -11    1    4    4    0    0 -0.70828709553E+01  0.14786185526E+02 -0.20189716967E+02  0.26008133629E+02  0.51100000000E-03 0.  1.
         12    1    4    4    0    0  0.29083592268E+01 -0.31922232656E+01  0.60549813856E+01  0.74371797309E+01  0.00000000000E+00 0. -1.
</event>
<event>
 8    1  0.1253488E-006  0.9118800E+02  0.7816164E-02  0.1184000E+00
        -11   -1    0    0    0    0  0.00000000000E+00  0.00000000000E+00  0.45593999997E+02  0.45594000000E+02  0.51100000000E-03 0. -1.
         11   -1    0    0    0    0 -0.00000000000E+00 -0.00000000000E+00 -0.45593999997E+02  0.45594000000E+02  0.51100000000E-03 0.  1.
         23    2    1    2    0    0  0.00000000000E+00  0.35527136788E-14 -0.35527136788E-14  0.91188000000E+02  0.91188000000E+02 0.  0.
    9900012    2    3    3    0    0 -0.61126312227E+01 -0.21233601804E+02 -0.29454206085E+02  0.54367077115E+02  0.39999983899E+02 0.  0.
         12    1    3    3    0    0  0.61126312227E+01  0.21233601804E+02  0.29454206085E+02  0.36820922885E+02  0.00000000000E+00 0. -1.
         11    1    4    4    0    0  0.10236297256E+02 -0.14392737779E+01  0.46907759392E+01  0.11351505173E+02  0.51100000000E-03 0. -1.
        -11    1    4    4    0    0 -0.80961097437E+01 -0.60892177240E+01 -0.14311205529E+02  0.17533857802E+02  0.51100000000E-03 0.  1.
         12    1    4    4    0    0 -0.82528187348E+01 -0.13705110302E+02 -0.19833776495E+02  0.25481714140E+02  0.00000000000E+00 0. -1.
</event>
<event>
 8    1  0.1253488E-006  0.9118800E+02  0.7816164E-02  0.1184000E+00
        -11   -1    0    0    0    0  0.00000000000E+00  0.00000000000E+00  0.45593999997E+02  0.45594000000E+02  0.51100000000E-03 0. -1.
         11   -1    0    0    0    0 -0.00000000000E+00 -0.00000000000E+00 -0.45593999997E+02  0.45594000000E+02  0.51100000000E-03 0.  1.
         23    2    1    2    0    0 -0.17763568394E-14  0.00000000000E+00  0.00000000000E+00  0.91188000000E+02  0.91188000000E+02 0.  0.
    9900012    2    3    3    0    0  0.43549422725E+01  0.32008916896E+02 -0.17670383849E+02  0.54367099028E+02  0.40000033854E+02 0.  0.
         12    1    3    3    0    0 -0.43549422725E+01 -0.32008916896E+02  0.17670383849E+02  0.36820900972E+02  0.00000000000E+00 0. -1.
         11    1    4    4    0    0  0.16402550860E+02  0.11218885727E+02 -0.10013964000E+02  0.22252787397E+02  0.51100000000E-03 0.  1.
        -11    1    4    4    0    0 -0.59233350150E+01 -0.29830066674E+01 -0.13511431438E+01  0.67682948025E+01  0.51100000000E-03 0. -1.
        -12    1    4    4    0    0 -0.61242735730E+01  0.23773037836E+02 -0.63052767049E+01  0.25346016829E+02  0.00000000000E+00 0.  1.
</event>
<event>
 8    1  0.1253488E-006  0.9118800E+02  0.7816164E-02  0.1184000E+00
        -11   -1    0    0    0    0  0.00000000000E+00  0.00000000000E+00  0.45593999997E+02  0.45594000000E+02  0.51100000000E-03 0. -1.
         11   -1    0    0    0    0 -0.00000000000E+00 -0.00000000000E+00 -0.45593999997E+02  0.45594000000E+02  0.51100000000E-03 0.  1.
         23    2    1    2    0    0  0.00000000000E+00  0.00000000000E+00  0.00000000000E+00  0.91188000000E+02  0.91188000000E+02 0.  0.
    9900012    2    3    3    0    0 -0.31868271237E+02 -0.17820064484E+02  0.47592763442E+01  0.54366917436E+02  0.39999619877E+02 0.  0.
        -12    1    3    3    0    0  0.31868271237E+02  0.17820064484E+02 -0.47592763442E+01  0.36821082564E+02  0.00000000000E+00 0.  1.
         11    1    4    4    0    0 -0.24527667640E+02 -0.83552581910E+01  0.17249359333E+02  0.31128077631E+02  0.51100000000E-03 0. -1.
        -11    1    4    4    0    0  0.29048675710E+01  0.24340572276E+01 -0.34237731399E+01  0.51073587074E+01  0.51100000000E-03 0.  1.
         12    1    4    4    0    0 -0.10245471168E+02 -0.11898863521E+02 -0.90663098489E+01  0.18131481098E+02  0.00000000000E+00 0. -1.
</event>
<event>
 8    1  0.1253488E-006  0.9118800E+02  0.7816164E-02  0.1184000E+00
        -11   -1    0    0    0    0  0.00000000000E+00  0.00000000000E+00  0.45593999997E+02  0.45594000000E+02  0.51100000000E-03 0. -1.
         11   -1    0    0    0    0 -0.00000000000E+00 -0.00000000000E+00 -0.45593999997E+02  0.45594000000E+02  0.51100000000E-03 0.  1.
         23    2    1    2    0    0  0.17763568394E-14  0.35527136788E-14  0.00000000000E+00  0.91188000000E+02  0.91188000000E+02 0.  0.
    9900012    2    3    3    0    0 -0.14748784150E+02  0.22992754761E+02 -0.24689791615E+02  0.54367092686E+02  0.40000019397E+02 0.  0.
         12    1    3    3    0    0  0.14748784150E+02 -0.22992754761E+02  0.24689791615E+02  0.36820907314E+02  0.00000000000E+00 0. -1.
         11    1    4    4    0    0 -0.10957535878E+02  0.11304947442E+02 -0.54520731179E+00  0.15753306969E+02  0.51100000000E-03 0. -1.
        -11    1    4    4    0    0  0.57658085140E+01 -0.59417037000E+01 -0.15848690357E+01  0.84297212765E+01  0.51100000000E-03 0.  1.
        -12    1    4    4    0    0 -0.95570567853E+01  0.17629511019E+02 -0.22559715268E+02  0.30184064441E+02  0.00000000000E+00 0.  1.
</event>
<event>
 8    1  0.1253488E-006  0.9118800E+02  0.7816164E-02  0.1184000E+00
        -11   -1    0    0    0    0  0.00000000000E+00  0.00000000000E+00  0.45593999997E+02  0.45594000000E+02  0.51100000000E-03 0. -1.
         11   -1    0    0    0    0 -0.00000000000E+00 -0.00000000000E+00 -0.45593999997E+02  0.45594000000E+02  0.51100000000E-03 0.  1.
         23    2    1    2    0    0  0.35527136788E-14 -0.35527136788E-14  0.00000000000E+00  0.91188000000E+02  0.91188000000E+02 0.  0.
    9900012    2    3    3    0    0 -0.23259085858E+02  0.28065974873E+02 -0.52054350995E+01  0.54367074223E+02  0.39999977305E+02 0.  0.
         12    1    3    3    0    0  0.23259085858E+02 -0.28065974873E+02  0.52054350995E+01  0.36820925777E+02  0.00000000000E+00 0. -1.
         11    1    4    4    0    0 -0.28624335008E+01 -0.45293978370E+01 -0.43771386633E+01  0.69186930451E+01  0.51100000000E-03 0. -1.
        -11    1    4    4    0    0  0.10890665810E+01  0.22657362719E+02 -0.54491102970E+01  0.23328843835E+02  0.51100000000E-03 0.  1.
         12    1    4    4    0    0 -0.21485718939E+02  0.99380099913E+01  0.46208138608E+01  0.24119537343E+02  0.00000000000E+00 0. -1.
</event>
<event>
 8    1  0.1253488E-006  0.9118800E+02  0.7816164E-02  0.1184000E+00
        -11   -1    0    0    0    0  0.00000000000E+00  0.00000000000E+00  0.45593999997E+02  0.45594000000E+02  0.51100000000E-03 0. -1.
         11   -1    0    0    0    0 -0.00000000000E+00 -0.00000000000E+00 -0.45593999997E+02  0.45594000000E+02  0.51100000000E-03 0.  1.
         23    2    1    2    0    0  0.00000000000E+00 -0.17763568394E-14  0.00000000000E+00  0.91188000000E+02  0.91188000000E+02 0.  0.
    9900012    2    3    3    0    0 -0.21166404580E+02  0.12723364956E+02 -0.27310783924E+02  0.54367087230E+02  0.40000006958E+02 0.  0.
        -12    1    3    3    0    0  0.21166404580E+02 -0.12723364956E+02  0.27310783924E+02  0.36820912770E+02  0.00000000000E+00 0.  1.
         11    1    4    4    0    0  0.43179729958E+01 -0.11746366025E+01 -0.36420742853E+01  0.57696938655E+01  0.51100000000E-03 0. -1.
        -11    1    4    4    0    0 -0.29117248264E+01  0.53270071472E+01 -0.23686671872E+02  0.24452271290E+02  0.51100000000E-03 0.  1.
         12    1    4    4    0    0 -0.22572652749E+02  0.85709944115E+01  0.17962232736E-01  0.24145122074E+02  0.00000000000E+00 0. -1.
</event>
<event>
 8    1  0.1253488E-006  0.9118800E+02  0.7816164E-02  0.1184000E+00
        -11   -1    0    0    0    0  0.00000000000E+00  0.00000000000E+00  0.45593999997E+02  0.45594000000E+02  0.51100000000E-03 0.  1.
         11   -1    0    0    0    0 -0.00000000000E+00 -0.00000000000E+00 -0.45593999997E+02  0.45594000000E+02  0.51100000000E-03 0. -1.
         23    2    1    2    0    0  0.00000000000E+00  0.00000000000E+00  0.17763568394E-14  0.91188000000E+02  0.91188000000E+02 0.  0.
    9900012    2    3    3    0    0 -0.34471066190E+02  0.11993051731E+02  0.48674362157E+01  0.54367087064E+02  0.40000006581E+02 0.  0.
         12    1    3    3    0    0  0.34471066190E+02 -0.11993051731E+02 -0.48674362157E+01  0.36820912936E+02  0.00000000000E+00 0. -1.
         11    1    4    4    0    0 -0.70656370345E+00 -0.53623810172E+00 -0.39323446724E+01  0.40311435663E+01  0.51100000000E-03 0. -1.
        -11    1    4    4    0    0 -0.22097465181E+02  0.39011869333E+01 -0.11632535437E+02  0.25275148029E+02  0.51100000000E-03 0.  1.
        -12    1    4    4    0    0 -0.11667037305E+02  0.86281028995E+01  0.20432316325E+02  0.25060795469E+02  0.00000000000E+00 0.  1.
</event>
<event>
 8    1  0.1253488E-006  0.9118800E+02  0.7816164E-02  0.1184000E+00
        -11   -1    0    0    0    0  0.00000000000E+00  0.00000000000E+00  0.45593999997E+02  0.45594000000E+02  0.51100000000E-03 0.  1.
         11   -1    0    0    0    0 -0.00000000000E+00 -0.00000000000E+00 -0.45593999997E+02  0.45594000000E+02  0.51100000000E-03 0. -1.
         23    2    1    2    0    0  0.00000000000E+00 -0.35527136788E-14  0.17763568394E-14  0.91188000000E+02  0.91188000000E+02 0.  0.
    9900012    2    3    3    0    0 -0.26456875131E+02 -0.21909966206E+02  0.13257706119E+02  0.54367087024E+02  0.40000006488E+02 0.  0.
         12    1    3    3    0    0  0.26456875131E+02  0.21909966206E+02 -0.13257706119E+02  0.36820912976E+02  0.00000000000E+00 0. -1.
         11    1    4    4    0    0  0.46097991189E+01 -0.25932692865E+01 -0.30501852448E+01  0.61056468779E+01  0.51100000000E-03 0. -1.
        -11    1    4    4    0    0 -0.30544927021E+02 -0.48895846178E+01  0.12190801456E+02  0.33249304427E+02  0.51100000000E-03 0.  1.
        -12    1    4    4    0    0 -0.52174722863E+00 -0.14427112302E+02  0.41170899084E+01  0.15012135719E+02  0.00000000000E+00 0.  1.
</event>
<event>
 8    1  0.1253488E-006  0.9118800E+02  0.7816164E-02  0.1184000E+00
        -11   -1    0    0    0    0  0.00000000000E+00  0.00000000000E+00  0.45593999997E+02  0.45594000000E+02  0.51100000000E-03 0.  1.
         11   -1    0    0    0    0 -0.00000000000E+00 -0.00000000000E+00 -0.45593999997E+02  0.45594000000E+02  0.51100000000E-03 0. -1.
         23    2    1    2    0    0  0.88817841970E-15  0.00000000000E+00  0.00000000000E+00  0.91188000000E+02  0.91188000000E+02 0.  0.
    9900012    2    3    3    0    0 -0.48729222127E+01  0.16725886670E+02  0.32438860930E+02  0.54367077222E+02  0.39999984144E+02 0.  0.
         12    1    3    3    0    0  0.48729222127E+01 -0.16725886670E+02 -0.32438860930E+02  0.36820922778E+02  0.00000000000E+00 0. -1.
         11    1    4    4    0    0  0.57740395867E+01  0.48456204088E+00 -0.22819647243E+01  0.62274952255E+01  0.51100000000E-03 0. -1.
        -11    1    4    4    0    0  0.48097480450E+01 -0.50894736200E+01  0.72453509250E+01  0.10076285440E+02  0.51100000000E-03 0.  1.
        -12    1    4    4    0    0 -0.15456709844E+02  0.21330798249E+02  0.27475474729E+02  0.38063296556E+02  0.00000000000E+00 0.  1.
</event>
<event>
 8    1  0.1253488E-006  0.9118800E+02  0.7816164E-02  0.1184000E+00
        -11   -1    0    0    0    0  0.00000000000E+00  0.00000000000E+00  0.45593999997E+02  0.45594000000E+02  0.51100000000E-03 0.  1.
         11   -1    0    0    0    0 -0.00000000000E+00 -0.00000000000E+00 -0.45593999997E+02  0.45594000000E+02  0.51100000000E-03 0. -1.
         23    2    1    2    0    0  0.00000000000E+00 -0.35527136788E-14  0.00000000000E+00  0.91188000000E+02  0.91188000000E+02 0.  0.
    9900012    2    3    3    0    0 -0.85750902067E+01 -0.95096319435E+01  0.34522652702E+02  0.54367098037E+02  0.40000031595E+02 0.  0.
         12    1    3    3    0    0  0.85750902067E+01  0.95096319435E+01 -0.34522652702E+02  0.36820901963E+02  0.00000000000E+00 0. -1.
         11    1    4    4    0    0 -0.28285613613E+01 -0.24336150570E+02  0.15538949231E+02  0.29012203078E+02  0.51100000000E-03 0. -1.
        -11    1    4    4    0    0 -0.19428958427E+01  0.54547262904E+01  0.11142140547E+02  0.12556917591E+02  0.51100000000E-03 0.  1.
        -12    1    4    4    0    0 -0.38036330026E+01  0.93717923366E+01  0.78415629248E+01  0.12797977368E+02  0.00000000000E+00 0.  1.
</event>
<event>
 8    1  0.1253488E-006  0.9118800E+02  0.7816164E-02  0.1184000E+00
        -11   -1    0    0    0    0  0.00000000000E+00  0.00000000000E+00  0.45593999997E+02  0.45594000000E+02  0.51100000000E-03 0. -1.
         11   -1    0    0    0    0 -0.00000000000E+00 -0.00000000000E+00 -0.45593999997E+02  0.45594000000E+02  0.51100000000E-03 0.  1.
         23    2    1    2    0    0  0.17763568394E-14  0.00000000000E+00  0.00000000000E+00  0.91188000000E+02  0.91188000000E+02 0.  0.
    9900012    2    3    3    0    0  0.70532244838E+01  0.44641792290E+01  0.35862269984E+02  0.54367091806E+02  0.40000017390E+02 0.  0.
        -12    1    3    3    0    0 -0.70532244838E+01 -0.44641792290E+01 -0.35862269984E+02  0.36820908194E+02  0.00000000000E+00 0.  1.
         11    1    4    4    0    0 -0.11314267577E+01  0.75021899840E+01  0.36463464161E+02  0.37244425086E+02  0.51100000000E-03 0. -1.
        -11    1    4    4    0    0  0.48675774334E+01 -0.72317327232E+01  0.44321388111E+01  0.97793211908E+01  0.51100000000E-03 0.  1.
         12    1    4    4    0    0  0.33170738080E+01  0.41937219683E+01 -0.50333329882E+01  0.73433455295E+01  0.00000000000E+00 0. -1.
</event>
<event>
 8    1  0.1253488E-006  0.9118800E+02  0.7816164E-02  0.1184000E+00
        -11   -1    0    0    0    0  0.00000000000E+00  0.00000000000E+00  0.45593999997E+02  0.45594000000E+02  0.51100000000E-03 0.  1.
         11   -1    0    0    0    0 -0.00000000000E+00 -0.00000000000E+00 -0.45593999997E+02  0.45594000000E+02  0.51100000000E-03 0. -1.
         23    2    1    2    0    0  0.00000000000E+00  0.00000000000E+00  0.00000000000E+00  0.91188000000E+02  0.91188000000E+02 0.  0.
    9900012    2    3    3    0    0  0.10712501050E+02  0.10482887010E+02 -0.33632248302E+02  0.54367126509E+02  0.40000096503E+02 0.  0.
        -12    1    3    3    0    0 -0.10712501050E+02 -0.10482887010E+02  0.33632248302E+02  0.36820873491E+02  0.00000000000E+00 0.  1.
         11    1    4    4    0    0  0.73860887707E+01  0.37817533318E+01 -0.35655077078E+02  0.36607929295E+02  0.51100000000E-03 0. -1.
        -11    1    4    4    0    0  0.68092900120E+01  0.10284763609E+02  0.29358415998E+01  0.12679193946E+02  0.51100000000E-03 0.  1.
        -12    1    4    4    0    0 -0.34828777332E+01 -0.35836299311E+01 -0.91301282365E+00  0.50800032680E+01  0.00000000000E+00 0.  1.
</event>
<event>
 8    1  0.1253488E-006  0.9118800E+02  0.7816164E-02  0.1184000E+00
        -11   -1    0    0    0    0  0.00000000000E+00  0.00000000000E+00  0.45593999997E+02  0.45594000000E+02  0.51100000000E-03 0.  1.
         11   -1    0    0    0    0 -0.00000000000E+00 -0.00000000000E+00 -0.45593999997E+02  0.45594000000E+02  0.51100000000E-03 0. -1.
         23    2    1    2    0    0 -0.17763568394E-14  0.00000000000E+00  0.00000000000E+00  0.91188000000E+02  0.91188000000E+02 0.  0.
    9900012    2    3    3    0    0 -0.10772964349E+02  0.10778039987E+02  0.33519489937E+02  0.54367094084E+02  0.40000022583E+02 0.  0.
         12    1    3    3    0    0  0.10772964349E+02 -0.10778039987E+02 -0.33519489937E+02  0.36820905916E+02  0.00000000000E+00 0. -1.
         11    1    4    4    0    0 -0.99483162577E+01  0.15352720407E+02  0.13402804868E+02  0.22678408208E+02  0.51100000000E-03 0.  1.
        -11    1    4    4    0    0 -0.13915005996E+01 -0.13845358440E+02  0.68922376593E+01  0.15528463043E+02  0.51100000000E-03 0. -1.
        -12    1    4    4    0    0  0.56685250800E+00  0.92706780195E+01  0.13224447410E+02  0.16160222833E+02  0.00000000000E+00 0.  1.
</event>
<event>
 8    1  0.1253488E-006  0.9118800E+02  0.7816164E-02  0.1184000E+00
        -11   -1    0    0    0    0  0.00000000000E+00  0.00000000000E+00  0.45593999997E+02  0.45594000000E+02  0.51100000000E-03 0.  1.
         11   -1    0    0    0    0 -0.00000000000E+00 -0.00000000000E+00 -0.45593999997E+02  0.45594000000E+02  0.51100000000E-03 0. -1.
         23    2    1    2    0    0 -0.35527136788E-14  0.12212453271E-14  0.00000000000E+00  0.91188000000E+02  0.91188000000E+02 0.  0.
    9900012    2    3    3    0    0 -0.25370257300E+02  0.63574669436E+00 -0.26678189787E+02  0.54367082852E+02  0.39999996977E+02 0.  0.
        -12    1    3    3    0    0  0.25370257300E+02 -0.63574669436E+00  0.26678189787E+02  0.36820917148E+02  0.00000000000E+00 0.  1.
         11    1    4    4    0    0  0.54630748757E+01  0.93063736626E+01 -0.16119181911E+02  0.19397984524E+02  0.51100000000E-03 0. -1.
        -11    1    4    4    0    0 -0.10021039341E+02 -0.69624777467E+01 -0.59879590868E+01  0.13592386845E+02  0.51100000000E-03 0.  1.
         12    1    4    4    0    0 -0.20812292835E+02 -0.17081492216E+01 -0.45710487893E+01  0.21376711483E+02  0.00000000000E+00 0. -1.
</event>
<event>
 8    1  0.1253488E-006  0.9118800E+02  0.7816164E-02  0.1184000E+00
        -11   -1    0    0    0    0  0.00000000000E+00  0.00000000000E+00  0.45593999997E+02  0.45594000000E+02  0.51100000000E-03 0. -1.
         11   -1    0    0    0    0 -0.00000000000E+00 -0.00000000000E+00 -0.45593999997E+02  0.45594000000E+02  0.51100000000E-03 0.  1.
         23    2    1    2    0    0  0.35527136788E-14  0.88817841970E-15  0.00000000000E+00  0.91188000000E+02  0.91188000000E+02 0.  0.
    9900012    2    3    3    0    0 -0.30362956441E+02  0.52939126718E+01  0.20145571458E+02  0.54367099895E+02  0.40000035829E+02 0.  0.
        -12    1    3    3    0    0  0.30362956441E+02 -0.52939126718E+01 -0.20145571458E+02  0.36820900105E+02  0.00000000000E+00 0.  1.
         11    1    4    4    0    0 -0.12127265271E+02  0.72315366943E+01  0.41015320621E+01  0.14703341505E+02  0.51100000000E-03 0.  1.
        -11    1    4    4    0    0 -0.23495557270E+02  0.80398292418E+01  0.12742462097E+02  0.27911474454E+02  0.51100000000E-03 0. -1.
        -12    1    4    4    0    0  0.52598660995E+01 -0.99774532644E+01  0.33015772991E+01  0.11752283935E+02  0.00000000000E+00 0.  1.
</event>
<event>
 8    1  0.1253488E-006  0.9118800E+02  0.7816164E-02  0.1184000E+00
        -11   -1    0    0    0    0  0.00000000000E+00  0.00000000000E+00  0.45593999997E+02  0.45594000000E+02  0.51100000000E-03 0. -1.
         11   -1    0    0    0    0 -0.00000000000E+00 -0.00000000000E+00 -0.45593999997E+02  0.45594000000E+02  0.51100000000E-03 0.  1.
         23    2    1    2    0    0  0.00000000000E+00  0.00000000000E+00  0.44408920985E-15  0.91188000000E+02  0.91188000000E+02 0.  0.
    9900012    2    3    3    0    0 -0.27552568961E+02  0.24399819440E+02  0.11335303018E+01  0.54367080185E+02  0.39999990898E+02 0.  0.
        -12    1    3    3    0    0  0.27552568961E+02 -0.24399819440E+02 -0.11335303018E+01  0.36820919815E+02  0.00000000000E+00 0.  1.
         11    1    4    4    0    0 -0.45996646684E+01 -0.51134324038E+00  0.49960059091E+01  0.68101734395E+01  0.51100000000E-03 0. -1.
        -11    1    4    4    0    0 -0.27114781254E+02  0.11215872664E+02  0.62884036947E+01  0.30009184983E+02  0.51100000000E-03 0.  1.
        -12    1    4    4    0    0  0.41618769607E+01  0.13695290016E+02 -0.10150879302E+02  0.17547721763E+02  0.00000000000E+00 0.  1.
</event>
<event>
 8    1  0.1253488E-006  0.9118800E+02  0.7816164E-02  0.1184000E+00
        -11   -1    0    0    0    0  0.00000000000E+00  0.00000000000E+00  0.45593999997E+02  0.45594000000E+02  0.51100000000E-03 0.  1.
         11   -1    0    0    0    0 -0.00000000000E+00 -0.00000000000E+00 -0.45593999997E+02  0.45594000000E+02  0.51100000000E-03 0. -1.
         23    2    1    2    0    0 -0.35527136788E-14  0.00000000000E+00  0.17763568394E-14  0.91188000000E+02  0.91188000000E+02 0.  0.
    9900012    2    3    3    0    0  0.21159880717E+02  0.26356640148E+02  0.14607093050E+02  0.54367079326E+02  0.39999988940E+02 0.  0.
         12    1    3    3    0    0 -0.21159880717E+02 -0.26356640148E+02 -0.14607093050E+02  0.36820920674E+02  0.00000000000E+00 0. -1.
         11    1    4    4    0    0  0.44020403269E+01  0.55804770051E+01  0.20958188006E+02  0.22130642273E+02  0.51100000000E-03 0. -1.
        -11    1    4    4    0    0  0.94024035170E+01  0.13221314998E+00  0.57301312015E-01  0.94035076389E+01  0.51100000000E-03 0.  1.
         12    1    4    4    0    0  0.73554368734E+01  0.20643949993E+02 -0.64083962684E+01  0.22832929415E+02  0.00000000000E+00 0. -1.
</event>
<event>
 8    1  0.1253488E-006  0.9118800E+02  0.7816164E-02  0.1184000E+00
        -11   -1    0    0    0    0  0.00000000000E+00  0.00000000000E+00  0.45593999997E+02  0.45594000000E+02  0.51100000000E-03 0. -1.
         11   -1    0    0    0    0 -0.00000000000E+00 -0.00000000000E+00 -0.45593999997E+02  0.45594000000E+02  0.51100000000E-03 0.  1.
         23    2    1    2    0    0  0.44408920985E-15 -0.88817841970E-15  0.00000000000E+00  0.91188000000E+02  0.91188000000E+02 0.  0.
    9900012    2    3    3    0    0  0.37344630143E+01 -0.62826059460E+01  0.36088258527E+02  0.54367085359E+02  0.40000002694E+02 0.  0.
        -12    1    3    3    0    0 -0.37344630143E+01  0.62826059460E+01 -0.36088258527E+02  0.36820914641E+02  0.00000000000E+00 0.  1.
         11    1    4    4    0    0  0.17436875395E+02  0.16507718867E+01  0.11260397436E+02  0.20822253049E+02  0.51100000000E-03 0. -1.
        -11    1    4    4    0    0 -0.10124592179E+02 -0.16596812595E+01  0.32064581351E+01  0.10749106135E+02  0.51100000000E-03 0.  1.
        -12    1    4    4    0    0 -0.35778202016E+01 -0.62736965732E+01  0.21621402955E+02  0.22795726175E+02  0.00000000000E+00 0.  1.
</event>
<event>
 8    1  0.1253488E-006  0.9118800E+02  0.7816164E-02  0.1184000E+00
        -11   -1    0    0    0    0  0.00000000000E+00  0.00000000000E+00  0.45593999997E+02  0.45594000000E+02  0.51100000000E-03 0.  1.
         11   -1    0    0    0    0 -0.00000000000E+00 -0.00000000000E+00 -0.45593999997E+02  0.45594000000E+02  0.51100000000E-03 0. -1.
         23    2    1    2    0    0  0.00000000000E+00 -0.22204460493E-15 -0.35527136788E-14  0.91188000000E+02  0.91188000000E+02 0.  0.
    9900012    2    3    3    0    0 -0.18583569298E+02 -0.14216912273E+01 -0.31755472175E+02  0.54367078409E+02  0.39999986849E+02 0.  0.
        -12    1    3    3    0    0  0.18583569298E+02  0.14216912273E+01  0.31755472175E+02  0.36820921591E+02  0.00000000000E+00 0.  1.
         11    1    4    4    0    0 -0.14210839818E+02  0.98296117171E+00 -0.99050620491E+00  0.14279190586E+02  0.51100000000E-03 0. -1.
        -11    1    4    4    0    0 -0.10480687014E+01  0.99456707778E+01 -0.23112529767E+02  0.25183404212E+02  0.51100000000E-03 0.  1.
         12    1    4    4    0    0 -0.33246607784E+01 -0.12350323177E+02 -0.76524362025E+01  0.14904483611E+02  0.00000000000E+00 0. -1.
</event>
<event>
 8    1  0.1253488E-006  0.9118800E+02  0.7816164E-02  0.1184000E+00
        -11   -1    0    0    0    0  0.00000000000E+00  0.00000000000E+00  0.45593999997E+02  0.45594000000E+02  0.51100000000E-03 0.  1.
         11   -1    0    0    0    0 -0.00000000000E+00 -0.00000000000E+00 -0.45593999997E+02  0.45594000000E+02  0.51100000000E-03 0. -1.
         23    2    1    2    0    0  0.00000000000E+00  0.17763568394E-14 -0.17763568394E-14  0.91188000000E+02  0.91188000000E+02 0.  0.
    9900012    2    3    3    0    0  0.34070289039E+02  0.10155819442E+02 -0.95840198039E+01  0.54367099694E+02  0.40000035373E+02 0.  0.
        -12    1    3    3    0    0 -0.34070289039E+02 -0.10155819442E+02  0.95840198039E+01  0.36820900306E+02  0.00000000000E+00 0.  1.
         11    1    4    4    0    0  0.16700493652E+02  0.13062719052E+02  0.30512655235E+01  0.21420815549E+02  0.51100000000E-03 0. -1.
        -11    1    4    4    0    0 -0.31376680558E+00 -0.22927758556E+01 -0.14926062212E+02  0.15104390228E+02  0.51100000000E-03 0.  1.
        -12    1    4    4    0    0  0.17683562192E+02 -0.61412375438E+00  0.22907768851E+01  0.17841893917E+02  0.00000000000E+00 0.  1.
</event>
<event>
 8    1  0.1253488E-006  0.9118800E+02  0.7816164E-02  0.1184000E+00
        -11   -1    0    0    0    0  0.00000000000E+00  0.00000000000E+00  0.45593999997E+02  0.45594000000E+02  0.51100000000E-03 0. -1.
         11   -1    0    0    0    0 -0.00000000000E+00 -0.00000000000E+00 -0.45593999997E+02  0.45594000000E+02  0.51100000000E-03 0.  1.
         23    2    1    2    0    0 -0.35527136788E-14  0.00000000000E+00 -0.17763568394E-14  0.91188000000E+02  0.91188000000E+02 0.  0.
    9900012    2    3    3    0    0  0.27264671048E+02  0.22953107031E+02  0.92504911532E+01  0.54367095662E+02  0.40000026180E+02 0.  0.
        -12    1    3    3    0    0 -0.27264671048E+02 -0.22953107031E+02 -0.92504911532E+01  0.36820904338E+02  0.00000000000E+00 0.  1.
         11    1    4    4    0    0  0.42599868200E+01  0.20844954651E+02  0.13311541875E+02  0.25096947413E+02  0.51100000000E-03 0. -1.
        -11    1    4    4    0    0  0.15130870439E+02 -0.22519852825E+01  0.53897701825E+01  0.16219257099E+02  0.51100000000E-03 0.  1.
        -12    1    4    4    0    0  0.78738137894E+01  0.43601376622E+01 -0.94508209047E+01  0.13050891150E+02  0.00000000000E+00 0.  1.
</event>
<event>
 8    1  0.1253488E-006  0.9118800E+02  0.7816164E-02  0.1184000E+00
        -11   -1    0    0    0    0  0.00000000000E+00  0.00000000000E+00  0.45593999997E+02  0.45594000000E+02  0.51100000000E-03 0. -1.
         11   -1    0    0    0    0 -0.00000000000E+00 -0.00000000000E+00 -0.45593999997E+02  0.45594000000E+02  0.51100000000E-03 0.  1.
         23    2    1    2    0    0  0.00000000000E+00  0.00000000000E+00  0.00000000000E+00  0.91188000000E+02  0.91188000000E+02 0.  0.
    9900012    2    3    3    0    0  0.16508185038E+02 -0.20942606315E+02 -0.25390283917E+02  0.54367089502E+02  0.40000012139E+02 0.  0.
         12    1    3    3    0    0 -0.16508185038E+02  0.20942606315E+02  0.25390283917E+02  0.36820910498E+02  0.00000000000E+00 0. -1.
         11    1    4    4    0    0  0.24226560643E+02 -0.10211912696E+02 -0.70373996559E+01  0.27216436131E+02  0.51100000000E-03 0. -1.
        -11    1    4    4    0    0 -0.32129310227E+01 -0.13715113863E+02 -0.10291482000E+02  0.17445396987E+02  0.51100000000E-03 0.  1.
         12    1    4    4    0    0 -0.45054445821E+01  0.29844202438E+01 -0.80614022605E+01  0.97052563841E+01  0.00000000000E+00 0. -1.
</event>
<event>
 8    1  0.1253488E-006  0.9118800E+02  0.7816164E-02  0.1184000E+00
        -11   -1    0    0    0    0  0.00000000000E+00  0.00000000000E+00  0.45593999997E+02  0.45594000000E+02  0.51100000000E-03 0. -1.
         11   -1    0    0    0    0 -0.00000000000E+00 -0.00000000000E+00 -0.45593999997E+02  0.45594000000E+02  0.51100000000E-03 0.  1.
         23    2    1    2    0    0  0.00000000000E+00  0.17763568394E-14  0.00000000000E+00  0.91188000000E+02  0.91188000000E+02 0.  0.
    9900012    2    3    3    0    0  0.27300038377E+02 -0.15797209662E+02  0.18998315317E+02  0.54367083208E+02  0.39999997790E+02 0.  0.
        -12    1    3    3    0    0 -0.27300038377E+02  0.15797209662E+02 -0.18998315317E+02  0.36820916792E+02  0.00000000000E+00 0.  1.
         11    1    4    4    0    0  0.58218007644E+01  0.26342124574E+00  0.18877306620E+02  0.19756403022E+02  0.51100000000E-03 0. -1.
        -11    1    4    4    0    0  0.69345695248E+01 -0.15682310674E+02 -0.68667980850E+01  0.18470951214E+02  0.51100000000E-03 0.  1.
        -12    1    4    4    0    0  0.14543668088E+02 -0.37832023349E+00  0.69878067821E+01  0.16139728972E+02  0.00000000000E+00 0.  1.
</event>
<event>
 8    1  0.1253488E-006  0.9118800E+02  0.7816164E-02  0.1184000E+00
        -11   -1    0    0    0    0  0.00000000000E+00  0.00000000000E+00  0.45593999997E+02  0.45594000000E+02  0.51100000000E-03 0.  1.
         11   -1    0    0    0    0 -0.00000000000E+00 -0.00000000000E+00 -0.45593999997E+02  0.45594000000E+02  0.51100000000E-03 0. -1.
         23    2    1    2    0    0  0.00000000000E+00  0.88817841970E-15  0.00000000000E+00  0.91188000000E+02  0.91188000000E+02 0.  0.
    9900012    2    3    3    0    0  0.34555863004E+02 -0.68169977807E+01 -0.10733047486E+02  0.54367116862E+02  0.40000074511E+02 0.  0.
         12    1    3    3    0    0 -0.34555863004E+02  0.68169977807E+01  0.10733047486E+02  0.36820883138E+02  0.00000000000E+00 0. -1.
         11    1    4    4    0    0  0.26892635898E+02 -0.60220723248E+01 -0.22231348854E+01  0.27648174435E+02  0.51100000000E-03 0.  1.
        -11    1    4    4    0    0 -0.70900535440E+00  0.10776834098E+02 -0.18411652300E+01  0.10955945027E+02  0.51100000000E-03 0. -1.
         12    1    4    4    0    0  0.83722324610E+01 -0.11571759554E+02 -0.66687473702E+01  0.15762997400E+02  0.00000000000E+00 0. -1.
</event>
<event>
 8    1  0.1253488E-006  0.9118800E+02  0.7816164E-02  0.1184000E+00
        -11   -1    0    0    0    0  0.00000000000E+00  0.00000000000E+00  0.45593999997E+02  0.45594000000E+02  0.51100000000E-03 0. -1.
         11   -1    0    0    0    0 -0.00000000000E+00 -0.00000000000E+00 -0.45593999997E+02  0.45594000000E+02  0.51100000000E-03 0.  1.
         23    2    1    2    0    0  0.00000000000E+00 -0.35527136788E-14  0.00000000000E+00  0.91188000000E+02  0.91188000000E+02 0.  0.
    9900012    2    3    3    0    0 -0.19567881174E+02 -0.28936860079E+02 -0.11642016611E+02  0.54367076660E+02  0.39999982861E+02 0.  0.
        -12    1    3    3    0    0  0.19567881174E+02  0.28936860079E+02  0.11642016611E+02  0.36820923340E+02  0.00000000000E+00 0.  1.
         11    1    4    4    0    0  0.10114146582E+02 -0.90387124339E+01  0.51643593752E+01  0.14514299554E+02  0.51100000000E-03 0. -1.
        -11    1    4    4    0    0 -0.20953821042E+02 -0.15932712127E+02 -0.14241515881E+02  0.29928827355E+02  0.51100000000E-03 0.  1.
         12    1    4    4    0    0 -0.87282067139E+01 -0.39654355178E+01 -0.25648601058E+01  0.99239497504E+01  0.00000000000E+00 0. -1.
</event>
<event>
 8    1  0.1253488E-006  0.9118800E+02  0.7816164E-02  0.1184000E+00
        -11   -1    0    0    0    0  0.00000000000E+00  0.00000000000E+00  0.45593999997E+02  0.45594000000E+02  0.51100000000E-03 0.  1.
         11   -1    0    0    0    0 -0.00000000000E+00 -0.00000000000E+00 -0.45593999997E+02  0.45594000000E+02  0.51100000000E-03 0. -1.
         23    2    1    2    0    0  0.00000000000E+00  0.00000000000E+00 -0.17763568394E-14  0.91188000000E+02  0.91188000000E+02 0.  0.
    9900012    2    3    3    0    0 -0.32605003787E+02 -0.98860407425E+01  0.13962834811E+02  0.54367070768E+02  0.39999969430E+02 0.  0.
         12    1    3    3    0    0  0.32605003787E+02  0.98860407425E+01 -0.13962834811E+02  0.36820929232E+02  0.00000000000E+00 0. -1.
         11    1    4    4    0    0 -0.16721469598E+02 -0.38691030378E+01 -0.31932914703E+01  0.17457795236E+02  0.51100000000E-03 0. -1.
        -11    1    4    4    0    0 -0.14258848028E+02  0.26526682577E+01 -0.30865963424E+01  0.14828299741E+02  0.51100000000E-03 0.  1.
         12    1    4    4    0    0 -0.16246861618E+01 -0.86696059624E+01  0.20242722624E+02  0.22080975791E+02  0.00000000000E+00 0. -1.
</event>
<event>
 8    1  0.1253488E-006  0.9118800E+02  0.7816164E-02  0.1184000E+00
        -11   -1    0    0    0    0  0.00000000000E+00  0.00000000000E+00  0.45593999997E+02  0.45594000000E+02  0.51100000000E-03 0. -1.
         11   -1    0    0    0    0 -0.00000000000E+00 -0.00000000000E+00 -0.45593999997E+02  0.45594000000E+02  0.51100000000E-03 0.  1.
         23    2    1    2    0    0 -0.88817841970E-15  0.00000000000E+00  0.00000000000E+00  0.91188000000E+02  0.91188000000E+02 0.  0.
    9900012    2    3    3    0    0 -0.68400963063E+01  0.14140606125E+02 -0.33302196876E+02  0.54367082360E+02  0.39999995857E+02 0.  0.
         12    1    3    3    0    0  0.68400963063E+01 -0.14140606125E+02  0.33302196876E+02  0.36820917640E+02  0.00000000000E+00 0. -1.
         11    1    4    4    0    0  0.14494402944E+02  0.13143696378E+02 -0.11241933452E+02  0.22566026216E+02  0.51100000000E-03 0. -1.
        -11    1    4    4    0    0 -0.99546918920E+01  0.19799327273E+01 -0.15790743052E+02  0.18771350262E+02  0.51100000000E-03 0.  1.
         12    1    4    4    0    0 -0.11379807358E+02 -0.98302297993E+00 -0.62695203718E+01  0.13029705882E+02  0.00000000000E+00 0. -1.
</event>
<event>
 8    1  0.1253488E-006  0.9118800E+02  0.7816164E-02  0.1184000E+00
        -11   -1    0    0    0    0  0.00000000000E+00  0.00000000000E+00  0.45593999997E+02  0.45594000000E+02  0.51100000000E-03 0.  1.
         11   -1    0    0    0    0 -0.00000000000E+00 -0.00000000000E+00 -0.45593999997E+02  0.45594000000E+02  0.51100000000E-03 0. -1.
         23    2    1    2    0    0  0.00000000000E+00  0.00000000000E+00  0.71054273576E-14  0.91188000000E+02  0.91188000000E+02 0.  0.
    9900012    2    3    3    0    0  0.90328670260E+01 -0.67129445334E+01 -0.35058790948E+02  0.54367148112E+02  0.40000145752E+02 0.  0.
        -12    1    3    3    0    0 -0.90328670260E+01  0.67129445334E+01  0.35058790948E+02  0.36820851888E+02  0.00000000000E+00 0.  1.
         11    1    4    4    0    0 -0.45684835171E+01 -0.27954646051E+01 -0.20055611832E+02  0.20758449611E+02  0.51100000000E-03 0. -1.
        -11    1    4    4    0    0  0.66137486535E+01 -0.25575008784E+01  0.73119364981E+01  0.10185622102E+02  0.51100000000E-03 0.  1.
        -12    1    4    4    0    0  0.69876018896E+01 -0.13599790499E+01 -0.22315115613E+02  0.23423076400E+02  0.00000000000E+00 0.  1.
</event>
<event>
 8    1  0.1253488E-006  0.9118800E+02  0.7816164E-02  0.1184000E+00
        -11   -1    0    0    0    0  0.00000000000E+00  0.00000000000E+00  0.45593999997E+02  0.45594000000E+02  0.51100000000E-03 0. -1.
         11   -1    0    0    0    0 -0.00000000000E+00 -0.00000000000E+00 -0.45593999997E+02  0.45594000000E+02  0.51100000000E-03 0.  1.
         23    2    1    2    0    0  0.22204460493E-15  0.00000000000E+00 -0.17763568394E-14  0.91188000000E+02  0.91188000000E+02 0.  0.
    9900012    2    3    3    0    0 -0.11596397007E+01  0.36484160313E+02 -0.48316045186E+01  0.54367039663E+02  0.39999898519E+02 0.  0.
        -12    1    3    3    0    0  0.11596397007E+01 -0.36484160313E+02  0.48316045186E+01  0.36820960337E+02  0.00000000000E+00 0.  1.
         11    1    4    4    0    0  0.11505695204E+01  0.15739702926E+02 -0.48023304900E+01  0.16496194616E+02  0.51100000000E-03 0. -1.
        -11    1    4    4    0    0 -0.27775231730E+00 -0.81217141338E+01  0.32411966702E+01  0.87489852518E+01  0.51100000000E-03 0.  1.
        -12    1    4    4    0    0 -0.20324569038E+01  0.28866171520E+02 -0.32704706988E+01  0.29121859795E+02  0.00000000000E+00 0.  1.
</event>
<event>
 8    1  0.1253488E-006  0.9118800E+02  0.7816164E-02  0.1184000E+00
        -11   -1    0    0    0    0  0.00000000000E+00  0.00000000000E+00  0.45593999997E+02  0.45594000000E+02  0.51100000000E-03 0.  1.
         11   -1    0    0    0    0 -0.00000000000E+00 -0.00000000000E+00 -0.45593999997E+02  0.45594000000E+02  0.51100000000E-03 0. -1.
         23    2    1    2    0    0  0.00000000000E+00  0.00000000000E+00 -0.22204460493E-15  0.91188000000E+02  0.91188000000E+02 0.  0.
    9900012    2    3    3    0    0  0.19469476159E+02  0.31210287132E+02 -0.16239049560E+01  0.54367087571E+02  0.40000007737E+02 0.  0.
         12    1    3    3    0    0 -0.19469476159E+02 -0.31210287132E+02  0.16239049560E+01  0.36820912429E+02  0.00000000000E+00 0. -1.
         11    1    4    4    0    0  0.13787543195E+01 -0.25566177378E+01 -0.86160770501E+00  0.30297897335E+01  0.51100000000E-03 0. -1.
        -11    1    4    4    0    0  0.23311857627E+02  0.15569064971E+02 -0.10639057589E+02  0.29983796236E+02  0.51100000000E-03 0.  1.
        -12    1    4    4    0    0 -0.52211357873E+01  0.18197839899E+02  0.98767603377E+01  0.21353501602E+02  0.00000000000E+00 0.  1.
</event>
<event>
 8    1  0.1253488E-006  0.9118800E+02  0.7816164E-02  0.1184000E+00
        -11   -1    0    0    0    0  0.00000000000E+00  0.00000000000E+00  0.45593999997E+02  0.45594000000E+02  0.51100000000E-03 0.  1.
         11   -1    0    0    0    0 -0.00000000000E+00 -0.00000000000E+00 -0.45593999997E+02  0.45594000000E+02  0.51100000000E-03 0. -1.
         23    2    1    2    0    0 -0.33306690739E-15 -0.71054273576E-14  0.44408920985E-15  0.91188000000E+02  0.91188000000E+02 0.  0.
    9900012    2    3    3    0    0  0.36797956939E+00 -0.36801710069E+02 -0.11310350440E+01  0.54367075063E+02  0.39999979220E+02 0.  0.
        -12    1    3    3    0    0 -0.36797956939E+00  0.36801710069E+02  0.11310350440E+01  0.36820924937E+02  0.00000000000E+00 0.  1.
         11    1    4    4    0    0  0.83162220836E-01  0.55132743571E+01 -0.47405772478E+01  0.72716011301E+01  0.51100000000E-03 0. -1.
        -11    1    4    4    0    0  0.16030228919E+01 -0.50746700280E+01  0.79637882411E+01  0.95783026521E+01  0.51100000000E-03 0.  1.
        -12    1    4    4    0    0 -0.13182055433E+01 -0.37240314398E+02 -0.43542460373E+01  0.37517171280E+02  0.00000000000E+00 0.  1.
</event>
<event>
 8    1  0.1253488E-006  0.9118800E+02  0.7816164E-02  0.1184000E+00
        -11   -1    0    0    0    0  0.00000000000E+00  0.00000000000E+00  0.45593999997E+02  0.45594000000E+02  0.51100000000E-03 0. -1.
         11   -1    0    0    0    0 -0.00000000000E+00 -0.00000000000E+00 -0.45593999997E+02  0.45594000000E+02  0.51100000000E-03 0.  1.
         23    2    1    2    0    0  0.00000000000E+00  0.17763568394E-14  0.35527136788E-14  0.91188000000E+02  0.91188000000E+02 0.  0.
    9900012    2    3    3    0    0  0.15689191278E+02  0.14210657729E+02  0.30127772110E+02  0.54367134063E+02  0.40000113724E+02 0.  0.
        -12    1    3    3    0    0 -0.15689191278E+02 -0.14210657729E+02 -0.30127772110E+02  0.36820865937E+02  0.00000000000E+00 0.  1.
         11    1    4    4    0    0  0.11671015555E+02  0.56010206053E+01  0.24304806142E+02  0.27537386183E+02  0.51100000000E-03 0. -1.
        -11    1    4    4    0    0  0.62138258023E+01 -0.57613368858E+01  0.85507961089E+01  0.12038303376E+02  0.51100000000E-03 0.  1.
        -12    1    4    4    0    0 -0.21956500795E+01  0.14370974009E+02 -0.27278301416E+01  0.14791444505E+02  0.00000000000E+00 0.  1.
</event>
<event>
 8    1  0.1253488E-006  0.9118800E+02  0.7816164E-02  0.1184000E+00
        -11   -1    0    0    0    0  0.00000000000E+00  0.00000000000E+00  0.45593999997E+02  0.45594000000E+02  0.51100000000E-03 0.  1.
         11   -1    0    0    0    0 -0.00000000000E+00 -0.00000000000E+00 -0.45593999997E+02  0.45594000000E+02  0.51100000000E-03 0. -1.
         23    2    1    2    0    0  0.00000000000E+00 -0.35527136788E-14 -0.17763568394E-14  0.91188000000E+02  0.91188000000E+02 0.  0.
    9900012    2    3    3    0    0 -0.25346131504E+02  0.23000541466E+02 -0.13576760266E+02  0.54367085980E+02  0.40000004108E+02 0.  0.
        -12    1    3    3    0    0  0.25346131504E+02 -0.23000541466E+02  0.13576760266E+02  0.36820914020E+02  0.00000000000E+00 0.  1.
         11    1    4    4    0    0 -0.17398156422E+02  0.26427580705E+02 -0.11698339455E+02  0.33733722224E+02  0.51100000000E-03 0. -1.
        -11    1    4    4    0    0 -0.14032517983E+02 -0.12635344904E+01 -0.13643178000E+01  0.14155191404E+02  0.51100000000E-03 0.  1.
        -12    1    4    4    0    0  0.60845429016E+01 -0.21635047484E+01 -0.51410301158E+00  0.64781723522E+01  0.00000000000E+00 0.  1.
</event>
<event>
 8    1  0.1253488E-006  0.9118800E+02  0.7816164E-02  0.1184000E+00
        -11   -1    0    0    0    0  0.00000000000E+00  0.00000000000E+00  0.45593999997E+02  0.45594000000E+02  0.51100000000E-03 0. -1.
         11   -1    0    0    0    0 -0.00000000000E+00 -0.00000000000E+00 -0.45593999997E+02  0.45594000000E+02  0.51100000000E-03 0.  1.
         23    2    1    2    0    0 -0.71054273576E-14  0.35527136788E-14  0.17763568394E-14  0.91188000000E+02  0.91188000000E+02 0.  0.
    9900012    2    3    3    0    0  0.31861154435E+02 -0.15303590104E+02 -0.10317253398E+02  0.54367099010E+02  0.40000033813E+02 0.  0.
         12    1    3    3    0    0 -0.31861154435E+02  0.15303590104E+02  0.10317253398E+02  0.36820900990E+02  0.00000000000E+00 0. -1.
         11    1    4    4    0    0  0.17382472006E+02 -0.17629859828E+02 -0.11023114250E+02  0.27101131685E+02  0.51100000000E-03 0. -1.
        -11    1    4    4    0    0  0.16331354229E+02 -0.50594621207E+01 -0.49287447603E+01  0.17793364299E+02  0.51100000000E-03 0.  1.
        -12    1    4    4    0    0 -0.18526718001E+01  0.73857318443E+01  0.56346056122E+01  0.94726030256E+01  0.00000000000E+00 0.  1.
</event>
<event>
 8    1  0.1253488E-006  0.9118800E+02  0.7816164E-02  0.1184000E+00
        -11   -1    0    0    0    0  0.00000000000E+00  0.00000000000E+00  0.45593999997E+02  0.45594000000E+02  0.51100000000E-03 0.  1.
         11   -1    0    0    0    0 -0.00000000000E+00 -0.00000000000E+00 -0.45593999997E+02  0.45594000000E+02  0.51100000000E-03 0. -1.
         23    2    1    2    0    0  0.00000000000E+00  0.00000000000E+00  0.00000000000E+00  0.91188000000E+02  0.91188000000E+02 0.  0.
    9900012    2    3    3    0    0  0.86997821549E+01  0.24368567522E+02  0.26197001120E+02  0.54366862588E+02  0.39999494839E+02 0.  0.
         12    1    3    3    0    0 -0.86997821549E+01 -0.24368567522E+02 -0.26197001120E+02  0.36821137412E+02  0.00000000000E+00 0. -1.
         11    1    4    4    0    0 -0.91646913420E+01  0.36268501435E+01 -0.21212893645E+00  0.98585297232E+01  0.51100000000E-03 0. -1.
        -11    1    4    4    0    0  0.47051215221E+01  0.10004737951E+01 -0.37759550153E+01  0.61153048077E+01  0.51100000000E-03 0.  1.
        -12    1    4    4    0    0  0.13159351975E+02  0.19741243583E+02  0.30185085072E+02  0.38393028057E+02  0.00000000000E+00 0.  1.
</event>
<event>
 8    1  0.1253488E-006  0.9118800E+02  0.7816164E-02  0.1184000E+00
        -11   -1    0    0    0    0  0.00000000000E+00  0.00000000000E+00  0.45593999997E+02  0.45594000000E+02  0.51100000000E-03 0.  1.
         11   -1    0    0    0    0 -0.00000000000E+00 -0.00000000000E+00 -0.45593999997E+02  0.45594000000E+02  0.51100000000E-03 0. -1.
         23    2    1    2    0    0  0.00000000000E+00  0.00000000000E+00 -0.35527136788E-14  0.91188000000E+02  0.91188000000E+02 0.  0.
    9900012    2    3    3    0    0  0.20681656226E+02  0.82265193157E+01  0.29332135622E+02  0.54367072466E+02  0.39999973300E+02 0.  0.
         12    1    3    3    0    0 -0.20681656226E+02 -0.82265193157E+01 -0.29332135622E+02  0.36820927534E+02  0.00000000000E+00 0. -1.
         11    1    4    4    0    0  0.34701675306E+00 -0.77549416153E+01  0.58877167886E-01  0.77629251487E+01  0.51100000000E-03 0. -1.
        -11    1    4    4    0    0 -0.58998253233E+01  0.19434222719E+01  0.29471936882E+01  0.68753748893E+01  0.51100000000E-03 0.  1.
         12    1    4    4    0    0  0.26234464796E+02  0.14038038659E+02  0.26326064766E+02  0.39728772428E+02  0.00000000000E+00 0. -1.
</event>
<event>
 8    1  0.1253488E-006  0.9118800E+02  0.7816164E-02  0.1184000E+00
        -11   -1    0    0    0    0  0.00000000000E+00  0.00000000000E+00  0.45593999997E+02  0.45594000000E+02  0.51100000000E-03 0. -1.
         11   -1    0    0    0    0 -0.00000000000E+00 -0.00000000000E+00 -0.45593999997E+02  0.45594000000E+02  0.51100000000E-03 0.  1.
         23    2    1    2    0    0  0.00000000000E+00 -0.88817841970E-15  0.00000000000E+00  0.91188000000E+02  0.91188000000E+02 0.  0.
    9900012    2    3    3    0    0  0.10925507196E+02 -0.46309735230E+00 -0.35159622123E+02  0.54367079391E+02  0.39999989088E+02 0.  0.
         12    1    3    3    0    0 -0.10925507196E+02  0.46309735230E+00  0.35159622123E+02  0.36820920609E+02  0.00000000000E+00 0. -1.
         11    1    4    4    0    0  0.43065688412E+01  0.85762081421E+01 -0.32702194166E+01  0.10138649643E+02  0.51100000000E-03 0. -1.
        -11    1    4    4    0    0  0.13639582034E+02 -0.23448203987E+01 -0.35687103871E+01  0.14292378208E+02  0.51100000000E-03 0.  1.
        -12    1    4    4    0    0 -0.70206436792E+01 -0.66944850956E+01 -0.28320692319E+02  0.29936051540E+02  0.00000000000E+00 0.  1.
</event>
<event>
 8    1  0.1253488E-006  0.9118800E+02  0.7816164E-02  0.1184000E+00
        -11   -1    0    0    0    0  0.00000000000E+00  0.00000000000E+00  0.45593999997E+02  0.45594000000E+02  0.51100000000E-03 0.  1.
         11   -1    0    0    0    0 -0.00000000000E+00 -0.00000000000E+00 -0.45593999997E+02  0.45594000000E+02  0.51100000000E-03 0. -1.
         23    2    1    2    0    0  0.00000000000E+00  0.00000000000E+00  0.17763568394E-14  0.91188000000E+02  0.91188000000E+02 0.  0.
    9900012    2    3    3    0    0  0.34518374179E+02 -0.10236224843E+02 -0.77124363365E+01  0.54367080277E+02  0.39999991108E+02 0.  0.
        -12    1    3    3    0    0 -0.34518374179E+02  0.10236224843E+02  0.77124363365E+01  0.36820919723E+02  0.00000000000E+00 0.  1.
         11    1    4    4    0    0  0.29902736142E+02  0.84929934480E+01 -0.51664606679E+01  0.31511853049E+02  0.51100000000E-03 0. -1.
        -11    1    4    4    0    0 -0.54331200232E+00 -0.34460348726E+01 -0.54446590802E+01  0.64664253676E+01  0.51100000000E-03 0.  1.
         12    1    4    4    0    0  0.51589500393E+01 -0.15283183419E+02  0.28986834116E+01  0.16388801861E+02  0.00000000000E+00 0. -1.
</event>
<event>
 8    1  0.1253488E-006  0.9118800E+02  0.7816164E-02  0.1184000E+00
        -11   -1    0    0    0    0  0.00000000000E+00  0.00000000000E+00  0.45593999997E+02  0.45594000000E+02  0.51100000000E-03 0. -1.
         11   -1    0    0    0    0 -0.00000000000E+00 -0.00000000000E+00 -0.45593999997E+02  0.45594000000E+02  0.51100000000E-03 0.  1.
         23    2    1    2    0    0  0.00000000000E+00  0.00000000000E+00  0.00000000000E+00  0.91188000000E+02  0.91188000000E+02 0.  0.
    9900012    2    3    3    0    0 -0.18185634415E+02 -0.20959225663E+02  0.24202740794E+02  0.54367094234E+02  0.40000022925E+02 0.  0.
        -12    1    3    3    0    0  0.18185634415E+02  0.20959225663E+02 -0.24202740794E+02  0.36820905766E+02  0.00000000000E+00 0.  1.
         11    1    4    4    0    0 -0.10705887629E+02  0.30208715829E+00  0.28399246321E+01  0.11080273406E+02  0.51100000000E-03 0. -1.
        -11    1    4    4    0    0 -0.24383860053E+01 -0.22879092684E+02  0.18663561196E+01  0.23084234746E+02  0.51100000000E-03 0.  1.
        -12    1    4    4    0    0 -0.50413607805E+01  0.16177798632E+01  0.19496460042E+02  0.20202586082E+02  0.00000000000E+00 0.  1.
</event>
<event>
 8    1  0.1253488E-006  0.9118800E+02  0.7816164E-02  0.1184000E+00
        -11   -1    0    0    0    0  0.00000000000E+00  0.00000000000E+00  0.45593999997E+02  0.45594000000E+02  0.51100000000E-03 0.  1.
         11   -1    0    0    0    0 -0.00000000000E+00 -0.00000000000E+00 -0.45593999997E+02  0.45594000000E+02  0.51100000000E-03 0. -1.
         23    2    1    2    0    0  0.00000000000E+00  0.00000000000E+00  0.00000000000E+00  0.91188000000E+02  0.91188000000E+02 0.  0.
    9900012    2    3    3    0    0 -0.19417111535E+01 -0.97228654149E+01  0.35460889412E+02  0.54367095177E+02  0.40000025075E+02 0.  0.
         12    1    3    3    0    0  0.19417111535E+01  0.97228654149E+01 -0.35460889412E+02  0.36820904823E+02  0.00000000000E+00 0. -1.
         11    1    4    4    0    0  0.65549300697E+01 -0.19533388238E+02  0.11241505000E+02  0.23471084321E+02  0.51100000000E-03 0. -1.
        -11    1    4    4    0    0 -0.40936765418E+01  0.80649699804E+01  0.35916302924E+01  0.97314817388E+01  0.51100000000E-03 0.  1.
         12    1    4    4    0    0 -0.44029646814E+01  0.17455528428E+01  0.20627754120E+02  0.21164529117E+02  0.00000000000E+00 0. -1.
</event>
<event>
 8    1  0.1253488E-006  0.9118800E+02  0.7816164E-02  0.1184000E+00
        -11   -1    0    0    0    0  0.00000000000E+00  0.00000000000E+00  0.45593999997E+02  0.45594000000E+02  0.51100000000E-03 0.  1.
         11   -1    0    0    0    0 -0.00000000000E+00 -0.00000000000E+00 -0.45593999997E+02  0.45594000000E+02  0.51100000000E-03 0. -1.
         23    2    1    2    0    0  0.00000000000E+00  0.00000000000E+00  0.00000000000E+00  0.91188000000E+02  0.91188000000E+02 0.  0.
    9900012    2    3    3    0    0  0.93636876291E+01  0.50108157251E+01  0.35256074976E+02  0.54367112681E+02  0.40000064979E+02 0.  0.
         12    1    3    3    0    0 -0.93636876291E+01 -0.50108157251E+01 -0.35256074976E+02  0.36820887319E+02  0.00000000000E+00 0. -1.
         11    1    4    4    0    0 -0.95959368357E+01  0.31289152432E+01  0.90002160853E+01  0.13523165465E+02  0.51100000000E-03 0. -1.
        -11    1    4    4    0    0  0.22380837897E+02  0.83144973526E+01  0.21610519228E+02  0.32203218981E+02  0.51100000000E-03 0.  1.
        -12    1    4    4    0    0 -0.34212134318E+01 -0.64325968707E+01  0.46453396627E+01  0.86407282348E+01  0.00000000000E+00 0.  1.
</event>
<event>
 8    1  0.1253488E-006  0.9118800E+02  0.7816164E-02  0.1184000E+00
        -11   -1    0    0    0    0  0.00000000000E+00  0.00000000000E+00  0.45593999997E+02  0.45594000000E+02  0.51100000000E-03 0.  1.
         11   -1    0    0    0    0 -0.00000000000E+00 -0.00000000000E+00 -0.45593999997E+02  0.45594000000E+02  0.51100000000E-03 0. -1.
         23    2    1    2    0    0  0.00000000000E+00  0.00000000000E+00  0.00000000000E+00  0.91188000000E+02  0.91188000000E+02 0.  0.
    9900012    2    3    3    0    0  0.12059068532E+02 -0.22131343171E+02  0.26842945170E+02  0.54367337461E+02  0.40000577405E+02 0.  0.
         12    1    3    3    0    0 -0.12059068532E+02  0.22131343171E+02 -0.26842945170E+02  0.36820662539E+02  0.00000000000E+00 0. -1.
         11    1    4    4    0    0 -0.18695677248E+01 -0.14782335375E+02 -0.27610055211E+01  0.15153741266E+02  0.51100000000E-03 0. -1.
        -11    1    4    4    0    0  0.14873593130E+02 -0.93217905464E+01  0.11515766078E+02  0.20993628086E+02  0.51100000000E-03 0.  1.
        -12    1    4    4    0    0 -0.94495687301E+00  0.19727827503E+01  0.18088184613E+02  0.18219968109E+02  0.00000000000E+00 0.  1.
</event>
<event>
 8    1  0.1253488E-006  0.9118800E+02  0.7816164E-02  0.1184000E+00
        -11   -1    0    0    0    0  0.00000000000E+00  0.00000000000E+00  0.45593999997E+02  0.45594000000E+02  0.51100000000E-03 0.  1.
         11   -1    0    0    0    0 -0.00000000000E+00 -0.00000000000E+00 -0.45593999997E+02  0.45594000000E+02  0.51100000000E-03 0. -1.
         23    2    1    2    0    0  0.00000000000E+00  0.00000000000E+00  0.00000000000E+00  0.91188000000E+02  0.91188000000E+02 0.  0.
    9900012    2    3    3    0    0  0.35029267954E+02 -0.10533885170E+02  0.42151630959E+01  0.54367082709E+02  0.39999996653E+02 0.  0.
        -12    1    3    3    0    0 -0.35029267954E+02  0.10533885170E+02 -0.42151630959E+01  0.36820917291E+02  0.00000000000E+00 0.  1.
         11    1    4    4    0    0 -0.12894438332E+01 -0.61397573071E-01  0.48016561335E+01  0.49721561667E+01  0.51100000000E-03 0. -1.
        -11    1    4    4    0    0  0.12543228228E+02  0.12540855056E+01  0.14241981504E+02  0.19019446424E+02  0.51100000000E-03 0.  1.
         12    1    4    4    0    0  0.23775483560E+02 -0.11726573103E+02 -0.14828474542E+02  0.30375480119E+02  0.00000000000E+00 0. -1.
</event>
<event>
 8    1  0.1253488E-006  0.9118800E+02  0.7816164E-02  0.1184000E+00
        -11   -1    0    0    0    0  0.00000000000E+00  0.00000000000E+00  0.45593999997E+02  0.45594000000E+02  0.51100000000E-03 0.  1.
         11   -1    0    0    0    0 -0.00000000000E+00 -0.00000000000E+00 -0.45593999997E+02  0.45594000000E+02  0.51100000000E-03 0. -1.
         23    2    1    2    0    0  0.88817841970E-15 -0.35527136788E-14  0.35527136788E-14  0.91188000000E+02  0.91188000000E+02 0.  0.
    9900012    2    3    3    0    0 -0.64481940744E+01 -0.18004947330E+02 -0.31464617554E+02  0.54367088917E+02  0.40000010804E+02 0.  0.
        -12    1    3    3    0    0  0.64481940744E+01  0.18004947330E+02  0.31464617554E+02  0.36820911083E+02  0.00000000000E+00 0.  1.
         11    1    4    4    0    0 -0.12592491420E+02 -0.20738130325E+02 -0.27212121673E+02  0.36457378619E+02  0.51100000000E-03 0. -1.
        -11    1    4    4    0    0  0.11444812761E+01  0.51474694793E+01  0.49041973204E+01  0.72012103879E+01  0.51100000000E-03 0.  1.
        -12    1    4    4    0    0  0.49998160693E+01 -0.24142864846E+01 -0.91566932009E+01  0.10708499910E+02  0.00000000000E+00 0.  1.
</event>
<event>
 8    1  0.1253488E-006  0.9118800E+02  0.7816164E-02  0.1184000E+00
        -11   -1    0    0    0    0  0.00000000000E+00  0.00000000000E+00  0.45593999997E+02  0.45594000000E+02  0.51100000000E-03 0.  1.
         11   -1    0    0    0    0 -0.00000000000E+00 -0.00000000000E+00 -0.45593999997E+02  0.45594000000E+02  0.51100000000E-03 0. -1.
         23    2    1    2    0    0  0.00000000000E+00 -0.35527136788E-14  0.00000000000E+00  0.91188000000E+02  0.91188000000E+02 0.  0.
    9900012    2    3    3    0    0 -0.17596685897E+02  0.23913413994E+02  0.21778096059E+02  0.54367079434E+02  0.39999989185E+02 0.  0.
         12    1    3    3    0    0  0.17596685897E+02 -0.23913413994E+02 -0.21778096059E+02  0.36820920566E+02  0.00000000000E+00 0. -1.
         11    1    4    4    0    0  0.37659911902E+01  0.11338398371E+02 -0.18757185093E+01  0.12093811949E+02  0.51100000000E-03 0. -1.
        -11    1    4    4    0    0 -0.11362020143E+02 -0.50736523043E+01  0.20016486459E+01  0.12603334757E+02  0.51100000000E-03 0.  1.
        -12    1    4    4    0    0 -0.10000656944E+02  0.17648667927E+02  0.21652165923E+02  0.29669932727E+02  0.00000000000E+00 0.  1.
</event>
<event>
 8    1  0.1253488E-006  0.9118800E+02  0.7816164E-02  0.1184000E+00
        -11   -1    0    0    0    0  0.00000000000E+00  0.00000000000E+00  0.45593999997E+02  0.45594000000E+02  0.51100000000E-03 0.  1.
         11   -1    0    0    0    0 -0.00000000000E+00 -0.00000000000E+00 -0.45593999997E+02  0.45594000000E+02  0.51100000000E-03 0. -1.
         23    2    1    2    0    0  0.00000000000E+00 -0.17763568394E-14  0.00000000000E+00  0.91188000000E+02  0.91188000000E+02 0.  0.
    9900012    2    3    3    0    0 -0.30746422115E+02  0.10046858845E+02  0.17592675616E+02  0.54367026617E+02  0.39999868779E+02 0.  0.
         12    1    3    3    0    0  0.30746422115E+02 -0.10046858845E+02 -0.17592675616E+02  0.36820973383E+02  0.00000000000E+00 0. -1.
         11    1    4    4    0    0 -0.41990412115E+01  0.72843984960E+01  0.39349669376E+01  0.92832307741E+01  0.51100000000E-03 0.  1.
        -11    1    4    4    0    0 -0.33466325413E+02  0.67780392199E+00  0.50613106825E+01  0.33853673669E+02  0.51100000000E-03 0. -1.
        -12    1    4    4    0    0  0.69189445091E+01  0.20846564271E+01  0.85963979962E+01  0.11230122174E+02  0.00000000000E+00 0.  1.
</event>
<event>
 8    1  0.1253488E-006  0.9118800E+02  0.7816164E-02  0.1184000E+00
        -11   -1    0    0    0    0  0.00000000000E+00  0.00000000000E+00  0.45593999997E+02  0.45594000000E+02  0.51100000000E-03 0.  1.
         11   -1    0    0    0    0 -0.00000000000E+00 -0.00000000000E+00 -0.45593999997E+02  0.45594000000E+02  0.51100000000E-03 0. -1.
         23    2    1    2    0    0  0.00000000000E+00  0.00000000000E+00  0.00000000000E+00  0.91188000000E+02  0.91188000000E+02 0.  0.
    9900012    2    3    3    0    0  0.13002527715E+02 -0.22678482467E+02 -0.25930718323E+02  0.54367062387E+02  0.39999950323E+02 0.  0.
        -12    1    3    3    0    0 -0.13002527715E+02  0.22678482467E+02  0.25930718323E+02  0.36820937613E+02  0.00000000000E+00 0.  1.
         11    1    4    4    0    0  0.36172571928E+01 -0.27693596644E+02 -0.13300850738E+02  0.30934325195E+02  0.51100000000E-03 0. -1.
        -11    1    4    4    0    0 -0.57731455828E+00 -0.44757316297E+01  0.33767356747E+00  0.45254269876E+01  0.51100000000E-03 0.  1.
         12    1    4    4    0    0  0.99625850805E+01  0.94908458069E+01 -0.12967541152E+02  0.18907310204E+02  0.00000000000E+00 0. -1.
</event>
<event>
 8    1  0.1253488E-006  0.9118800E+02  0.7816164E-02  0.1184000E+00
        -11   -1    0    0    0    0  0.00000000000E+00  0.00000000000E+00  0.45593999997E+02  0.45594000000E+02  0.51100000000E-03 0.  1.
         11   -1    0    0    0    0 -0.00000000000E+00 -0.00000000000E+00 -0.45593999997E+02  0.45594000000E+02  0.51100000000E-03 0. -1.
         23    2    1    2    0    0  0.00000000000E+00  0.00000000000E+00  0.00000000000E+00  0.91188000000E+02  0.91188000000E+02 0.  0.
    9900012    2    3    3    0    0  0.17068710997E+02 -0.93643095913E+01 -0.31252966040E+02  0.54367094586E+02  0.40000023727E+02 0.  0.
        -12    1    3    3    0    0 -0.17068710997E+02  0.93643095913E+01  0.31252966040E+02  0.36820905414E+02  0.00000000000E+00 0.  1.
         11    1    4    4    0    0  0.12273786921E+02 -0.10820138489E+01 -0.22291128884E+02  0.25469806174E+02  0.51100000000E-03 0. -1.
        -11    1    4    4    0    0  0.64720498243E+01 -0.15948448204E+02 -0.30690324636E+00  0.17214372452E+02  0.51100000000E-03 0.  1.
         12    1    4    4    0    0 -0.16771257490E+01  0.76661524617E+01 -0.86549339100E+01  0.11682915960E+02  0.00000000000E+00 0. -1.
</event>
<event>
 8    1  0.1253488E-006  0.9118800E+02  0.7816164E-02  0.1184000E+00
        -11   -1    0    0    0    0  0.00000000000E+00  0.00000000000E+00  0.45593999997E+02  0.45594000000E+02  0.51100000000E-03 0.  1.
         11   -1    0    0    0    0 -0.00000000000E+00 -0.00000000000E+00 -0.45593999997E+02  0.45594000000E+02  0.51100000000E-03 0. -1.
         23    2    1    2    0    0 -0.23314683517E-14  0.44408920985E-15 -0.14210854715E-13  0.91188000000E+02  0.91188000000E+02 0.  0.
    9900012    2    3    3    0    0  0.60780583161E+00  0.34483716961E+01 -0.36654051521E+02  0.54367079476E+02  0.39999989282E+02 0.  0.
        -12    1    3    3    0    0 -0.60780583161E+00 -0.34483716961E+01  0.36654051521E+02  0.36820920524E+02  0.00000000000E+00 0.  1.
         11    1    4    4    0    0  0.75865048080E+01  0.17187079645E+00 -0.29450036535E+00  0.75941639105E+01  0.51100000000E-03 0. -1.
        -11    1    4    4    0    0 -0.52536538883E+01 -0.72324425112E+00  0.37069378618E+01  0.64703438856E+01  0.51100000000E-03 0.  1.
         12    1    4    4    0    0 -0.17250450881E+01  0.39997451508E+01 -0.40066489018E+02  0.40302571680E+02  0.00000000000E+00 0. -1.
</event>
<event>
 8    1  0.1253488E-006  0.9118800E+02  0.7816164E-02  0.1184000E+00
        -11   -1    0    0    0    0  0.00000000000E+00  0.00000000000E+00  0.45593999997E+02  0.45594000000E+02  0.51100000000E-03 0.  1.
         11   -1    0    0    0    0 -0.00000000000E+00 -0.00000000000E+00 -0.45593999997E+02  0.45594000000E+02  0.51100000000E-03 0. -1.
         23    2    1    2    0    0  0.00000000000E+00 -0.66613381478E-15 -0.35527136788E-14  0.91188000000E+02  0.91188000000E+02 0.  0.
    9900012    2    3    3    0    0  0.29998735800E+02 -0.13990728009E+01 -0.21304888092E+02  0.54367084599E+02  0.40000000961E+02 0.  0.
        -12    1    3    3    0    0 -0.29998735800E+02  0.13990728009E+01  0.21304888092E+02  0.36820915401E+02  0.00000000000E+00 0.  1.
         11    1    4    4    0    0  0.53751757237E+01 -0.15743242452E+02 -0.12993940256E+02  0.21108876820E+02  0.51100000000E-03 0. -1.
        -11    1    4    4    0    0  0.10022562710E+02 -0.84000814711E+00  0.12305702893E+01  0.10132703512E+02  0.51100000000E-03 0.  1.
         12    1    4    4    0    0  0.14600997367E+02  0.15184177798E+02 -0.95415181249E+01  0.23125504268E+02  0.00000000000E+00 0. -1.
</event>
<event>
 8    1  0.1253488E-006  0.9118800E+02  0.7816164E-02  0.1184000E+00
        -11   -1    0    0    0    0  0.00000000000E+00  0.00000000000E+00  0.45593999997E+02  0.45594000000E+02  0.51100000000E-03 0.  1.
         11   -1    0    0    0    0 -0.00000000000E+00 -0.00000000000E+00 -0.45593999997E+02  0.45594000000E+02  0.51100000000E-03 0. -1.
         23    2    1    2    0    0 -0.35527136788E-14 -0.71054273576E-14  0.27755575616E-15  0.91188000000E+02  0.91188000000E+02 0.  0.
    9900012    2    3    3    0    0  0.21779333033E+02  0.29687091286E+02  0.33814184611E+00  0.54367121734E+02  0.40000085616E+02 0.  0.
        -12    1    3    3    0    0 -0.21779333033E+02 -0.29687091286E+02 -0.33814184611E+00  0.36820878266E+02  0.00000000000E+00 0.  1.
         11    1    4    4    0    0  0.11349687000E+02  0.89587635872E+01 -0.12590841281E+02  0.19173005096E+02  0.51100000000E-03 0. -1.
        -11    1    4    4    0    0 -0.52737031286E+01  0.42590358237E+00  0.71330169064E+01  0.88810623800E+01  0.51100000000E-03 0.  1.
        -12    1    4    4    0    0  0.15703349162E+02  0.20302424117E+02  0.57959662209E+01  0.26313054257E+02  0.00000000000E+00 0.  1.
</event>
<event>
 8    1  0.1253488E-006  0.9118800E+02  0.7816164E-02  0.1184000E+00
        -11   -1    0    0    0    0  0.00000000000E+00  0.00000000000E+00  0.45593999997E+02  0.45594000000E+02  0.51100000000E-03 0.  1.
         11   -1    0    0    0    0 -0.00000000000E+00 -0.00000000000E+00 -0.45593999997E+02  0.45594000000E+02  0.51100000000E-03 0. -1.
         23    2    1    2    0    0  0.00000000000E+00  0.35527136788E-14 -0.35527136788E-14  0.91188000000E+02  0.91188000000E+02 0.  0.
    9900012    2    3    3    0    0  0.12891682794E+01  0.31627272189E+02 -0.18810524622E+02  0.54367053006E+02  0.39999928937E+02 0.  0.
        -12    1    3    3    0    0 -0.12891682794E+01 -0.31627272189E+02  0.18810524622E+02  0.36820946994E+02  0.00000000000E+00 0.  1.
         11    1    4    4    0    0 -0.76027136503E+01  0.45796744585E+01 -0.62697519235E+01  0.10866667495E+02  0.51100000000E-03 0. -1.
        -11    1    4    4    0    0 -0.87280017495E+01  0.38190225095E-01  0.43569724794E+00  0.87389533347E+01  0.51100000000E-03 0.  1.
         12    1    4    4    0    0  0.17619883679E+02  0.27009407506E+02 -0.12976469946E+02  0.34761432176E+02  0.00000000000E+00 0. -1.
</event>
<event>
 8    1  0.1253488E-006  0.9118800E+02  0.7816164E-02  0.1184000E+00
        -11   -1    0    0    0    0  0.00000000000E+00  0.00000000000E+00  0.45593999997E+02  0.45594000000E+02  0.51100000000E-03 0.  1.
         11   -1    0    0    0    0 -0.00000000000E+00 -0.00000000000E+00 -0.45593999997E+02  0.45594000000E+02  0.51100000000E-03 0. -1.
         23    2    1    2    0    0  0.17763568394E-14  0.00000000000E+00  0.00000000000E+00  0.91188000000E+02  0.91188000000E+02 0.  0.
    9900012    2    3    3    0    0  0.15963875313E+02 -0.22119576930E+02  0.24731734004E+02  0.54367086575E+02  0.40000005465E+02 0.  0.
         12    1    3    3    0    0 -0.15963875313E+02  0.22119576930E+02 -0.24731734004E+02  0.36820913425E+02  0.00000000000E+00 0. -1.
         11    1    4    4    0    0 -0.13610194743E+00  0.71622664487E+01 -0.81254213786E+00  0.72094943934E+01  0.51100000000E-03 0. -1.
        -11    1    4    4    0    0  0.11301035545E+02 -0.38934813120E+01  0.15173617696E+02  0.19316088511E+02  0.51100000000E-03 0.  1.
         12    1    4    4    0    0  0.47989417160E+01 -0.25388362067E+02  0.10370658446E+02  0.27841503671E+02  0.00000000000E+00 0. -1.
</event>
<event>
 8    1  0.1253488E-006  0.9118800E+02  0.7816164E-02  0.1184000E+00
        -11   -1    0    0    0    0  0.00000000000E+00  0.00000000000E+00  0.45593999997E+02  0.45594000000E+02  0.51100000000E-03 0. -1.
         11   -1    0    0    0    0 -0.00000000000E+00 -0.00000000000E+00 -0.45593999997E+02  0.45594000000E+02  0.51100000000E-03 0.  1.
         23    2    1    2    0    0 -0.19984014443E-14  0.00000000000E+00  0.71054273576E-14  0.91188000000E+02  0.91188000000E+02 0.  0.
    9900012    2    3    3    0    0 -0.18605555721E+01  0.17379994076E+02  0.32407630564E+02  0.54367076874E+02  0.39999983349E+02 0.  0.
        -12    1    3    3    0    0  0.18605555721E+01 -0.17379994076E+02 -0.32407630564E+02  0.36820923126E+02  0.00000000000E+00 0.  1.
         11    1    4    4    0    0 -0.11012753546E+02  0.88525826171E+01  0.16663118717E+02  0.21847390812E+02  0.51100000000E-03 0. -1.
        -11    1    4    4    0    0 -0.87908730008E+01  0.45296215627E+01  0.37853922326E+01  0.10588961905E+02  0.51100000000E-03 0.  1.
        -12    1    4    4    0    0  0.17943070975E+02  0.39977898964E+01  0.11959119614E+02  0.21930724156E+02  0.00000000000E+00 0.  1.
</event>
<event>
 8    1  0.1253488E-006  0.9118800E+02  0.7816164E-02  0.1184000E+00
        -11   -1    0    0    0    0  0.00000000000E+00  0.00000000000E+00  0.45593999997E+02  0.45594000000E+02  0.51100000000E-03 0.  1.
         11   -1    0    0    0    0 -0.00000000000E+00 -0.00000000000E+00 -0.45593999997E+02  0.45594000000E+02  0.51100000000E-03 0. -1.
         23    2    1    2    0    0  0.00000000000E+00  0.88817841970E-15  0.00000000000E+00  0.91188000000E+02  0.91188000000E+02 0.  0.
    9900012    2    3    3    0    0 -0.20317405271E+02 -0.68170285732E+01 -0.29941772226E+02  0.54367101592E+02  0.40000039700E+02 0.  0.
        -12    1    3    3    0    0  0.20317405271E+02  0.68170285732E+01  0.29941772226E+02  0.36820898408E+02  0.00000000000E+00 0.  1.
         11    1    4    4    0    0 -0.14041122661E+02  0.11645086946E+02 -0.20382513834E+02  0.27353391856E+02  0.51100000000E-03 0. -1.
        -11    1    4    4    0    0 -0.31649792924E+01 -0.54768055692E+01  0.43930573493E+01  0.77013924909E+01  0.51100000000E-03 0.  1.
        -12    1    4    4    0    0 -0.31113033184E+01 -0.12985309950E+02 -0.13952315741E+02  0.19312317246E+02  0.00000000000E+00 0.  1.
</event>
<event>
 8    1  0.1253488E-006  0.9118800E+02  0.7816164E-02  0.1184000E+00
        -11   -1    0    0    0    0  0.00000000000E+00  0.00000000000E+00  0.45593999997E+02  0.45594000000E+02  0.51100000000E-03 0.  1.
         11   -1    0    0    0    0 -0.00000000000E+00 -0.00000000000E+00 -0.45593999997E+02  0.45594000000E+02  0.51100000000E-03 0. -1.
         23    2    1    2    0    0  0.00000000000E+00  0.00000000000E+00  0.00000000000E+00  0.91188000000E+02  0.91188000000E+02 0.  0.
    9900012    2    3    3    0    0  0.77813024380E+01  0.30918779302E+02  0.18419009484E+02  0.54367088937E+02  0.40000010849E+02 0.  0.
         12    1    3    3    0    0 -0.77813024380E+01 -0.30918779302E+02 -0.18419009484E+02  0.36820911063E+02  0.00000000000E+00 0. -1.
         11    1    4    4    0    0  0.16415228394E+02  0.26507930525E+02 -0.15111502299E+01  0.31215599933E+02  0.51100000000E-03 0. -1.
        -11    1    4    4    0    0 -0.64630796134E+01  0.53966978467E+01  0.18610062978E+02  0.20426213307E+02  0.51100000000E-03 0.  1.
         12    1    4    4    0    0 -0.21708463426E+01 -0.98584906910E+00  0.13200967355E+01  0.27252756964E+01  0.00000000000E+00 0. -1.
</event>
<event>
 8    1  0.1253488E-006  0.9118800E+02  0.7816164E-02  0.1184000E+00
        -11   -1    0    0    0    0  0.00000000000E+00  0.00000000000E+00  0.45593999997E+02  0.45594000000E+02  0.51100000000E-03 0.  1.
         11   -1    0    0    0    0 -0.00000000000E+00 -0.00000000000E+00 -0.45593999997E+02  0.45594000000E+02  0.51100000000E-03 0. -1.
         23    2    1    2    0    0  0.00000000000E+00  0.00000000000E+00  0.88817841970E-15  0.91188000000E+02  0.91188000000E+02 0.  0.
    9900012    2    3    3    0    0 -0.27473379596E+02  0.23208201990E+02 -0.78975688508E+01  0.54367098058E+02  0.40000031643E+02 0.  0.
        -12    1    3    3    0    0  0.27473379596E+02 -0.23208201990E+02  0.78975688508E+01  0.36820901942E+02  0.00000000000E+00 0.  1.
         11    1    4    4    0    0  0.39227503251E+01 -0.25541099623E+01 -0.10740085011E+02  0.11715838601E+02  0.51100000000E-03 0. -1.
        -11    1    4    4    0    0 -0.15347457122E+02  0.19374484251E+02  0.50811592911E+01  0.25233574065E+02  0.51100000000E-03 0.  1.
        -12    1    4    4    0    0 -0.16048672799E+02  0.63878277017E+01 -0.22386431309E+01  0.17417685392E+02  0.00000000000E+00 0.  1.
</event>
<event>
 8    1  0.1253488E-006  0.9118800E+02  0.7816164E-02  0.1184000E+00
        -11   -1    0    0    0    0  0.00000000000E+00  0.00000000000E+00  0.45593999997E+02  0.45594000000E+02  0.51100000000E-03 0.  1.
         11   -1    0    0    0    0 -0.00000000000E+00 -0.00000000000E+00 -0.45593999997E+02  0.45594000000E+02  0.51100000000E-03 0. -1.
         23    2    1    2    0    0  0.00000000000E+00 -0.17763568394E-14  0.35527136788E-14  0.91188000000E+02  0.91188000000E+02 0.  0.
    9900012    2    3    3    0    0  0.28346744190E+02  0.14593546853E+02 -0.18419653528E+02  0.54366903438E+02  0.39999587966E+02 0.  0.
        -12    1    3    3    0    0 -0.28346744190E+02 -0.14593546853E+02  0.18419653528E+02  0.36821096562E+02  0.00000000000E+00 0.  1.
         11    1    4    4    0    0  0.15165975097E+02 -0.16185752699E+01  0.57495382891E+01  0.16299809120E+02  0.51100000000E-03 0. -1.
        -11    1    4    4    0    0  0.84549565757E+01  0.60173705684E+01 -0.24727027468E+02  0.26816430168E+02  0.51100000000E-03 0.  1.
        -12    1    4    4    0    0  0.47258125175E+01  0.10194751555E+02  0.55783565158E+00  0.11250664151E+02  0.00000000000E+00 0.  1.
</event>
<event>
 8    1  0.1253488E-006  0.9118800E+02  0.7816164E-02  0.1184000E+00
        -11   -1    0    0    0    0  0.00000000000E+00  0.00000000000E+00  0.45593999997E+02  0.45594000000E+02  0.51100000000E-03 0.  1.
         11   -1    0    0    0    0 -0.00000000000E+00 -0.00000000000E+00 -0.45593999997E+02  0.45594000000E+02  0.51100000000E-03 0. -1.
         23    2    1    2    0    0  0.35527136788E-14 -0.35527136788E-14  0.00000000000E+00  0.91188000000E+02  0.91188000000E+02 0.  0.
    9900012    2    3    3    0    0  0.14974753041E+02 -0.29415138372E+02 -0.16318308845E+02  0.54367071201E+02  0.39999970416E+02 0.  0.
        -12    1    3    3    0    0 -0.14974753041E+02  0.29415138372E+02  0.16318308845E+02  0.36820928799E+02  0.00000000000E+00 0.  1.
         11    1    4    4    0    0  0.10744050372E+02 -0.22319660137E+01 -0.13035487487E+02  0.17039372787E+02  0.51100000000E-03 0. -1.
        -11    1    4    4    0    0 -0.69794175970E+01 -0.65700230582E+01 -0.90311564224E+01  0.13169633995E+02  0.51100000000E-03 0.  1.
        -12    1    4    4    0    0  0.11210120266E+02 -0.20613149300E+02  0.57483350647E+01  0.24158064418E+02  0.00000000000E+00 0.  1.
</event>
<event>
 8    1  0.1253488E-006  0.9118800E+02  0.7816164E-02  0.1184000E+00
        -11   -1    0    0    0    0  0.00000000000E+00  0.00000000000E+00  0.45593999997E+02  0.45594000000E+02  0.51100000000E-03 0.  1.
         11   -1    0    0    0    0 -0.00000000000E+00 -0.00000000000E+00 -0.45593999997E+02  0.45594000000E+02  0.51100000000E-03 0. -1.
         23    2    1    2    0    0  0.00000000000E+00  0.35527136788E-14  0.00000000000E+00  0.91188000000E+02  0.91188000000E+02 0.  0.
    9900012    2    3    3    0    0  0.16483568591E+02 -0.27798973057E+02 -0.17643421335E+02  0.54367065018E+02  0.39999956321E+02 0.  0.
         12    1    3    3    0    0 -0.16483568591E+02  0.27798973057E+02  0.17643421335E+02  0.36820934982E+02  0.00000000000E+00 0. -1.
         11    1    4    4    0    0  0.49685262593E+01  0.65195516369E+01 -0.30723045934E+01  0.87538484401E+01  0.51100000000E-03 0.  1.
        -11    1    4    4    0    0  0.63594515990E+01 -0.32711473648E+02 -0.37689136592E+01  0.33536365982E+02  0.51100000000E-03 0. -1.
        -12    1    4    4    0    0  0.51555907331E+01 -0.16070510464E+01 -0.10802203083E+02  0.12076850596E+02  0.00000000000E+00 0.  1.
</event>
<event>
 8    1  0.1253488E-006  0.9118800E+02  0.7816164E-02  0.1184000E+00
        -11   -1    0    0    0    0  0.00000000000E+00  0.00000000000E+00  0.45593999997E+02  0.45594000000E+02  0.51100000000E-03 0. -1.
         11   -1    0    0    0    0 -0.00000000000E+00 -0.00000000000E+00 -0.45593999997E+02  0.45594000000E+02  0.51100000000E-03 0.  1.
         23    2    1    2    0    0 -0.35527136788E-14  0.00000000000E+00  0.35527136788E-14  0.91188000000E+02  0.91188000000E+02 0.  0.
    9900012    2    3    3    0    0  0.20849229358E+02  0.13167780519E+02 -0.27344029968E+02  0.54367125710E+02  0.40000094680E+02 0.  0.
         12    1    3    3    0    0 -0.20849229358E+02 -0.13167780519E+02  0.27344029968E+02  0.36820874290E+02  0.00000000000E+00 0. -1.
         11    1    4    4    0    0  0.11605533852E+02  0.45431173799E+01  0.26448511192E+01  0.12740626721E+02  0.51100000000E-03 0.  1.
        -11    1    4    4    0    0 -0.68990575591E+01  0.79047800270E+01 -0.44318768151E+01  0.11389647705E+02  0.51100000000E-03 0. -1.
        -12    1    4    4    0    0  0.16142753065E+02  0.71988311175E+00 -0.25557004272E+02  0.30236851284E+02  0.00000000000E+00 0.  1.
</event>
<event>
 8    1  0.1253488E-006  0.9118800E+02  0.7816164E-02  0.1184000E+00
        -11   -1    0    0    0    0  0.00000000000E+00  0.00000000000E+00  0.45593999997E+02  0.45594000000E+02  0.51100000000E-03 0.  1.
         11   -1    0    0    0    0 -0.00000000000E+00 -0.00000000000E+00 -0.45593999997E+02  0.45594000000E+02  0.51100000000E-03 0. -1.
         23    2    1    2    0    0  0.17763568394E-14 -0.44408920985E-15  0.00000000000E+00  0.91188000000E+02  0.91188000000E+02 0.  0.
    9900012    2    3    3    0    0 -0.85427869410E+01 -0.20211423704E+01 -0.35759143419E+02  0.54367074384E+02  0.39999977673E+02 0.  0.
        -12    1    3    3    0    0  0.85427869410E+01  0.20211423704E+01  0.35759143419E+02  0.36820925616E+02  0.00000000000E+00 0.  1.
         11    1    4    4    0    0 -0.92736629250E+01 -0.12659151249E+02 -0.15546862211E+02  0.22089813473E+02  0.51100000000E-03 0. -1.
        -11    1    4    4    0    0  0.15042804687E+01 -0.71440775699E+01 -0.69589194240E+01  0.10085993450E+02  0.51100000000E-03 0.  1.
        -12    1    4    4    0    0 -0.77340448463E+00  0.17782086449E+02 -0.13253361783E+02  0.22191267461E+02  0.00000000000E+00 0.  1.
</event>
<event>
 8    1  0.1253488E-006  0.9118800E+02  0.7816164E-02  0.1184000E+00
        -11   -1    0    0    0    0  0.00000000000E+00  0.00000000000E+00  0.45593999997E+02  0.45594000000E+02  0.51100000000E-03 0.  1.
         11   -1    0    0    0    0 -0.00000000000E+00 -0.00000000000E+00 -0.45593999997E+02  0.45594000000E+02  0.51100000000E-03 0. -1.
         23    2    1    2    0    0  0.00000000000E+00  0.17763568394E-14 -0.88817841970E-15  0.91188000000E+02  0.91188000000E+02 0.  0.
    9900012    2    3    3    0    0  0.33578186001E+02 -0.12977799846E+02 -0.77370394922E+01  0.54367086865E+02  0.40000006127E+02 0.  0.
        -12    1    3    3    0    0 -0.33578186001E+02  0.12977799846E+02  0.77370394922E+01  0.36820913135E+02  0.00000000000E+00 0.  1.
         11    1    4    4    0    0  0.43805946317E+01 -0.12052712653E+02 -0.39086344037E+01  0.13406525083E+02  0.51100000000E-03 0. -1.
        -11    1    4    4    0    0  0.27716839786E+02 -0.10854559486E+02  0.10789993002E+01  0.29786052258E+02  0.51100000000E-03 0.  1.
        -12    1    4    4    0    0  0.14807515831E+01  0.99294722935E+01 -0.49074043887E+01  0.11174509524E+02  0.00000000000E+00 0.  1.
</event>
<event>
 8    1  0.1253488E-006  0.9118800E+02  0.7816164E-02  0.1184000E+00
        -11   -1    0    0    0    0  0.00000000000E+00  0.00000000000E+00  0.45593999997E+02  0.45594000000E+02  0.51100000000E-03 0. -1.
         11   -1    0    0    0    0 -0.00000000000E+00 -0.00000000000E+00 -0.45593999997E+02  0.45594000000E+02  0.51100000000E-03 0.  1.
         23    2    1    2    0    0  0.00000000000E+00  0.00000000000E+00 -0.88817841970E-15  0.91188000000E+02  0.91188000000E+02 0.  0.
    9900012    2    3    3    0    0 -0.32242558214E+02 -0.17044616563E+02  0.50674401392E+01  0.54367075738E+02  0.39999980759E+02 0.  0.
        -12    1    3    3    0    0  0.32242558214E+02  0.17044616563E+02 -0.50674401392E+01  0.36820924262E+02  0.00000000000E+00 0.  1.
         11    1    4    4    0    0 -0.10663128830E+02 -0.92046980292E+01  0.78421501989E+01  0.16122285888E+02  0.51100000000E-03 0. -1.
        -11    1    4    4    0    0 -0.15829977851E+02 -0.19116329635E+02  0.15517253116E+01  0.24868255048E+02  0.51100000000E-03 0.  1.
        -12    1    4    4    0    0 -0.57494515342E+01  0.11276411101E+02 -0.43264353713E+01  0.13376534801E+02  0.00000000000E+00 0.  1.
</event>
<event>
 8    1  0.1253488E-006  0.9118800E+02  0.7816164E-02  0.1184000E+00
        -11   -1    0    0    0    0  0.00000000000E+00  0.00000000000E+00  0.45593999997E+02  0.45594000000E+02  0.51100000000E-03 0. -1.
         11   -1    0    0    0    0 -0.00000000000E+00 -0.00000000000E+00 -0.45593999997E+02  0.45594000000E+02  0.51100000000E-03 0.  1.
         23    2    1    2    0    0  0.00000000000E+00  0.00000000000E+00  0.13322676296E-14  0.91188000000E+02  0.91188000000E+02 0.  0.
    9900012    2    3    3    0    0  0.89898779465E+01  0.35635410302E+02 -0.22535642055E+01  0.54367096636E+02  0.40000028402E+02 0.  0.
         12    1    3    3    0    0 -0.89898779465E+01 -0.35635410302E+02  0.22535642055E+01  0.36820903364E+02  0.00000000000E+00 0. -1.
         11    1    4    4    0    0  0.35882964393E+01  0.11080010432E+02  0.57262074837E+01  0.12978133722E+02  0.51100000000E-03 0.  1.
        -11    1    4    4    0    0 -0.24298552632E+01 -0.40953204481E+01  0.67299408467E+01  0.82442677197E+01  0.51100000000E-03 0. -1.
         12    1    4    4    0    0  0.78314367704E+01  0.28650720318E+02 -0.14709712536E+02  0.33144695195E+02  0.00000000000E+00 0. -1.
</event>
<event>
 8    1  0.1253488E-006  0.9118800E+02  0.7816164E-02  0.1184000E+00
        -11   -1    0    0    0    0  0.00000000000E+00  0.00000000000E+00  0.45593999997E+02  0.45594000000E+02  0.51100000000E-03 0. -1.
         11   -1    0    0    0    0 -0.00000000000E+00 -0.00000000000E+00 -0.45593999997E+02  0.45594000000E+02  0.51100000000E-03 0.  1.
         23    2    1    2    0    0  0.00000000000E+00  0.35527136788E-14  0.00000000000E+00  0.91188000000E+02  0.91188000000E+02 0.  0.
    9900012    2    3    3    0    0  0.59946105674E+01  0.20532076187E+02 -0.29971296323E+02  0.54367080516E+02  0.39999991651E+02 0.  0.
         12    1    3    3    0    0 -0.59946105674E+01 -0.20532076187E+02  0.29971296323E+02  0.36820919484E+02  0.00000000000E+00 0. -1.
         11    1    4    4    0    0  0.63984187100E+01 -0.69526385622E+00 -0.10113943157E+02  0.11988119130E+02  0.51100000000E-03 0. -1.
        -11    1    4    4    0    0 -0.39967733998E+01  0.21373456980E+01  0.75379510909E+01  0.87956325044E+01  0.51100000000E-03 0.  1.
        -12    1    4    4    0    0  0.35929652573E+01  0.19089994345E+02 -0.27395304257E+02  0.33583328881E+02  0.00000000000E+00 0.  1.
</event>
<event>
 8    1  0.1253488E-006  0.9118800E+02  0.7816164E-02  0.1184000E+00
        -11   -1    0    0    0    0  0.00000000000E+00  0.00000000000E+00  0.45593999997E+02  0.45594000000E+02  0.51100000000E-03 0. -1.
         11   -1    0    0    0    0 -0.00000000000E+00 -0.00000000000E+00 -0.45593999997E+02  0.45594000000E+02  0.51100000000E-03 0.  1.
         23    2    1    2    0    0 -0.35527136788E-14  0.35527136788E-14 -0.17763568394E-14  0.91188000000E+02  0.91188000000E+02 0.  0.
    9900012    2    3    3    0    0 -0.25161705186E+02  0.24220932502E+02  0.11662537399E+02  0.54367085322E+02  0.40000002608E+02 0.  0.
        -12    1    3    3    0    0  0.25161705186E+02 -0.24220932502E+02 -0.11662537399E+02  0.36820914678E+02  0.00000000000E+00 0.  1.
         11    1    4    4    0    0 -0.38782278285E+01  0.16859586241E+01  0.13962563006E+02  0.14588909265E+02  0.51100000000E-03 0. -1.
        -11    1    4    4    0    0 -0.10610819761E+02 -0.32745210459E+01  0.26435434508E+01  0.11414915958E+02  0.51100000000E-03 0.  1.
        -12    1    4    4    0    0 -0.10672657597E+02  0.25809494924E+02 -0.49435690580E+01  0.28363260099E+02  0.00000000000E+00 0.  1.
</event>
<event>
 8    1  0.1253488E-006  0.9118800E+02  0.7816164E-02  0.1184000E+00
        -11   -1    0    0    0    0  0.00000000000E+00  0.00000000000E+00  0.45593999997E+02  0.45594000000E+02  0.51100000000E-03 0.  1.
         11   -1    0    0    0    0 -0.00000000000E+00 -0.00000000000E+00 -0.45593999997E+02  0.45594000000E+02  0.51100000000E-03 0. -1.
         23    2    1    2    0    0  0.00000000000E+00  0.35527136788E-14  0.00000000000E+00  0.91188000000E+02  0.91188000000E+02 0.  0.
    9900012    2    3    3    0    0  0.18199776343E+02 -0.18664011382E+02  0.26003878908E+02  0.54367096995E+02  0.40000029220E+02 0.  0.
         12    1    3    3    0    0 -0.18199776343E+02  0.18664011382E+02 -0.26003878908E+02  0.36820903005E+02  0.00000000000E+00 0. -1.
         11    1    4    4    0    0  0.71305388168E+01  0.53714977802E+01  0.25345984764E+01  0.92801811361E+01  0.51100000000E-03 0. -1.
        -11    1    4    4    0    0  0.10138513663E+02  0.28046648301E+01  0.11790989745E+02  0.15801362078E+02  0.51100000000E-03 0.  1.
        -12    1    4    4    0    0  0.93072386298E+00 -0.26840173993E+02  0.11678290687E+02  0.29285553781E+02  0.00000000000E+00 0.  1.
</event>
<event>
 8    1  0.1253488E-006  0.9118800E+02  0.7816164E-02  0.1184000E+00
        -11   -1    0    0    0    0  0.00000000000E+00  0.00000000000E+00  0.45593999997E+02  0.45594000000E+02  0.51100000000E-03 0.  1.
         11   -1    0    0    0    0 -0.00000000000E+00 -0.00000000000E+00 -0.45593999997E+02  0.45594000000E+02  0.51100000000E-03 0. -1.
         23    2    1    2    0    0 -0.17763568394E-14  0.00000000000E+00  0.00000000000E+00  0.91188000000E+02  0.91188000000E+02 0.  0.
    9900012    2    3    3    0    0 -0.88428390669E+01 -0.11196496075E+02  0.33944419430E+02  0.54367069301E+02  0.39999966086E+02 0.  0.
         12    1    3    3    0    0  0.88428390669E+01  0.11196496075E+02 -0.33944419430E+02  0.36820930699E+02  0.00000000000E+00 0. -1.
         11    1    4    4    0    0  0.36704947503E+01 -0.33424517766E+01  0.39061025602E+01  0.63168151044E+01  0.51100000000E-03 0. -1.
        -11    1    4    4    0    0  0.65234457692E+01  0.96086264691E+01  0.81097318200E+01  0.14165055516E+02  0.51100000000E-03 0.  1.
        -12    1    4    4    0    0 -0.19036779586E+02 -0.17462670767E+02  0.21928585050E+02  0.33885198680E+02  0.00000000000E+00 0.  1.
</event>
<event>
 8    1  0.1253488E-006  0.9118800E+02  0.7816164E-02  0.1184000E+00
        -11   -1    0    0    0    0  0.00000000000E+00  0.00000000000E+00  0.45593999997E+02  0.45594000000E+02  0.51100000000E-03 0. -1.
         11   -1    0    0    0    0 -0.00000000000E+00 -0.00000000000E+00 -0.45593999997E+02  0.45594000000E+02  0.51100000000E-03 0.  1.
         23    2    1    2    0    0  0.00000000000E+00  0.00000000000E+00 -0.88817841970E-15  0.91188000000E+02  0.91188000000E+02 0.  0.
    9900012    2    3    3    0    0  0.17887875411E+02 -0.32097995874E+02 -0.23501738394E+01  0.54367071944E+02  0.39999972111E+02 0.  0.
         12    1    3    3    0    0 -0.17887875411E+02  0.32097995874E+02  0.23501738394E+01  0.36820928056E+02  0.00000000000E+00 0. -1.
         11    1    4    4    0    0  0.53228278591E+01 -0.38454448567E+01  0.88304502689E+01  0.11004398883E+02  0.51100000000E-03 0. -1.
        -11    1    4    4    0    0  0.41177560580E+01 -0.18768514544E+02  0.76229246458E+01  0.20671769000E+02  0.51100000000E-03 0.  1.
        -12    1    4    4    0    0  0.84472914937E+01 -0.94840364725E+01 -0.18803548754E+02  0.22690904062E+02  0.00000000000E+00 0.  1.
</event>
<event>
 8    1  0.1253488E-006  0.9118800E+02  0.7816164E-02  0.1184000E+00
        -11   -1    0    0    0    0  0.00000000000E+00  0.00000000000E+00  0.45593999997E+02  0.45594000000E+02  0.51100000000E-03 0. -1.
         11   -1    0    0    0    0 -0.00000000000E+00 -0.00000000000E+00 -0.45593999997E+02  0.45594000000E+02  0.51100000000E-03 0.  1.
         23    2    1    2    0    0  0.00000000000E+00  0.00000000000E+00  0.00000000000E+00  0.91188000000E+02  0.91188000000E+02 0.  0.
    9900012    2    3    3    0    0 -0.30816806294E+02 -0.77017952545E+01 -0.18622046762E+02  0.54367165871E+02  0.40000186237E+02 0.  0.
         12    1    3    3    0    0  0.30816806294E+02  0.77017952545E+01  0.18622046762E+02  0.36820834129E+02  0.00000000000E+00 0. -1.
         11    1    4    4    0    0 -0.14776055828E+02 -0.17824693524E+01 -0.13574198620E+02  0.20143681175E+02  0.51100000000E-03 0.  1.
        -11    1    4    4    0    0  0.73826797641E+01 -0.48233215780E+01 -0.61455055481E+01  0.10748750171E+02  0.51100000000E-03 0. -1.
         12    1    4    4    0    0 -0.23423430231E+02 -0.10960043240E+01  0.10976574069E+01  0.23474734525E+02  0.00000000000E+00 0. -1.
</event>
<event>
 8    1  0.1253488E-006  0.9118800E+02  0.7816164E-02  0.1184000E+00
        -11   -1    0    0    0    0  0.00000000000E+00  0.00000000000E+00  0.45593999997E+02  0.45594000000E+02  0.51100000000E-03 0.  1.
         11   -1    0    0    0    0 -0.00000000000E+00 -0.00000000000E+00 -0.45593999997E+02  0.45594000000E+02  0.51100000000E-03 0. -1.
         23    2    1    2    0    0  0.00000000000E+00  0.00000000000E+00  0.00000000000E+00  0.91188000000E+02  0.91188000000E+02 0.  0.
    9900012    2    3    3    0    0 -0.50668844839E+01 -0.22101219856E+02  0.29011069867E+02  0.54367090012E+02  0.40000013301E+02 0.  0.
         12    1    3    3    0    0  0.50668844839E+01  0.22101219856E+02 -0.29011069867E+02  0.36820909988E+02  0.00000000000E+00 0. -1.
         11    1    4    4    0    0  0.13186900088E+01 -0.29380130451E+01 -0.81601929762E+01  0.87726628604E+01  0.51100000000E-03 0. -1.
        -11    1    4    4    0    0  0.11353714291E+01 -0.86358598569E+00  0.17961531614E+02  0.18018087224E+02  0.51100000000E-03 0.  1.
         12    1    4    4    0    0 -0.75209459217E+01 -0.18299620825E+02  0.19209731229E+02  0.27576339928E+02  0.00000000000E+00 0. -1.
</event>
<event>
 8    1  0.1253488E-006  0.9118800E+02  0.7816164E-02  0.1184000E+00
        -11   -1    0    0    0    0  0.00000000000E+00  0.00000000000E+00  0.45593999997E+02  0.45594000000E+02  0.51100000000E-03 0.  1.
         11   -1    0    0    0    0 -0.00000000000E+00 -0.00000000000E+00 -0.45593999997E+02  0.45594000000E+02  0.51100000000E-03 0. -1.
         23    2    1    2    0    0 -0.88817841970E-15  0.35527136788E-14  0.00000000000E+00  0.91188000000E+02  0.91188000000E+02 0.  0.
    9900012    2    3    3    0    0  0.52737433454E+01 -0.15337364083E+02 -0.33056434227E+02  0.54367150612E+02  0.40000151449E+02 0.  0.
        -12    1    3    3    0    0 -0.52737433454E+01  0.15337364083E+02  0.33056434227E+02  0.36820849388E+02  0.00000000000E+00 0.  1.
         11    1    4    4    0    0  0.92782157862E+01  0.31586411013E+01 -0.16570440472E+02  0.19252059617E+02  0.51100000000E-03 0. -1.
        -11    1    4    4    0    0  0.98864436549E+01 -0.52345122825E+01 -0.95094359260E+01  0.14682345142E+02  0.51100000000E-03 0.  1.
         12    1    4    4    0    0 -0.13890916096E+02 -0.13261492902E+02 -0.69765578287E+01  0.20432745853E+02  0.00000000000E+00 0. -1.
</event>
<event>
 8    1  0.1253488E-006  0.9118800E+02  0.7816164E-02  0.1184000E+00
        -11   -1    0    0    0    0  0.00000000000E+00  0.00000000000E+00  0.45593999997E+02  0.45594000000E+02  0.51100000000E-03 0.  1.
         11   -1    0    0    0    0 -0.00000000000E+00 -0.00000000000E+00 -0.45593999997E+02  0.45594000000E+02  0.51100000000E-03 0. -1.
         23    2    1    2    0    0  0.35527136788E-14 -0.17763568394E-14  0.00000000000E+00  0.91188000000E+02  0.91188000000E+02 0.  0.
    9900012    2    3    3    0    0  0.26825933277E+02 -0.12920565559E+02  0.21661217231E+02  0.54367081455E+02  0.39999993794E+02 0.  0.
         12    1    3    3    0    0 -0.26825933277E+02  0.12920565559E+02 -0.21661217231E+02  0.36820918545E+02  0.00000000000E+00 0. -1.
         11    1    4    4    0    0  0.51474792581E+01  0.19757094622E+01 -0.63060105140E+01  0.83764992363E+01  0.51100000000E-03 0. -1.
        -11    1    4    4    0    0  0.21003270521E+02 -0.16810789866E+02  0.11265502641E+02  0.29165931813E+02  0.51100000000E-03 0.  1.
        -12    1    4    4    0    0  0.67518349788E+00  0.19145148450E+01  0.16701725104E+02  0.16824650406E+02  0.00000000000E+00 0.  1.
</event>
<event>
 8    1  0.1253488E-006  0.9118800E+02  0.7816164E-02  0.1184000E+00
        -11   -1    0    0    0    0  0.00000000000E+00  0.00000000000E+00  0.45593999997E+02  0.45594000000E+02  0.51100000000E-03 0. -1.
         11   -1    0    0    0    0 -0.00000000000E+00 -0.00000000000E+00 -0.45593999997E+02  0.45594000000E+02  0.51100000000E-03 0.  1.
         23    2    1    2    0    0 -0.33306690739E-15 -0.17763568394E-14  0.00000000000E+00  0.91188000000E+02  0.91188000000E+02 0.  0.
    9900012    2    3    3    0    0 -0.21269677008E+00  0.93057363896E+01  0.35624953734E+02  0.54367091562E+02  0.40000016834E+02 0.  0.
        -12    1    3    3    0    0  0.21269677008E+00 -0.93057363896E+01 -0.35624953734E+02  0.36820908438E+02  0.00000000000E+00 0.  1.
         11    1    4    4    0    0 -0.55614092584E+00  0.70095797854E+00  0.55928373314E+01  0.56639619079E+01  0.51100000000E-03 0. -1.
        -11    1    4    4    0    0 -0.11817572192E+02 -0.62819083408E+01  0.40893089913E+00  0.13389720298E+02  0.51100000000E-03 0.  1.
         12    1    4    4    0    0  0.12161016347E+02  0.14886686752E+02  0.29623185503E+02  0.35313409357E+02  0.00000000000E+00 0. -1.
</event>
<event>
 8    1  0.1253488E-006  0.9118800E+02  0.7816164E-02  0.1184000E+00
        -11   -1    0    0    0    0  0.00000000000E+00  0.00000000000E+00  0.45593999997E+02  0.45594000000E+02  0.51100000000E-03 0. -1.
         11   -1    0    0    0    0 -0.00000000000E+00 -0.00000000000E+00 -0.45593999997E+02  0.45594000000E+02  0.51100000000E-03 0.  1.
         23    2    1    2    0    0  0.00000000000E+00 -0.35527136788E-14  0.00000000000E+00  0.91188000000E+02  0.91188000000E+02 0.  0.
    9900012    2    3    3    0    0 -0.25593044418E+02  0.20349400513E+02 -0.16931635666E+02  0.54367050662E+02  0.39999923593E+02 0.  0.
         12    1    3    3    0    0  0.25593044418E+02 -0.20349400513E+02  0.16931635666E+02  0.36820949338E+02  0.00000000000E+00 0. -1.
         11    1    4    4    0    0 -0.27014730184E+02 -0.14414254724E+01 -0.42067134955E+01  0.27378272279E+02  0.51100000000E-03 0.  1.
        -11    1    4    4    0    0  0.17296201855E+01  0.12855854634E+02 -0.21625585280E+01  0.13150712680E+02  0.51100000000E-03 0. -1.
        -12    1    4    4    0    0 -0.30793442011E+00  0.89349713514E+01 -0.10562363643E+02  0.13838065702E+02  0.00000000000E+00 0.  1.
</event>
<event>
 8    1  0.1253488E-006  0.9118800E+02  0.7816164E-02  0.1184000E+00
        -11   -1    0    0    0    0  0.00000000000E+00  0.00000000000E+00  0.45593999997E+02  0.45594000000E+02  0.51100000000E-03 0. -1.
         11   -1    0    0    0    0 -0.00000000000E+00 -0.00000000000E+00 -0.45593999997E+02  0.45594000000E+02  0.51100000000E-03 0.  1.
         23    2    1    2    0    0  0.17763568394E-14  0.00000000000E+00  0.00000000000E+00  0.91188000000E+02  0.91188000000E+02 0.  0.
    9900012    2    3    3    0    0 -0.14518644861E+02 -0.81402774336E+01  0.32843955186E+02  0.54367074461E+02  0.39999977849E+02 0.  0.
        -12    1    3    3    0    0  0.14518644861E+02  0.81402774336E+01 -0.32843955186E+02  0.36820925539E+02  0.00000000000E+00 0.  1.
         11    1    4    4    0    0  0.55692433690E+01  0.29177745741E+01  0.28409729585E+00  0.62936945988E+01  0.51100000000E-03 0. -1.
        -11    1    4    4    0    0  0.53248275820E+01  0.32163551691E+01  0.57090115665E+01  0.84434319254E+01  0.51100000000E-03 0.  1.
        -12    1    4    4    0    0 -0.25412715812E+02 -0.14274407177E+02  0.26850846324E+02  0.39629947937E+02  0.00000000000E+00 0.  1.
</event>
<event>
 8    1  0.1253488E-006  0.9118800E+02  0.7816164E-02  0.1184000E+00
        -11   -1    0    0    0    0  0.00000000000E+00  0.00000000000E+00  0.45593999997E+02  0.45594000000E+02  0.51100000000E-03 0.  1.
         11   -1    0    0    0    0 -0.00000000000E+00 -0.00000000000E+00 -0.45593999997E+02  0.45594000000E+02  0.51100000000E-03 0. -1.
         23    2    1    2    0    0 -0.17763568394E-14 -0.44408920985E-15  0.00000000000E+00  0.91188000000E+02  0.91188000000E+02 0.  0.
    9900012    2    3    3    0    0 -0.13932050144E+02  0.23694638685E+01  0.34000936304E+02  0.54367081356E+02  0.39999993568E+02 0.  0.
         12    1    3    3    0    0  0.13932050144E+02 -0.23694638685E+01 -0.34000936304E+02  0.36820918644E+02  0.00000000000E+00 0. -1.
         11    1    4    4    0    0 -0.19691333704E+02 -0.27411417726E+01  0.26509365134E+02  0.33136217668E+02  0.51100000000E-03 0.  1.
        -11    1    4    4    0    0  0.11973641552E+02  0.35482058407E+01  0.79543761934E+01  0.14806416095E+02  0.51100000000E-03 0. -1.
         12    1    4    4    0    0 -0.62143579921E+01  0.15623998004E+01 -0.46280502360E+00  0.64244475934E+01  0.00000000000E+00 0. -1.
</event>
<event>
 8    1  0.1253488E-006  0.9118800E+02  0.7816164E-02  0.1184000E+00
        -11   -1    0    0    0    0  0.00000000000E+00  0.00000000000E+00  0.45593999997E+02  0.45594000000E+02  0.51100000000E-03 0.  1.
         11   -1    0    0    0    0 -0.00000000000E+00 -0.00000000000E+00 -0.45593999997E+02  0.45594000000E+02  0.51100000000E-03 0. -1.
         23    2    1    2    0    0  0.00000000000E+00  0.00000000000E+00  0.00000000000E+00  0.91188000000E+02  0.91188000000E+02 0.  0.
    9900012    2    3    3    0    0  0.30011612840E+02 -0.17742160256E+02  0.11844688898E+02  0.54367111758E+02  0.40000062875E+02 0.  0.
        -12    1    3    3    0    0 -0.30011612840E+02  0.17742160256E+02 -0.11844688898E+02  0.36820888242E+02  0.00000000000E+00 0.  1.
         11    1    4    4    0    0 -0.64370715450E+01 -0.85091094862E+01 -0.64946641043E+01  0.12490856512E+02  0.51100000000E-03 0. -1.
        -11    1    4    4    0    0  0.33333132318E+02 -0.89438636228E+01  0.17015099112E+02  0.38478617500E+02  0.51100000000E-03 0.  1.
         12    1    4    4    0    0  0.31155520671E+01 -0.28918714682E+00  0.13242538911E+01  0.33976377465E+01  0.00000000000E+00 0. -1.
</event>
<event>
 8    1  0.1253488E-006  0.9118800E+02  0.7816164E-02  0.1184000E+00
        -11   -1    0    0    0    0  0.00000000000E+00  0.00000000000E+00  0.45593999997E+02  0.45594000000E+02  0.51100000000E-03 0.  1.
         11   -1    0    0    0    0 -0.00000000000E+00 -0.00000000000E+00 -0.45593999997E+02  0.45594000000E+02  0.51100000000E-03 0. -1.
         23    2    1    2    0    0  0.18596235662E-14  0.00000000000E+00 -0.13322676296E-14  0.91188000000E+02  0.91188000000E+02 0.  0.
    9900012    2    3    3    0    0 -0.16811611261E+00  0.36674679819E+02 -0.32743680763E+01  0.54367056379E+02  0.39999936628E+02 0.  0.
        -12    1    3    3    0    0  0.16811611261E+00 -0.36674679819E+02  0.32743680763E+01  0.36820943621E+02  0.00000000000E+00 0.  1.
         11    1    4    4    0    0  0.88759544824E+01  0.73179130097E+01 -0.14753296821E+02  0.18708131551E+02  0.51100000000E-03 0. -1.
        -11    1    4    4    0    0 -0.12014798777E+02  0.15760108330E+02  0.74283567241E+01  0.21164047063E+02  0.51100000000E-03 0.  1.
         12    1    4    4    0    0  0.29707281815E+01  0.13596658479E+02  0.40505720204E+01  0.14494877765E+02  0.00000000000E+00 0. -1.
</event>
<event>
 8    1  0.1253488E-006  0.9118800E+02  0.7816164E-02  0.1184000E+00
        -11   -1    0    0    0    0  0.00000000000E+00  0.00000000000E+00  0.45593999997E+02  0.45594000000E+02  0.51100000000E-03 0.  1.
         11   -1    0    0    0    0 -0.00000000000E+00 -0.00000000000E+00 -0.45593999997E+02  0.45594000000E+02  0.51100000000E-03 0. -1.
         23    2    1    2    0    0  0.00000000000E+00 -0.17763568394E-14  0.00000000000E+00  0.91188000000E+02  0.91188000000E+02 0.  0.
    9900012    2    3    3    0    0 -0.33228682537E+02 -0.10601275636E+02  0.11800297986E+02  0.54367089897E+02  0.40000013038E+02 0.  0.
        -12    1    3    3    0    0  0.33228682537E+02  0.10601275636E+02 -0.11800297986E+02  0.36820910103E+02  0.00000000000E+00 0.  1.
         11    1    4    4    0    0 -0.10959955813E+02 -0.10114042224E+02 -0.37272421096E+01  0.15372274247E+02  0.51100000000E-03 0. -1.
        -11    1    4    4    0    0 -0.83138661926E+01 -0.96090952721E+00  0.22049076856E+02  0.23584009596E+02  0.51100000000E-03 0.  1.
        -12    1    4    4    0    0 -0.13954860531E+02  0.47367611510E+00 -0.65215367598E+01  0.15410806054E+02  0.00000000000E+00 0.  1.
</event>
<event>
 8    1  0.1253488E-006  0.9118800E+02  0.7816164E-02  0.1184000E+00
        -11   -1    0    0    0    0  0.00000000000E+00  0.00000000000E+00  0.45593999997E+02  0.45594000000E+02  0.51100000000E-03 0. -1.
         11   -1    0    0    0    0 -0.00000000000E+00 -0.00000000000E+00 -0.45593999997E+02  0.45594000000E+02  0.51100000000E-03 0.  1.
         23    2    1    2    0    0  0.00000000000E+00 -0.88817841970E-15  0.35527136788E-14  0.91188000000E+02  0.91188000000E+02 0.  0.
    9900012    2    3    3    0    0  0.24353901525E+02 -0.41014188600E+01 -0.27310154235E+02  0.54367099950E+02  0.40000035956E+02 0.  0.
         12    1    3    3    0    0 -0.24353901525E+02  0.41014188600E+01  0.27310154235E+02  0.36820900050E+02  0.00000000000E+00 0. -1.
         11    1    4    4    0    0  0.28464608800E+01  0.94701630416E+01  0.48374283964E+01  0.11008498596E+02  0.51100000000E-03 0. -1.
        -11    1    4    4    0    0  0.70211412079E+01 -0.63137047009E+01 -0.28228812842E+01  0.98553513340E+01  0.51100000000E-03 0.  1.
        -12    1    4    4    0    0  0.14486299437E+02 -0.72578772007E+01 -0.29324701347E+02  0.33503250021E+02  0.00000000000E+00 0.  1.
</event>
<event>
 8    1  0.1253488E-006  0.9118800E+02  0.7816164E-02  0.1184000E+00
        -11   -1    0    0    0    0  0.00000000000E+00  0.00000000000E+00  0.45593999997E+02  0.45594000000E+02  0.51100000000E-03 0. -1.
         11   -1    0    0    0    0 -0.00000000000E+00 -0.00000000000E+00 -0.45593999997E+02  0.45594000000E+02  0.51100000000E-03 0.  1.
         23    2    1    2    0    0  0.35527136788E-14  0.00000000000E+00  0.35527136788E-14  0.91188000000E+02  0.91188000000E+02 0.  0.
    9900012    2    3    3    0    0 -0.20387619215E+02 -0.19618592824E+02 -0.23563451810E+02  0.54367075746E+02  0.39999980779E+02 0.  0.
         12    1    3    3    0    0  0.20387619215E+02  0.19618592824E+02  0.23563451810E+02  0.36820924254E+02  0.00000000000E+00 0. -1.
         11    1    4    4    0    0 -0.12688226894E+02 -0.65810165297E+01 -0.56096776916E+01  0.15354783110E+02  0.51100000000E-03 0. -1.
        -11    1    4    4    0    0  0.17045376428E+01 -0.30512425632E+01  0.85127279984E+01  0.92022860199E+01  0.51100000000E-03 0.  1.
        -12    1    4    4    0    0 -0.94039299642E+01 -0.99863337314E+01 -0.26466502117E+02  0.29810006617E+02  0.00000000000E+00 0.  1.
</event>
<event>
 8    1  0.1253488E-006  0.9118800E+02  0.7816164E-02  0.1184000E+00
        -11   -1    0    0    0    0  0.00000000000E+00  0.00000000000E+00  0.45593999997E+02  0.45594000000E+02  0.51100000000E-03 0. -1.
         11   -1    0    0    0    0 -0.00000000000E+00 -0.00000000000E+00 -0.45593999997E+02  0.45594000000E+02  0.51100000000E-03 0.  1.
         23    2    1    2    0    0 -0.22204460493E-14 -0.17763568394E-14  0.00000000000E+00  0.91188000000E+02  0.91188000000E+02 0.  0.
    9900012    2    3    3    0    0 -0.39812278621E+01  0.11653348026E+02 -0.34700547025E+02  0.54367100237E+02  0.40000036610E+02 0.  0.
         12    1    3    3    0    0  0.39812278621E+01 -0.11653348026E+02  0.34700547025E+02  0.36820899763E+02  0.00000000000E+00 0. -1.
         11    1    4    4    0    0  0.11197706540E+02 -0.90171178233E+01 -0.11438185782E+02  0.18371966140E+02  0.51100000000E-03 0. -1.
        -11    1    4    4    0    0 -0.61080267319E+01  0.12032196444E+02 -0.17783229052E+02  0.22323193714E+02  0.51100000000E-03 0.  1.
         12    1    4    4    0    0 -0.90709076697E+01  0.86382694053E+01 -0.54791321913E+01  0.13671940383E+02  0.00000000000E+00 0. -1.
</event>
<event>
 8    1  0.1253488E-006  0.9118800E+02  0.7816164E-02  0.1184000E+00
        -11   -1    0    0    0    0  0.00000000000E+00  0.00000000000E+00  0.45593999997E+02  0.45594000000E+02  0.51100000000E-03 0.  1.
         11   -1    0    0    0    0 -0.00000000000E+00 -0.00000000000E+00 -0.45593999997E+02  0.45594000000E+02  0.51100000000E-03 0. -1.
         23    2    1    2    0    0  0.17763568394E-14  0.35527136788E-14 -0.35527136788E-14  0.91188000000E+02  0.91188000000E+02 0.  0.
    9900012    2    3    3    0    0  0.11343941707E+02  0.15240945632E+02 -0.31540491260E+02  0.54367163152E+02  0.40000180038E+02 0.  0.
        -12    1    3    3    0    0 -0.11343941707E+02 -0.15240945632E+02  0.31540491260E+02  0.36820836848E+02  0.00000000000E+00 0.  1.
         11    1    4    4    0    0 -0.11672789342E+02 -0.71209496347E+00 -0.23370408136E+01  0.11925722213E+02  0.51100000000E-03 0. -1.
        -11    1    4    4    0    0  0.17992244106E+02  0.14252859506E+02 -0.15365767174E+02  0.27621941517E+02  0.51100000000E-03 0.  1.
         12    1    4    4    0    0  0.50244869433E+01  0.17001810899E+01 -0.13837683272E+02  0.14819499422E+02  0.00000000000E+00 0. -1.
</event>
<event>
 8    1  0.1253488E-006  0.9118800E+02  0.7816164E-02  0.1184000E+00
        -11   -1    0    0    0    0  0.00000000000E+00  0.00000000000E+00  0.45593999997E+02  0.45594000000E+02  0.51100000000E-03 0. -1.
         11   -1    0    0    0    0 -0.00000000000E+00 -0.00000000000E+00 -0.45593999997E+02  0.45594000000E+02  0.51100000000E-03 0.  1.
         23    2    1    2    0    0 -0.71054273576E-14  0.88817841970E-15 -0.17763568394E-14  0.91188000000E+02  0.91188000000E+02 0.  0.
    9900012    2    3    3    0    0  0.33547753038E+02 -0.45704457536E+01  0.14471984174E+02  0.54367095147E+02  0.40000025006E+02 0.  0.
         12    1    3    3    0    0 -0.33547753038E+02  0.45704457536E+01 -0.14471984174E+02  0.36820904853E+02  0.00000000000E+00 0. -1.
         11    1    4    4    0    0  0.15279841550E+02 -0.21370260344E+01  0.20376479336E+02  0.25558586590E+02  0.51100000000E-03 0. -1.
        -11    1    4    4    0    0  0.67806590439E+01  0.77421224839E+01  0.34280843896E+01  0.10847560116E+02  0.51100000000E-03 0.  1.
        -12    1    4    4    0    0  0.11487252444E+02 -0.10175542203E+02 -0.93325795512E+01  0.17960948441E+02  0.00000000000E+00 0.  1.
</event>
<event>
 8    1  0.1253488E-006  0.9118800E+02  0.7816164E-02  0.1184000E+00
        -11   -1    0    0    0    0  0.00000000000E+00  0.00000000000E+00  0.45593999997E+02  0.45594000000E+02  0.51100000000E-03 0. -1.
         11   -1    0    0    0    0 -0.00000000000E+00 -0.00000000000E+00 -0.45593999997E+02  0.45594000000E+02  0.51100000000E-03 0.  1.
         23    2    1    2    0    0 -0.16098233857E-14  0.35527136788E-14  0.00000000000E+00  0.91188000000E+02  0.91188000000E+02 0.  0.
    9900012    2    3    3    0    0 -0.28667458437E+00  0.24781534802E+02  0.27231832500E+02  0.54367090848E+02  0.40000015207E+02 0.  0.
         12    1    3    3    0    0  0.28667458437E+00 -0.24781534802E+02 -0.27231832500E+02  0.36820909152E+02  0.00000000000E+00 0. -1.
         11    1    4    4    0    0 -0.28635334846E+01  0.19910972593E+02  0.25397694445E+01  0.20275529160E+02  0.51100000000E-03 0. -1.
        -11    1    4    4    0    0  0.12692284673E+02  0.38982930188E+01  0.12706769175E+02  0.18378051089E+02  0.51100000000E-03 0.  1.
         12    1    4    4    0    0 -0.10115425773E+02  0.97226918965E+00  0.11985293881E+02  0.15713510600E+02  0.00000000000E+00 0. -1.
</event>
<event>
 8    1  0.1253488E-006  0.9118800E+02  0.7816164E-02  0.1184000E+00
        -11   -1    0    0    0    0  0.00000000000E+00  0.00000000000E+00  0.45593999997E+02  0.45594000000E+02  0.51100000000E-03 0.  1.
         11   -1    0    0    0    0 -0.00000000000E+00 -0.00000000000E+00 -0.45593999997E+02  0.45594000000E+02  0.51100000000E-03 0. -1.
         23    2    1    2    0    0 -0.44408920985E-15  0.00000000000E+00 -0.71054273576E-14  0.91188000000E+02  0.91188000000E+02 0.  0.
    9900012    2    3    3    0    0 -0.25822725080E+01  0.22650905365E+02  0.28914414921E+02  0.54367149448E+02  0.40000148797E+02 0.  0.
         12    1    3    3    0    0  0.25822725080E+01 -0.22650905365E+02 -0.28914414921E+02  0.36820850552E+02  0.00000000000E+00 0. -1.
         11    1    4    4    0    0 -0.68310625614E+01  0.59706385647E+01  0.13157535038E+02  0.15982261077E+02  0.51100000000E-03 0. -1.
        -11    1    4    4    0    0 -0.51080904995E+01  0.21881548369E+02  0.16151168898E+02  0.27672278630E+02  0.51100000000E-03 0.  1.
         12    1    4    4    0    0  0.93568805529E+01 -0.52012815685E+01 -0.39428901512E+00  0.10712609741E+02  0.00000000000E+00 0. -1.
</event>
<event>
 8    1  0.1253488E-006  0.9118800E+02  0.7816164E-02  0.1184000E+00
        -11   -1    0    0    0    0  0.00000000000E+00  0.00000000000E+00  0.45593999997E+02  0.45594000000E+02  0.51100000000E-03 0. -1.
         11   -1    0    0    0    0 -0.00000000000E+00 -0.00000000000E+00 -0.45593999997E+02  0.45594000000E+02  0.51100000000E-03 0.  1.
         23    2    1    2    0    0  0.00000000000E+00 -0.35527136788E-14 -0.35527136788E-14  0.91188000000E+02  0.91188000000E+02 0.  0.
    9900012    2    3    3    0    0  0.11758084183E+01  0.27259611928E+02 -0.24724650279E+02  0.54367118705E+02  0.40000078713E+02 0.  0.
         12    1    3    3    0    0 -0.11758084183E+01 -0.27259611928E+02  0.24724650279E+02  0.36820881295E+02  0.00000000000E+00 0. -1.
         11    1    4    4    0    0 -0.32511015061E+01  0.21514318407E+02 -0.26276218774E+02  0.34115615645E+02  0.51100000000E-03 0.  1.
        -11    1    4    4    0    0  0.39822334144E+01  0.12592524268E+02 -0.41891094986E-01  0.13207255791E+02  0.51100000000E-03 0. -1.
        -12    1    4    4    0    0  0.44467650993E+00 -0.68472307480E+01  0.15934595900E+01  0.70442472685E+01  0.00000000000E+00 0.  1.
</event>
<event>
 8    1  0.1253488E-006  0.9118800E+02  0.7816164E-02  0.1184000E+00
        -11   -1    0    0    0    0  0.00000000000E+00  0.00000000000E+00  0.45593999997E+02  0.45594000000E+02  0.51100000000E-03 0.  1.
         11   -1    0    0    0    0 -0.00000000000E+00 -0.00000000000E+00 -0.45593999997E+02  0.45594000000E+02  0.51100000000E-03 0. -1.
         23    2    1    2    0    0  0.00000000000E+00  0.35527136788E-14 -0.88817841970E-15  0.91188000000E+02  0.91188000000E+02 0.  0.
    9900012    2    3    3    0    0  0.18659304219E+02 -0.31258321494E+02  0.55251517087E+01  0.54367087492E+02  0.40000007555E+02 0.  0.
         12    1    3    3    0    0 -0.18659304219E+02  0.31258321494E+02 -0.55251517087E+01  0.36820912508E+02  0.00000000000E+00 0. -1.
         11    1    4    4    0    0  0.11635987313E+01 -0.28434619836E+02  0.25311913795E+01  0.28570762981E+02  0.51100000000E-03 0. -1.
        -11    1    4    4    0    0  0.90191998693E+01 -0.10262195216E+02 -0.13110321863E+01  0.13725065486E+02  0.51100000000E-03 0.  1.
         12    1    4    4    0    0  0.84765056179E+01  0.74384935583E+01  0.43049925155E+01  0.12071259026E+02  0.00000000000E+00 0. -1.
</event>
<event>
 8    1  0.1253488E-006  0.9118800E+02  0.7816164E-02  0.1184000E+00
        -11   -1    0    0    0    0  0.00000000000E+00  0.00000000000E+00  0.45593999997E+02  0.45594000000E+02  0.51100000000E-03 0.  1.
         11   -1    0    0    0    0 -0.00000000000E+00 -0.00000000000E+00 -0.45593999997E+02  0.45594000000E+02  0.51100000000E-03 0. -1.
         23    2    1    2    0    0  0.00000000000E+00  0.35527136788E-14  0.17763568394E-14  0.91188000000E+02  0.91188000000E+02 0.  0.
    9900012    2    3    3    0    0  0.21755089082E+02 -0.26367866881E+02 -0.13683253870E+02  0.54367085545E+02  0.40000003117E+02 0.  0.
        -12    1    3    3    0    0 -0.21755089082E+02  0.26367866881E+02  0.13683253870E+02  0.36820914455E+02  0.00000000000E+00 0.  1.
         11    1    4    4    0    0  0.10510231402E+02 -0.17516655169E+02  0.29855441780E+01  0.20644893962E+02  0.51100000000E-03 0. -1.
        -11    1    4    4    0    0 -0.60787498936E+01  0.32272874036E+01 -0.88307591561E+01  0.11195931930E+02  0.51100000000E-03 0.  1.
        -12    1    4    4    0    0  0.17323607574E+02 -0.12078499116E+02 -0.78380388924E+01  0.22526259653E+02  0.00000000000E+00 0.  1.
</event>
<event>
 8    1  0.1253488E-006  0.9118800E+02  0.7816164E-02  0.1184000E+00
        -11   -1    0    0    0    0  0.00000000000E+00  0.00000000000E+00  0.45593999997E+02  0.45594000000E+02  0.51100000000E-03 0.  1.
         11   -1    0    0    0    0 -0.00000000000E+00 -0.00000000000E+00 -0.45593999997E+02  0.45594000000E+02  0.51100000000E-03 0. -1.
         23    2    1    2    0    0 -0.35527136788E-14  0.00000000000E+00  0.35527136788E-14  0.91188000000E+02  0.91188000000E+02 0.  0.
    9900012    2    3    3    0    0 -0.21505440555E+02 -0.22433059101E+02  0.19749801108E+02  0.54367071741E+02  0.39999971647E+02 0.  0.
        -12    1    3    3    0    0  0.21505440555E+02  0.22433059101E+02 -0.19749801108E+02  0.36820928259E+02  0.00000000000E+00 0.  1.
         11    1    4    4    0    0 -0.37999499901E+01 -0.18906604232E+02  0.12619666953E+02  0.23046806672E+02  0.51100000000E-03 0. -1.
        -11    1    4    4    0    0  0.36564499348E+01 -0.63804007391E+01 -0.24277126912E+01  0.77442190626E+01  0.51100000000E-03 0.  1.
         12    1    4    4    0    0 -0.21361940500E+02  0.28539458701E+01  0.95578468463E+01  0.23576046006E+02  0.00000000000E+00 0. -1.
</event>
<event>
 8    1  0.1253488E-006  0.9118800E+02  0.7816164E-02  0.1184000E+00
        -11   -1    0    0    0    0  0.00000000000E+00  0.00000000000E+00  0.45593999997E+02  0.45594000000E+02  0.51100000000E-03 0.  1.
         11   -1    0    0    0    0 -0.00000000000E+00 -0.00000000000E+00 -0.45593999997E+02  0.45594000000E+02  0.51100000000E-03 0. -1.
         23    2    1    2    0    0 -0.35527136788E-14 -0.35527136788E-14  0.35527136788E-14  0.91188000000E+02  0.91188000000E+02 0.  0.
    9900012    2    3    3    0    0 -0.16744721302E+02 -0.26830998630E+02  0.18854488703E+02  0.54367083075E+02  0.39999997486E+02 0.  0.
         12    1    3    3    0    0  0.16744721302E+02  0.26830998630E+02 -0.18854488703E+02  0.36820916925E+02  0.00000000000E+00 0. -1.
         11    1    4    4    0    0  0.35381100273E+01 -0.32206857492E+01 -0.11971935078E+01  0.49319683512E+01  0.51100000000E-03 0. -1.
        -11    1    4    4    0    0  0.77506537688E+01 -0.12397298246E+02  0.36268187797E+01  0.15063845869E+02  0.51100000000E-03 0.  1.
         12    1    4    4    0    0 -0.28033485098E+02 -0.11213014635E+02  0.16424863431E+02  0.34371268855E+02  0.00000000000E+00 0. -1.
</event>
<event>
 8    1  0.1253488E-006  0.9118800E+02  0.7816164E-02  0.1184000E+00
        -11   -1    0    0    0    0  0.00000000000E+00  0.00000000000E+00  0.45593999997E+02  0.45594000000E+02  0.51100000000E-03 0.  1.
         11   -1    0    0    0    0 -0.00000000000E+00 -0.00000000000E+00 -0.45593999997E+02  0.45594000000E+02  0.51100000000E-03 0. -1.
         23    2    1    2    0    0  0.35527136788E-14  0.00000000000E+00 -0.44408920985E-15  0.91188000000E+02  0.91188000000E+02 0.  0.
    9900012    2    3    3    0    0  0.10452588091E+02  0.35243979561E+02 -0.20940903810E+01  0.54367083286E+02  0.39999997967E+02 0.  0.
         12    1    3    3    0    0 -0.10452588091E+02 -0.35243979561E+02  0.20940903810E+01  0.36820916714E+02  0.00000000000E+00 0. -1.
         11    1    4    4    0    0 -0.13527398709E+02  0.63676441231E+01 -0.22346493428E+01  0.15117243977E+02  0.51100000000E-03 0. -1.
        -11    1    4    4    0    0  0.22598604385E+01  0.33739474532E+01 -0.37486112350E+01  0.55265339111E+01  0.51100000000E-03 0.  1.
        -12    1    4    4    0    0  0.21720126362E+02  0.25502387985E+02  0.38891701969E+01  0.33723305398E+02  0.00000000000E+00 0.  1.
</event>
<event>
 8    1  0.1253488E-006  0.9118800E+02  0.7816164E-02  0.1184000E+00
        -11   -1    0    0    0    0  0.00000000000E+00  0.00000000000E+00  0.45593999997E+02  0.45594000000E+02  0.51100000000E-03 0.  1.
         11   -1    0    0    0    0 -0.00000000000E+00 -0.00000000000E+00 -0.45593999997E+02  0.45594000000E+02  0.51100000000E-03 0. -1.
         23    2    1    2    0    0  0.00000000000E+00  0.00000000000E+00  0.00000000000E+00  0.91188000000E+02  0.91188000000E+02 0.  0.
    9900012    2    3    3    0    0  0.23903394168E+01  0.37564066512E+01 -0.36550730433E+02  0.54367079199E+02  0.39999988651E+02 0.  0.
        -12    1    3    3    0    0 -0.23903394168E+01 -0.37564066512E+01  0.36550730433E+02  0.36820920801E+02  0.00000000000E+00 0.  1.
         11    1    4    4    0    0 -0.23543675860E+01 -0.55487316890E+01 -0.14858090817E+01  0.62079867087E+01  0.51100000000E-03 0. -1.
        -11    1    4    4    0    0  0.16862110045E+02 -0.52252760820E-01 -0.23725196342E+02  0.29107016804E+02  0.51100000000E-03 0.  1.
         12    1    4    4    0    0 -0.12117403042E+02  0.93573911010E+01 -0.11339725009E+02  0.19052075687E+02  0.00000000000E+00 0. -1.
</event>
<event>
 8    1  0.1253488E-006  0.9118800E+02  0.7816164E-02  0.1184000E+00
        -11   -1    0    0    0    0  0.00000000000E+00  0.00000000000E+00  0.45593999997E+02  0.45594000000E+02  0.51100000000E-03 0. -1.
         11   -1    0    0    0    0 -0.00000000000E+00 -0.00000000000E+00 -0.45593999997E+02  0.45594000000E+02  0.51100000000E-03 0.  1.
         23    2    1    2    0    0  0.35527136788E-14  0.00000000000E+00  0.00000000000E+00  0.91188000000E+02  0.91188000000E+02 0.  0.
    9900012    2    3    3    0    0 -0.16019420583E+02  0.82603676448E+01 -0.32107972058E+02  0.54367117622E+02  0.40000076242E+02 0.  0.
         12    1    3    3    0    0  0.16019420583E+02 -0.82603676448E+01  0.32107972058E+02  0.36820882378E+02  0.00000000000E+00 0. -1.
         11    1    4    4    0    0 -0.17076873057E+02  0.15019477436E+02 -0.76395136606E+01  0.23990966322E+02  0.51100000000E-03 0. -1.
        -11    1    4    4    0    0 -0.70101815558E+01 -0.70226653257E+01 -0.13864504967E+02  0.17049485974E+02  0.51100000000E-03 0.  1.
         12    1    4    4    0    0  0.80676340291E+01  0.26355553442E+00 -0.10603953430E+02  0.13326665325E+02  0.00000000000E+00 0. -1.
</event>
<event>
 8    1  0.1253488E-006  0.9118800E+02  0.7816164E-02  0.1184000E+00
        -11   -1    0    0    0    0  0.00000000000E+00  0.00000000000E+00  0.45593999997E+02  0.45594000000E+02  0.51100000000E-03 0.  1.
         11   -1    0    0    0    0 -0.00000000000E+00 -0.00000000000E+00 -0.45593999997E+02  0.45594000000E+02  0.51100000000E-03 0. -1.
         23    2    1    2    0    0  0.00000000000E+00 -0.17763568394E-14 -0.35527136788E-14  0.91188000000E+02  0.91188000000E+02 0.  0.
    9900012    2    3    3    0    0  0.29008391989E+02 -0.12317688023E+02  0.19041218451E+02  0.54367078717E+02  0.39999987552E+02 0.  0.
         12    1    3    3    0    0 -0.29008391989E+02  0.12317688023E+02 -0.19041218451E+02  0.36820921283E+02  0.00000000000E+00 0. -1.
         11    1    4    4    0    0  0.54672380139E+01 -0.42875082629E+01 -0.69178712071E+01  0.98046091663E+01  0.51100000000E-03 0. -1.
        -11    1    4    4    0    0  0.37956648393E-01  0.64667786011E+01 -0.27568879680E+00  0.64727637649E+01  0.51100000000E-03 0.  1.
        -12    1    4    4    0    0  0.23503197326E+02 -0.14496958361E+02  0.26234778455E+02  0.38089705786E+02  0.00000000000E+00 0.  1.
</event>
<event>
 8    1  0.1253488E-006  0.9118800E+02  0.7816164E-02  0.1184000E+00
        -11   -1    0    0    0    0  0.00000000000E+00  0.00000000000E+00  0.45593999997E+02  0.45594000000E+02  0.51100000000E-03 0. -1.
         11   -1    0    0    0    0 -0.00000000000E+00 -0.00000000000E+00 -0.45593999997E+02  0.45594000000E+02  0.51100000000E-03 0.  1.
         23    2    1    2    0    0  0.00000000000E+00  0.17763568394E-14  0.00000000000E+00  0.91188000000E+02  0.91188000000E+02 0.  0.
    9900012    2    3    3    0    0  0.32813201378E+02 -0.15919231440E+02  0.50649773236E+01  0.54367053385E+02  0.39999929803E+02 0.  0.
        -12    1    3    3    0    0 -0.32813201378E+02  0.15919231440E+02 -0.50649773236E+01  0.36820946615E+02  0.00000000000E+00 0.  1.
         11    1    4    4    0    0  0.32868125351E+02 -0.22899771986E+02  0.10004562274E+00  0.40058996873E+02  0.51100000000E-03 0. -1.
        -11    1    4    4    0    0 -0.11184344961E+01  0.85377914841E+01 -0.40134629485E+00  0.86200845852E+01  0.51100000000E-03 0.  1.
         12    1    4    4    0    0  0.10635105228E+01 -0.15572509389E+01  0.53662779957E+01  0.56879719273E+01  0.00000000000E+00 0. -1.
</event>
<event>
 8    1  0.1253488E-006  0.9118800E+02  0.7816164E-02  0.1184000E+00
        -11   -1    0    0    0    0  0.00000000000E+00  0.00000000000E+00  0.45593999997E+02  0.45594000000E+02  0.51100000000E-03 0.  1.
         11   -1    0    0    0    0 -0.00000000000E+00 -0.00000000000E+00 -0.45593999997E+02  0.45594000000E+02  0.51100000000E-03 0. -1.
         23    2    1    2    0    0  0.00000000000E+00 -0.88817841970E-15  0.00000000000E+00  0.91188000000E+02  0.91188000000E+02 0.  0.
    9900012    2    3    3    0    0 -0.32445074989E+02 -0.79721446528E+01 -0.15477177647E+02  0.54367068327E+02  0.39999963864E+02 0.  0.
        -12    1    3    3    0    0  0.32445074989E+02  0.79721446528E+01  0.15477177647E+02  0.36820931673E+02  0.00000000000E+00 0.  1.
         11    1    4    4    0    0 -0.20857142525E+02 -0.11622269103E+02 -0.11295791582E+02  0.26413868348E+02  0.51100000000E-03 0. -1.
        -11    1    4    4    0    0  0.14147283808E+01 -0.82514162005E+01 -0.59008074401E+01  0.10242404718E+02  0.51100000000E-03 0.  1.
         12    1    4    4    0    0 -0.13002660844E+02  0.11901540650E+02  0.17194213747E+01  0.17710795260E+02  0.00000000000E+00 0. -1.
</event>
<event>
 8    1  0.1253488E-006  0.9118800E+02  0.7816164E-02  0.1184000E+00
        -11   -1    0    0    0    0  0.00000000000E+00  0.00000000000E+00  0.45593999997E+02  0.45594000000E+02  0.51100000000E-03 0.  1.
         11   -1    0    0    0    0 -0.00000000000E+00 -0.00000000000E+00 -0.45593999997E+02  0.45594000000E+02  0.51100000000E-03 0. -1.
         23    2    1    2    0    0 -0.13322676296E-14 -0.71054273576E-14  0.35527136788E-14  0.91188000000E+02  0.91188000000E+02 0.  0.
    9900012    2    3    3    0    0 -0.26254437469E+01  0.32348036737E+02 -0.17392265867E+02  0.54367090891E+02  0.40000015304E+02 0.  0.
        -12    1    3    3    0    0  0.26254437469E+01 -0.32348036737E+02  0.17392265867E+02  0.36820909109E+02  0.00000000000E+00 0.  1.
         11    1    4    4    0    0  0.14405848451E+02  0.24355148301E+02 -0.17683982098E+02  0.33368022738E+02  0.51100000000E-03 0. -1.
        -11    1    4    4    0    0 -0.12278958944E+02  0.86132427580E+01 -0.28518946864E+01  0.15267419137E+02  0.51100000000E-03 0.  1.
         12    1    4    4    0    0 -0.47523332539E+01 -0.62035432197E+00  0.31436109172E+01  0.57316490157E+01  0.00000000000E+00 0. -1.
</event>
<event>
 8    1  0.1253488E-006  0.9118800E+02  0.7816164E-02  0.1184000E+00
        -11   -1    0    0    0    0  0.00000000000E+00  0.00000000000E+00  0.45593999997E+02  0.45594000000E+02  0.51100000000E-03 0. -1.
         11   -1    0    0    0    0 -0.00000000000E+00 -0.00000000000E+00 -0.45593999997E+02  0.45594000000E+02  0.51100000000E-03 0.  1.
         23    2    1    2    0    0 -0.22204460493E-15  0.00000000000E+00  0.71054273576E-14  0.91188000000E+02  0.91188000000E+02 0.  0.
    9900012    2    3    3    0    0  0.18308032409E+01 -0.18105397927E+02  0.32009726791E+02  0.54367083610E+02  0.39999998705E+02 0.  0.
        -12    1    3    3    0    0 -0.18308032409E+01  0.18105397927E+02 -0.32009726791E+02  0.36820916390E+02  0.00000000000E+00 0.  1.
         11    1    4    4    0    0 -0.11244136617E+02 -0.68068422726E+01 -0.29889487108E+01  0.13479522419E+02  0.51100000000E-03 0. -1.
        -11    1    4    4    0    0  0.44571774179E+01  0.22610733010E+00  0.20058062898E+01  0.48929351306E+01  0.51100000000E-03 0.  1.
         12    1    4    4    0    0  0.86177624398E+01 -0.11524662984E+02  0.32992869212E+02  0.35994626060E+02  0.00000000000E+00 0. -1.
</event>
<event>
 8    1  0.1253488E-006  0.9118800E+02  0.7816164E-02  0.1184000E+00
        -11   -1    0    0    0    0  0.00000000000E+00  0.00000000000E+00  0.45593999997E+02  0.45594000000E+02  0.51100000000E-03 0.  1.
         11   -1    0    0    0    0 -0.00000000000E+00 -0.00000000000E+00 -0.45593999997E+02  0.45594000000E+02  0.51100000000E-03 0. -1.
         23    2    1    2    0    0 -0.22204460493E-15 -0.35527136788E-14  0.35527136788E-14  0.91188000000E+02  0.91188000000E+02 0.  0.
    9900012    2    3    3    0    0  0.19183926601E+01  0.27607093211E+02 -0.24288842923E+02  0.54367085882E+02  0.40000003884E+02 0.  0.
         12    1    3    3    0    0 -0.19183926601E+01 -0.27607093211E+02  0.24288842923E+02  0.36820914118E+02  0.00000000000E+00 0. -1.
         11    1    4    4    0    0 -0.15682840225E+02  0.97761293079E+01 -0.77386231435E+01  0.20035230725E+02  0.51100000000E-03 0.  1.
        -11    1    4    4    0    0  0.11664021400E+02  0.41455583047E+01 -0.14826549821E+02  0.19314803357E+02  0.51100000000E-03 0. -1.
        -12    1    4    4    0    0  0.59372114856E+01  0.13685405599E+02 -0.17236699589E+01  0.15017051800E+02  0.00000000000E+00 0.  1.
</event>
<event>
 8    1  0.1253488E-006  0.9118800E+02  0.7816164E-02  0.1184000E+00
        -11   -1    0    0    0    0  0.00000000000E+00  0.00000000000E+00  0.45593999997E+02  0.45594000000E+02  0.51100000000E-03 0.  1.
         11   -1    0    0    0    0 -0.00000000000E+00 -0.00000000000E+00 -0.45593999997E+02  0.45594000000E+02  0.51100000000E-03 0. -1.
         23    2    1    2    0    0  0.00000000000E+00  0.00000000000E+00  0.00000000000E+00  0.91188000000E+02  0.91188000000E+02 0.  0.
    9900012    2    3    3    0    0 -0.22393663861E+02  0.16655374450E+02 -0.24018801392E+02  0.54367075249E+02  0.39999979646E+02 0.  0.
        -12    1    3    3    0    0  0.22393663861E+02 -0.16655374450E+02  0.24018801392E+02  0.36820924751E+02  0.00000000000E+00 0.  1.
         11    1    4    4    0    0 -0.15828932870E+02  0.30925205654E+01  0.14442102146E+01  0.16192731168E+02  0.51100000000E-03 0. -1.
        -11    1    4    4    0    0 -0.33556343760E+01 -0.22979577275E+01  0.32561346871E+01  0.52099237177E+01  0.51100000000E-03 0.  1.
         12    1    4    4    0    0 -0.32090966146E+01  0.15860811612E+02 -0.28719146294E+02  0.32964420364E+02  0.00000000000E+00 0. -1.
</event>
<event>
 8    1  0.1253488E-006  0.9118800E+02  0.7816164E-02  0.1184000E+00
        -11   -1    0    0    0    0  0.00000000000E+00  0.00000000000E+00  0.45593999997E+02  0.45594000000E+02  0.51100000000E-03 0. -1.
         11   -1    0    0    0    0 -0.00000000000E+00 -0.00000000000E+00 -0.45593999997E+02  0.45594000000E+02  0.51100000000E-03 0.  1.
         23    2    1    2    0    0 -0.17763568394E-14  0.00000000000E+00  0.00000000000E+00  0.91188000000E+02  0.91188000000E+02 0.  0.
    9900012    2    3    3    0    0 -0.65975988204E+01  0.26132444204E+02  0.25086810917E+02  0.54367068015E+02  0.39999963153E+02 0.  0.
        -12    1    3    3    0    0  0.65975988204E+01 -0.26132444204E+02 -0.25086810917E+02  0.36820931985E+02  0.00000000000E+00 0.  1.
         11    1    4    4    0    0 -0.15508705402E+02  0.24242959627E+02  0.11157528850E+02  0.30866348747E+02  0.51100000000E-03 0. -1.
        -11    1    4    4    0    0  0.69973688716E+01  0.55107020630E+01 -0.77755190099E-01  0.89071350323E+01  0.51100000000E-03 0.  1.
        -12    1    4    4    0    0  0.19137377100E+01 -0.36212174851E+01  0.14007037257E+02  0.14593584235E+02  0.00000000000E+00 0.  1.
</event>
<event>
 8    1  0.1253488E-006  0.9118800E+02  0.7816164E-02  0.1184000E+00
        -11   -1    0    0    0    0  0.00000000000E+00  0.00000000000E+00  0.45593999997E+02  0.45594000000E+02  0.51100000000E-03 0.  1.
         11   -1    0    0    0    0 -0.00000000000E+00 -0.00000000000E+00 -0.45593999997E+02  0.45594000000E+02  0.51100000000E-03 0. -1.
         23    2    1    2    0    0 -0.35527136788E-14  0.00000000000E+00  0.00000000000E+00  0.91188000000E+02  0.91188000000E+02 0.  0.
    9900012    2    3    3    0    0 -0.16514670308E+02  0.18622838106E+02  0.27133687138E+02  0.54367062855E+02  0.39999951391E+02 0.  0.
         12    1    3    3    0    0  0.16514670308E+02 -0.18622838106E+02 -0.27133687138E+02  0.36820937145E+02  0.00000000000E+00 0. -1.
         11    1    4    4    0    0 -0.59605824182E+01  0.20801638816E+02 -0.71239074978E+00  0.21650501635E+02  0.51100000000E-03 0. -1.
        -11    1    4    4    0    0 -0.79905346391E+01  0.50551640160E+01  0.14191352712E+02  0.17052795052E+02  0.51100000000E-03 0.  1.
         12    1    4    4    0    0 -0.25635532506E+01 -0.72339647260E+01  0.13654725176E+02  0.15663766168E+02  0.00000000000E+00 0. -1.
</event>
<event>
 8    1  0.1253488E-006  0.9118800E+02  0.7816164E-02  0.1184000E+00
        -11   -1    0    0    0    0  0.00000000000E+00  0.00000000000E+00  0.45593999997E+02  0.45594000000E+02  0.51100000000E-03 0. -1.
         11   -1    0    0    0    0 -0.00000000000E+00 -0.00000000000E+00 -0.45593999997E+02  0.45594000000E+02  0.51100000000E-03 0.  1.
         23    2    1    2    0    0  0.00000000000E+00  0.00000000000E+00  0.00000000000E+00  0.91188000000E+02  0.91188000000E+02 0.  0.
    9900012    2    3    3    0    0 -0.46896418294E+01  0.17239051267E+02 -0.32196301072E+02  0.54367089748E+02  0.40000012698E+02 0.  0.
         12    1    3    3    0    0  0.46896418294E+01 -0.17239051267E+02  0.32196301072E+02  0.36820910252E+02  0.00000000000E+00 0. -1.
         11    1    4    4    0    0 -0.84073479927E+01  0.16333444874E+02  0.16625900468E+00  0.18370970689E+02  0.51100000000E-03 0. -1.
        -11    1    4    4    0    0  0.77980226697E+01  0.53715688194E+01 -0.22705014687E+02  0.24600418723E+02  0.51100000000E-03 0.  1.
        -12    1    4    4    0    0 -0.40803165065E+01 -0.44659624266E+01 -0.96575453897E+01  0.11395700336E+02  0.00000000000E+00 0.  1.
</event>
<event>
 8    1  0.1253488E-006  0.9118800E+02  0.7816164E-02  0.1184000E+00
        -11   -1    0    0    0    0  0.00000000000E+00  0.00000000000E+00  0.45593999997E+02  0.45594000000E+02  0.51100000000E-03 0.  1.
         11   -1    0    0    0    0 -0.00000000000E+00 -0.00000000000E+00 -0.45593999997E+02  0.45594000000E+02  0.51100000000E-03 0. -1.
         23    2    1    2    0    0  0.00000000000E+00  0.35527136788E-14  0.00000000000E+00  0.91188000000E+02  0.91188000000E+02 0.  0.
    9900012    2    3    3    0    0 -0.32449846633E+02  0.17013006715E+02  0.36531144021E+01  0.54367079468E+02  0.39999989263E+02 0.  0.
        -12    1    3    3    0    0  0.32449846633E+02 -0.17013006715E+02 -0.36531144021E+01  0.36820920532E+02  0.00000000000E+00 0.  1.
         11    1    4    4    0    0  0.11072651883E+01 -0.18991583092E+01 -0.31358792029E+01  0.38296967396E+01  0.51100000000E-03 0. -1.
        -11    1    4    4    0    0 -0.23927361053E+02 -0.48636756203E+01  0.27891930214E+01  0.24575466332E+02  0.51100000000E-03 0.  1.
        -12    1    4    4    0    0 -0.96297507684E+01  0.23775840645E+02  0.39998005836E+01  0.25961916396E+02  0.00000000000E+00 0.  1.
</event>
<event>
 8    1  0.1253488E-006  0.9118800E+02  0.7816164E-02  0.1184000E+00
        -11   -1    0    0    0    0  0.00000000000E+00  0.00000000000E+00  0.45593999997E+02  0.45594000000E+02  0.51100000000E-03 0. -1.
         11   -1    0    0    0    0 -0.00000000000E+00 -0.00000000000E+00 -0.45593999997E+02  0.45594000000E+02  0.51100000000E-03 0.  1.
         23    2    1    2    0    0  0.00000000000E+00  0.00000000000E+00  0.71054273576E-14  0.91188000000E+02  0.91188000000E+02 0.  0.
    9900012    2    3    3    0    0  0.15260095750E+02 -0.15720089637E+02 -0.29593880614E+02  0.54366952890E+02  0.39999700703E+02 0.  0.
         12    1    3    3    0    0 -0.15260095750E+02  0.15720089637E+02  0.29593880614E+02  0.36821047110E+02  0.00000000000E+00 0. -1.
         11    1    4    4    0    0  0.20390521967E+01  0.55976233185E+01 -0.24861631235E+02  0.25565442077E+02  0.51100000000E-03 0. -1.
        -11    1    4    4    0    0  0.20074871736E+01 -0.14287943463E+02  0.81465219850E+00  0.14451262631E+02  0.51100000000E-03 0.  1.
        -12    1    4    4    0    0  0.11213556379E+02 -0.70297694921E+01 -0.55469015773E+01  0.14350248182E+02  0.00000000000E+00 0.  1.
</event>
<event>
 8    1  0.1253488E-006  0.9118800E+02  0.7816164E-02  0.1184000E+00
        -11   -1    0    0    0    0  0.00000000000E+00  0.00000000000E+00  0.45593999997E+02  0.45594000000E+02  0.51100000000E-03 0.  1.
         11   -1    0    0    0    0 -0.00000000000E+00 -0.00000000000E+00 -0.45593999997E+02  0.45594000000E+02  0.51100000000E-03 0. -1.
         23    2    1    2    0    0  0.00000000000E+00  0.00000000000E+00  0.13322676296E-14  0.91188000000E+02  0.91188000000E+02 0.  0.
    9900012    2    3    3    0    0  0.26846019519E+02  0.25066667307E+02  0.25983296784E+01  0.54366839087E+02  0.39999441262E+02 0.  0.
         12    1    3    3    0    0 -0.26846019519E+02 -0.25066667307E+02 -0.25983296784E+01  0.36821160913E+02  0.00000000000E+00 0. -1.
         11    1    4    4    0    0  0.45813743820E+01  0.20043937037E+02  0.11732017895E+02  0.23672529381E+02  0.51100000000E-03 0. -1.
        -11    1    4    4    0    0  0.14912298281E+02  0.67223873094E+01  0.27797347527E+01  0.16591987727E+02  0.51100000000E-03 0.  1.
         12    1    4    4    0    0  0.73523468559E+01 -0.16996570399E+01 -0.11913422969E+02  0.14102321978E+02  0.00000000000E+00 0. -1.
</event>
<event>
 8    1  0.1253488E-006  0.9118800E+02  0.7816164E-02  0.1184000E+00
        -11   -1    0    0    0    0  0.00000000000E+00  0.00000000000E+00  0.45593999997E+02  0.45594000000E+02  0.51100000000E-03 0. -1.
         11   -1    0    0    0    0 -0.00000000000E+00 -0.00000000000E+00 -0.45593999997E+02  0.45594000000E+02  0.51100000000E-03 0.  1.
         23    2    1    2    0    0  0.22204460493E-15  0.88817841970E-15 -0.71054273576E-14  0.91188000000E+02  0.91188000000E+02 0.  0.
    9900012    2    3    3    0    0  0.77736566211E-01  0.53007438119E+01 -0.36437283147E+02  0.54367088400E+02  0.40000009625E+02 0.  0.
         12    1    3    3    0    0 -0.77736566211E-01 -0.53007438119E+01  0.36437283147E+02  0.36820911600E+02  0.00000000000E+00 0. -1.
         11    1    4    4    0    0 -0.39907964690E+01  0.28441494124E+01 -0.78783836635E+01  0.92781771780E+01  0.51100000000E-03 0. -1.
        -11    1    4    4    0    0 -0.26238769017E+01  0.11587508132E+02  0.24037003345E+01  0.12121586128E+02  0.51100000000E-03 0.  1.
         12    1    4    4    0    0  0.66924099369E+01 -0.91309137323E+01 -0.30962599818E+02  0.32967325094E+02  0.00000000000E+00 0. -1.
</event>
<event>
 8    1  0.1253488E-006  0.9118800E+02  0.7816164E-02  0.1184000E+00
        -11   -1    0    0    0    0  0.00000000000E+00  0.00000000000E+00  0.45593999997E+02  0.45594000000E+02  0.51100000000E-03 0. -1.
         11   -1    0    0    0    0 -0.00000000000E+00 -0.00000000000E+00 -0.45593999997E+02  0.45594000000E+02  0.51100000000E-03 0.  1.
         23    2    1    2    0    0  0.35527136788E-14  0.35527136788E-14 -0.17763568394E-14  0.91188000000E+02  0.91188000000E+02 0.  0.
    9900012    2    3    3    0    0 -0.19587880765E+02 -0.29102002124E+02  0.11187850004E+02  0.54367087624E+02  0.40000007855E+02 0.  0.
        -12    1    3    3    0    0  0.19587880765E+02  0.29102002124E+02 -0.11187850004E+02  0.36820912376E+02  0.00000000000E+00 0.  1.
         11    1    4    4    0    0 -0.43349635710E+00 -0.41238090735E+01  0.62260874573E+01  0.74805003612E+01  0.51100000000E-03 0. -1.
        -11    1    4    4    0    0 -0.14855905449E+02 -0.32774995004E+02  0.90262786219E+01  0.37099486927E+02  0.51100000000E-03 0.  1.
        -12    1    4    4    0    0 -0.42984789589E+01  0.77968019529E+01 -0.40645160753E+01  0.97871003356E+01  0.00000000000E+00 0.  1.
</event>
<event>
 8    1  0.1253488E-006  0.9118800E+02  0.7816164E-02  0.1184000E+00
        -11   -1    0    0    0    0  0.00000000000E+00  0.00000000000E+00  0.45593999997E+02  0.45594000000E+02  0.51100000000E-03 0. -1.
         11   -1    0    0    0    0 -0.00000000000E+00 -0.00000000000E+00 -0.45593999997E+02  0.45594000000E+02  0.51100000000E-03 0.  1.
         23    2    1    2    0    0  0.00000000000E+00 -0.33306690739E-15  0.00000000000E+00  0.91188000000E+02  0.91188000000E+02 0.  0.
    9900012    2    3    3    0    0  0.27608819434E+02 -0.54198676359E+00 -0.24356466093E+02  0.54367107823E+02  0.40000053905E+02 0.  0.
         12    1    3    3    0    0 -0.27608819434E+02  0.54198676359E+00  0.24356466093E+02  0.36820892177E+02  0.00000000000E+00 0. -1.
         11    1    4    4    0    0  0.13387146530E+02  0.26583131359E+01  0.38070578404E+01  0.14169545180E+02  0.51100000000E-03 0.  1.
        -11    1    4    4    0    0  0.17735006555E+02 -0.52972194942E+01 -0.89615909588E+01  0.20564559432E+02  0.51100000000E-03 0. -1.
        -12    1    4    4    0    0 -0.35133336513E+01  0.20969195948E+01 -0.19201932974E+02  0.19633003211E+02  0.00000000000E+00 0.  1.
</event>
<event>
 8    1  0.1253488E-006  0.9118800E+02  0.7816164E-02  0.1184000E+00
        -11   -1    0    0    0    0  0.00000000000E+00  0.00000000000E+00  0.45593999997E+02  0.45594000000E+02  0.51100000000E-03 0.  1.
         11   -1    0    0    0    0 -0.00000000000E+00 -0.00000000000E+00 -0.45593999997E+02  0.45594000000E+02  0.51100000000E-03 0. -1.
         23    2    1    2    0    0 -0.13322676296E-14  0.00000000000E+00  0.00000000000E+00  0.91188000000E+02  0.91188000000E+02 0.  0.
    9900012    2    3    3    0    0 -0.21224975445E+01  0.69807417362E+01 -0.36090769834E+02  0.54367089932E+02  0.40000013118E+02 0.  0.
        -12    1    3    3    0    0  0.21224975445E+01 -0.69807417362E+01  0.36090769834E+02  0.36820910068E+02  0.00000000000E+00 0.  1.
         11    1    4    4    0    0 -0.31067998502E+00  0.12407194987E+01  0.45968460132E+00  0.13591236593E+01  0.51100000000E-03 0. -1.
        -11    1    4    4    0    0 -0.16949625002E+02  0.32985223520E+01 -0.50776869457E+01  0.17998692796E+02  0.51100000000E-03 0.  1.
         12    1    4    4    0    0  0.15137807442E+02  0.24414998856E+01 -0.31472767490E+02  0.35009273476E+02  0.00000000000E+00 0. -1.
</event>
<event>
 8    1  0.1253488E-006  0.9118800E+02  0.7816164E-02  0.1184000E+00
        -11   -1    0    0    0    0  0.00000000000E+00  0.00000000000E+00  0.45593999997E+02  0.45594000000E+02  0.51100000000E-03 0. -1.
         11   -1    0    0    0    0 -0.00000000000E+00 -0.00000000000E+00 -0.45593999997E+02  0.45594000000E+02  0.51100000000E-03 0.  1.
         23    2    1    2    0    0  0.00000000000E+00  0.00000000000E+00  0.35527136788E-14  0.91188000000E+02  0.91188000000E+02 0.  0.
    9900012    2    3    3    0    0 -0.16705430288E+02  0.30792704646E+02 -0.11336523297E+02  0.54367098042E+02  0.40000031607E+02 0.  0.
         12    1    3    3    0    0  0.16705430288E+02 -0.30792704646E+02  0.11336523297E+02  0.36820901958E+02  0.00000000000E+00 0. -1.
         11    1    4    4    0    0  0.38963631498E+01 -0.34002188126E+00 -0.38717921367E+00  0.39302886254E+01  0.51100000000E-03 0. -1.
        -11    1    4    4    0    0 -0.14590528978E+02  0.23722617567E+02  0.82079762149E+01  0.29034754931E+02  0.51100000000E-03 0.  1.
        -12    1    4    4    0    0 -0.60112644595E+01  0.74101089602E+01 -0.19157320298E+02  0.21402054486E+02  0.00000000000E+00 0.  1.
</event>
<event>
 8    1  0.1253488E-006  0.9118800E+02  0.7816164E-02  0.1184000E+00
        -11   -1    0    0    0    0  0.00000000000E+00  0.00000000000E+00  0.45593999997E+02  0.45594000000E+02  0.51100000000E-03 0.  1.
         11   -1    0    0    0    0 -0.00000000000E+00 -0.00000000000E+00 -0.45593999997E+02  0.45594000000E+02  0.51100000000E-03 0. -1.
         23    2    1    2    0    0  0.35527136788E-14  0.94368957093E-15  0.00000000000E+00  0.91188000000E+02  0.91188000000E+02 0.  0.
    9900012    2    3    3    0    0  0.26720037466E+02  0.14470293089E+00  0.25333728968E+02  0.54367093377E+02  0.40000020972E+02 0.  0.
         12    1    3    3    0    0 -0.26720037466E+02 -0.14470293089E+00 -0.25333728968E+02  0.36820906623E+02  0.00000000000E+00 0. -1.
         11    1    4    4    0    0  0.32241706064E+01 -0.70459879547E+01  0.85401718985E+01  0.11531511552E+02  0.51100000000E-03 0. -1.
        -11    1    4    4    0    0  0.27968467138E+02 -0.10528607343E+01  0.18151648836E+02  0.33359047131E+02  0.51100000000E-03 0.  1.
        -12    1    4    4    0    0 -0.44726002783E+01  0.82435516198E+01 -0.13580917668E+01  0.94765346939E+01  0.00000000000E+00 0.  1.
</event>
<event>
 8    1  0.1253488E-006  0.9118800E+02  0.7816164E-02  0.1184000E+00
        -11   -1    0    0    0    0  0.00000000000E+00  0.00000000000E+00  0.45593999997E+02  0.45594000000E+02  0.51100000000E-03 0. -1.
         11   -1    0    0    0    0 -0.00000000000E+00 -0.00000000000E+00 -0.45593999997E+02  0.45594000000E+02  0.51100000000E-03 0.  1.
         23    2    1    2    0    0  0.00000000000E+00 -0.88817841970E-15 -0.17763568394E-14  0.91188000000E+02  0.91188000000E+02 0.  0.
    9900012    2    3    3    0    0  0.34250271217E+02 -0.56721658871E+01  0.12268901070E+02  0.54367075544E+02  0.39999980319E+02 0.  0.
        -12    1    3    3    0    0 -0.34250271217E+02  0.56721658871E+01 -0.12268901070E+02  0.36820924456E+02  0.00000000000E+00 0.  1.
         11    1    4    4    0    0  0.13691587139E+02 -0.39571338689E+01 -0.60183379168E+01  0.15470580415E+02  0.51100000000E-03 0. -1.
        -11    1    4    4    0    0  0.12281397074E+02 -0.10179442951E+02 -0.13052237623E+01  0.16004917439E+02  0.51100000000E-03 0.  1.
         12    1    4    4    0    0  0.82772870041E+01  0.84644109332E+01  0.19592462749E+02  0.22891577690E+02  0.00000000000E+00 0. -1.
</event>
<event>
 8    1  0.1253488E-006  0.9118800E+02  0.7816164E-02  0.1184000E+00
        -11   -1    0    0    0    0  0.00000000000E+00  0.00000000000E+00  0.45593999997E+02  0.45594000000E+02  0.51100000000E-03 0. -1.
         11   -1    0    0    0    0 -0.00000000000E+00 -0.00000000000E+00 -0.45593999997E+02  0.45594000000E+02  0.51100000000E-03 0.  1.
         23    2    1    2    0    0 -0.88817841970E-15  0.17763568394E-14  0.00000000000E+00  0.91188000000E+02  0.91188000000E+02 0.  0.
    9900012    2    3    3    0    0  0.70637423066E+01 -0.13447466559E+02 -0.33541752248E+02  0.54367082628E+02  0.39999996467E+02 0.  0.
         12    1    3    3    0    0 -0.70637423066E+01  0.13447466559E+02  0.33541752248E+02  0.36820917372E+02  0.00000000000E+00 0. -1.
         11    1    4    4    0    0  0.22402227738E+01 -0.22838656644E+02 -0.12946171071E+02  0.26348172253E+02  0.51100000000E-03 0.  1.
        -11    1    4    4    0    0  0.34470632680E+01  0.68470591330E+01 -0.23008568371E+02  0.24251983067E+02  0.51100000000E-03 0. -1.
         12    1    4    4    0    0  0.13764562647E+01  0.25441309525E+01  0.24129871931E+01  0.37669273083E+01  0.00000000000E+00 0. -1.
</event>
<event>
 8    1  0.1253488E-006  0.9118800E+02  0.7816164E-02  0.1184000E+00
        -11   -1    0    0    0    0  0.00000000000E+00  0.00000000000E+00  0.45593999997E+02  0.45594000000E+02  0.51100000000E-03 0.  1.
         11   -1    0    0    0    0 -0.00000000000E+00 -0.00000000000E+00 -0.45593999997E+02  0.45594000000E+02  0.51100000000E-03 0. -1.
         23    2    1    2    0    0  0.00000000000E+00 -0.17763568394E-14 -0.35527136788E-14  0.91188000000E+02  0.91188000000E+02 0.  0.
    9900012    2    3    3    0    0  0.17813289981E+02 -0.11955332676E+02 -0.29925534171E+02  0.54367070154E+02  0.39999968030E+02 0.  0.
        -12    1    3    3    0    0 -0.17813289981E+02  0.11955332676E+02  0.29925534171E+02  0.36820929846E+02  0.00000000000E+00 0.  1.
         11    1    4    4    0    0 -0.66135996792E+01 -0.10958535504E+02 -0.12685949682E+02  0.18021168683E+02  0.51100000000E-03 0. -1.
        -11    1    4    4    0    0 -0.85892388898E+00 -0.54562371499E+00  0.34966222539E+01  0.36416785873E+01  0.51100000000E-03 0.  1.
        -12    1    4    4    0    0  0.25285813549E+02 -0.45117345640E+00 -0.20736206743E+02  0.32704222884E+02  0.00000000000E+00 0.  1.
</event>
<event>
 8    1  0.1253488E-006  0.9118800E+02  0.7816164E-02  0.1184000E+00
        -11   -1    0    0    0    0  0.00000000000E+00  0.00000000000E+00  0.45593999997E+02  0.45594000000E+02  0.51100000000E-03 0.  1.
         11   -1    0    0    0    0 -0.00000000000E+00 -0.00000000000E+00 -0.45593999997E+02  0.45594000000E+02  0.51100000000E-03 0. -1.
         23    2    1    2    0    0 -0.13322676296E-14  0.00000000000E+00  0.00000000000E+00  0.91188000000E+02  0.91188000000E+02 0.  0.
    9900012    2    3    3    0    0 -0.30679561991E+01  0.23428477265E+02 -0.28239599434E+02  0.54367070105E+02  0.39999967918E+02 0.  0.
        -12    1    3    3    0    0  0.30679561991E+01 -0.23428477265E+02  0.28239599434E+02  0.36820929895E+02  0.00000000000E+00 0.  1.
         11    1    4    4    0    0  0.91193848140E+01 -0.31155887739E+01 -0.87704638444E+01  0.13030391748E+02  0.51100000000E-03 0. -1.
        -11    1    4    4    0    0  0.49289987539E+01  0.15051521908E+02 -0.89384039894E+01  0.18186214741E+02  0.51100000000E-03 0.  1.
         12    1    4    4    0    0 -0.17116339767E+02  0.11492544131E+02 -0.10530731600E+02  0.23150463616E+02  0.00000000000E+00 0. -1.
</event>
<event>
 8    1  0.1253488E-006  0.9118800E+02  0.7816164E-02  0.1184000E+00
        -11   -1    0    0    0    0  0.00000000000E+00  0.00000000000E+00  0.45593999997E+02  0.45594000000E+02  0.51100000000E-03 0.  1.
         11   -1    0    0    0    0 -0.00000000000E+00 -0.00000000000E+00 -0.45593999997E+02  0.45594000000E+02  0.51100000000E-03 0. -1.
         23    2    1    2    0    0  0.00000000000E+00  0.35527136788E-14 -0.17763568394E-14  0.91188000000E+02  0.91188000000E+02 0.  0.
    9900012    2    3    3    0    0 -0.14485404421E+02  0.31486284139E+02  0.12432517347E+02  0.54367075002E+02  0.39999979083E+02 0.  0.
        -12    1    3    3    0    0  0.14485404421E+02 -0.31486284139E+02 -0.12432517347E+02  0.36820924998E+02  0.00000000000E+00 0.  1.
         11    1    4    4    0    0 -0.16932813341E+01  0.27765918744E+02  0.11738717777E+02  0.30192895533E+02  0.51100000000E-03 0. -1.
        -11    1    4    4    0    0 -0.23256391916E+01 -0.46855726448E+01 -0.69714475202E+01  0.87157483584E+01  0.51100000000E-03 0.  1.
        -12    1    4    4    0    0 -0.10466483895E+02  0.84059380397E+01  0.76652470905E+01  0.15458431111E+02  0.00000000000E+00 0.  1.
</event>
<event>
 8    1  0.1253488E-006  0.9118800E+02  0.7816164E-02  0.1184000E+00
        -11   -1    0    0    0    0  0.00000000000E+00  0.00000000000E+00  0.45593999997E+02  0.45594000000E+02  0.51100000000E-03 0. -1.
         11   -1    0    0    0    0 -0.00000000000E+00 -0.00000000000E+00 -0.45593999997E+02  0.45594000000E+02  0.51100000000E-03 0.  1.
         23    2    1    2    0    0  0.35527136788E-14  0.17763568394E-14  0.00000000000E+00  0.91188000000E+02  0.91188000000E+02 0.  0.
    9900012    2    3    3    0    0 -0.14992950601E+02 -0.82942502319E+01  0.32591384340E+02  0.54367061829E+02  0.39999949051E+02 0.  0.
        -12    1    3    3    0    0  0.14992950601E+02  0.82942502319E+01 -0.32591384340E+02  0.36820938171E+02  0.00000000000E+00 0.  1.
         11    1    4    4    0    0  0.70188725264E+01  0.28155291541E+01  0.17122646128E+02  0.18718354271E+02  0.51100000000E-03 0. -1.
        -11    1    4    4    0    0  0.14271601549E+01  0.29196866167E+01  0.58421806799E+01  0.66852398166E+01  0.51100000000E-03 0.  1.
         12    1    4    4    0    0 -0.23438983282E+02 -0.14029466003E+02  0.96265575324E+01  0.28963467741E+02  0.00000000000E+00 0. -1.
</event>
<event>
 8    1  0.1253488E-006  0.9118800E+02  0.7816164E-02  0.1184000E+00
        -11   -1    0    0    0    0  0.00000000000E+00  0.00000000000E+00  0.45593999997E+02  0.45594000000E+02  0.51100000000E-03 0.  1.
         11   -1    0    0    0    0 -0.00000000000E+00 -0.00000000000E+00 -0.45593999997E+02  0.45594000000E+02  0.51100000000E-03 0. -1.
         23    2    1    2    0    0  0.00000000000E+00 -0.17763568394E-14 -0.17763568394E-14  0.91188000000E+02  0.91188000000E+02 0.  0.
    9900012    2    3    3    0    0  0.32530405052E+02 -0.14806830322E+02  0.88493532772E+01  0.54367074829E+02  0.39999978687E+02 0.  0.
        -12    1    3    3    0    0 -0.32530405052E+02  0.14806830322E+02 -0.88493532772E+01  0.36820925171E+02  0.00000000000E+00 0.  1.
         11    1    4    4    0    0  0.22875889679E+02 -0.19632678313E+02  0.18910423523E+02  0.35585846968E+02  0.51100000000E-03 0. -1.
        -11    1    4    4    0    0  0.85220609412E+01  0.70835608215E+01 -0.32981235148E+01  0.11562005690E+02  0.51100000000E-03 0.  1.
         12    1    4    4    0    0  0.11324544322E+01 -0.22577128303E+01 -0.67629467310E+01  0.72192221708E+01  0.00000000000E+00 0. -1.
</event>
<event>
 8    1  0.1253488E-006  0.9118800E+02  0.7816164E-02  0.1184000E+00
        -11   -1    0    0    0    0  0.00000000000E+00  0.00000000000E+00  0.45593999997E+02  0.45594000000E+02  0.51100000000E-03 0.  1.
         11   -1    0    0    0    0 -0.00000000000E+00 -0.00000000000E+00 -0.45593999997E+02  0.45594000000E+02  0.51100000000E-03 0. -1.
         23    2    1    2    0    0  0.00000000000E+00  0.00000000000E+00 -0.35527136788E-14  0.91188000000E+02  0.91188000000E+02 0.  0.
    9900012    2    3    3    0    0  0.25900675216E+02 -0.24380918449E+01 -0.26057471586E+02  0.54367067177E+02  0.39999961244E+02 0.  0.
        -12    1    3    3    0    0 -0.25900675216E+02  0.24380918449E+01  0.26057471586E+02  0.36820932823E+02  0.00000000000E+00 0.  1.
         11    1    4    4    0    0  0.60642197799E+01  0.53349718643E+01 -0.23163552486E+02  0.24531344243E+02  0.51100000000E-03 0. -1.
        -11    1    4    4    0    0  0.17687820729E+02 -0.58596859727E+01  0.67143104854E+01  0.19805981102E+02  0.51100000000E-03 0.  1.
        -12    1    4    4    0    0  0.21486347071E+01 -0.19133777364E+01 -0.96082295850E+01  0.10029741832E+02  0.00000000000E+00 0.  1.
</event>
<event>
 8    1  0.1253488E-006  0.9118800E+02  0.7816164E-02  0.1184000E+00
        -11   -1    0    0    0    0  0.00000000000E+00  0.00000000000E+00  0.45593999997E+02  0.45594000000E+02  0.51100000000E-03 0. -1.
         11   -1    0    0    0    0 -0.00000000000E+00 -0.00000000000E+00 -0.45593999997E+02  0.45594000000E+02  0.51100000000E-03 0.  1.
         23    2    1    2    0    0  0.00000000000E+00  0.17763568394E-14 -0.71054273576E-14  0.91188000000E+02  0.91188000000E+02 0.  0.
    9900012    2    3    3    0    0  0.61431923220E+01 -0.24043633428E+01  0.36225124803E+02  0.54367089609E+02  0.40000012382E+02 0.  0.
        -12    1    3    3    0    0 -0.61431923220E+01  0.24043633428E+01 -0.36225124803E+02  0.36820910391E+02  0.00000000000E+00 0.  1.
         11    1    4    4    0    0 -0.12244531331E+02  0.67047133413E+01  0.25212995364E+02  0.28819730464E+02  0.51100000000E-03 0. -1.
        -11    1    4    4    0    0  0.75345399300E+01 -0.89306299631E+01  0.30215969344E+01  0.12068781703E+02  0.51100000000E-03 0.  1.
        -12    1    4    4    0    0  0.10853183723E+02 -0.17844672110E+00  0.79905325051E+01  0.13478577443E+02  0.00000000000E+00 0.  1.
</event>
<event>
 8    1  0.1253488E-006  0.9118800E+02  0.7816164E-02  0.1184000E+00
        -11   -1    0    0    0    0  0.00000000000E+00  0.00000000000E+00  0.45593999997E+02  0.45594000000E+02  0.51100000000E-03 0.  1.
         11   -1    0    0    0    0 -0.00000000000E+00 -0.00000000000E+00 -0.45593999997E+02  0.45594000000E+02  0.51100000000E-03 0. -1.
         23    2    1    2    0    0  0.17763568394E-14  0.00000000000E+00  0.00000000000E+00  0.91188000000E+02  0.91188000000E+02 0.  0.
    9900012    2    3    3    0    0  0.84769892761E+01  0.34734014597E+02 -0.88018424082E+01  0.54367033866E+02  0.39999885305E+02 0.  0.
        -12    1    3    3    0    0 -0.84769892761E+01 -0.34734014597E+02  0.88018424082E+01  0.36820966134E+02  0.00000000000E+00 0.  1.
         11    1    4    4    0    0  0.70129307357E+01  0.14343137518E+02 -0.10588532125E+02  0.19157865335E+02  0.51100000000E-03 0. -1.
        -11    1    4    4    0    0 -0.33910723842E+00  0.11008330745E+02  0.15181726521E+02  0.18755883342E+02  0.51100000000E-03 0.  1.
         12    1    4    4    0    0  0.18031657788E+01  0.93825463339E+01 -0.13395036804E+02  0.16453285189E+02  0.00000000000E+00 0. -1.
</event>
<event>
 8    1  0.1253488E-006  0.9118800E+02  0.7816164E-02  0.1184000E+00
        -11   -1    0    0    0    0  0.00000000000E+00  0.00000000000E+00  0.45593999997E+02  0.45594000000E+02  0.51100000000E-03 0.  1.
         11   -1    0    0    0    0 -0.00000000000E+00 -0.00000000000E+00 -0.45593999997E+02  0.45594000000E+02  0.51100000000E-03 0. -1.
         23    2    1    2    0    0  0.00000000000E+00  0.35527136788E-14 -0.35527136788E-14  0.91188000000E+02  0.91188000000E+02 0.  0.
    9900012    2    3    3    0    0 -0.95684257840E+01 -0.27028365924E+02 -0.23101791237E+02  0.54367080744E+02  0.39999992172E+02 0.  0.
        -12    1    3    3    0    0  0.95684257840E+01  0.27028365924E+02  0.23101791237E+02  0.36820919256E+02  0.00000000000E+00 0.  1.
         11    1    4    4    0    0  0.32465844762E+01 -0.10305164018E+02 -0.21612296845E+02  0.24162534871E+02  0.51100000000E-03 0. -1.
        -11    1    4    4    0    0 -0.48802145085E+01  0.12876075036E+00 -0.89055800530E+01  0.10155906130E+02  0.51100000000E-03 0.  1.
         12    1    4    4    0    0 -0.79347957518E+01 -0.16851962657E+02  0.74160856617E+01  0.20048639743E+02  0.00000000000E+00 0. -1.
</event>
<event>
 8    1  0.1253488E-006  0.9118800E+02  0.7816164E-02  0.1184000E+00
        -11   -1    0    0    0    0  0.00000000000E+00  0.00000000000E+00  0.45593999997E+02  0.45594000000E+02  0.51100000000E-03 0. -1.
         11   -1    0    0    0    0 -0.00000000000E+00 -0.00000000000E+00 -0.45593999997E+02  0.45594000000E+02  0.51100000000E-03 0.  1.
         23    2    1    2    0    0  0.00000000000E+00  0.00000000000E+00  0.00000000000E+00  0.91188000000E+02  0.91188000000E+02 0.  0.
    9900012    2    3    3    0    0  0.34460500795E+02 -0.10526919145E+02 -0.75787848898E+01  0.54367080374E+02  0.39999991328E+02 0.  0.
         12    1    3    3    0    0 -0.34460500795E+02  0.10526919145E+02  0.75787848898E+01  0.36820919626E+02  0.00000000000E+00 0. -1.
         11    1    4    4    0    0 -0.26158438354E+01 -0.38552147549E+00 -0.49940803249E+01  0.56508498769E+01  0.51100000000E-03 0. -1.
        -11    1    4    4    0    0 -0.36776700761E+00 -0.73980807787E+01  0.67579425044E+01  0.10026796045E+02  0.51100000000E-03 0.  1.
        -12    1    4    4    0    0  0.37444111638E+02 -0.27433168909E+01 -0.93426470693E+01  0.38689434451E+02  0.00000000000E+00 0.  1.
</event>
<event>
 8    1  0.1253488E-006  0.9118800E+02  0.7816164E-02  0.1184000E+00
        -11   -1    0    0    0    0  0.00000000000E+00  0.00000000000E+00  0.45593999997E+02  0.45594000000E+02  0.51100000000E-03 0. -1.
         11   -1    0    0    0    0 -0.00000000000E+00 -0.00000000000E+00 -0.45593999997E+02  0.45594000000E+02  0.51100000000E-03 0.  1.
         23    2    1    2    0    0  0.26645352591E-14  0.71054273576E-14 -0.17763568394E-14  0.91188000000E+02  0.91188000000E+02 0.  0.
    9900012    2    3    3    0    0 -0.64077292489E+01 -0.34943265116E+02  0.96794202191E+01  0.54367055595E+02  0.39999934839E+02 0.  0.
         12    1    3    3    0    0  0.64077292489E+01  0.34943265116E+02 -0.96794202191E+01  0.36820944405E+02  0.00000000000E+00 0. -1.
         11    1    4    4    0    0 -0.14837605069E+02 -0.23639760476E+02  0.11173176840E+02  0.30063810147E+02  0.51100000000E-03 0. -1.
        -11    1    4    4    0    0  0.96631931731E+01  0.20856301118E+01 -0.39304818206E+01  0.10638413550E+02  0.51100000000E-03 0.  1.
        -12    1    4    4    0    0 -0.12333173526E+01 -0.13389134752E+02  0.24367251993E+01  0.13664831898E+02  0.00000000000E+00 0.  1.
</event>
<event>
 8    1  0.1253488E-006  0.9118800E+02  0.7816164E-02  0.1184000E+00
        -11   -1    0    0    0    0  0.00000000000E+00  0.00000000000E+00  0.45593999997E+02  0.45594000000E+02  0.51100000000E-03 0. -1.
         11   -1    0    0    0    0 -0.00000000000E+00 -0.00000000000E+00 -0.45593999997E+02  0.45594000000E+02  0.51100000000E-03 0.  1.
         23    2    1    2    0    0  0.00000000000E+00  0.00000000000E+00  0.00000000000E+00  0.91188000000E+02  0.91188000000E+02 0.  0.
    9900012    2    3    3    0    0 -0.18804723308E+01  0.35743233792E+02  0.86409815598E+01  0.54367061657E+02  0.39999948661E+02 0.  0.
         12    1    3    3    0    0  0.18804723308E+01 -0.35743233792E+02 -0.86409815598E+01  0.36820938343E+02  0.00000000000E+00 0. -1.
         11    1    4    4    0    0 -0.10139846887E+02  0.24316337749E+01  0.27750212410E+01  0.10790277145E+02  0.51100000000E-03 0.  1.
        -11    1    4    4    0    0  0.11588009838E+02  0.25582425817E+01 -0.93904225932E+00  0.11904132800E+02  0.51100000000E-03 0. -1.
        -12    1    4    4    0    0 -0.33286352812E+01  0.30753357436E+02  0.68050025782E+01  0.31672651712E+02  0.00000000000E+00 0.  1.
</event>
<event>
 8    1  0.1253488E-006  0.9118800E+02  0.7816164E-02  0.1184000E+00
        -11   -1    0    0    0    0  0.00000000000E+00  0.00000000000E+00  0.45593999997E+02  0.45594000000E+02  0.51100000000E-03 0. -1.
         11   -1    0    0    0    0 -0.00000000000E+00 -0.00000000000E+00 -0.45593999997E+02  0.45594000000E+02  0.51100000000E-03 0.  1.
         23    2    1    2    0    0  0.00000000000E+00  0.88817841970E-15  0.35527136788E-14  0.91188000000E+02  0.91188000000E+02 0.  0.
    9900012    2    3    3    0    0  0.18228100202E+02  0.42559329902E+01 -0.31708111537E+02  0.54367069270E+02  0.39999966016E+02 0.  0.
         12    1    3    3    0    0 -0.18228100202E+02 -0.42559329902E+01  0.31708111537E+02  0.36820930730E+02  0.00000000000E+00 0. -1.
         11    1    4    4    0    0  0.55283117745E+01  0.74912733132E+01 -0.21702009145E+01  0.95598733882E+01  0.51100000000E-03 0. -1.
        -11    1    4    4    0    0 -0.67504372452E+01  0.71727683470E+01 -0.16402630926E+02  0.19132781040E+02  0.51100000000E-03 0.  1.
         12    1    4    4    0    0  0.19450225672E+02 -0.10408108670E+02 -0.13135279696E+02  0.25674414842E+02  0.00000000000E+00 0. -1.
</event>
<event>
 8    1  0.1253488E-006  0.9118800E+02  0.7816164E-02  0.1184000E+00
        -11   -1    0    0    0    0  0.00000000000E+00  0.00000000000E+00  0.45593999997E+02  0.45594000000E+02  0.51100000000E-03 0. -1.
         11   -1    0    0    0    0 -0.00000000000E+00 -0.00000000000E+00 -0.45593999997E+02  0.45594000000E+02  0.51100000000E-03 0.  1.
         23    2    1    2    0    0 -0.17763568394E-14 -0.71054273576E-14  0.00000000000E+00  0.91188000000E+02  0.91188000000E+02 0.  0.
    9900012    2    3    3    0    0  0.15021902858E+02  0.33136799939E+02  0.56635093040E+01  0.54367076420E+02  0.39999982314E+02 0.  0.
        -12    1    3    3    0    0 -0.15021902858E+02 -0.33136799939E+02 -0.56635093040E+01  0.36820923580E+02  0.00000000000E+00 0.  1.
         11    1    4    4    0    0  0.11654839445E+02  0.31375096284E+02  0.14090280612E+02  0.36314844861E+02  0.51100000000E-03 0. -1.
        -11    1    4    4    0    0 -0.17483691130E+01 -0.61304610033E+01 -0.20783236552E+01  0.67051305837E+01  0.51100000000E-03 0.  1.
        -12    1    4    4    0    0  0.51154325264E+01  0.78921646585E+01 -0.63484476527E+01  0.11347100975E+02  0.00000000000E+00 0.  1.
</event>
<event>
 8    1  0.1253488E-006  0.9118800E+02  0.7816164E-02  0.1184000E+00
        -11   -1    0    0    0    0  0.00000000000E+00  0.00000000000E+00  0.45593999997E+02  0.45594000000E+02  0.51100000000E-03 0. -1.
         11   -1    0    0    0    0 -0.00000000000E+00 -0.00000000000E+00 -0.45593999997E+02  0.45594000000E+02  0.51100000000E-03 0.  1.
         23    2    1    2    0    0 -0.17763568394E-14  0.00000000000E+00  0.00000000000E+00  0.91188000000E+02  0.91188000000E+02 0.  0.
    9900012    2    3    3    0    0 -0.15963507041E+02 -0.16050750580E+02 -0.29039947436E+02  0.54367099708E+02  0.40000035405E+02 0.  0.
         12    1    3    3    0    0  0.15963507041E+02  0.16050750580E+02  0.29039947436E+02  0.36820900292E+02  0.00000000000E+00 0. -1.
         11    1    4    4    0    0  0.24027522892E+01  0.61302616970E+01  0.15738904072E+01  0.67698196661E+01  0.51100000000E-03 0. -1.
        -11    1    4    4    0    0 -0.11261446646E+02 -0.80635843195E+01 -0.28453881140E+02  0.31645930621E+02  0.51100000000E-03 0.  1.
        -12    1    4    4    0    0 -0.71048126833E+01 -0.14117427957E+02 -0.21599567030E+01  0.15951349421E+02  0.00000000000E+00 0.  1.
</event>
<event>
 8    1  0.1253488E-006  0.9118800E+02  0.7816164E-02  0.1184000E+00
        -11   -1    0    0    0    0  0.00000000000E+00  0.00000000000E+00  0.45593999997E+02  0.45594000000E+02  0.51100000000E-03 0.  1.
         11   -1    0    0    0    0 -0.00000000000E+00 -0.00000000000E+00 -0.45593999997E+02  0.45594000000E+02  0.51100000000E-03 0. -1.
         23    2    1    2    0    0  0.00000000000E+00 -0.11102230246E-14  0.00000000000E+00  0.91188000000E+02  0.91188000000E+02 0.  0.
    9900012    2    3    3    0    0  0.21848392713E+02 -0.12250963146E+01  0.29612968934E+02  0.54367067717E+02  0.39999962474E+02 0.  0.
         12    1    3    3    0    0 -0.21848392713E+02  0.12250963146E+01 -0.29612968934E+02  0.36820932283E+02  0.00000000000E+00 0. -1.
         11    1    4    4    0    0 -0.99179359411E+01  0.38239167180E+01  0.29973058844E+01  0.11044076929E+02  0.51100000000E-03 0. -1.
        -11    1    4    4    0    0  0.94777994139E+01 -0.58115751895E+01  0.47479710891E+01  0.12089099124E+02  0.51100000000E-03 0.  1.
         12    1    4    4    0    0  0.22288529240E+02  0.76256215694E+00  0.21867691960E+02  0.31233891663E+02  0.00000000000E+00 0. -1.
</event>
<event>
 8    1  0.1253488E-006  0.9118800E+02  0.7816164E-02  0.1184000E+00
        -11   -1    0    0    0    0  0.00000000000E+00  0.00000000000E+00  0.45593999997E+02  0.45594000000E+02  0.51100000000E-03 0. -1.
         11   -1    0    0    0    0 -0.00000000000E+00 -0.00000000000E+00 -0.45593999997E+02  0.45594000000E+02  0.51100000000E-03 0.  1.
         23    2    1    2    0    0  0.00000000000E+00  0.00000000000E+00  0.00000000000E+00  0.91188000000E+02  0.91188000000E+02 0.  0.
    9900012    2    3    3    0    0  0.30604383146E+02  0.19768599960E+02  0.53248601960E+01  0.54367082735E+02  0.39999996710E+02 0.  0.
        -12    1    3    3    0    0 -0.30604383146E+02 -0.19768599960E+02 -0.53248601960E+01  0.36820917265E+02  0.00000000000E+00 0.  1.
         11    1    4    4    0    0  0.67264287608E+01  0.20600851820E+02  0.18156317789E+01  0.21747102304E+02  0.51100000000E-03 0.  1.
        -11    1    4    4    0    0  0.20822900957E+02  0.74263034447E+01  0.69377027635E+01  0.23170561215E+02  0.51100000000E-03 0. -1.
        -12    1    4    4    0    0  0.30550534290E+01 -0.82585553049E+01 -0.34284743464E+01  0.94494192161E+01  0.00000000000E+00 0.  1.
</event>
<event>
 8    1  0.1253488E-006  0.9118800E+02  0.7816164E-02  0.1184000E+00
        -11   -1    0    0    0    0  0.00000000000E+00  0.00000000000E+00  0.45593999997E+02  0.45594000000E+02  0.51100000000E-03 0. -1.
         11   -1    0    0    0    0 -0.00000000000E+00 -0.00000000000E+00 -0.45593999997E+02  0.45594000000E+02  0.51100000000E-03 0.  1.
         23    2    1    2    0    0 -0.88817841970E-15  0.00000000000E+00  0.00000000000E+00  0.91188000000E+02  0.91188000000E+02 0.  0.
    9900012    2    3    3    0    0 -0.65853048326E+01  0.20554963114E+02 -0.29831318119E+02  0.54367078107E+02  0.39999986160E+02 0.  0.
         12    1    3    3    0    0  0.65853048326E+01 -0.20554963114E+02  0.29831318119E+02  0.36820921893E+02  0.00000000000E+00 0. -1.
         11    1    4    4    0    0 -0.14735208983E+01 -0.10295036750E+02  0.82432159094E+00  0.10432571680E+02  0.51100000000E-03 0. -1.
        -11    1    4    4    0    0 -0.33243316431E+01  0.98515081578E+01 -0.10169902597E+02  0.14544081715E+02  0.51100000000E-03 0.  1.
         12    1    4    4    0    0 -0.17874522912E+01  0.20998491706E+02 -0.20485737113E+02  0.29390424711E+02  0.00000000000E+00 0. -1.
</event>
<event>
 8    1  0.1253488E-006  0.9118800E+02  0.7816164E-02  0.1184000E+00
        -11   -1    0    0    0    0  0.00000000000E+00  0.00000000000E+00  0.45593999997E+02  0.45594000000E+02  0.51100000000E-03 0. -1.
         11   -1    0    0    0    0 -0.00000000000E+00 -0.00000000000E+00 -0.45593999997E+02  0.45594000000E+02  0.51100000000E-03 0.  1.
         23    2    1    2    0    0  0.00000000000E+00 -0.44408920985E-15  0.00000000000E+00  0.91188000000E+02  0.91188000000E+02 0.  0.
    9900012    2    3    3    0    0 -0.28797463258E+02 -0.13253386383E+01 -0.22906965887E+02  0.54367088838E+02  0.40000010624E+02 0.  0.
         12    1    3    3    0    0  0.28797463258E+02  0.13253386383E+01  0.22906965887E+02  0.36820911162E+02  0.00000000000E+00 0. -1.
         11    1    4    4    0    0 -0.21241942392E+02  0.63707999586E+01  0.42916974989E+01  0.22588180014E+02  0.51100000000E-03 0. -1.
        -11    1    4    4    0    0  0.10240118573E+01 -0.71295505735E+01 -0.16846633624E+02  0.18321794573E+02  0.51100000000E-03 0.  1.
        -12    1    4    4    0    0 -0.85795327241E+01 -0.56658802339E+00 -0.10352029763E+02  0.13457114251E+02  0.00000000000E+00 0.  1.
</event>
<event>
 8    1  0.1253488E-006  0.9118800E+02  0.7816164E-02  0.1184000E+00
        -11   -1    0    0    0    0  0.00000000000E+00  0.00000000000E+00  0.45593999997E+02  0.45594000000E+02  0.51100000000E-03 0. -1.
         11   -1    0    0    0    0 -0.00000000000E+00 -0.00000000000E+00 -0.45593999997E+02  0.45594000000E+02  0.51100000000E-03 0.  1.
         23    2    1    2    0    0  0.00000000000E+00 -0.17763568394E-14  0.00000000000E+00  0.91188000000E+02  0.91188000000E+02 0.  0.
    9900012    2    3    3    0    0 -0.17634020093E+02  0.14150990141E+02 -0.29061523606E+02  0.54367063824E+02  0.39999953599E+02 0.  0.
         12    1    3    3    0    0  0.17634020093E+02 -0.14150990141E+02  0.29061523606E+02  0.36820936176E+02  0.00000000000E+00 0. -1.
         11    1    4    4    0    0 -0.10841297185E+02 -0.87593339386E+01 -0.19866652020E+02  0.24268158530E+02  0.51100000000E-03 0. -1.
        -11    1    4    4    0    0 -0.92739924052E+01  0.10321178616E+02 -0.10210348554E+02  0.17227445574E+02  0.51100000000E-03 0.  1.
         12    1    4    4    0    0  0.24812694979E+01  0.12589145464E+02  0.10154769680E+01  0.12871459719E+02  0.00000000000E+00 0. -1.
</event>
<event>
 8    1  0.1253488E-006  0.9118800E+02  0.7816164E-02  0.1184000E+00
        -11   -1    0    0    0    0  0.00000000000E+00  0.00000000000E+00  0.45593999997E+02  0.45594000000E+02  0.51100000000E-03 0. -1.
         11   -1    0    0    0    0 -0.00000000000E+00 -0.00000000000E+00 -0.45593999997E+02  0.45594000000E+02  0.51100000000E-03 0.  1.
         23    2    1    2    0    0  0.35527136788E-14  0.00000000000E+00 -0.35527136788E-14  0.91188000000E+02  0.91188000000E+02 0.  0.
    9900012    2    3    3    0    0 -0.16708823048E+02 -0.13830437373E+02  0.29754244917E+02  0.54367070406E+02  0.39999968604E+02 0.  0.
        -12    1    3    3    0    0  0.16708823048E+02  0.13830437373E+02 -0.29754244917E+02  0.36820929594E+02  0.00000000000E+00 0.  1.
         11    1    4    4    0    0 -0.19275513380E+02  0.26223732520E+00  0.26927754675E+02  0.33116735295E+02  0.51100000000E-03 0. -1.
        -11    1    4    4    0    0 -0.11716328591E+01  0.29066959495E+01  0.22082518675E+01  0.38337946569E+01  0.51100000000E-03 0.  1.
        -12    1    4    4    0    0  0.37383231916E+01 -0.16999370648E+02  0.61823837477E+00  0.17416540454E+02  0.00000000000E+00 0.  1.
</event>
<event>
 8    1  0.1253488E-006  0.9118800E+02  0.7816164E-02  0.1184000E+00
        -11   -1    0    0    0    0  0.00000000000E+00  0.00000000000E+00  0.45593999997E+02  0.45594000000E+02  0.51100000000E-03 0. -1.
         11   -1    0    0    0    0 -0.00000000000E+00 -0.00000000000E+00 -0.45593999997E+02  0.45594000000E+02  0.51100000000E-03 0.  1.
         23    2    1    2    0    0  0.00000000000E+00  0.00000000000E+00  0.17763568394E-14  0.91188000000E+02  0.91188000000E+02 0.  0.
    9900012    2    3    3    0    0 -0.33214406872E+02 -0.94281393385E+01 -0.12794267265E+02  0.54367083253E+02  0.39999997893E+02 0.  0.
         12    1    3    3    0    0  0.33214406872E+02  0.94281393385E+01  0.12794267265E+02  0.36820916747E+02  0.00000000000E+00 0. -1.
         11    1    4    4    0    0  0.34818377076E+01 -0.56476110651E+01  0.31856468116E+01  0.73598267937E+01  0.51100000000E-03 0. -1.
        -11    1    4    4    0    0 -0.21090326487E+02  0.20660064425E+01  0.33837065280E+01  0.21459723299E+02  0.51100000000E-03 0.  1.
        -12    1    4    4    0    0 -0.15605918092E+02 -0.58465347159E+01 -0.19363620604E+02  0.25547533161E+02  0.00000000000E+00 0.  1.
</event>
<event>
 8    1  0.1253488E-006  0.9118800E+02  0.7816164E-02  0.1184000E+00
        -11   -1    0    0    0    0  0.00000000000E+00  0.00000000000E+00  0.45593999997E+02  0.45594000000E+02  0.51100000000E-03 0.  1.
         11   -1    0    0    0    0 -0.00000000000E+00 -0.00000000000E+00 -0.45593999997E+02  0.45594000000E+02  0.51100000000E-03 0. -1.
         23    2    1    2    0    0  0.00000000000E+00  0.00000000000E+00 -0.44408920985E-15  0.91188000000E+02  0.91188000000E+02 0.  0.
    9900012    2    3    3    0    0  0.36048146044E+02  0.69542427482E+01 -0.28193918621E+01  0.54367091594E+02  0.40000016907E+02 0.  0.
        -12    1    3    3    0    0 -0.36048146044E+02 -0.69542427482E+01  0.28193918621E+01  0.36820908406E+02  0.00000000000E+00 0.  1.
         11    1    4    4    0    0  0.41495909683E+02  0.14612327606E+02 -0.23643444814E+01  0.44057017188E+02  0.51100000000E-03 0. -1.
        -11    1    4    4    0    0 -0.29412431024E+01 -0.69989373505E+01 -0.10125034572E+01  0.76590598989E+01  0.51100000000E-03 0.  1.
         12    1    4    4    0    0 -0.25065205368E+01 -0.65914750692E+00  0.55745607650E+00  0.26510145067E+01  0.00000000000E+00 0. -1.
</event>
<event>
 8    1  0.1253488E-006  0.9118800E+02  0.7816164E-02  0.1184000E+00
        -11   -1    0    0    0    0  0.00000000000E+00  0.00000000000E+00  0.45593999997E+02  0.45594000000E+02  0.51100000000E-03 0. -1.
         11   -1    0    0    0    0 -0.00000000000E+00 -0.00000000000E+00 -0.45593999997E+02  0.45594000000E+02  0.51100000000E-03 0.  1.
         23    2    1    2    0    0 -0.44408920985E-15  0.00000000000E+00  0.71054273576E-14  0.91188000000E+02  0.91188000000E+02 0.  0.
    9900012    2    3    3    0    0 -0.28190763387E+01 -0.24752232251E+02 -0.27113824560E+02  0.54367086444E+02  0.40000005167E+02 0.  0.
         12    1    3    3    0    0  0.28190763387E+01  0.24752232251E+02  0.27113824560E+02  0.36820913556E+02  0.00000000000E+00 0. -1.
         11    1    4    4    0    0  0.72199848467E+01 -0.92364920307E+01 -0.96587162479E+01  0.15189857341E+02  0.51100000000E-03 0. -1.
        -11    1    4    4    0    0 -0.99636130244E+00 -0.27593015229E+01 -0.22543606614E+02  0.22733690421E+02  0.51100000000E-03 0.  1.
         12    1    4    4    0    0 -0.90426998830E+01 -0.12756438698E+02  0.50884983019E+01  0.16443538682E+02  0.00000000000E+00 0. -1.
</event>
<event>
 8    1  0.1253488E-006  0.9118800E+02  0.7816164E-02  0.1184000E+00
        -11   -1    0    0    0    0  0.00000000000E+00  0.00000000000E+00  0.45593999997E+02  0.45594000000E+02  0.51100000000E-03 0.  1.
         11   -1    0    0    0    0 -0.00000000000E+00 -0.00000000000E+00 -0.45593999997E+02  0.45594000000E+02  0.51100000000E-03 0. -1.
         23    2    1    2    0    0  0.00000000000E+00  0.00000000000E+00  0.00000000000E+00  0.91188000000E+02  0.91188000000E+02 0.  0.
    9900012    2    3    3    0    0 -0.16978911534E+02  0.26691081544E+02 -0.18843218774E+02  0.54367297065E+02  0.40000485316E+02 0.  0.
        -12    1    3    3    0    0  0.16978911534E+02 -0.26691081544E+02  0.18843218774E+02  0.36820702935E+02  0.00000000000E+00 0.  1.
         11    1    4    4    0    0  0.60006340407E+01  0.14186874797E+02 -0.56367997275E+01  0.16402699072E+02  0.51100000000E-03 0. -1.
        -11    1    4    4    0    0 -0.54922417402E+01  0.72387990669E+01  0.64427591921E+01  0.11138854408E+02  0.51100000000E-03 0.  1.
         12    1    4    4    0    0 -0.17487303834E+02  0.52654076801E+01 -0.19649178238E+02  0.26825743585E+02  0.00000000000E+00 0. -1.
</event>
<event>
 8    1  0.1253488E-006  0.9118800E+02  0.7816164E-02  0.1184000E+00
        -11   -1    0    0    0    0  0.00000000000E+00  0.00000000000E+00  0.45593999997E+02  0.45594000000E+02  0.51100000000E-03 0. -1.
         11   -1    0    0    0    0 -0.00000000000E+00 -0.00000000000E+00 -0.45593999997E+02  0.45594000000E+02  0.51100000000E-03 0.  1.
         23    2    1    2    0    0  0.35527136788E-14  0.17763568394E-14  0.35527136788E-14  0.91188000000E+02  0.91188000000E+02 0.  0.
    9900012    2    3    3    0    0  0.18543699704E+02  0.97423535628E+01  0.30281971022E+02  0.54367081752E+02  0.39999994469E+02 0.  0.
        -12    1    3    3    0    0 -0.18543699704E+02 -0.97423535628E+01 -0.30281971022E+02  0.36820918248E+02  0.00000000000E+00 0.  1.
         11    1    4    4    0    0  0.10880545370E+02  0.36260618270E+01  0.21690149664E+02  0.24535630919E+02  0.51100000000E-03 0. -1.
        -11    1    4    4    0    0 -0.83753308929E+01  0.66625879173E+01  0.86859398808E+01  0.13783388451E+02  0.51100000000E-03 0.  1.
        -12    1    4    4    0    0  0.16038485227E+02 -0.54629618154E+00 -0.94118522001E-01  0.16048062381E+02  0.00000000000E+00 0.  1.
</event>
<event>
 8    1  0.1253488E-006  0.9118800E+02  0.7816164E-02  0.1184000E+00
        -11   -1    0    0    0    0  0.00000000000E+00  0.00000000000E+00  0.45593999997E+02  0.45594000000E+02  0.51100000000E-03 0. -1.
         11   -1    0    0    0    0 -0.00000000000E+00 -0.00000000000E+00 -0.45593999997E+02  0.45594000000E+02  0.51100000000E-03 0.  1.
         23    2    1    2    0    0  0.71054273576E-14  0.00000000000E+00  0.00000000000E+00  0.91188000000E+02  0.91188000000E+02 0.  0.
    9900012    2    3    3    0    0 -0.32210126144E+02  0.84786383247E+01  0.15697146918E+02  0.54367082637E+02  0.39999996488E+02 0.  0.
        -12    1    3    3    0    0  0.32210126144E+02 -0.84786383247E+01 -0.15697146918E+02  0.36820917363E+02  0.00000000000E+00 0.  1.
         11    1    4    4    0    0 -0.80946174301E+01  0.46692918656E+01  0.56589243793E+01  0.10924675888E+02  0.51100000000E-03 0. -1.
        -11    1    4    4    0    0  0.74490442979E+01  0.54493719579E+01  0.72045240646E+01  0.11708504727E+02  0.51100000000E-03 0.  1.
        -12    1    4    4    0    0 -0.31564553012E+02 -0.16400254988E+01  0.28336984740E+01  0.31733902022E+02  0.00000000000E+00 0.  1.
</event>
<event>
 8    1  0.1253488E-006  0.9118800E+02  0.7816164E-02  0.1184000E+00
        -11   -1    0    0    0    0  0.00000000000E+00  0.00000000000E+00  0.45593999997E+02  0.45594000000E+02  0.51100000000E-03 0.  1.
         11   -1    0    0    0    0 -0.00000000000E+00 -0.00000000000E+00 -0.45593999997E+02  0.45594000000E+02  0.51100000000E-03 0. -1.
         23    2    1    2    0    0  0.00000000000E+00  0.35527136788E-14  0.00000000000E+00  0.91188000000E+02  0.91188000000E+02 0.  0.
    9900012    2    3    3    0    0  0.11793046152E+02  0.24895384537E+02  0.24431806105E+02  0.54367227896E+02  0.40000327634E+02 0.  0.
         12    1    3    3    0    0 -0.11793046152E+02 -0.24895384537E+02 -0.24431806105E+02  0.36820772104E+02  0.00000000000E+00 0. -1.
         11    1    4    4    0    0  0.57815486341E+01 -0.10614664328E+01  0.40230576935E+01  0.71230617759E+01  0.51100000000E-03 0. -1.
        -11    1    4    4    0    0  0.17248377580E+02  0.10987027779E+02  0.19876885045E+02  0.28518623177E+02  0.51100000000E-03 0.  1.
        -12    1    4    4    0    0 -0.11236880062E+02  0.14969823190E+02  0.53186336599E+00  0.18725542943E+02  0.00000000000E+00 0.  1.
</event>
<event>
 8    1  0.1253488E-006  0.9118800E+02  0.7816164E-02  0.1184000E+00
        -11   -1    0    0    0    0  0.00000000000E+00  0.00000000000E+00  0.45593999997E+02  0.45594000000E+02  0.51100000000E-03 0.  1.
         11   -1    0    0    0    0 -0.00000000000E+00 -0.00000000000E+00 -0.45593999997E+02  0.45594000000E+02  0.51100000000E-03 0. -1.
         23    2    1    2    0    0  0.88817841970E-15  0.00000000000E+00  0.35527136788E-14  0.91188000000E+02  0.91188000000E+02 0.  0.
    9900012    2    3    3    0    0 -0.57401081610E+01 -0.26277996114E+02  0.25145538547E+02  0.54367081620E+02  0.39999994170E+02 0.  0.
         12    1    3    3    0    0  0.57401081610E+01  0.26277996114E+02 -0.25145538547E+02  0.36820918380E+02  0.00000000000E+00 0. -1.
         11    1    4    4    0    0  0.65122365257E+01 -0.28264359968E+01 -0.18207258992E+01  0.73289158865E+01  0.51100000000E-03 0. -1.
        -11    1    4    4    0    0 -0.11930837478E+02 -0.34248272457E+01 -0.12064913897E+01  0.12471164594E+02  0.51100000000E-03 0.  1.
        -12    1    4    4    0    0 -0.32150720860E+00 -0.20026732872E+02  0.28172755836E+02  0.34567001140E+02  0.00000000000E+00 0.  1.
</event>
<event>
 8    1  0.1253488E-006  0.9118800E+02  0.7816164E-02  0.1184000E+00
        -11   -1    0    0    0    0  0.00000000000E+00  0.00000000000E+00  0.45593999997E+02  0.45594000000E+02  0.51100000000E-03 0.  1.
         11   -1    0    0    0    0 -0.00000000000E+00 -0.00000000000E+00 -0.45593999997E+02  0.45594000000E+02  0.51100000000E-03 0. -1.
         23    2    1    2    0    0 -0.35527136788E-14 -0.88817841970E-15 -0.35527136788E-14  0.91188000000E+02  0.91188000000E+02 0.  0.
    9900012    2    3    3    0    0 -0.28518530387E+02 -0.11244696562E+01 -0.23263941667E+02  0.54367055019E+02  0.39999933526E+02 0.  0.
         12    1    3    3    0    0  0.28518530387E+02  0.11244696562E+01  0.23263941667E+02  0.36820944981E+02  0.00000000000E+00 0. -1.
         11    1    4    4    0    0 -0.14699945443E+02  0.24188793082E+01 -0.19482979127E+02  0.24526023914E+02  0.51100000000E-03 0. -1.
        -11    1    4    4    0    0 -0.16495903301E+02 -0.12006807983E+02 -0.60082048793E+00  0.20411742923E+02  0.51100000000E-03 0.  1.
        -12    1    4    4    0    0  0.26773183567E+01  0.84634590181E+01 -0.31801420524E+01  0.94292881814E+01  0.00000000000E+00 0.  1.
</event>
<event>
 8    1  0.1253488E-006  0.9118800E+02  0.7816164E-02  0.1184000E+00
        -11   -1    0    0    0    0  0.00000000000E+00  0.00000000000E+00  0.45593999997E+02  0.45594000000E+02  0.51100000000E-03 0. -1.
         11   -1    0    0    0    0 -0.00000000000E+00 -0.00000000000E+00 -0.45593999997E+02  0.45594000000E+02  0.51100000000E-03 0.  1.
         23    2    1    2    0    0  0.71054273576E-14  0.35527136788E-14 -0.13322676296E-14  0.91188000000E+02  0.91188000000E+02 0.  0.
    9900012    2    3    3    0    0  0.25143743876E+02  0.26666765945E+02 -0.35292722795E+01  0.54367081695E+02  0.39999994339E+02 0.  0.
         12    1    3    3    0    0 -0.25143743876E+02 -0.26666765945E+02  0.35292722795E+01  0.36820918305E+02  0.00000000000E+00 0. -1.
         11    1    4    4    0    0  0.94570012131E+01  0.84536073323E+01 -0.24692460129E+01  0.12922674839E+02  0.51100000000E-03 0. -1.
        -11    1    4    4    0    0  0.17311955517E+02  0.35511272655E+01 -0.13426957509E+02  0.22194537546E+02  0.51100000000E-03 0.  1.
         12    1    4    4    0    0 -0.16252128543E+01  0.14662031347E+02  0.12366931243E+02  0.19249869309E+02  0.00000000000E+00 0. -1.
</event>
<event>
 8    1  0.1253488E-006  0.9118800E+02  0.7816164E-02  0.1184000E+00
        -11   -1    0    0    0    0  0.00000000000E+00  0.00000000000E+00  0.45593999997E+02  0.45594000000E+02  0.51100000000E-03 0. -1.
         11   -1    0    0    0    0 -0.00000000000E+00 -0.00000000000E+00 -0.45593999997E+02  0.45594000000E+02  0.51100000000E-03 0.  1.
         23    2    1    2    0    0  0.00000000000E+00  0.00000000000E+00 -0.17763568394E-14  0.91188000000E+02  0.91188000000E+02 0.  0.
    9900012    2    3    3    0    0  0.19662746069E+02 -0.29480090009E+02  0.10004022865E+02  0.54367085245E+02  0.40000002434E+02 0.  0.
        -12    1    3    3    0    0 -0.19662746069E+02  0.29480090009E+02 -0.10004022865E+02  0.36820914755E+02  0.00000000000E+00 0.  1.
         11    1    4    4    0    0 -0.26781693885E+01 -0.18269941559E+02  0.10606448465E+02  0.21294602723E+02  0.51100000000E-03 0. -1.
        -11    1    4    4    0    0 -0.26278469259E+00 -0.71780777168E+01  0.58042621664E+01  0.92348965917E+01  0.51100000000E-03 0.  1.
         12    1    4    4    0    0  0.22603700150E+02 -0.40320707327E+01 -0.64066877663E+01  0.23837585930E+02  0.00000000000E+00 0. -1.
</event>
<event>
 8    1  0.1253488E-006  0.9118800E+02  0.7816164E-02  0.1184000E+00
        -11   -1    0    0    0    0  0.00000000000E+00  0.00000000000E+00  0.45593999997E+02  0.45594000000E+02  0.51100000000E-03 0.  1.
         11   -1    0    0    0    0 -0.00000000000E+00 -0.00000000000E+00 -0.45593999997E+02  0.45594000000E+02  0.51100000000E-03 0. -1.
         23    2    1    2    0    0 -0.71054273576E-14 -0.13322676296E-14  0.35527136788E-14  0.91188000000E+02  0.91188000000E+02 0.  0.
    9900012    2    3    3    0    0 -0.29029692675E+02 -0.35965868185E+01 -0.22363381000E+02  0.54367091493E+02  0.40000016676E+02 0.  0.
         12    1    3    3    0    0  0.29029692675E+02  0.35965868185E+01  0.22363381000E+02  0.36820908507E+02  0.00000000000E+00 0. -1.
         11    1    4    4    0    0  0.12226586097E+01 -0.11808969091E+02 -0.24457562667E+01  0.12121401282E+02  0.51100000000E-03 0. -1.
        -11    1    4    4    0    0 -0.11781857040E+02  0.29047965752E+01 -0.19567313865E+02  0.23024547131E+02  0.51100000000E-03 0.  1.
        -12    1    4    4    0    0 -0.18470494244E+02  0.53075856972E+01 -0.35031086886E+00  0.19221143079E+02  0.00000000000E+00 0.  1.
</event>
<event>
 8    1  0.1253488E-006  0.9118800E+02  0.7816164E-02  0.1184000E+00
        -11   -1    0    0    0    0  0.00000000000E+00  0.00000000000E+00  0.45593999997E+02  0.45594000000E+02  0.51100000000E-03 0.  1.
         11   -1    0    0    0    0 -0.00000000000E+00 -0.00000000000E+00 -0.45593999997E+02  0.45594000000E+02  0.51100000000E-03 0. -1.
         23    2    1    2    0    0 -0.66613381478E-15  0.00000000000E+00 -0.35527136788E-14  0.91188000000E+02  0.91188000000E+02 0.  0.
    9900012    2    3    3    0    0  0.14000294010E+01  0.22860147211E+02  0.28831127228E+02  0.54367077821E+02  0.39999985509E+02 0.  0.
         12    1    3    3    0    0 -0.14000294010E+01 -0.22860147211E+02 -0.28831127228E+02  0.36820922179E+02  0.00000000000E+00 0. -1.
         11    1    4    4    0    0  0.59437279623E+01  0.27803582609E+02  0.23466438991E+02  0.36865171465E+02  0.51100000000E-03 0.  1.
        -11    1    4    4    0    0 -0.14186159650E+01 -0.89352384583E+01  0.77374001163E+01  0.11904550323E+02  0.51100000000E-03 0. -1.
        -12    1    4    4    0    0 -0.31250825963E+01  0.39918030603E+01 -0.23727118789E+01  0.55973560335E+01  0.00000000000E+00 0.  1.
</event>
<event>
 8    1  0.1253488E-006  0.9118800E+02  0.7816164E-02  0.1184000E+00
        -11   -1    0    0    0    0  0.00000000000E+00  0.00000000000E+00  0.45593999997E+02  0.45594000000E+02  0.51100000000E-03 0.  1.
         11   -1    0    0    0    0 -0.00000000000E+00 -0.00000000000E+00 -0.45593999997E+02  0.45594000000E+02  0.51100000000E-03 0. -1.
         23    2    1    2    0    0  0.17763568394E-14  0.35527136788E-14  0.00000000000E+00  0.91188000000E+02  0.91188000000E+02 0.  0.
    9900012    2    3    3    0    0 -0.97819233142E+01 -0.29098584883E+02  0.20331431487E+02  0.54367071546E+02  0.39999971203E+02 0.  0.
         12    1    3    3    0    0  0.97819233142E+01  0.29098584883E+02 -0.20331431487E+02  0.36820928454E+02  0.00000000000E+00 0. -1.
         11    1    4    4    0    0 -0.87521239787E+01 -0.23332459955E+02  0.74406175038E+01  0.26007040408E+02  0.51100000000E-03 0. -1.
        -11    1    4    4    0    0  0.88645913307E+01 -0.10931640540E+02  0.65582757469E+01  0.15527160893E+02  0.51100000000E-03 0.  1.
         12    1    4    4    0    0 -0.98943906661E+01  0.51655156126E+01  0.63325382365E+01  0.12832870245E+02  0.00000000000E+00 0. -1.
</event>
<event>
 8    1  0.1253488E-006  0.9118800E+02  0.7816164E-02  0.1184000E+00
        -11   -1    0    0    0    0  0.00000000000E+00  0.00000000000E+00  0.45593999997E+02  0.45594000000E+02  0.51100000000E-03 0. -1.
         11   -1    0    0    0    0 -0.00000000000E+00 -0.00000000000E+00 -0.45593999997E+02  0.45594000000E+02  0.51100000000E-03 0.  1.
         23    2    1    2    0    0  0.00000000000E+00  0.00000000000E+00  0.00000000000E+00  0.91188000000E+02  0.91188000000E+02 0.  0.
    9900012    2    3    3    0    0 -0.16290893391E+02 -0.11333813052E+02 -0.31015021900E+02  0.54367080549E+02  0.39999991727E+02 0.  0.
         12    1    3    3    0    0  0.16290893391E+02  0.11333813052E+02  0.31015021900E+02  0.36820919451E+02  0.00000000000E+00 0. -1.
         11    1    4    4    0    0 -0.83691350812E+01  0.65289061815E+00  0.90719762857E+00  0.84434410026E+01  0.51100000000E-03 0. -1.
        -11    1    4    4    0    0  0.63858364335E+01  0.40307203141E+01 -0.19958145108E+02  0.21339005825E+02  0.51100000000E-03 0.  1.
        -12    1    4    4    0    0 -0.14307594743E+02 -0.16017423985E+02 -0.11964074421E+02  0.24584633721E+02  0.00000000000E+00 0.  1.
</event>
<event>
 8    1  0.1253488E-006  0.9118800E+02  0.7816164E-02  0.1184000E+00
        -11   -1    0    0    0    0  0.00000000000E+00  0.00000000000E+00  0.45593999997E+02  0.45594000000E+02  0.51100000000E-03 0. -1.
         11   -1    0    0    0    0 -0.00000000000E+00 -0.00000000000E+00 -0.45593999997E+02  0.45594000000E+02  0.51100000000E-03 0.  1.
         23    2    1    2    0    0  0.00000000000E+00  0.00000000000E+00 -0.44408920985E-15  0.91188000000E+02  0.91188000000E+02 0.  0.
    9900012    2    3    3    0    0  0.26837976529E+02  0.24929696998E+02 -0.37434199061E+01  0.54367082451E+02  0.39999996063E+02 0.  0.
         12    1    3    3    0    0 -0.26837976529E+02 -0.24929696998E+02  0.37434199061E+01  0.36820917549E+02  0.00000000000E+00 0. -1.
         11    1    4    4    0    0  0.19453729280E+02  0.40275893945E+01  0.24317366991E+01  0.20014554775E+02  0.51100000000E-03 0. -1.
        -11    1    4    4    0    0  0.80306832530E+01  0.22517385531E+00  0.62873152645E+01  0.10201613121E+02  0.51100000000E-03 0.  1.
         12    1    4    4    0    0 -0.64643600379E+00  0.20676933748E+02 -0.12462471870E+02  0.24150914555E+02  0.00000000000E+00 0. -1.
</event>
<event>
 8    1  0.1253488E-006  0.9118800E+02  0.7816164E-02  0.1184000E+00
        -11   -1    0    0    0    0  0.00000000000E+00  0.00000000000E+00  0.45593999997E+02  0.45594000000E+02  0.51100000000E-03 0. -1.
         11   -1    0    0    0    0 -0.00000000000E+00 -0.00000000000E+00 -0.45593999997E+02  0.45594000000E+02  0.51100000000E-03 0.  1.
         23    2    1    2    0    0  0.35527136788E-14  0.00000000000E+00 -0.71054273576E-14  0.91188000000E+02  0.91188000000E+02 0.  0.
    9900012    2    3    3    0    0 -0.16308606088E+02  0.39336335747E+01  0.32777097725E+02  0.54367051602E+02  0.39999925738E+02 0.  0.
        -12    1    3    3    0    0  0.16308606088E+02 -0.39336335747E+01 -0.32777097725E+02  0.36820948398E+02  0.00000000000E+00 0.  1.
         11    1    4    4    0    0 -0.23160355075E+02  0.99148870559E+01  0.30510464552E+02  0.39567606447E+02  0.51100000000E-03 0. -1.
        -11    1    4    4    0    0  0.10092567778E+02 -0.43882298087E+01  0.19218823877E+01  0.11171844851E+02  0.51100000000E-03 0.  1.
         12    1    4    4    0    0 -0.32408187913E+01 -0.15930236725E+01  0.34475078508E+00  0.36276003037E+01  0.00000000000E+00 0. -1.
</event>
<event>
 8    1  0.1253488E-006  0.9118800E+02  0.7816164E-02  0.1184000E+00
        -11   -1    0    0    0    0  0.00000000000E+00  0.00000000000E+00  0.45593999997E+02  0.45594000000E+02  0.51100000000E-03 0. -1.
         11   -1    0    0    0    0 -0.00000000000E+00 -0.00000000000E+00 -0.45593999997E+02  0.45594000000E+02  0.51100000000E-03 0.  1.
         23    2    1    2    0    0  0.00000000000E+00  0.00000000000E+00  0.00000000000E+00  0.91188000000E+02  0.91188000000E+02 0.  0.
    9900012    2    3    3    0    0  0.22892360059E+01 -0.33914553423E+02  0.14154224098E+02  0.54367087529E+02  0.40000007641E+02 0.  0.
        -12    1    3    3    0    0 -0.22892360059E+01  0.33914553423E+02 -0.14154224098E+02  0.36820912471E+02  0.00000000000E+00 0.  1.
         11    1    4    4    0    0 -0.95902784681E-01  0.66705511245E+01  0.14736531426E+01  0.68320643655E+01  0.51100000000E-03 0. -1.
        -11    1    4    4    0    0  0.95310642928E+01 -0.11483718004E+02  0.87838124280E+01  0.17316822075E+02  0.51100000000E-03 0.  1.
         12    1    4    4    0    0 -0.71459255022E+01 -0.29101386543E+02  0.38967585278E+01  0.30218201088E+02  0.00000000000E+00 0. -1.
</event>
<event>
 8    1  0.1253488E-006  0.9118800E+02  0.7816164E-02  0.1184000E+00
        -11   -1    0    0    0    0  0.00000000000E+00  0.00000000000E+00  0.45593999997E+02  0.45594000000E+02  0.51100000000E-03 0. -1.
         11   -1    0    0    0    0 -0.00000000000E+00 -0.00000000000E+00 -0.45593999997E+02  0.45594000000E+02  0.51100000000E-03 0.  1.
         23    2    1    2    0    0  0.00000000000E+00  0.00000000000E+00 -0.35527136788E-14  0.91188000000E+02  0.91188000000E+02 0.  0.
    9900012    2    3    3    0    0  0.21417836134E+02 -0.90332755761E+01 -0.28556185291E+02  0.54367088949E+02  0.40000010877E+02 0.  0.
         12    1    3    3    0    0 -0.21417836134E+02  0.90332755761E+01  0.28556185291E+02  0.36820911051E+02  0.00000000000E+00 0. -1.
         11    1    4    4    0    0  0.82875849997E+01 -0.42880427013E+01  0.16574713596E+01  0.94772668478E+01  0.51100000000E-03 0. -1.
        -11    1    4    4    0    0  0.86337339041E+01 -0.37132510679E+00 -0.35592489469E+02  0.36626555262E+02  0.51100000000E-03 0.  1.
        -12    1    4    4    0    0  0.44965172298E+01 -0.43739077680E+01  0.53788328191E+01  0.82632668393E+01  0.00000000000E+00 0.  1.
</event>
<event>
 8    1  0.1253488E-006  0.9118800E+02  0.7816164E-02  0.1184000E+00
        -11   -1    0    0    0    0  0.00000000000E+00  0.00000000000E+00  0.45593999997E+02  0.45594000000E+02  0.51100000000E-03 0.  1.
         11   -1    0    0    0    0 -0.00000000000E+00 -0.00000000000E+00 -0.45593999997E+02  0.45594000000E+02  0.51100000000E-03 0. -1.
         23    2    1    2    0    0  0.17763568394E-14  0.00000000000E+00  0.00000000000E+00  0.91188000000E+02  0.91188000000E+02 0.  0.
    9900012    2    3    3    0    0  0.10783132124E+02 -0.36931791263E+01 -0.35012354273E+02  0.54367075756E+02  0.39999980802E+02 0.  0.
         12    1    3    3    0    0 -0.10783132124E+02  0.36931791263E+01  0.35012354273E+02  0.36820924244E+02  0.00000000000E+00 0. -1.
         11    1    4    4    0    0 -0.23606183163E+01 -0.29013255150E+01 -0.14035267095E+01  0.39950088942E+01  0.51100000000E-03 0. -1.
        -11    1    4    4    0    0  0.12331547799E+02 -0.62638652001E+01  0.23160091464E+01  0.14023800376E+02  0.51100000000E-03 0.  1.
         12    1    4    4    0    0  0.81220264154E+00  0.54720115888E+01 -0.35924836709E+02  0.36348266486E+02  0.00000000000E+00 0. -1.
</event>
<event>
 8    1  0.1253488E-006  0.9118800E+02  0.7816164E-02  0.1184000E+00
        -11   -1    0    0    0    0  0.00000000000E+00  0.00000000000E+00  0.45593999997E+02  0.45594000000E+02  0.51100000000E-03 0.  1.
         11   -1    0    0    0    0 -0.00000000000E+00 -0.00000000000E+00 -0.45593999997E+02  0.45594000000E+02  0.51100000000E-03 0. -1.
         23    2    1    2    0    0  0.00000000000E+00  0.00000000000E+00  0.00000000000E+00  0.91188000000E+02  0.91188000000E+02 0.  0.
    9900012    2    3    3    0    0  0.20412307833E+02 -0.16583959605E+02 -0.25769649519E+02  0.54367287574E+02  0.40000463679E+02 0.  0.
        -12    1    3    3    0    0 -0.20412307833E+02  0.16583959605E+02  0.25769649519E+02  0.36820712426E+02  0.00000000000E+00 0.  1.
         11    1    4    4    0    0  0.46629791560E+01 -0.34705016379E+01 -0.24240549153E+02  0.24927735151E+02  0.51100000000E-03 0. -1.
        -11    1    4    4    0    0 -0.36865681557E+01 -0.73557681940E+00 -0.48740451895E+01  0.61553370983E+01  0.51100000000E-03 0.  1.
        -12    1    4    4    0    0  0.19435896833E+02 -0.12377881148E+02  0.33449448243E+01  0.23284215325E+02  0.00000000000E+00 0.  1.
</event>
<event>
 8    1  0.1253488E-006  0.9118800E+02  0.7816164E-02  0.1184000E+00
        -11   -1    0    0    0    0  0.00000000000E+00  0.00000000000E+00  0.45593999997E+02  0.45594000000E+02  0.51100000000E-03 0. -1.
         11   -1    0    0    0    0 -0.00000000000E+00 -0.00000000000E+00 -0.45593999997E+02  0.45594000000E+02  0.51100000000E-03 0.  1.
         23    2    1    2    0    0 -0.22204460493E-15 -0.44408920985E-15 -0.71054273576E-14  0.91188000000E+02  0.91188000000E+02 0.  0.
    9900012    2    3    3    0    0 -0.18074625672E+01  0.16116777626E+01 -0.36741176121E+02  0.54367103094E+02  0.40000043124E+02 0.  0.
         12    1    3    3    0    0  0.18074625672E+01 -0.16116777626E+01  0.36741176121E+02  0.36820896906E+02  0.00000000000E+00 0. -1.
         11    1    4    4    0    0 -0.14740593293E+01  0.13026725698E+01  0.15999750192E+01  0.25356906462E+01  0.51100000000E-03 0. -1.
        -11    1    4    4    0    0  0.25365537684E+01 -0.14304631037E+02 -0.50834954494E+01  0.15391507411E+02  0.51100000000E-03 0.  1.
         12    1    4    4    0    0 -0.28699570063E+01  0.14613636230E+02 -0.33257655691E+02  0.36439905038E+02  0.00000000000E+00 0. -1.
</event>
<event>
 8    1  0.1253488E-006  0.9118800E+02  0.7816164E-02  0.1184000E+00
        -11   -1    0    0    0    0  0.00000000000E+00  0.00000000000E+00  0.45593999997E+02  0.45594000000E+02  0.51100000000E-03 0.  1.
         11   -1    0    0    0    0 -0.00000000000E+00 -0.00000000000E+00 -0.45593999997E+02  0.45594000000E+02  0.51100000000E-03 0. -1.
         23    2    1    2    0    0 -0.71054273576E-14 -0.35527136788E-14 -0.22204460493E-15  0.91188000000E+02  0.91188000000E+02 0.  0.
    9900012    2    3    3    0    0  0.29542700162E+02  0.21966471765E+02 -0.69480173418E+00  0.54367085235E+02  0.40000002411E+02 0.  0.
        -12    1    3    3    0    0 -0.29542700162E+02 -0.21966471765E+02  0.69480173418E+00  0.36820914765E+02  0.00000000000E+00 0.  1.
         11    1    4    4    0    0 -0.21046808382E+00  0.72640040895E+01 -0.10855478347E+02  0.13063363374E+02  0.51100000000E-03 0. -1.
        -11    1    4    4    0    0 -0.14282024725E+01  0.50313887123E+01 -0.30850497978E+01  0.60722456466E+01  0.51100000000E-03 0.  1.
         12    1    4    4    0    0  0.31181370718E+02  0.96710789632E+01  0.13245726411E+02  0.35231476215E+02  0.00000000000E+00 0. -1.
</event>
<event>
 8    1  0.1253488E-006  0.9118800E+02  0.7816164E-02  0.1184000E+00
        -11   -1    0    0    0    0  0.00000000000E+00  0.00000000000E+00  0.45593999997E+02  0.45594000000E+02  0.51100000000E-03 0.  1.
         11   -1    0    0    0    0 -0.00000000000E+00 -0.00000000000E+00 -0.45593999997E+02  0.45594000000E+02  0.51100000000E-03 0. -1.
         23    2    1    2    0    0  0.00000000000E+00 -0.71054273576E-14  0.35527136788E-14  0.91188000000E+02  0.91188000000E+02 0.  0.
    9900012    2    3    3    0    0  0.71351361832E+01  0.32300270593E+02  0.16172885714E+02  0.54367083647E+02  0.39999998790E+02 0.  0.
         12    1    3    3    0    0 -0.71351361832E+01 -0.32300270593E+02 -0.16172885714E+02  0.36820916353E+02  0.00000000000E+00 0. -1.
         11    1    4    4    0    0  0.11563998776E+02 -0.19067625555E+01 -0.41053892294E+01  0.12418374777E+02  0.51100000000E-03 0. -1.
        -11    1    4    4    0    0 -0.14658585934E+01  0.70351109317E+01 -0.10716714861E+01  0.72656732153E+01  0.51100000000E-03 0.  1.
         12    1    4    4    0    0 -0.29630039989E+01  0.27171922217E+02  0.21349946430E+02  0.34683035654E+02  0.00000000000E+00 0. -1.
</event>
<event>
 8    1  0.1253488E-006  0.9118800E+02  0.7816164E-02  0.1184000E+00
        -11   -1    0    0    0    0  0.00000000000E+00  0.00000000000E+00  0.45593999997E+02  0.45594000000E+02  0.51100000000E-03 0.  1.
         11   -1    0    0    0    0 -0.00000000000E+00 -0.00000000000E+00 -0.45593999997E+02  0.45594000000E+02  0.51100000000E-03 0. -1.
         23    2    1    2    0    0  0.44408920985E-14  0.00000000000E+00  0.00000000000E+00  0.91188000000E+02  0.91188000000E+02 0.  0.
    9900012    2    3    3    0    0 -0.13164720412E+01 -0.31131863820E+02  0.19617694454E+02  0.54367082314E+02  0.39999995751E+02 0.  0.
         12    1    3    3    0    0  0.13164720412E+01  0.31131863820E+02 -0.19617694454E+02  0.36820917686E+02  0.00000000000E+00 0. -1.
         11    1    4    4    0    0 -0.72591482068E+01 -0.34706722917E+01  0.30807246564E+01  0.86157799133E+01  0.51100000000E-03 0. -1.
        -11    1    4    4    0    0  0.15120173179E+02 -0.28943370770E+02  0.16263406458E+02  0.36480635114E+02  0.51100000000E-03 0.  1.
        -12    1    4    4    0    0 -0.91774970129E+01  0.12821792410E+01  0.27356333937E+00  0.92706672860E+01  0.00000000000E+00 0.  1.
</event>
<event>
 8    1  0.1253488E-006  0.9118800E+02  0.7816164E-02  0.1184000E+00
        -11   -1    0    0    0    0  0.00000000000E+00  0.00000000000E+00  0.45593999997E+02  0.45594000000E+02  0.51100000000E-03 0. -1.
         11   -1    0    0    0    0 -0.00000000000E+00 -0.00000000000E+00 -0.45593999997E+02  0.45594000000E+02  0.51100000000E-03 0.  1.
         23    2    1    2    0    0 -0.35527136788E-14  0.00000000000E+00  0.35527136788E-14  0.91188000000E+02  0.91188000000E+02 0.  0.
    9900012    2    3    3    0    0  0.24354252706E+02 -0.16885785813E+02 -0.21852202598E+02  0.54367107211E+02  0.40000052509E+02 0.  0.
         12    1    3    3    0    0 -0.24354252706E+02  0.16885785813E+02  0.21852202598E+02  0.36820892789E+02  0.00000000000E+00 0. -1.
         11    1    4    4    0    0  0.79553871951E+01 -0.29985767966E+00 -0.18454524072E+02  0.20098446683E+02  0.51100000000E-03 0. -1.
        -11    1    4    4    0    0  0.15303934977E+02 -0.77172557319E+01 -0.12728510117E+02  0.21349038195E+02  0.51100000000E-03 0.  1.
         12    1    4    4    0    0  0.10949305340E+01 -0.88686724015E+01  0.93308315915E+01  0.12919622333E+02  0.00000000000E+00 0. -1.
</event>
<event>
 8    1  0.1253488E-006  0.9118800E+02  0.7816164E-02  0.1184000E+00
        -11   -1    0    0    0    0  0.00000000000E+00  0.00000000000E+00  0.45593999997E+02  0.45594000000E+02  0.51100000000E-03 0.  1.
         11   -1    0    0    0    0 -0.00000000000E+00 -0.00000000000E+00 -0.45593999997E+02  0.45594000000E+02  0.51100000000E-03 0. -1.
         23    2    1    2    0    0  0.35527136788E-14 -0.35527136788E-14  0.35527136788E-14  0.91188000000E+02  0.91188000000E+02 0.  0.
    9900012    2    3    3    0    0  0.28645643435E+02 -0.15695583416E+02  0.16995746028E+02  0.54367087333E+02  0.40000007193E+02 0.  0.
         12    1    3    3    0    0 -0.28645643435E+02  0.15695583416E+02 -0.16995746028E+02  0.36820912667E+02  0.00000000000E+00 0. -1.
         11    1    4    4    0    0  0.40382805497E+01  0.50925091300E+01 -0.96699825688E+01  0.11651176858E+02  0.51100000000E-03 0. -1.
        -11    1    4    4    0    0  0.13367730563E+02 -0.72663907860E+01  0.84741904912E+01  0.17415756090E+02  0.51100000000E-03 0.  1.
         12    1    4    4    0    0  0.11239632322E+02 -0.13521701760E+02  0.18191538106E+02  0.25300154384E+02  0.00000000000E+00 0. -1.
</event>
<event>
 8    1  0.1253488E-006  0.9118800E+02  0.7816164E-02  0.1184000E+00
        -11   -1    0    0    0    0  0.00000000000E+00  0.00000000000E+00  0.45593999997E+02  0.45594000000E+02  0.51100000000E-03 0.  1.
         11   -1    0    0    0    0 -0.00000000000E+00 -0.00000000000E+00 -0.45593999997E+02  0.45594000000E+02  0.51100000000E-03 0. -1.
         23    2    1    2    0    0 -0.17763568394E-14  0.00000000000E+00  0.00000000000E+00  0.91188000000E+02  0.91188000000E+02 0.  0.
    9900012    2    3    3    0    0  0.96058475505E+01  0.28960944353E+02  0.20609952847E+02  0.54367098852E+02  0.40000033453E+02 0.  0.
         12    1    3    3    0    0 -0.96058475505E+01 -0.28960944353E+02 -0.20609952847E+02  0.36820901148E+02  0.00000000000E+00 0. -1.
         11    1    4    4    0    0  0.16175545527E+02  0.12538685058E+01  0.98497943847E+01  0.18979960722E+02  0.51100000000E-03 0. -1.
        -11    1    4    4    0    0 -0.39259603841E-01  0.20461388985E+02  0.14351489908E+02  0.24992703802E+02  0.51100000000E-03 0.  1.
         12    1    4    4    0    0 -0.65304383729E+01  0.72456868622E+01 -0.35913314452E+01  0.10394434328E+02  0.00000000000E+00 0. -1.
</event>
<event>
 8    1  0.1253488E-006  0.9118800E+02  0.7816164E-02  0.1184000E+00
        -11   -1    0    0    0    0  0.00000000000E+00  0.00000000000E+00  0.45593999997E+02  0.45594000000E+02  0.51100000000E-03 0.  1.
         11   -1    0    0    0    0 -0.00000000000E+00 -0.00000000000E+00 -0.45593999997E+02  0.45594000000E+02  0.51100000000E-03 0. -1.
         23    2    1    2    0    0 -0.35527136788E-14 -0.35527136788E-14  0.00000000000E+00  0.91188000000E+02  0.91188000000E+02 0.  0.
    9900012    2    3    3    0    0 -0.16669553639E+02 -0.16343989114E+02  0.28474188892E+02  0.54367089748E+02  0.40000012699E+02 0.  0.
         12    1    3    3    0    0  0.16669553639E+02  0.16343989114E+02 -0.28474188892E+02  0.36820910252E+02  0.00000000000E+00 0. -1.
         11    1    4    4    0    0  0.43027380425E+00 -0.20516500231E+02  0.14626333784E+01  0.20573070115E+02  0.51100000000E-03 0. -1.
        -11    1    4    4    0    0 -0.22580520580E+01  0.30597246987E+01  0.12269945626E+02  0.12845710578E+02  0.51100000000E-03 0.  1.
         12    1    4    4    0    0 -0.14841775386E+02  0.11127864179E+01  0.14741609888E+02  0.20948309056E+02  0.00000000000E+00 0. -1.
</event>
<event>
 8    1  0.1253488E-006  0.9118800E+02  0.7816164E-02  0.1184000E+00
        -11   -1    0    0    0    0  0.00000000000E+00  0.00000000000E+00  0.45593999997E+02  0.45594000000E+02  0.51100000000E-03 0.  1.
         11   -1    0    0    0    0 -0.00000000000E+00 -0.00000000000E+00 -0.45593999997E+02  0.45594000000E+02  0.51100000000E-03 0. -1.
         23    2    1    2    0    0  0.00000000000E+00  0.00000000000E+00 -0.17763568394E-14  0.91188000000E+02  0.91188000000E+02 0.  0.
    9900012    2    3    3    0    0 -0.35274437324E+02 -0.97112149103E+01  0.41455728417E+01  0.54367090211E+02  0.40000013753E+02 0.  0.
        -12    1    3    3    0    0  0.35274437324E+02  0.97112149103E+01 -0.41455728417E+01  0.36820909789E+02  0.00000000000E+00 0.  1.
         11    1    4    4    0    0 -0.25848718862E+01  0.20111441135E+01 -0.11151077566E+02  0.11622082191E+02  0.51100000000E-03 0. -1.
        -11    1    4    4    0    0  0.98191693034E+00 -0.24012174231E+01 -0.24412735429E+01  0.35622777466E+01  0.51100000000E-03 0.  1.
         12    1    4    4    0    0 -0.33671482368E+02 -0.93211416007E+01  0.17737923950E+02  0.39182730273E+02  0.00000000000E+00 0. -1.
</event>
<event>
 8    1  0.1253488E-006  0.9118800E+02  0.7816164E-02  0.1184000E+00
        -11   -1    0    0    0    0  0.00000000000E+00  0.00000000000E+00  0.45593999997E+02  0.45594000000E+02  0.51100000000E-03 0. -1.
         11   -1    0    0    0    0 -0.00000000000E+00 -0.00000000000E+00 -0.45593999997E+02  0.45594000000E+02  0.51100000000E-03 0.  1.
         23    2    1    2    0    0 -0.17763568394E-14  0.00000000000E+00  0.00000000000E+00  0.91188000000E+02  0.91188000000E+02 0.  0.
    9900012    2    3    3    0    0  0.51476011225E+01  0.19735310273E+02  0.30656164875E+02  0.54367072340E+02  0.39999973015E+02 0.  0.
        -12    1    3    3    0    0 -0.51476011225E+01 -0.19735310273E+02 -0.30656164875E+02  0.36820927660E+02  0.00000000000E+00 0.  1.
         11    1    4    4    0    0  0.15078655261E+02  0.14514187072E+02  0.69251602851E+01  0.22045074645E+02  0.51100000000E-03 0. -1.
        -11    1    4    4    0    0 -0.61982671358E+01  0.12390630895E+02  0.15372267268E+02  0.20694270963E+02  0.51100000000E-03 0.  1.
        -12    1    4    4    0    0 -0.37327870030E+01 -0.71695076933E+01  0.83587373212E+01  0.11627726733E+02  0.00000000000E+00 0.  1.
</event>
<event>
 8    1  0.1253488E-006  0.9118800E+02  0.7816164E-02  0.1184000E+00
        -11   -1    0    0    0    0  0.00000000000E+00  0.00000000000E+00  0.45593999997E+02  0.45594000000E+02  0.51100000000E-03 0.  1.
         11   -1    0    0    0    0 -0.00000000000E+00 -0.00000000000E+00 -0.45593999997E+02  0.45594000000E+02  0.51100000000E-03 0. -1.
         23    2    1    2    0    0  0.00000000000E+00  0.00000000000E+00  0.00000000000E+00  0.91188000000E+02  0.91188000000E+02 0.  0.
    9900012    2    3    3    0    0 -0.16996808737E+02 -0.30933922347E+02 -0.10487159402E+02  0.54367087853E+02  0.40000008378E+02 0.  0.
        -12    1    3    3    0    0  0.16996808737E+02  0.30933922347E+02  0.10487159402E+02  0.36820912147E+02  0.00000000000E+00 0.  1.
         11    1    4    4    0    0  0.26121375892E+01 -0.10878009832E+02  0.28478573924E+01  0.11544031041E+02  0.51100000000E-03 0. -1.
        -11    1    4    4    0    0 -0.54655126702E+01 -0.23895354687E+02 -0.25862195143E+01  0.24648495613E+02  0.51100000000E-03 0.  1.
        -12    1    4    4    0    0 -0.14143433656E+02  0.38394421720E+01 -0.10748797280E+02  0.18174561199E+02  0.00000000000E+00 0.  1.
</event>
<event>
 8    1  0.1253488E-006  0.9118800E+02  0.7816164E-02  0.1184000E+00
        -11   -1    0    0    0    0  0.00000000000E+00  0.00000000000E+00  0.45593999997E+02  0.45594000000E+02  0.51100000000E-03 0. -1.
         11   -1    0    0    0    0 -0.00000000000E+00 -0.00000000000E+00 -0.45593999997E+02  0.45594000000E+02  0.51100000000E-03 0.  1.
         23    2    1    2    0    0  0.88817841970E-15 -0.17763568394E-14  0.71054273576E-14  0.91188000000E+02  0.91188000000E+02 0.  0.
    9900012    2    3    3    0    0 -0.29491941958E+01  0.10589439723E+02  0.35141808451E+02  0.54367072781E+02  0.39999974019E+02 0.  0.
        -12    1    3    3    0    0  0.29491941958E+01 -0.10589439723E+02 -0.35141808451E+02  0.36820927219E+02  0.00000000000E+00 0.  1.
         11    1    4    4    0    0 -0.14472276917E+02 -0.33954953999E+01  0.27966726495E+01  0.15126055876E+02  0.51100000000E-03 0.  1.
        -11    1    4    4    0    0  0.24565189858E+01 -0.22362254888E+01  0.28345252566E+01  0.43668894715E+01  0.51100000000E-03 0. -1.
         12    1    4    4    0    0  0.90665637356E+01  0.16221160612E+02  0.29510610545E+02  0.34874127434E+02  0.00000000000E+00 0. -1.
</event>
<event>
 8    1  0.1253488E-006  0.9118800E+02  0.7816164E-02  0.1184000E+00
        -11   -1    0    0    0    0  0.00000000000E+00  0.00000000000E+00  0.45593999997E+02  0.45594000000E+02  0.51100000000E-03 0. -1.
         11   -1    0    0    0    0 -0.00000000000E+00 -0.00000000000E+00 -0.45593999997E+02  0.45594000000E+02  0.51100000000E-03 0.  1.
         23    2    1    2    0    0  0.17763568394E-14  0.00000000000E+00  0.00000000000E+00  0.91188000000E+02  0.91188000000E+02 0.  0.
    9900012    2    3    3    0    0 -0.30052445019E+01 -0.20865525093E+02 -0.30189066328E+02  0.54367063596E+02  0.39999953080E+02 0.  0.
         12    1    3    3    0    0  0.30052445019E+01  0.20865525093E+02  0.30189066328E+02  0.36820936404E+02  0.00000000000E+00 0. -1.
         11    1    4    4    0    0  0.11692945606E+02 -0.74811295534E+01 -0.87970558064E+01  0.16434125089E+02  0.51100000000E-03 0. -1.
        -11    1    4    4    0    0  0.16811432516E+01  0.57618344818E+01 -0.55171731289E+01  0.81525565820E+01  0.51100000000E-03 0.  1.
         12    1    4    4    0    0 -0.16379333359E+02 -0.19146230021E+02 -0.15874837393E+02  0.29780381924E+02  0.00000000000E+00 0. -1.
</event>
<event>
 8    1  0.1253488E-006  0.9118800E+02  0.7816164E-02  0.1184000E+00
        -11   -1    0    0    0    0  0.00000000000E+00  0.00000000000E+00  0.45593999997E+02  0.45594000000E+02  0.51100000000E-03 0.  1.
         11   -1    0    0    0    0 -0.00000000000E+00 -0.00000000000E+00 -0.45593999997E+02  0.45594000000E+02  0.51100000000E-03 0. -1.
         23    2    1    2    0    0  0.17763568394E-14  0.00000000000E+00  0.35527136788E-14  0.91188000000E+02  0.91188000000E+02 0.  0.
    9900012    2    3    3    0    0 -0.10165970709E+02 -0.25484481073E+02  0.24555528171E+02  0.54367086109E+02  0.40000004402E+02 0.  0.
         12    1    3    3    0    0  0.10165970709E+02  0.25484481073E+02 -0.24555528171E+02  0.36820913891E+02  0.00000000000E+00 0. -1.
         11    1    4    4    0    0 -0.17790312151E+02 -0.29114897468E+02  0.21254661950E+02  0.40198670573E+02  0.51100000000E-03 0.  1.
        -11    1    4    4    0    0  0.41175475081E+01 -0.17989212694E+01  0.57141114970E+01  0.72692080502E+01  0.51100000000E-03 0. -1.
        -12    1    4    4    0    0  0.35067939329E+01  0.54293376646E+01 -0.24132452756E+01  0.68992074852E+01  0.00000000000E+00 0.  1.
</event>
<event>
 8    1  0.1253488E-006  0.9118800E+02  0.7816164E-02  0.1184000E+00
        -11   -1    0    0    0    0  0.00000000000E+00  0.00000000000E+00  0.45593999997E+02  0.45594000000E+02  0.51100000000E-03 0.  1.
         11   -1    0    0    0    0 -0.00000000000E+00 -0.00000000000E+00 -0.45593999997E+02  0.45594000000E+02  0.51100000000E-03 0. -1.
         23    2    1    2    0    0  0.00000000000E+00  0.17763568394E-14 -0.88817841970E-15  0.91188000000E+02  0.91188000000E+02 0.  0.
    9900012    2    3    3    0    0 -0.35158994788E+02 -0.93604366111E+01 -0.56575755454E+01  0.54367070502E+02  0.39999968824E+02 0.  0.
         12    1    3    3    0    0  0.35158994788E+02  0.93604366111E+01  0.56575755454E+01  0.36820929498E+02  0.00000000000E+00 0. -1.
         11    1    4    4    0    0 -0.69416423716E-01  0.25055927305E+01 -0.12607966252E+02  0.12854712243E+02  0.51100000000E-03 0. -1.
        -11    1    4    4    0    0 -0.21383619204E+02 -0.20564679085E+00 -0.18809081009E+01  0.21467167405E+02  0.51100000000E-03 0.  1.
         12    1    4    4    0    0 -0.13705959160E+02 -0.11660382551E+02  0.88312988079E+01  0.20045190854E+02  0.00000000000E+00 0. -1.
</event>
<event>
 8    1  0.1253488E-006  0.9118800E+02  0.7816164E-02  0.1184000E+00
        -11   -1    0    0    0    0  0.00000000000E+00  0.00000000000E+00  0.45593999997E+02  0.45594000000E+02  0.51100000000E-03 0.  1.
         11   -1    0    0    0    0 -0.00000000000E+00 -0.00000000000E+00 -0.45593999997E+02  0.45594000000E+02  0.51100000000E-03 0. -1.
         23    2    1    2    0    0 -0.17763568394E-14 -0.35527136788E-14  0.00000000000E+00  0.91188000000E+02  0.91188000000E+02 0.  0.
    9900012    2    3    3    0    0 -0.10205938917E+02  0.26854731751E+02  0.23031344411E+02  0.54367073450E+02  0.39999975544E+02 0.  0.
         12    1    3    3    0    0  0.10205938917E+02 -0.26854731751E+02 -0.23031344411E+02  0.36820926550E+02  0.00000000000E+00 0. -1.
         11    1    4    4    0    0 -0.18959166337E+02  0.12325935044E+02 -0.32737531340E+01  0.22849422809E+02  0.51100000000E-03 0. -1.
        -11    1    4    4    0    0  0.56179703481E+01  0.57736016665E+01  0.11813231513E+02  0.14298549090E+02  0.51100000000E-03 0.  1.
         12    1    4    4    0    0  0.31352570717E+01  0.87551950409E+01  0.14491866033E+02  0.17219101551E+02  0.00000000000E+00 0. -1.
</event>
<event>
 8    1  0.1253488E-006  0.9118800E+02  0.7816164E-02  0.1184000E+00
        -11   -1    0    0    0    0  0.00000000000E+00  0.00000000000E+00  0.45593999997E+02  0.45594000000E+02  0.51100000000E-03 0.  1.
         11   -1    0    0    0    0 -0.00000000000E+00 -0.00000000000E+00 -0.45593999997E+02  0.45594000000E+02  0.51100000000E-03 0. -1.
         23    2    1    2    0    0 -0.71054273576E-14 -0.17763568394E-14 -0.17763568394E-14  0.91188000000E+02  0.91188000000E+02 0.  0.
    9900012    2    3    3    0    0 -0.31818440003E+02 -0.13590650843E+02 -0.12596103208E+02  0.54367072111E+02  0.39999972492E+02 0.  0.
        -12    1    3    3    0    0  0.31818440003E+02  0.13590650843E+02  0.12596103208E+02  0.36820927889E+02  0.00000000000E+00 0.  1.
         11    1    4    4    0    0 -0.19067242908E+02 -0.17941122463E+00 -0.21607044984E+02  0.28817639281E+02  0.51100000000E-03 0. -1.
        -11    1    4    4    0    0  0.31949889070E+01 -0.32988315180E+01  0.38015050797E+01  0.59616847143E+01  0.51100000000E-03 0.  1.
        -12    1    4    4    0    0 -0.15946186002E+02 -0.10112408100E+02  0.52094366963E+01  0.19587748117E+02  0.00000000000E+00 0.  1.
</event>
<event>
 8    1  0.1253488E-006  0.9118800E+02  0.7816164E-02  0.1184000E+00
        -11   -1    0    0    0    0  0.00000000000E+00  0.00000000000E+00  0.45593999997E+02  0.45594000000E+02  0.51100000000E-03 0. -1.
         11   -1    0    0    0    0 -0.00000000000E+00 -0.00000000000E+00 -0.45593999997E+02  0.45594000000E+02  0.51100000000E-03 0.  1.
         23    2    1    2    0    0  0.00000000000E+00  0.71054273576E-14 -0.53290705182E-14  0.91188000000E+02  0.91188000000E+02 0.  0.
    9900012    2    3    3    0    0  0.11935484936E+02  0.32540978793E+02 -0.12426231782E+02  0.54367050287E+02  0.39999922739E+02 0.  0.
        -12    1    3    3    0    0 -0.11935484936E+02 -0.32540978793E+02  0.12426231782E+02  0.36820949713E+02  0.00000000000E+00 0.  1.
         11    1    4    4    0    0  0.75615837078E+01 -0.32579224288E+00 -0.30101806545E+01  0.81452364354E+01  0.51100000000E-03 0. -1.
        -11    1    4    4    0    0 -0.39626715906E+01  0.19781460035E+01  0.84770820753E+01  0.95643477833E+01  0.51100000000E-03 0.  1.
        -12    1    4    4    0    0  0.83365728194E+01  0.30888625032E+02 -0.17893133203E+02  0.36657466068E+02  0.00000000000E+00 0.  1.
</event>
<event>
 8    1  0.1253488E-006  0.9118800E+02  0.7816164E-02  0.1184000E+00
        -11   -1    0    0    0    0  0.00000000000E+00  0.00000000000E+00  0.45593999997E+02  0.45594000000E+02  0.51100000000E-03 0.  1.
         11   -1    0    0    0    0 -0.00000000000E+00 -0.00000000000E+00 -0.45593999997E+02  0.45594000000E+02  0.51100000000E-03 0. -1.
         23    2    1    2    0    0  0.22204460493E-15  0.00000000000E+00  0.00000000000E+00  0.91188000000E+02  0.91188000000E+02 0.  0.
    9900012    2    3    3    0    0  0.17604298468E+01 -0.32407502698E+02  0.17390662545E+02  0.54367075404E+02  0.39999979998E+02 0.  0.
         12    1    3    3    0    0 -0.17604298468E+01  0.32407502698E+02 -0.17390662545E+02  0.36820924596E+02  0.00000000000E+00 0. -1.
         11    1    4    4    0    0 -0.92284393596E-01 -0.34544728663E+01  0.11697308900E+02  0.12197087151E+02  0.51100000000E-03 0. -1.
        -11    1    4    4    0    0  0.49084208599E-01 -0.19133643276E+02  0.18036422347E+02  0.26294699953E+02  0.51100000000E-03 0.  1.
        -12    1    4    4    0    0  0.18036300318E+01 -0.98193865560E+01 -0.12343068703E+02  0.15875288300E+02  0.00000000000E+00 0.  1.
</event>
<event>
 8    1  0.1253488E-006  0.9118800E+02  0.7816164E-02  0.1184000E+00
        -11   -1    0    0    0    0  0.00000000000E+00  0.00000000000E+00  0.45593999997E+02  0.45594000000E+02  0.51100000000E-03 0.  1.
         11   -1    0    0    0    0 -0.00000000000E+00 -0.00000000000E+00 -0.45593999997E+02  0.45594000000E+02  0.51100000000E-03 0. -1.
         23    2    1    2    0    0 -0.44408920985E-15  0.00000000000E+00  0.00000000000E+00  0.91188000000E+02  0.91188000000E+02 0.  0.
    9900012    2    3    3    0    0 -0.29081273745E+01  0.17794237164E+02  0.32104571248E+02  0.54366870521E+02  0.39999512924E+02 0.  0.
         12    1    3    3    0    0  0.29081273745E+01 -0.17794237164E+02 -0.32104571248E+02  0.36821129479E+02  0.00000000000E+00 0. -1.
         11    1    4    4    0    0 -0.10064363279E+01  0.86984204580E+01  0.39068576414E+01  0.95884810809E+01  0.51100000000E-03 0.  1.
        -11    1    4    4    0    0  0.22280554588E+01 -0.25053640426E+01 -0.68520322000E+01  0.76283304625E+01  0.51100000000E-03 0. -1.
         12    1    4    4    0    0 -0.41297465054E+01  0.11601180749E+02  0.35049745806E+02  0.37150058978E+02  0.00000000000E+00 0. -1.
</event>
<event>
 8    1  0.1253488E-006  0.9118800E+02  0.7816164E-02  0.1184000E+00
        -11   -1    0    0    0    0  0.00000000000E+00  0.00000000000E+00  0.45593999997E+02  0.45594000000E+02  0.51100000000E-03 0.  1.
         11   -1    0    0    0    0 -0.00000000000E+00 -0.00000000000E+00 -0.45593999997E+02  0.45594000000E+02  0.51100000000E-03 0. -1.
         23    2    1    2    0    0  0.00000000000E+00  0.35527136788E-14  0.00000000000E+00  0.91188000000E+02  0.91188000000E+02 0.  0.
    9900012    2    3    3    0    0  0.16446856423E+02 -0.21129660222E+02  0.25274873439E+02  0.54367070426E+02  0.39999968651E+02 0.  0.
         12    1    3    3    0    0 -0.16446856423E+02  0.21129660222E+02 -0.25274873439E+02  0.36820929574E+02  0.00000000000E+00 0. -1.
         11    1    4    4    0    0 -0.11858474647E+02 -0.65729149630E+01  0.83662889427E+01  0.15931774007E+02  0.51100000000E-03 0. -1.
        -11    1    4    4    0    0  0.10953993525E+02 -0.12408163716E+02  0.11424670664E+02  0.20111578779E+02  0.51100000000E-03 0.  1.
        -12    1    4    4    0    0  0.17351337545E+02 -0.21485815433E+01  0.54839138321E+01  0.18323717641E+02  0.00000000000E+00 0.  1.
</event>
<event>
 8    1  0.1253488E-006  0.9118800E+02  0.7816164E-02  0.1184000E+00
        -11   -1    0    0    0    0  0.00000000000E+00  0.00000000000E+00  0.45593999997E+02  0.45594000000E+02  0.51100000000E-03 0. -1.
         11   -1    0    0    0    0 -0.00000000000E+00 -0.00000000000E+00 -0.45593999997E+02  0.45594000000E+02  0.51100000000E-03 0.  1.
         23    2    1    2    0    0  0.00000000000E+00  0.00000000000E+00 -0.88817841970E-15  0.91188000000E+02  0.91188000000E+02 0.  0.
    9900012    2    3    3    0    0  0.99647102903E+01  0.34598912327E+02 -0.77071600565E+01  0.54367075222E+02  0.39999979583E+02 0.  0.
         12    1    3    3    0    0 -0.99647102903E+01 -0.34598912327E+02  0.77071600565E+01  0.36820924778E+02  0.00000000000E+00 0. -1.
         11    1    4    4    0    0 -0.23534637917E+01  0.28369211410E+02 -0.11790432574E+02  0.30811771263E+02  0.51100000000E-03 0. -1.
        -11    1    4    4    0    0  0.10977009551E+02  0.12240510097E+02  0.54060431575E+00  0.16450443137E+02  0.51100000000E-03 0.  1.
         12    1    4    4    0    0  0.13411645305E+01 -0.60108091800E+01  0.35426682019E+01  0.71048608210E+01  0.00000000000E+00 0. -1.
</event>
<event>
 8    1  0.1253488E-006  0.9118800E+02  0.7816164E-02  0.1184000E+00
        -11   -1    0    0    0    0  0.00000000000E+00  0.00000000000E+00  0.45593999997E+02  0.45594000000E+02  0.51100000000E-03 0. -1.
         11   -1    0    0    0    0 -0.00000000000E+00 -0.00000000000E+00 -0.45593999997E+02  0.45594000000E+02  0.51100000000E-03 0.  1.
         23    2    1    2    0    0  0.00000000000E+00  0.35527136788E-14 -0.35527136788E-14  0.91188000000E+02  0.91188000000E+02 0.  0.
    9900012    2    3    3    0    0 -0.11400741437E+02 -0.24430117507E+02  0.25079330617E+02  0.54367076995E+02  0.39999983626E+02 0.  0.
        -12    1    3    3    0    0  0.11400741437E+02  0.24430117507E+02 -0.25079330617E+02  0.36820923005E+02  0.00000000000E+00 0.  1.
         11    1    4    4    0    0  0.46334631563E+01 -0.17498804787E+02  0.26865941891E+01  0.18300134928E+02  0.51100000000E-03 0. -1.
        -11    1    4    4    0    0 -0.14550300693E+02 -0.12677232209E+02  0.87498171215E+01  0.21189213451E+02  0.51100000000E-03 0.  1.
         12    1    4    4    0    0 -0.14839039002E+01  0.57459194898E+01  0.13642919307E+02  0.14877728616E+02  0.00000000000E+00 0. -1.
</event>
<event>
 8    1  0.1253488E-006  0.9118800E+02  0.7816164E-02  0.1184000E+00
        -11   -1    0    0    0    0  0.00000000000E+00  0.00000000000E+00  0.45593999997E+02  0.45594000000E+02  0.51100000000E-03 0.  1.
         11   -1    0    0    0    0 -0.00000000000E+00 -0.00000000000E+00 -0.45593999997E+02  0.45594000000E+02  0.51100000000E-03 0. -1.
         23    2    1    2    0    0  0.35527136788E-14  0.17763568394E-14 -0.35527136788E-14  0.91188000000E+02  0.91188000000E+02 0.  0.
    9900012    2    3    3    0    0  0.18317540314E+02  0.10999099573E+02 -0.29987843514E+02  0.54367038128E+02  0.39999895020E+02 0.  0.
        -12    1    3    3    0    0 -0.18317540314E+02 -0.10999099573E+02  0.29987843514E+02  0.36820961872E+02  0.00000000000E+00 0.  1.
         11    1    4    4    0    0  0.16089003031E+00  0.22488142795E+01 -0.20801701457E+01  0.30675983052E+01  0.51100000000E-03 0. -1.
        -11    1    4    4    0    0  0.11258336371E+02  0.99512551395E+01 -0.36935221321E+02  0.39874655998E+02  0.51100000000E-03 0.  1.
        -12    1    4    4    0    0  0.68983139126E+01 -0.12009698463E+01  0.90275479525E+01  0.11424783825E+02  0.00000000000E+00 0.  1.
</event>
<event>
 8    1  0.1253488E-006  0.9118800E+02  0.7816164E-02  0.1184000E+00
        -11   -1    0    0    0    0  0.00000000000E+00  0.00000000000E+00  0.45593999997E+02  0.45594000000E+02  0.51100000000E-03 0.  1.
         11   -1    0    0    0    0 -0.00000000000E+00 -0.00000000000E+00 -0.45593999997E+02  0.45594000000E+02  0.51100000000E-03 0. -1.
         23    2    1    2    0    0 -0.17763568394E-14  0.17763568394E-14  0.00000000000E+00  0.91188000000E+02  0.91188000000E+02 0.  0.
    9900012    2    3    3    0    0 -0.92736937298E+01  0.92438402451E+01  0.34414090829E+02  0.54367087118E+02  0.40000006703E+02 0.  0.
         12    1    3    3    0    0  0.92736937298E+01 -0.92438402451E+01 -0.34414090829E+02  0.36820912882E+02  0.00000000000E+00 0. -1.
         11    1    4    4    0    0  0.55963170576E+01  0.77553138379E+01 -0.20012745526E+01  0.97708115031E+01  0.51100000000E-03 0. -1.
        -11    1    4    4    0    0 -0.10094638321E+02  0.11077688275E+02  0.22514622836E+02  0.27046721466E+02  0.51100000000E-03 0.  1.
         12    1    4    4    0    0 -0.47753724660E+01 -0.95891618673E+01  0.13900742546E+02  0.17549554149E+02  0.00000000000E+00 0. -1.
</event>
<event>
 8    1  0.1253488E-006  0.9118800E+02  0.7816164E-02  0.1184000E+00
        -11   -1    0    0    0    0  0.00000000000E+00  0.00000000000E+00  0.45593999997E+02  0.45594000000E+02  0.51100000000E-03 0. -1.
         11   -1    0    0    0    0 -0.00000000000E+00 -0.00000000000E+00 -0.45593999997E+02  0.45594000000E+02  0.51100000000E-03 0.  1.
         23    2    1    2    0    0  0.00000000000E+00  0.00000000000E+00  0.00000000000E+00  0.91188000000E+02  0.91188000000E+02 0.  0.
    9900012    2    3    3    0    0 -0.17922008797E+02  0.29014769225E+02 -0.13882508927E+02  0.54367091720E+02  0.40000017193E+02 0.  0.
         12    1    3    3    0    0  0.17922008797E+02 -0.29014769225E+02  0.13882508927E+02  0.36820908280E+02  0.00000000000E+00 0. -1.
         11    1    4    4    0    0  0.12618085064E+01 -0.43531461958E+00  0.61657588277E+01  0.63085847626E+01  0.51100000000E-03 0. -1.
        -11    1    4    4    0    0 -0.15309056116E+02  0.32391345660E+02 -0.10485931868E+02  0.37329897405E+02  0.51100000000E-03 0.  1.
        -12    1    4    4    0    0 -0.38747611877E+01 -0.29412618159E+01 -0.95623358860E+01  0.10728609552E+02  0.00000000000E+00 0.  1.
</event>
<event>
 8    1  0.1253488E-006  0.9118800E+02  0.7816164E-02  0.1184000E+00
        -11   -1    0    0    0    0  0.00000000000E+00  0.00000000000E+00  0.45593999997E+02  0.45594000000E+02  0.51100000000E-03 0.  1.
         11   -1    0    0    0    0 -0.00000000000E+00 -0.00000000000E+00 -0.45593999997E+02  0.45594000000E+02  0.51100000000E-03 0. -1.
         23    2    1    2    0    0 -0.44408920985E-15 -0.14210854715E-13  0.71054273576E-14  0.91188000000E+02  0.91188000000E+02 0.  0.
    9900012    2    3    3    0    0 -0.33982324290E+01 -0.31975775845E+02  0.17938266182E+02  0.54367087218E+02  0.40000006931E+02 0.  0.
         12    1    3    3    0    0  0.33982324290E+01  0.31975775845E+02 -0.17938266182E+02  0.36820912782E+02  0.00000000000E+00 0. -1.
         11    1    4    4    0    0  0.95248734927E+01  0.10253935394E-02  0.10755188575E+02  0.14366533947E+02  0.51100000000E-03 0. -1.
        -11    1    4    4    0    0 -0.17128444405E+01  0.24758031916E+01  0.13661402750E+01  0.33060213298E+01  0.51100000000E-03 0.  1.
        -12    1    4    4    0    0 -0.11210261481E+02 -0.34452604430E+02  0.58169373318E+01  0.36694531941E+02  0.00000000000E+00 0.  1.
</event>
<event>
 8    1  0.1253488E-006  0.9118800E+02  0.7816164E-02  0.1184000E+00
        -11   -1    0    0    0    0  0.00000000000E+00  0.00000000000E+00  0.45593999997E+02  0.45594000000E+02  0.51100000000E-03 0.  1.
         11   -1    0    0    0    0 -0.00000000000E+00 -0.00000000000E+00 -0.45593999997E+02  0.45594000000E+02  0.51100000000E-03 0. -1.
         23    2    1    2    0    0  0.00000000000E+00 -0.35527136788E-14 -0.35527136788E-14  0.91188000000E+02  0.91188000000E+02 0.  0.
    9900012    2    3    3    0    0  0.21115189539E+02 -0.19220903858E+02 -0.23248338036E+02  0.54367087521E+02  0.40000007621E+02 0.  0.
        -12    1    3    3    0    0 -0.21115189539E+02  0.19220903858E+02  0.23248338036E+02  0.36820912479E+02  0.00000000000E+00 0.  1.
         11    1    4    4    0    0  0.17346021066E+02  0.21070571249E+01 -0.55093237142E+01  0.18321484236E+02  0.51100000000E-03 0. -1.
        -11    1    4    4    0    0  0.11401569307E+02 -0.41878658550E+01 -0.10063705856E+02  0.15773781375E+02  0.51100000000E-03 0.  1.
        -12    1    4    4    0    0 -0.76324008341E+01 -0.17140095128E+02 -0.76753084661E+01  0.20271821909E+02  0.00000000000E+00 0.  1.
</event>
<event>
 8    1  0.1253488E-006  0.9118800E+02  0.7816164E-02  0.1184000E+00
        -11   -1    0    0    0    0  0.00000000000E+00  0.00000000000E+00  0.45593999997E+02  0.45594000000E+02  0.51100000000E-03 0.  1.
         11   -1    0    0    0    0 -0.00000000000E+00 -0.00000000000E+00 -0.45593999997E+02  0.45594000000E+02  0.51100000000E-03 0. -1.
         23    2    1    2    0    0  0.00000000000E+00  0.00000000000E+00  0.00000000000E+00  0.91188000000E+02  0.91188000000E+02 0.  0.
    9900012    2    3    3    0    0  0.30634897284E+02  0.10084663825E+02  0.17764720074E+02  0.54367045974E+02  0.39999912907E+02 0.  0.
         12    1    3    3    0    0 -0.30634897284E+02 -0.10084663825E+02 -0.17764720074E+02  0.36820954026E+02  0.00000000000E+00 0. -1.
         11    1    4    4    0    0  0.14917174038E+01  0.61069636946E+01 -0.46118295192E+01  0.77967427914E+01  0.51100000000E-03 0. -1.
        -11    1    4    4    0    0  0.28321829873E+02 -0.36470446773E+01  0.25505371134E+02  0.38287738758E+02  0.51100000000E-03 0.  1.
        -12    1    4    4    0    0  0.82135000722E+00  0.76247448078E+01 -0.31288215410E+01  0.82825644250E+01  0.00000000000E+00 0.  1.
</event>
<event>
 8    1  0.1253488E-006  0.9118800E+02  0.7816164E-02  0.1184000E+00
        -11   -1    0    0    0    0  0.00000000000E+00  0.00000000000E+00  0.45593999997E+02  0.45594000000E+02  0.51100000000E-03 0.  1.
         11   -1    0    0    0    0 -0.00000000000E+00 -0.00000000000E+00 -0.45593999997E+02  0.45594000000E+02  0.51100000000E-03 0. -1.
         23    2    1    2    0    0  0.00000000000E+00 -0.71054273576E-14 -0.44408920985E-15  0.91188000000E+02  0.91188000000E+02 0.  0.
    9900012    2    3    3    0    0 -0.21666114427E+02  0.29581057072E+02 -0.33620272103E+01  0.54367317241E+02  0.40000531312E+02 0.  0.
         12    1    3    3    0    0  0.21666114427E+02 -0.29581057072E+02  0.33620272103E+01  0.36820682759E+02  0.00000000000E+00 0. -1.
         11    1    4    4    0    0 -0.11094470856E+02 -0.60046593970E+01 -0.57492135226E+01  0.13863501522E+02  0.51100000000E-03 0. -1.
        -11    1    4    4    0    0 -0.46568917584E+01  0.11587513838E+02  0.84202609061E+01  0.15061803072E+02  0.51100000000E-03 0.  1.
         12    1    4    4    0    0 -0.59147518124E+01  0.23998202631E+02 -0.60330745939E+01  0.25442012648E+02  0.00000000000E+00 0. -1.
</event>
<event>
 8    1  0.1253488E-006  0.9118800E+02  0.7816164E-02  0.1184000E+00
        -11   -1    0    0    0    0  0.00000000000E+00  0.00000000000E+00  0.45593999997E+02  0.45594000000E+02  0.51100000000E-03 0. -1.
         11   -1    0    0    0    0 -0.00000000000E+00 -0.00000000000E+00 -0.45593999997E+02  0.45594000000E+02  0.51100000000E-03 0.  1.
         23    2    1    2    0    0  0.35527136788E-14  0.00000000000E+00  0.35527136788E-14  0.91188000000E+02  0.91188000000E+02 0.  0.
    9900012    2    3    3    0    0  0.21222782293E+02 -0.24510409459E+02 -0.17453084419E+02  0.54367125270E+02  0.40000093679E+02 0.  0.
         12    1    3    3    0    0 -0.21222782293E+02  0.24510409459E+02  0.17453084419E+02  0.36820874730E+02  0.00000000000E+00 0. -1.
         11    1    4    4    0    0  0.17944980457E+02 -0.16735603888E+02  0.49050854317E+01  0.25023241686E+02  0.51100000000E-03 0. -1.
        -11    1    4    4    0    0  0.42785175090E+01  0.72363159119E+00  0.10125281066E+01  0.44558465169E+01  0.51100000000E-03 0.  1.
        -12    1    4    4    0    0 -0.10007156733E+01 -0.84984371617E+01 -0.23370697958E+02  0.24888037068E+02  0.00000000000E+00 0.  1.
</event>
<event>
 8    1  0.1253488E-006  0.9118800E+02  0.7816164E-02  0.1184000E+00
        -11   -1    0    0    0    0  0.00000000000E+00  0.00000000000E+00  0.45593999997E+02  0.45594000000E+02  0.51100000000E-03 0.  1.
         11   -1    0    0    0    0 -0.00000000000E+00 -0.00000000000E+00 -0.45593999997E+02  0.45594000000E+02  0.51100000000E-03 0. -1.
         23    2    1    2    0    0  0.00000000000E+00  0.88817841970E-15  0.00000000000E+00  0.91188000000E+02  0.91188000000E+02 0.  0.
    9900012    2    3    3    0    0 -0.10547323771E+02 -0.74672361605E+01  0.34478647575E+02  0.54367044103E+02  0.39999908640E+02 0.  0.
         12    1    3    3    0    0  0.10547323771E+02  0.74672361605E+01 -0.34478647575E+02  0.36820955897E+02  0.00000000000E+00 0. -1.
         11    1    4    4    0    0 -0.39547629689E+00  0.11259471318E+02  0.15084733178E+02  0.18827673016E+02  0.51100000000E-03 0. -1.
        -11    1    4    4    0    0 -0.56861775479E+01 -0.23990830834E+01  0.17439872361E+02  0.18499658455E+02  0.51100000000E-03 0.  1.
        -12    1    4    4    0    0 -0.44656699262E+01 -0.16327624395E+02  0.19540420361E+01  0.17039712631E+02  0.00000000000E+00 0.  1.
</event>
<event>
 8    1  0.1253488E-006  0.9118800E+02  0.7816164E-02  0.1184000E+00
        -11   -1    0    0    0    0  0.00000000000E+00  0.00000000000E+00  0.45593999997E+02  0.45594000000E+02  0.51100000000E-03 0. -1.
         11   -1    0    0    0    0 -0.00000000000E+00 -0.00000000000E+00 -0.45593999997E+02  0.45594000000E+02  0.51100000000E-03 0.  1.
         23    2    1    2    0    0  0.00000000000E+00  0.00000000000E+00  0.00000000000E+00  0.91188000000E+02  0.91188000000E+02 0.  0.
    9900012    2    3    3    0    0 -0.29493127568E+02  0.13086735855E+02 -0.17739031795E+02  0.54367075540E+02  0.39999980308E+02 0.  0.
         12    1    3    3    0    0  0.29493127568E+02 -0.13086735855E+02  0.17739031795E+02  0.36820924460E+02  0.00000000000E+00 0. -1.
         11    1    4    4    0    0 -0.81263715201E+01  0.15305190790E+01 -0.15144544148E+02  0.17255075208E+02  0.51100000000E-03 0. -1.
        -11    1    4    4    0    0 -0.26069020082E+02  0.20205848212E+01  0.85807808092E-01  0.26147350426E+02  0.51100000000E-03 0.  1.
        -12    1    4    4    0    0  0.47022640338E+01  0.95356319551E+01 -0.26802954553E+01  0.10964649906E+02  0.00000000000E+00 0.  1.
</event>
<event>
 8    1  0.1253488E-006  0.9118800E+02  0.7816164E-02  0.1184000E+00
        -11   -1    0    0    0    0  0.00000000000E+00  0.00000000000E+00  0.45593999997E+02  0.45594000000E+02  0.51100000000E-03 0. -1.
         11   -1    0    0    0    0 -0.00000000000E+00 -0.00000000000E+00 -0.45593999997E+02  0.45594000000E+02  0.51100000000E-03 0.  1.
         23    2    1    2    0    0  0.00000000000E+00  0.18873791419E-14 -0.53290705182E-14  0.91188000000E+02  0.91188000000E+02 0.  0.
    9900012    2    3    3    0    0  0.34815530123E+02  0.61170039931E+00 -0.11970150287E+02  0.54367084571E+02  0.40000000897E+02 0.  0.
        -12    1    3    3    0    0 -0.34815530123E+02 -0.61170039931E+00  0.11970150287E+02  0.36820915429E+02  0.00000000000E+00 0.  1.
         11    1    4    4    0    0  0.15777244687E+02  0.11294908765E+02  0.10508992411E+02  0.22066611332E+02  0.51100000000E-03 0. -1.
        -11    1    4    4    0    0  0.28468304196E+01  0.73300813886E+00 -0.53783212938E+01  0.61292809179E+01  0.51100000000E-03 0.  1.
         12    1    4    4    0    0  0.16191455016E+02 -0.11416216505E+02 -0.17100821405E+02  0.26171192322E+02  0.00000000000E+00 0. -1.
</event>
<event>
 8    1  0.1253488E-006  0.9118800E+02  0.7816164E-02  0.1184000E+00
        -11   -1    0    0    0    0  0.00000000000E+00  0.00000000000E+00  0.45593999997E+02  0.45594000000E+02  0.51100000000E-03 0.  1.
         11   -1    0    0    0    0 -0.00000000000E+00 -0.00000000000E+00 -0.45593999997E+02  0.45594000000E+02  0.51100000000E-03 0. -1.
         23    2    1    2    0    0 -0.44408920985E-15  0.88817841970E-15  0.00000000000E+00  0.91188000000E+02  0.91188000000E+02 0.  0.
    9900012    2    3    3    0    0 -0.35302595040E+01  0.53114947416E+01  0.36264375283E+02  0.54367087149E+02  0.40000006773E+02 0.  0.
         12    1    3    3    0    0  0.35302595040E+01 -0.53114947416E+01 -0.36264375283E+02  0.36820912851E+02  0.00000000000E+00 0. -1.
         11    1    4    4    0    0  0.88750635960E+01 -0.11381279802E+02  0.19396000922E+02  0.24176541022E+02  0.51100000000E-03 0. -1.
        -11    1    4    4    0    0 -0.25163222948E+01  0.61665919718E+01  0.13946492650E+02  0.15455205982E+02  0.51100000000E-03 0.  1.
         12    1    4    4    0    0 -0.98890008052E+01  0.10526182572E+02  0.29218817109E+01  0.14735340145E+02  0.00000000000E+00 0. -1.
</event>
<event>
 8    1  0.1253488E-006  0.9118800E+02  0.7816164E-02  0.1184000E+00
        -11   -1    0    0    0    0  0.00000000000E+00  0.00000000000E+00  0.45593999997E+02  0.45594000000E+02  0.51100000000E-03 0.  1.
         11   -1    0    0    0    0 -0.00000000000E+00 -0.00000000000E+00 -0.45593999997E+02  0.45594000000E+02  0.51100000000E-03 0. -1.
         23    2    1    2    0    0  0.00000000000E+00 -0.17763568394E-14  0.00000000000E+00  0.91188000000E+02  0.91188000000E+02 0.  0.
    9900012    2    3    3    0    0  0.26560549993E+02 -0.11799756607E+01 -0.25473972242E+02  0.54367103484E+02  0.40000044013E+02 0.  0.
        -12    1    3    3    0    0 -0.26560549993E+02  0.11799756607E+01  0.25473972242E+02  0.36820896516E+02  0.00000000000E+00 0.  1.
         11    1    4    4    0    0 -0.20546010660E+01  0.83209990648E+00  0.25426578936E+00  0.22312389266E+01  0.51100000000E-03 0. -1.
        -11    1    4    4    0    0  0.16532075815E+02 -0.16398559206E+02 -0.43731814857E+01  0.23692762426E+02  0.51100000000E-03 0.  1.
         12    1    4    4    0    0  0.12083075243E+02  0.14386483639E+02 -0.21355056545E+02  0.28443102132E+02  0.00000000000E+00 0. -1.
</event>
<event>
 8    1  0.1253488E-006  0.9118800E+02  0.7816164E-02  0.1184000E+00
        -11   -1    0    0    0    0  0.00000000000E+00  0.00000000000E+00  0.45593999997E+02  0.45594000000E+02  0.51100000000E-03 0. -1.
         11   -1    0    0    0    0 -0.00000000000E+00 -0.00000000000E+00 -0.45593999997E+02  0.45594000000E+02  0.51100000000E-03 0.  1.
         23    2    1    2    0    0  0.00000000000E+00  0.35527136788E-14  0.88817841970E-15  0.91188000000E+02  0.91188000000E+02 0.  0.
    9900012    2    3    3    0    0 -0.21827126814E+02 -0.29443714887E+02 -0.35248454845E+01  0.54367077321E+02  0.39999984368E+02 0.  0.
        -12    1    3    3    0    0  0.21827126814E+02  0.29443714887E+02  0.35248454845E+01  0.36820922679E+02  0.00000000000E+00 0.  1.
         11    1    4    4    0    0  0.25511374190E+01 -0.38328030066E+01  0.15559865352E+01  0.48600180429E+01  0.51100000000E-03 0.  1.
        -11    1    4    4    0    0  0.41540615703E+01 -0.11713545309E+02  0.84261951679E+01  0.15015463247E+02  0.51100000000E-03 0. -1.
         12    1    4    4    0    0 -0.28532325803E+02 -0.13897366571E+02 -0.13507027188E+02  0.34491596031E+02  0.00000000000E+00 0. -1.
</event>
<event>
 8    1  0.1253488E-006  0.9118800E+02  0.7816164E-02  0.1184000E+00
        -11   -1    0    0    0    0  0.00000000000E+00  0.00000000000E+00  0.45593999997E+02  0.45594000000E+02  0.51100000000E-03 0. -1.
         11   -1    0    0    0    0 -0.00000000000E+00 -0.00000000000E+00 -0.45593999997E+02  0.45594000000E+02  0.51100000000E-03 0.  1.
         23    2    1    2    0    0 -0.35527136788E-14  0.00000000000E+00  0.35527136788E-14  0.91188000000E+02  0.91188000000E+02 0.  0.
    9900012    2    3    3    0    0  0.20639389214E+02  0.16820961506E+02 -0.25433257324E+02  0.54367085953E+02  0.40000004047E+02 0.  0.
         12    1    3    3    0    0 -0.20639389214E+02 -0.16820961506E+02  0.25433257324E+02  0.36820914047E+02  0.00000000000E+00 0. -1.
         11    1    4    4    0    0 -0.32861056415E+01  0.16839019044E+02 -0.91409604521E+01  0.19439861391E+02  0.51100000000E-03 0. -1.
        -11    1    4    4    0    0  0.34271036382E+01  0.47902988928E+01 -0.12102417205E+02  0.13459587857E+02  0.51100000000E-03 0.  1.
        -12    1    4    4    0    0  0.20498391218E+02 -0.48083564307E+01 -0.41898796676E+01  0.21467636705E+02  0.00000000000E+00 0.  1.
</event>
<event>
 8    1  0.1253488E-006  0.9118800E+02  0.7816164E-02  0.1184000E+00
        -11   -1    0    0    0    0  0.00000000000E+00  0.00000000000E+00  0.45593999997E+02  0.45594000000E+02  0.51100000000E-03 0.  1.
         11   -1    0    0    0    0 -0.00000000000E+00 -0.00000000000E+00 -0.45593999997E+02  0.45594000000E+02  0.51100000000E-03 0. -1.
         23    2    1    2    0    0 -0.35527136788E-14  0.35527136788E-14 -0.17763568394E-14  0.91188000000E+02  0.91188000000E+02 0.  0.
    9900012    2    3    3    0    0  0.25725841103E+02 -0.24619357654E+02  0.93727306479E+01  0.54367085406E+02  0.40000002800E+02 0.  0.
         12    1    3    3    0    0 -0.25725841103E+02  0.24619357654E+02 -0.93727306479E+01  0.36820914594E+02  0.00000000000E+00 0. -1.
         11    1    4    4    0    0  0.14991252319E+02 -0.31895434667E+01 -0.36275311580E+01  0.15750232258E+02  0.51100000000E-03 0. -1.
        -11    1    4    4    0    0  0.10730645097E+02 -0.19249605367E+02 -0.32008526979E+01  0.22269699352E+02  0.51100000000E-03 0.  1.
         12    1    4    4    0    0  0.39436871359E-02 -0.21802088197E+01  0.16201114504E+02  0.16347153796E+02  0.00000000000E+00 0. -1.
</event>
<event>
 8    1  0.1253488E-006  0.9118800E+02  0.7816164E-02  0.1184000E+00
        -11   -1    0    0    0    0  0.00000000000E+00  0.00000000000E+00  0.45593999997E+02  0.45594000000E+02  0.51100000000E-03 0.  1.
         11   -1    0    0    0    0 -0.00000000000E+00 -0.00000000000E+00 -0.45593999997E+02  0.45594000000E+02  0.51100000000E-03 0. -1.
         23    2    1    2    0    0  0.35527136788E-14  0.00000000000E+00  0.00000000000E+00  0.91188000000E+02  0.91188000000E+02 0.  0.
    9900012    2    3    3    0    0 -0.17210318747E+02  0.37553358266E+01  0.32333896236E+02  0.54367102885E+02  0.40000042647E+02 0.  0.
         12    1    3    3    0    0  0.17210318747E+02 -0.37553358266E+01 -0.32333896236E+02  0.36820897115E+02  0.00000000000E+00 0. -1.
         11    1    4    4    0    0  0.52449478770E+01  0.80720722934E+01  0.12234292473E+02  0.15567457786E+02  0.51100000000E-03 0. -1.
        -11    1    4    4    0    0 -0.18933309143E+02 -0.77473298740E+01  0.25989737010E+01  0.20621493153E+02  0.51100000000E-03 0.  1.
        -12    1    4    4    0    0 -0.35219574808E+01  0.34305934072E+01  0.17500630061E+02  0.18178151946E+02  0.00000000000E+00 0.  1.
</event>
<event>
 8    1  0.1253488E-006  0.9118800E+02  0.7816164E-02  0.1184000E+00
        -11   -1    0    0    0    0  0.00000000000E+00  0.00000000000E+00  0.45593999997E+02  0.45594000000E+02  0.51100000000E-03 0.  1.
         11   -1    0    0    0    0 -0.00000000000E+00 -0.00000000000E+00 -0.45593999997E+02  0.45594000000E+02  0.51100000000E-03 0. -1.
         23    2    1    2    0    0 -0.88817841970E-15  0.00000000000E+00 -0.35527136788E-14  0.91188000000E+02  0.91188000000E+02 0.  0.
    9900012    2    3    3    0    0  0.62745980527E+01  0.21944053159E+02  0.28894071656E+02  0.54367089818E+02  0.40000012858E+02 0.  0.
         12    1    3    3    0    0 -0.62745980527E+01 -0.21944053159E+02 -0.28894071656E+02  0.36820910182E+02  0.00000000000E+00 0. -1.
         11    1    4    4    0    0  0.15482681777E+02  0.12285014864E+02  0.10375171391E+02  0.22322168507E+02  0.51100000000E-03 0. -1.
        -11    1    4    4    0    0  0.15400812309E-01  0.13152618935E+02  0.27367586841E+01  0.13434339224E+02  0.51100000000E-03 0.  1.
        -12    1    4    4    0    0 -0.92234845367E+01 -0.34935806408E+01  0.15782141581E+02  0.18610582086E+02  0.00000000000E+00 0.  1.
</event>
<event>
 8    1  0.1253488E-006  0.9118800E+02  0.7816164E-02  0.1184000E+00
        -11   -1    0    0    0    0  0.00000000000E+00  0.00000000000E+00  0.45593999997E+02  0.45594000000E+02  0.51100000000E-03 0. -1.
         11   -1    0    0    0    0 -0.00000000000E+00 -0.00000000000E+00 -0.45593999997E+02  0.45594000000E+02  0.51100000000E-03 0.  1.
         23    2    1    2    0    0 -0.17763568394E-14  0.00000000000E+00  0.00000000000E+00  0.91188000000E+02  0.91188000000E+02 0.  0.
    9900012    2    3    3    0    0  0.15243473349E+02 -0.29701186845E+01 -0.33385541539E+02  0.54367089248E+02  0.40000011559E+02 0.  0.
         12    1    3    3    0    0 -0.15243473349E+02  0.29701186845E+01  0.33385541539E+02  0.36820910752E+02  0.00000000000E+00 0. -1.
         11    1    4    4    0    0  0.14798141986E+02 -0.75338383524E+01 -0.88097472112E+01  0.18797749141E+02  0.51100000000E-03 0. -1.
        -11    1    4    4    0    0  0.16926240497E+00  0.34494801324E+01  0.49420330002E+01  0.60292000615E+01  0.51100000000E-03 0.  1.
        -12    1    4    4    0    0  0.27606895829E+00  0.11142395356E+01 -0.29517827328E+02  0.29540140046E+02  0.00000000000E+00 0.  1.
</event>
<event>
 8    1  0.1253488E-006  0.9118800E+02  0.7816164E-02  0.1184000E+00
        -11   -1    0    0    0    0  0.00000000000E+00  0.00000000000E+00  0.45593999997E+02  0.45594000000E+02  0.51100000000E-03 0. -1.
         11   -1    0    0    0    0 -0.00000000000E+00 -0.00000000000E+00 -0.45593999997E+02  0.45594000000E+02  0.51100000000E-03 0.  1.
         23    2    1    2    0    0 -0.71054273576E-14  0.17763568394E-14  0.17763568394E-14  0.91188000000E+02  0.91188000000E+02 0.  0.
    9900012    2    3    3    0    0 -0.32259819458E+02 -0.11540628234E+02  0.13486970454E+02  0.54367076281E+02  0.39999981997E+02 0.  0.
         12    1    3    3    0    0  0.32259819458E+02  0.11540628234E+02 -0.13486970454E+02  0.36820923719E+02  0.00000000000E+00 0. -1.
         11    1    4    4    0    0  0.49118954539E+01 -0.96967973634E+01  0.48569939015E+01  0.11905670333E+02  0.51100000000E-03 0. -1.
        -11    1    4    4    0    0 -0.13328507149E+02  0.59672052013E+01 -0.28350267041E+01  0.14875954336E+02  0.51100000000E-03 0.  1.
         12    1    4    4    0    0 -0.23843207763E+02 -0.78110360722E+01  0.11465003256E+02  0.27585451612E+02  0.00000000000E+00 0. -1.
</event>
<event>
 8    1  0.1253488E-006  0.9118800E+02  0.7816164E-02  0.1184000E+00
        -11   -1    0    0    0    0  0.00000000000E+00  0.00000000000E+00  0.45593999997E+02  0.45594000000E+02  0.51100000000E-03 0. -1.
         11   -1    0    0    0    0 -0.00000000000E+00 -0.00000000000E+00 -0.45593999997E+02  0.45594000000E+02  0.51100000000E-03 0.  1.
         23    2    1    2    0    0  0.35527136788E-14  0.00000000000E+00  0.00000000000E+00  0.91188000000E+02  0.91188000000E+02 0.  0.
    9900012    2    3    3    0    0  0.26953034141E+02  0.11942544282E+02  0.22060949005E+02  0.54367137920E+02  0.40000122515E+02 0.  0.
        -12    1    3    3    0    0 -0.26953034141E+02 -0.11942544282E+02 -0.22060949005E+02  0.36820862080E+02  0.00000000000E+00 0.  1.
         11    1    4    4    0    0  0.91099173641E+01 -0.43737746798E+01  0.68872327684E+01  0.12229246698E+02  0.51100000000E-03 0. -1.
        -11    1    4    4    0    0  0.24185051557E+02  0.37165238633E+01  0.13464477023E+02  0.27928863389E+02  0.51100000000E-03 0.  1.
        -12    1    4    4    0    0 -0.63419347799E+01  0.12599795098E+02  0.17092392135E+01  0.14209027833E+02  0.00000000000E+00 0.  1.
</event>
<event>
 8    1  0.1253488E-006  0.9118800E+02  0.7816164E-02  0.1184000E+00
        -11   -1    0    0    0    0  0.00000000000E+00  0.00000000000E+00  0.45593999997E+02  0.45594000000E+02  0.51100000000E-03 0.  1.
         11   -1    0    0    0    0 -0.00000000000E+00 -0.00000000000E+00 -0.45593999997E+02  0.45594000000E+02  0.51100000000E-03 0. -1.
         23    2    1    2    0    0  0.00000000000E+00  0.35527136788E-14  0.17763568394E-14  0.91188000000E+02  0.91188000000E+02 0.  0.
    9900012    2    3    3    0    0 -0.18229603958E+02 -0.30576629581E+02 -0.94091444648E+01  0.54367072030E+02  0.39999972307E+02 0.  0.
         12    1    3    3    0    0  0.18229603958E+02  0.30576629581E+02  0.94091444648E+01  0.36820927970E+02  0.00000000000E+00 0. -1.
         11    1    4    4    0    0 -0.10871419105E+02 -0.28154773396E+01 -0.94285443586E+01  0.14663291411E+02  0.51100000000E-03 0. -1.
        -11    1    4    4    0    0 -0.72017846200E+01  0.25853883994E+00  0.78040052220E+01  0.10622383998E+02  0.51100000000E-03 0.  1.
        -12    1    4    4    0    0 -0.15640023299E+00 -0.28019691081E+02 -0.77846053282E+01  0.29081396621E+02  0.00000000000E+00 0.  1.
</event>
<event>
 8    1  0.1253488E-006  0.9118800E+02  0.7816164E-02  0.1184000E+00
        -11   -1    0    0    0    0  0.00000000000E+00  0.00000000000E+00  0.45593999997E+02  0.45594000000E+02  0.51100000000E-03 0.  1.
         11   -1    0    0    0    0 -0.00000000000E+00 -0.00000000000E+00 -0.45593999997E+02  0.45594000000E+02  0.51100000000E-03 0. -1.
         23    2    1    2    0    0  0.00000000000E+00  0.44408920985E-15  0.00000000000E+00  0.91188000000E+02  0.91188000000E+02 0.  0.
    9900012    2    3    3    0    0  0.22107566395E+02  0.35058285260E+01  0.29236024519E+02  0.54367075850E+02  0.39999981015E+02 0.  0.
         12    1    3    3    0    0 -0.22107566395E+02 -0.35058285260E+01 -0.29236024519E+02  0.36820924150E+02  0.00000000000E+00 0. -1.
         11    1    4    4    0    0  0.18704624270E+02 -0.16741189612E+00 -0.26936612925E+00  0.18707312853E+02  0.51100000000E-03 0. -1.
        -11    1    4    4    0    0 -0.66714898237E+01  0.63720705989E+01  0.10472387222E+02  0.13956466407E+02  0.51100000000E-03 0.  1.
        -12    1    4    4    0    0  0.10074431949E+02 -0.26988301769E+01  0.19033003427E+02  0.21703296590E+02  0.00000000000E+00 0.  1.
</event>
<event>
 8    1  0.1253488E-006  0.9118800E+02  0.7816164E-02  0.1184000E+00
        -11   -1    0    0    0    0  0.00000000000E+00  0.00000000000E+00  0.45593999997E+02  0.45594000000E+02  0.51100000000E-03 0.  1.
         11   -1    0    0    0    0 -0.00000000000E+00 -0.00000000000E+00 -0.45593999997E+02  0.45594000000E+02  0.51100000000E-03 0. -1.
         23    2    1    2    0    0  0.00000000000E+00  0.00000000000E+00  0.35527136788E-14  0.91188000000E+02  0.91188000000E+02 0.  0.
    9900012    2    3    3    0    0  0.22211099847E+02 -0.11759655399E+02  0.26910152719E+02  0.54367098723E+02  0.40000033158E+02 0.  0.
         12    1    3    3    0    0 -0.22211099847E+02  0.11759655399E+02 -0.26910152719E+02  0.36820901277E+02  0.00000000000E+00 0. -1.
         11    1    4    4    0    0  0.14514359054E+01 -0.14354777736E+00  0.21320740466E+02  0.21370569633E+02  0.51100000000E-03 0. -1.
        -11    1    4    4    0    0  0.46554355569E+01 -0.14363172044E+02 -0.15293454112E+01  0.15176056439E+02  0.51100000000E-03 0.  1.
        -12    1    4    4    0    0  0.16104228384E+02  0.27470644229E+01  0.71187576644E+01  0.17820472650E+02  0.00000000000E+00 0.  1.
</event>
<event>
 8    1  0.1253488E-006  0.9118800E+02  0.7816164E-02  0.1184000E+00
        -11   -1    0    0    0    0  0.00000000000E+00  0.00000000000E+00  0.45593999997E+02  0.45594000000E+02  0.51100000000E-03 0.  1.
         11   -1    0    0    0    0 -0.00000000000E+00 -0.00000000000E+00 -0.45593999997E+02  0.45594000000E+02  0.51100000000E-03 0. -1.
         23    2    1    2    0    0 -0.35527136788E-14 -0.44408920985E-15  0.00000000000E+00  0.91188000000E+02  0.91188000000E+02 0.  0.
    9900012    2    3    3    0    0 -0.27646004547E+02  0.34051566319E+01 -0.24080694732E+02  0.54367129317E+02  0.40000102903E+02 0.  0.
        -12    1    3    3    0    0  0.27646004547E+02 -0.34051566319E+01  0.24080694732E+02  0.36820870683E+02  0.00000000000E+00 0.  1.
         11    1    4    4    0    0 -0.14614722652E+02  0.14839016841E+02 -0.27164590732E+02  0.34230126043E+02  0.51100000000E-03 0. -1.
        -11    1    4    4    0    0 -0.34334128768E+01  0.13680783848E+01 -0.52982059272E+00  0.37337210088E+01  0.51100000000E-03 0.  1.
        -12    1    4    4    0    0 -0.95978690181E+01 -0.12801938594E+02  0.36137165932E+01  0.16403282265E+02  0.00000000000E+00 0.  1.
</event>
<event>
 8    1  0.1253488E-006  0.9118800E+02  0.7816164E-02  0.1184000E+00
        -11   -1    0    0    0    0  0.00000000000E+00  0.00000000000E+00  0.45593999997E+02  0.45594000000E+02  0.51100000000E-03 0.  1.
         11   -1    0    0    0    0 -0.00000000000E+00 -0.00000000000E+00 -0.45593999997E+02  0.45594000000E+02  0.51100000000E-03 0. -1.
         23    2    1    2    0    0  0.17763568394E-14  0.71054273576E-14 -0.88817841970E-15  0.91188000000E+02  0.91188000000E+02 0.  0.
    9900012    2    3    3    0    0  0.75663431966E+01  0.35714747543E+02  0.47950192266E+01  0.54367014804E+02  0.39999841849E+02 0.  0.
        -12    1    3    3    0    0 -0.75663431966E+01 -0.35714747543E+02 -0.47950192266E+01  0.36820985196E+02  0.00000000000E+00 0.  1.
         11    1    4    4    0    0  0.95201769743E+01  0.15808027156E+01  0.12490569570E+01  0.97310251459E+01  0.51100000000E-03 0. -1.
        -11    1    4    4    0    0 -0.68366380161E+01  0.29143620105E+02 -0.81413212012E+01  0.31022110233E+02  0.51100000000E-03 0.  1.
        -12    1    4    4    0    0  0.48828042384E+01  0.49903247227E+01  0.11687283471E+02  0.13613879425E+02  0.00000000000E+00 0.  1.
</event>
<event>
 8    1  0.1253488E-006  0.9118800E+02  0.7816164E-02  0.1184000E+00
        -11   -1    0    0    0    0  0.00000000000E+00  0.00000000000E+00  0.45593999997E+02  0.45594000000E+02  0.51100000000E-03 0. -1.
         11   -1    0    0    0    0 -0.00000000000E+00 -0.00000000000E+00 -0.45593999997E+02  0.45594000000E+02  0.51100000000E-03 0.  1.
         23    2    1    2    0    0  0.00000000000E+00 -0.17763568394E-14  0.88817841970E-15  0.91188000000E+02  0.91188000000E+02 0.  0.
    9900012    2    3    3    0    0  0.32568503737E+02  0.15472661999E+02 -0.74611358723E+01  0.54367092169E+02  0.40000018217E+02 0.  0.
         12    1    3    3    0    0 -0.32568503737E+02 -0.15472661999E+02  0.74611358723E+01  0.36820907831E+02  0.00000000000E+00 0. -1.
         11    1    4    4    0    0  0.95967342150E+01  0.19292652203E+01  0.12804364809E+02  0.16117416986E+02  0.51100000000E-03 0. -1.
        -11    1    4    4    0    0  0.87175839146E+01  0.15717672561E+02 -0.12269510693E+02  0.21761948280E+02  0.51100000000E-03 0.  1.
         12    1    4    4    0    0  0.14254185608E+02 -0.21742757820E+01 -0.79959899882E+01  0.16487726902E+02  0.00000000000E+00 0. -1.
</event>
<event>
 8    1  0.1253488E-006  0.9118800E+02  0.7816164E-02  0.1184000E+00
        -11   -1    0    0    0    0  0.00000000000E+00  0.00000000000E+00  0.45593999997E+02  0.45594000000E+02  0.51100000000E-03 0. -1.
         11   -1    0    0    0    0 -0.00000000000E+00 -0.00000000000E+00 -0.45593999997E+02  0.45594000000E+02  0.51100000000E-03 0.  1.
         23    2    1    2    0    0 -0.88817841970E-15  0.17763568394E-14  0.00000000000E+00  0.91188000000E+02  0.91188000000E+02 0.  0.
    9900012    2    3    3    0    0  0.98161435747E+00 -0.94883342517E+01  0.35563862510E+02  0.54367077004E+02  0.39999983646E+02 0.  0.
        -12    1    3    3    0    0 -0.98161435747E+00  0.94883342517E+01 -0.35563862510E+02  0.36820922996E+02  0.00000000000E+00 0.  1.
         11    1    4    4    0    0  0.59990714367E+01  0.10479855664E+02  0.68540127217E+01  0.13885017951E+02  0.51100000000E-03 0. -1.
        -11    1    4    4    0    0  0.58785714759E+01 -0.11589431528E+02  0.69293983714E+01  0.14727154776E+02  0.51100000000E-03 0.  1.
         12    1    4    4    0    0 -0.10896028555E+02 -0.83787583873E+01  0.21780451417E+02  0.25754904277E+02  0.00000000000E+00 0. -1.
</event>
<event>
 8    1  0.1253488E-006  0.9118800E+02  0.7816164E-02  0.1184000E+00
        -11   -1    0    0    0    0  0.00000000000E+00  0.00000000000E+00  0.45593999997E+02  0.45594000000E+02  0.51100000000E-03 0.  1.
         11   -1    0    0    0    0 -0.00000000000E+00 -0.00000000000E+00 -0.45593999997E+02  0.45594000000E+02  0.51100000000E-03 0. -1.
         23    2    1    2    0    0  0.00000000000E+00  0.17763568394E-14  0.00000000000E+00  0.91188000000E+02  0.91188000000E+02 0.  0.
    9900012    2    3    3    0    0 -0.34107681025E+02  0.10268322617E+02 -0.93279518208E+01  0.54367040759E+02  0.39999901019E+02 0.  0.
        -12    1    3    3    0    0  0.34107681025E+02 -0.10268322617E+02  0.93279518208E+01  0.36820959241E+02  0.00000000000E+00 0.  1.
         11    1    4    4    0    0 -0.65748885035E+01  0.13066512098E+02 -0.87379638105E+01  0.17038629905E+02  0.51100000000E-03 0. -1.
        -11    1    4    4    0    0  0.24866612192E+01 -0.66055251870E+01  0.14476131912E+00  0.70595611135E+01  0.51100000000E-03 0.  1.
         12    1    4    4    0    0 -0.30019453740E+02  0.38073357065E+01 -0.73474932948E+00  0.30268849741E+02  0.00000000000E+00 0. -1.
</event>
<event>
 8    1  0.1253488E-006  0.9118800E+02  0.7816164E-02  0.1184000E+00
        -11   -1    0    0    0    0  0.00000000000E+00  0.00000000000E+00  0.45593999997E+02  0.45594000000E+02  0.51100000000E-03 0.  1.
         11   -1    0    0    0    0 -0.00000000000E+00 -0.00000000000E+00 -0.45593999997E+02  0.45594000000E+02  0.51100000000E-03 0. -1.
         23    2    1    2    0    0  0.17763568394E-14 -0.88817841970E-15  0.00000000000E+00  0.91188000000E+02  0.91188000000E+02 0.  0.
    9900012    2    3    3    0    0  0.80704111127E+01 -0.78488188631E+01  0.35057803510E+02  0.54367013050E+02  0.39999837849E+02 0.  0.
         12    1    3    3    0    0 -0.80704111127E+01  0.78488188631E+01 -0.35057803510E+02  0.36820986950E+02  0.00000000000E+00 0. -1.
         11    1    4    4    0    0 -0.72584625937E+01 -0.92213615796E+01  0.65019200133E+01  0.13416175041E+02  0.51100000000E-03 0. -1.
        -11    1    4    4    0    0  0.14393016965E+02 -0.58747421179E+01  0.50657638563E+01  0.16350336266E+02  0.51100000000E-03 0.  1.
        -12    1    4    4    0    0  0.93585674167E+00  0.72472848344E+01  0.23490119640E+02  0.24600501743E+02  0.00000000000E+00 0.  1.
</event>
<event>
 8    1  0.1253488E-006  0.9118800E+02  0.7816164E-02  0.1184000E+00
        -11   -1    0    0    0    0  0.00000000000E+00  0.00000000000E+00  0.45593999997E+02  0.45594000000E+02  0.51100000000E-03 0.  1.
         11   -1    0    0    0    0 -0.00000000000E+00 -0.00000000000E+00 -0.45593999997E+02  0.45594000000E+02  0.51100000000E-03 0. -1.
         23    2    1    2    0    0  0.00000000000E+00  0.00000000000E+00  0.00000000000E+00  0.91188000000E+02  0.91188000000E+02 0.  0.
    9900012    2    3    3    0    0  0.35328275607E+02 -0.88701825807E+01  0.53863966922E+01  0.54367075708E+02  0.39999980691E+02 0.  0.
         12    1    3    3    0    0 -0.35328275607E+02  0.88701825807E+01 -0.53863966922E+01  0.36820924292E+02  0.00000000000E+00 0. -1.
         11    1    4    4    0    0 -0.23786892627E+01  0.92583382469E+00 -0.42875486927E+01  0.49898301507E+01  0.51100000000E-03 0. -1.
        -11    1    4    4    0    0  0.30081673362E+02 -0.13537800683E+02  0.17918558666E+02  0.37540030162E+02  0.51100000000E-03 0.  1.
        -12    1    4    4    0    0  0.76252915078E+01  0.37417842775E+01 -0.82446132812E+01  0.11837215395E+02  0.00000000000E+00 0.  1.
</event>
<event>
 8    1  0.1253488E-006  0.9118800E+02  0.7816164E-02  0.1184000E+00
        -11   -1    0    0    0    0  0.00000000000E+00  0.00000000000E+00  0.45593999997E+02  0.45594000000E+02  0.51100000000E-03 0.  1.
         11   -1    0    0    0    0 -0.00000000000E+00 -0.00000000000E+00 -0.45593999997E+02  0.45594000000E+02  0.51100000000E-03 0. -1.
         23    2    1    2    0    0  0.00000000000E+00 -0.88817841970E-15  0.00000000000E+00  0.91188000000E+02  0.91188000000E+02 0.  0.
    9900012    2    3    3    0    0  0.32782236393E+02 -0.66132520773E+01  0.15406903430E+02  0.54367044020E+02  0.39999908453E+02 0.  0.
         12    1    3    3    0    0 -0.32782236393E+02  0.66132520773E+01 -0.15406903430E+02  0.36820955980E+02  0.00000000000E+00 0. -1.
         11    1    4    4    0    0 -0.71777371957E+01  0.28103677347E+01 -0.69030310885E+00  0.77391599479E+01  0.51100000000E-03 0. -1.
        -11    1    4    4    0    0  0.34124072196E+02 -0.10976417046E+02  0.83510898605E+01  0.36805906272E+02  0.51100000000E-03 0.  1.
        -12    1    4    4    0    0  0.58359013923E+01  0.15527972336E+01  0.77461166785E+01  0.98219778002E+01  0.00000000000E+00 0.  1.
</event>
<event>
 8    1  0.1253488E-006  0.9118800E+02  0.7816164E-02  0.1184000E+00
        -11   -1    0    0    0    0  0.00000000000E+00  0.00000000000E+00  0.45593999997E+02  0.45594000000E+02  0.51100000000E-03 0. -1.
         11   -1    0    0    0    0 -0.00000000000E+00 -0.00000000000E+00 -0.45593999997E+02  0.45594000000E+02  0.51100000000E-03 0.  1.
         23    2    1    2    0    0 -0.71054273576E-14 -0.17763568394E-14  0.17763568394E-14  0.91188000000E+02  0.91188000000E+02 0.  0.
    9900012    2    3    3    0    0 -0.31576854250E+02 -0.10375878094E+02  0.15843894258E+02  0.54367006588E+02  0.39999823119E+02 0.  0.
        -12    1    3    3    0    0  0.31576854250E+02  0.10375878094E+02 -0.15843894258E+02  0.36820993412E+02  0.00000000000E+00 0.  1.
         11    1    4    4    0    0 -0.13864145783E+02  0.16900655612E+01 -0.41770810092E+01  0.14578026818E+02  0.51100000000E-03 0. -1.
        -11    1    4    4    0    0 -0.59571285829E+01 -0.77987702917E+01 -0.55854000902E+01  0.11291806474E+02  0.51100000000E-03 0.  1.
         12    1    4    4    0    0 -0.11755579885E+02 -0.42671733635E+01  0.25606375357E+02  0.28497173296E+02  0.00000000000E+00 0. -1.
</event>
<event>
 8    1  0.1253488E-006  0.9118800E+02  0.7816164E-02  0.1184000E+00
        -11   -1    0    0    0    0  0.00000000000E+00  0.00000000000E+00  0.45593999997E+02  0.45594000000E+02  0.51100000000E-03 0.  1.
         11   -1    0    0    0    0 -0.00000000000E+00 -0.00000000000E+00 -0.45593999997E+02  0.45594000000E+02  0.51100000000E-03 0. -1.
         23    2    1    2    0    0  0.35527136788E-14  0.17763568394E-14  0.35527136788E-14  0.91188000000E+02  0.91188000000E+02 0.  0.
    9900012    2    3    3    0    0 -0.18566356503E+02  0.65769996503E+01  0.31109704196E+02  0.54367079135E+02  0.39999988504E+02 0.  0.
         12    1    3    3    0    0  0.18566356503E+02 -0.65769996503E+01 -0.31109704196E+02  0.36820920865E+02  0.00000000000E+00 0. -1.
         11    1    4    4    0    0  0.10532579759E+02 -0.15940835728E+01  0.37084874805E+00  0.10658980621E+02  0.51100000000E-03 0. -1.
        -11    1    4    4    0    0 -0.24947640384E+02  0.91503679507E+01  0.28186603404E+02  0.38737560662E+02  0.51100000000E-03 0.  1.
         12    1    4    4    0    0 -0.41512958784E+01 -0.97928472754E+00  0.25522520438E+01  0.49705378524E+01  0.00000000000E+00 0. -1.
</event>
<event>
 8    1  0.1253488E-006  0.9118800E+02  0.7816164E-02  0.1184000E+00
        -11   -1    0    0    0    0  0.00000000000E+00  0.00000000000E+00  0.45593999997E+02  0.45594000000E+02  0.51100000000E-03 0.  1.
         11   -1    0    0    0    0 -0.00000000000E+00 -0.00000000000E+00 -0.45593999997E+02  0.45594000000E+02  0.51100000000E-03 0. -1.
         23    2    1    2    0    0 -0.35527136788E-14 -0.17763568394E-14  0.35527136788E-14  0.91188000000E+02  0.91188000000E+02 0.  0.
    9900012    2    3    3    0    0  0.20224465411E+02  0.53024370285E+01  0.30309015511E+02  0.54367064911E+02  0.39999956078E+02 0.  0.
         12    1    3    3    0    0 -0.20224465411E+02 -0.53024370285E+01 -0.30309015511E+02  0.36820935089E+02  0.00000000000E+00 0. -1.
         11    1    4    4    0    0  0.12094981354E+02 -0.11791297637E+02  0.31184924160E+01  0.17176969149E+02  0.51100000000E-03 0. -1.
        -11    1    4    4    0    0 -0.26055828148E+01  0.10972587627E+02  0.62996252734E+01  0.12917895335E+02  0.51100000000E-03 0.  1.
         12    1    4    4    0    0  0.10735066872E+02  0.61211470387E+01  0.20890897821E+02  0.24272200427E+02  0.00000000000E+00 0. -1.
</event>
<event>
 8    1  0.1253488E-006  0.9118800E+02  0.7816164E-02  0.1184000E+00
        -11   -1    0    0    0    0  0.00000000000E+00  0.00000000000E+00  0.45593999997E+02  0.45594000000E+02  0.51100000000E-03 0.  1.
         11   -1    0    0    0    0 -0.00000000000E+00 -0.00000000000E+00 -0.45593999997E+02  0.45594000000E+02  0.51100000000E-03 0. -1.
         23    2    1    2    0    0 -0.71054273576E-14 -0.17763568394E-14  0.00000000000E+00  0.91188000000E+02  0.91188000000E+02 0.  0.
    9900012    2    3    3    0    0  0.25871676342E+02  0.95823504512E+01 -0.24384771533E+02  0.54367052707E+02  0.39999928255E+02 0.  0.
        -12    1    3    3    0    0 -0.25871676342E+02 -0.95823504512E+01  0.24384771533E+02  0.36820947293E+02  0.00000000000E+00 0.  1.
         11    1    4    4    0    0  0.54938712817E+01 -0.13145121507E+02  0.13710446152E+01  0.14312812606E+02  0.51100000000E-03 0. -1.
        -11    1    4    4    0    0  0.17531313746E+02  0.18011724698E+02 -0.20404541947E+02  0.32374596840E+02  0.51100000000E-03 0.  1.
         12    1    4    4    0    0  0.28464913142E+01  0.47157472603E+01 -0.53512742011E+01  0.76796432600E+01  0.00000000000E+00 0. -1.
</event>
<event>
 8    1  0.1253488E-006  0.9118800E+02  0.7816164E-02  0.1184000E+00
        -11   -1    0    0    0    0  0.00000000000E+00  0.00000000000E+00  0.45593999997E+02  0.45594000000E+02  0.51100000000E-03 0. -1.
         11   -1    0    0    0    0 -0.00000000000E+00 -0.00000000000E+00 -0.45593999997E+02  0.45594000000E+02  0.51100000000E-03 0.  1.
         23    2    1    2    0    0 -0.38857805862E-15 -0.17763568394E-14  0.00000000000E+00  0.91188000000E+02  0.91188000000E+02 0.  0.
    9900012    2    3    3    0    0  0.33791561733E+00  0.69063153741E+01  0.36165853117E+02  0.54367077813E+02  0.39999985490E+02 0.  0.
        -12    1    3    3    0    0 -0.33791561733E+00 -0.69063153741E+01 -0.36165853117E+02  0.36820922187E+02  0.00000000000E+00 0.  1.
         11    1    4    4    0    0 -0.60551435372E+01  0.14521898695E+02  0.23141911399E+02  0.27983894805E+02  0.51100000000E-03 0. -1.
        -11    1    4    4    0    0 -0.40615448170E+01 -0.83176886105E+01 -0.50614026542E+00  0.92701816784E+01  0.51100000000E-03 0.  1.
        -12    1    4    4    0    0  0.10454603972E+02  0.70210528999E+00  0.13530081983E+02  0.17113001330E+02  0.00000000000E+00 0.  1.
</event>
<event>
 8    1  0.1253488E-006  0.9118800E+02  0.7816164E-02  0.1184000E+00
        -11   -1    0    0    0    0  0.00000000000E+00  0.00000000000E+00  0.45593999997E+02  0.45594000000E+02  0.51100000000E-03 0. -1.
         11   -1    0    0    0    0 -0.00000000000E+00 -0.00000000000E+00 -0.45593999997E+02  0.45594000000E+02  0.51100000000E-03 0.  1.
         23    2    1    2    0    0 -0.71054273576E-14 -0.17763568394E-14  0.88817841970E-15  0.91188000000E+02  0.91188000000E+02 0.  0.
    9900012    2    3    3    0    0 -0.34836389577E+02 -0.10638757202E+02  0.53873087996E+01  0.54367078099E+02  0.39999986142E+02 0.  0.
         12    1    3    3    0    0  0.34836389577E+02  0.10638757202E+02 -0.53873087996E+01  0.36820921901E+02  0.00000000000E+00 0. -1.
         11    1    4    4    0    0 -0.58497836484E+01 -0.62481968304E+01  0.48565997711E+01  0.98410616278E+01  0.51100000000E-03 0. -1.
        -11    1    4    4    0    0 -0.11775865941E+02 -0.18515493816E+02  0.29070696831E+01  0.22134714462E+02  0.51100000000E-03 0.  1.
         12    1    4    4    0    0 -0.17210739988E+02  0.14124933444E+02 -0.23763606546E+01  0.22391302009E+02  0.00000000000E+00 0. -1.
</event>
<event>
 8    1  0.1253488E-006  0.9118800E+02  0.7816164E-02  0.1184000E+00
        -11   -1    0    0    0    0  0.00000000000E+00  0.00000000000E+00  0.45593999997E+02  0.45594000000E+02  0.51100000000E-03 0. -1.
         11   -1    0    0    0    0 -0.00000000000E+00 -0.00000000000E+00 -0.45593999997E+02  0.45594000000E+02  0.51100000000E-03 0.  1.
         23    2    1    2    0    0  0.17763568394E-14  0.00000000000E+00 -0.11102230246E-14  0.91188000000E+02  0.91188000000E+02 0.  0.
    9900012    2    3    3    0    0  0.70645485894E+01  0.36126495483E+02 -0.86479434476E+00  0.54367090289E+02  0.40000013932E+02 0.  0.
        -12    1    3    3    0    0 -0.70645485894E+01 -0.36126495483E+02  0.86479434476E+00  0.36820909711E+02  0.00000000000E+00 0.  1.
         11    1    4    4    0    0 -0.26278172732E+01  0.44324942269E+01  0.28310650644E+01  0.58794011900E+01  0.51100000000E-03 0. -1.
        -11    1    4    4    0    0  0.42591001339E+00  0.10834665016E+02  0.15327174620E+02  0.18774814178E+02  0.51100000000E-03 0.  1.
        -12    1    4    4    0    0  0.92664558493E+01  0.20859336241E+02 -0.19023034029E+02  0.29712874921E+02  0.00000000000E+00 0.  1.
</event>
<event>
 8    1  0.1253488E-006  0.9118800E+02  0.7816164E-02  0.1184000E+00
        -11   -1    0    0    0    0  0.00000000000E+00  0.00000000000E+00  0.45593999997E+02  0.45594000000E+02  0.51100000000E-03 0.  1.
         11   -1    0    0    0    0 -0.00000000000E+00 -0.00000000000E+00 -0.45593999997E+02  0.45594000000E+02  0.51100000000E-03 0. -1.
         23    2    1    2    0    0  0.17763568394E-14 -0.35527136788E-14  0.35527136788E-14  0.91188000000E+02  0.91188000000E+02 0.  0.
    9900012    2    3    3    0    0 -0.98048300069E+01 -0.24856366931E+02 -0.25333850704E+02  0.54367113808E+02  0.40000067548E+02 0.  0.
        -12    1    3    3    0    0  0.98048300069E+01  0.24856366931E+02  0.25333850704E+02  0.36820886192E+02  0.00000000000E+00 0.  1.
         11    1    4    4    0    0  0.89261597685E+01 -0.68037096167E+01 -0.34001781638E+01  0.11727233458E+02  0.51100000000E-03 0. -1.
        -11    1    4    4    0    0  0.48007893711E+01 -0.63092991833E+01  0.67722635652E+00  0.79569762202E+01  0.51100000000E-03 0.  1.
         12    1    4    4    0    0 -0.23531779147E+02 -0.11743358131E+02 -0.22610898897E+02  0.34682904130E+02  0.00000000000E+00 0. -1.
</event>
<event>
 8    1  0.1253488E-006  0.9118800E+02  0.7816164E-02  0.1184000E+00
        -11   -1    0    0    0    0  0.00000000000E+00  0.00000000000E+00  0.45593999997E+02  0.45594000000E+02  0.51100000000E-03 0.  1.
         11   -1    0    0    0    0 -0.00000000000E+00 -0.00000000000E+00 -0.45593999997E+02  0.45594000000E+02  0.51100000000E-03 0. -1.
         23    2    1    2    0    0  0.17763568394E-14  0.35527136788E-14  0.00000000000E+00  0.91188000000E+02  0.91188000000E+02 0.  0.
    9900012    2    3    3    0    0  0.14438302389E+02  0.29554903690E+02 -0.16547609300E+02  0.54367078209E+02  0.39999986392E+02 0.  0.
        -12    1    3    3    0    0 -0.14438302389E+02 -0.29554903690E+02  0.16547609300E+02  0.36820921791E+02  0.00000000000E+00 0.  1.
         11    1    4    4    0    0  0.20691998697E+02  0.13841281644E+02 -0.14286682019E+02  0.28702772880E+02  0.51100000000E-03 0. -1.
        -11    1    4    4    0    0 -0.51234262181E+01  0.62666409470E+01 -0.10375555660E+02  0.13159500009E+02  0.51100000000E-03 0.  1.
        -12    1    4    4    0    0 -0.11302700900E+01  0.94469810997E+01  0.81146283787E+01  0.12504805320E+02  0.00000000000E+00 0.  1.
</event>
<event>
 8    1  0.1253488E-006  0.9118800E+02  0.7816164E-02  0.1184000E+00
        -11   -1    0    0    0    0  0.00000000000E+00  0.00000000000E+00  0.45593999997E+02  0.45594000000E+02  0.51100000000E-03 0. -1.
         11   -1    0    0    0    0 -0.00000000000E+00 -0.00000000000E+00 -0.45593999997E+02  0.45594000000E+02  0.51100000000E-03 0.  1.
         23    2    1    2    0    0  0.71054273576E-14 -0.88817841970E-15  0.00000000000E+00  0.91188000000E+02  0.91188000000E+02 0.  0.
    9900012    2    3    3    0    0  0.35120984195E+02 -0.61363215782E+01 -0.92000897823E+01  0.54367087120E+02  0.40000006707E+02 0.  0.
         12    1    3    3    0    0 -0.35120984195E+02  0.61363215782E+01  0.92000897823E+01  0.36820912880E+02  0.00000000000E+00 0. -1.
         11    1    4    4    0    0  0.21967847419E+01  0.64305620357E+00 -0.30923472494E+01  0.38473362545E+01  0.51100000000E-03 0. -1.
        -11    1    4    4    0    0  0.11680287491E+01 -0.95227720270E+01 -0.14657759871E+02  0.17518487462E+02  0.51100000000E-03 0.  1.
         12    1    4    4    0    0  0.31756170704E+02  0.27433942453E+01  0.85500173383E+01  0.33001263404E+02  0.00000000000E+00 0. -1.
</event>
<event>
 8    1  0.1253488E-006  0.9118800E+02  0.7816164E-02  0.1184000E+00
        -11   -1    0    0    0    0  0.00000000000E+00  0.00000000000E+00  0.45593999997E+02  0.45594000000E+02  0.51100000000E-03 0. -1.
         11   -1    0    0    0    0 -0.00000000000E+00 -0.00000000000E+00 -0.45593999997E+02  0.45594000000E+02  0.51100000000E-03 0.  1.
         23    2    1    2    0    0  0.35527136788E-14  0.00000000000E+00 -0.35527136788E-14  0.91188000000E+02  0.91188000000E+02 0.  0.
    9900012    2    3    3    0    0  0.94848264572E+01  0.21635268481E+02  0.28244182847E+02  0.54367073344E+02  0.39999975302E+02 0.  0.
        -12    1    3    3    0    0 -0.94848264572E+01 -0.21635268481E+02 -0.28244182847E+02  0.36820926656E+02  0.00000000000E+00 0.  1.
         11    1    4    4    0    0 -0.11833638993E+02  0.95530643959E+01  0.22344335846E+01  0.15371686468E+02  0.51100000000E-03 0. -1.
        -11    1    4    4    0    0  0.17518196983E+02  0.23042824844E+01  0.11467429243E+02  0.21064160961E+02  0.51100000000E-03 0.  1.
         12    1    4    4    0    0  0.38002684676E+01  0.97779216003E+01  0.14542320019E+02  0.17931225914E+02  0.00000000000E+00 0. -1.
</event>
<event>
 8    1  0.1253488E-006  0.9118800E+02  0.7816164E-02  0.1184000E+00
        -11   -1    0    0    0    0  0.00000000000E+00  0.00000000000E+00  0.45593999997E+02  0.45594000000E+02  0.51100000000E-03 0.  1.
         11   -1    0    0    0    0 -0.00000000000E+00 -0.00000000000E+00 -0.45593999997E+02  0.45594000000E+02  0.51100000000E-03 0. -1.
         23    2    1    2    0    0  0.44408920985E-15  0.00000000000E+00  0.35527136788E-14  0.91188000000E+02  0.91188000000E+02 0.  0.
    9900012    2    3    3    0    0  0.22569063449E+01  0.24594164014E+02  0.27309665979E+02  0.54367022478E+02  0.39999859344E+02 0.  0.
        -12    1    3    3    0    0 -0.22569063449E+01 -0.24594164014E+02 -0.27309665979E+02  0.36820977522E+02  0.00000000000E+00 0.  1.
         11    1    4    4    0    0  0.19265929500E+01  0.13814787631E+02 -0.34322398940E-02  0.13948481269E+02  0.51100000000E-03 0. -1.
        -11    1    4    4    0    0  0.13219820752E+02  0.55555928435E+01  0.74196235488E+01  0.16145559340E+02  0.51100000000E-03 0.  1.
        -12    1    4    4    0    0 -0.12889507357E+02  0.52237835394E+01  0.19893474670E+02  0.24272981869E+02  0.00000000000E+00 0.  1.
</event>
<event>
 8    1  0.1253488E-006  0.9118800E+02  0.7816164E-02  0.1184000E+00
        -11   -1    0    0    0    0  0.00000000000E+00  0.00000000000E+00  0.45593999997E+02  0.45594000000E+02  0.51100000000E-03 0.  1.
         11   -1    0    0    0    0 -0.00000000000E+00 -0.00000000000E+00 -0.45593999997E+02  0.45594000000E+02  0.51100000000E-03 0. -1.
         23    2    1    2    0    0  0.35527136788E-14 -0.66613381478E-15  0.00000000000E+00  0.91188000000E+02  0.91188000000E+02 0.  0.
    9900012    2    3    3    0    0  0.11649170604E+02  0.27045491335E+00 -0.34928556976E+02  0.54367076410E+02  0.39999982292E+02 0.  0.
        -12    1    3    3    0    0 -0.11649170604E+02 -0.27045491335E+00  0.34928556976E+02  0.36820923590E+02  0.00000000000E+00 0.  1.
         11    1    4    4    0    0 -0.93106872704E+01  0.93941483315E+01 -0.19652459429E+02  0.23688775447E+02  0.51100000000E-03 0. -1.
        -11    1    4    4    0    0  0.91106888815E+01 -0.83347890273E+01 -0.14197408946E+01  0.12429361387E+02  0.51100000000E-03 0.  1.
         12    1    4    4    0    0  0.11849168993E+02 -0.78890439079E+00 -0.13856356652E+02  0.18248939575E+02  0.00000000000E+00 0. -1.
</event>
<event>
 8    1  0.1253488E-006  0.9118800E+02  0.7816164E-02  0.1184000E+00
        -11   -1    0    0    0    0  0.00000000000E+00  0.00000000000E+00  0.45593999997E+02  0.45594000000E+02  0.51100000000E-03 0. -1.
         11   -1    0    0    0    0 -0.00000000000E+00 -0.00000000000E+00 -0.45593999997E+02  0.45594000000E+02  0.51100000000E-03 0.  1.
         23    2    1    2    0    0  0.71054273576E-14 -0.44408920985E-15  0.00000000000E+00  0.91188000000E+02  0.91188000000E+02 0.  0.
    9900012    2    3    3    0    0  0.24762477654E+02 -0.29888642695E+01  0.27086355816E+02  0.54367023905E+02  0.39999862597E+02 0.  0.
        -12    1    3    3    0    0 -0.24762477654E+02  0.29888642695E+01 -0.27086355816E+02  0.36820976095E+02  0.00000000000E+00 0.  1.
         11    1    4    4    0    0  0.21265683168E+02 -0.27708330643E-01  0.32512073323E+02  0.38849259457E+02  0.51100000000E-03 0. -1.
        -11    1    4    4    0    0  0.23001867490E+00 -0.79581015198E+01 -0.87155087992E+00  0.80089880501E+01  0.51100000000E-03 0.  1.
        -12    1    4    4    0    0  0.32667758109E+01  0.49969455809E+01 -0.45541666268E+01  0.75087763984E+01  0.00000000000E+00 0.  1.
</event>
<event>
 8    1  0.1253488E-006  0.9118800E+02  0.7816164E-02  0.1184000E+00
        -11   -1    0    0    0    0  0.00000000000E+00  0.00000000000E+00  0.45593999997E+02  0.45594000000E+02  0.51100000000E-03 0.  1.
         11   -1    0    0    0    0 -0.00000000000E+00 -0.00000000000E+00 -0.45593999997E+02  0.45594000000E+02  0.51100000000E-03 0. -1.
         23    2    1    2    0    0  0.00000000000E+00  0.35527136788E-14  0.00000000000E+00  0.91188000000E+02  0.91188000000E+02 0.  0.
    9900012    2    3    3    0    0  0.12250224699E+02 -0.19543557411E+02  0.28701241388E+02  0.54367083408E+02  0.39999998246E+02 0.  0.
         12    1    3    3    0    0 -0.12250224699E+02  0.19543557411E+02 -0.28701241388E+02  0.36820916592E+02  0.00000000000E+00 0. -1.
         11    1    4    4    0    0  0.97032580905E+01  0.10668456343E+02  0.97895348717E+01  0.17429979104E+02  0.51100000000E-03 0. -1.
        -11    1    4    4    0    0  0.52734387967E+01 -0.23077954956E+02  0.11592323974E+02  0.26358739292E+02  0.51100000000E-03 0.  1.
         12    1    4    4    0    0 -0.27264721879E+01 -0.71340587982E+01  0.73193825423E+01  0.10578365012E+02  0.00000000000E+00 0. -1.
</event>
<event>
 8    1  0.1253488E-006  0.9118800E+02  0.7816164E-02  0.1184000E+00
        -11   -1    0    0    0    0  0.00000000000E+00  0.00000000000E+00  0.45593999997E+02  0.45594000000E+02  0.51100000000E-03 0. -1.
         11   -1    0    0    0    0 -0.00000000000E+00 -0.00000000000E+00 -0.45593999997E+02  0.45594000000E+02  0.51100000000E-03 0.  1.
         23    2    1    2    0    0 -0.17763568394E-14  0.00000000000E+00  0.00000000000E+00  0.91188000000E+02  0.91188000000E+02 0.  0.
    9900012    2    3    3    0    0  0.14639845605E+02 -0.27774932281E+02  0.19235668721E+02  0.54367042738E+02  0.39999905530E+02 0.  0.
        -12    1    3    3    0    0 -0.14639845605E+02  0.27774932281E+02 -0.19235668721E+02  0.36820957262E+02  0.00000000000E+00 0.  1.
         11    1    4    4    0    0  0.22560632731E+02 -0.10724681644E+02  0.13304554785E+02  0.28302157583E+02  0.51100000000E-03 0. -1.
        -11    1    4    4    0    0 -0.61302312698E+01 -0.19695723793E+02  0.16089420314E+01  0.20690335083E+02  0.51100000000E-03 0.  1.
        -12    1    4    4    0    0 -0.17905558564E+01  0.26454731559E+01  0.43221719050E+01  0.53745500714E+01  0.00000000000E+00 0.  1.
</event>
<event>
 8    1  0.1253488E-006  0.9118800E+02  0.7816164E-02  0.1184000E+00
        -11   -1    0    0    0    0  0.00000000000E+00  0.00000000000E+00  0.45593999997E+02  0.45594000000E+02  0.51100000000E-03 0.  1.
         11   -1    0    0    0    0 -0.00000000000E+00 -0.00000000000E+00 -0.45593999997E+02  0.45594000000E+02  0.51100000000E-03 0. -1.
         23    2    1    2    0    0 -0.17763568394E-14  0.00000000000E+00 -0.71054273576E-14  0.91188000000E+02  0.91188000000E+02 0.  0.
    9900012    2    3    3    0    0 -0.12608267763E+02 -0.12376814182E+02  0.32305207579E+02  0.54367076845E+02  0.39999983284E+02 0.  0.
         12    1    3    3    0    0  0.12608267763E+02  0.12376814182E+02 -0.32305207579E+02  0.36820923155E+02  0.00000000000E+00 0. -1.
         11    1    4    4    0    0  0.11088290866E+02 -0.66411207419E+00  0.14419067424E+02  0.18201668737E+02  0.51100000000E-03 0. -1.
        -11    1    4    4    0    0 -0.20002867765E+02 -0.61649462864E+01  0.47923591811E+01  0.21472959468E+02  0.51100000000E-03 0.  1.
        -12    1    4    4    0    0 -0.36936908642E+01 -0.55477558218E+01  0.13093780973E+02  0.14692448640E+02  0.00000000000E+00 0.  1.
</event>
<event>
 8    1  0.1253488E-006  0.9118800E+02  0.7816164E-02  0.1184000E+00
        -11   -1    0    0    0    0  0.00000000000E+00  0.00000000000E+00  0.45593999997E+02  0.45594000000E+02  0.51100000000E-03 0. -1.
         11   -1    0    0    0    0 -0.00000000000E+00 -0.00000000000E+00 -0.45593999997E+02  0.45594000000E+02  0.51100000000E-03 0.  1.
         23    2    1    2    0    0  0.35527136788E-14  0.66613381478E-15  0.35527136788E-14  0.91188000000E+02  0.91188000000E+02 0.  0.
    9900012    2    3    3    0    0 -0.25229370163E+02 -0.12746643640E+01  0.26788697993E+02  0.54367078933E+02  0.39999988043E+02 0.  0.
        -12    1    3    3    0    0  0.25229370163E+02  0.12746643640E+01 -0.26788697993E+02  0.36820921067E+02  0.00000000000E+00 0.  1.
         11    1    4    4    0    0  0.12208667132E+01 -0.43087326835E+01  0.37930914843E+01  0.58688360123E+01  0.51100000000E-03 0. -1.
        -11    1    4    4    0    0 -0.17241341440E+02 -0.12368693750E+02  0.21938763303E+02  0.30521431409E+02  0.51100000000E-03 0.  1.
        -12    1    4    4    0    0 -0.92088954369E+01  0.15402762070E+02  0.10568432057E+01  0.17976811511E+02  0.00000000000E+00 0.  1.
</event>
<event>
 8    1  0.1253488E-006  0.9118800E+02  0.7816164E-02  0.1184000E+00
        -11   -1    0    0    0    0  0.00000000000E+00  0.00000000000E+00  0.45593999997E+02  0.45594000000E+02  0.51100000000E-03 0. -1.
         11   -1    0    0    0    0 -0.00000000000E+00 -0.00000000000E+00 -0.45593999997E+02  0.45594000000E+02  0.51100000000E-03 0.  1.
         23    2    1    2    0    0  0.00000000000E+00  0.88817841970E-15 -0.17763568394E-14  0.91188000000E+02  0.91188000000E+02 0.  0.
    9900012    2    3    3    0    0 -0.33264960466E+02  0.76994998317E+01  0.13781877708E+02  0.54367081413E+02  0.39999993696E+02 0.  0.
        -12    1    3    3    0    0  0.33264960466E+02 -0.76994998317E+01 -0.13781877708E+02  0.36820918587E+02  0.00000000000E+00 0.  1.
         11    1    4    4    0    0 -0.88468965722E+01 -0.10199851248E+02 -0.20310448718E+01  0.13653925735E+02  0.51100000000E-03 0. -1.
        -11    1    4    4    0    0 -0.21523697819E+02  0.11514116744E+02  0.11225791458E+01  0.24435724593E+02  0.51100000000E-03 0.  1.
         12    1    4    4    0    0 -0.28943660749E+01  0.63852343364E+01  0.14690343434E+02  0.16277431085E+02  0.00000000000E+00 0. -1.
</event>
<event>
 8    1  0.1253488E-006  0.9118800E+02  0.7816164E-02  0.1184000E+00
        -11   -1    0    0    0    0  0.00000000000E+00  0.00000000000E+00  0.45593999997E+02  0.45594000000E+02  0.51100000000E-03 0.  1.
         11   -1    0    0    0    0 -0.00000000000E+00 -0.00000000000E+00 -0.45593999997E+02  0.45594000000E+02  0.51100000000E-03 0. -1.
         23    2    1    2    0    0  0.00000000000E+00  0.00000000000E+00 -0.35527136788E-14  0.91188000000E+02  0.91188000000E+02 0.  0.
    9900012    2    3    3    0    0  0.29048717657E+02 -0.86268156638E+01 -0.20917218474E+02  0.54367082375E+02  0.39999995890E+02 0.  0.
        -12    1    3    3    0    0 -0.29048717657E+02  0.86268156638E+01  0.20917218474E+02  0.36820917625E+02  0.00000000000E+00 0.  1.
         11    1    4    4    0    0  0.60546783834E+01 -0.10044464474E+02 -0.24874602622E+01  0.11989072346E+02  0.51100000000E-03 0. -1.
        -11    1    4    4    0    0  0.16965190448E+01 -0.11931516478E+02 -0.16680091279E+01  0.12166409373E+02  0.51100000000E-03 0.  1.
         12    1    4    4    0    0  0.21297520229E+02  0.13349165288E+02 -0.16761749084E+02  0.30211600656E+02  0.00000000000E+00 0. -1.
</event>
<event>
 8    1  0.1253488E-006  0.9118800E+02  0.7816164E-02  0.1184000E+00
        -11   -1    0    0    0    0  0.00000000000E+00  0.00000000000E+00  0.45593999997E+02  0.45594000000E+02  0.51100000000E-03 0.  1.
         11   -1    0    0    0    0 -0.00000000000E+00 -0.00000000000E+00 -0.45593999997E+02  0.45594000000E+02  0.51100000000E-03 0. -1.
         23    2    1    2    0    0  0.00000000000E+00 -0.35527136788E-14  0.17763568394E-14  0.91188000000E+02  0.91188000000E+02 0.  0.
    9900012    2    3    3    0    0  0.31475220500E+02  0.14406972965E+02 -0.12551079068E+02  0.54367082558E+02  0.39999996308E+02 0.  0.
        -12    1    3    3    0    0 -0.31475220500E+02 -0.14406972965E+02  0.12551079068E+02  0.36820917442E+02  0.00000000000E+00 0.  1.
         11    1    4    4    0    0  0.25900885713E+02  0.15420745214E+01 -0.16165093148E+01  0.25997057087E+02  0.51100000000E-03 0. -1.
        -11    1    4    4    0    0  0.31400391361E+01  0.42923778777E+01  0.67342849589E+01  0.85810808055E+01  0.51100000000E-03 0.  1.
        -12    1    4    4    0    0  0.24342956503E+01  0.85725205656E+01 -0.17668854712E+02  0.19788944666E+02  0.00000000000E+00 0.  1.
</event>
<event>
 8    1  0.1253488E-006  0.9118800E+02  0.7816164E-02  0.1184000E+00
        -11   -1    0    0    0    0  0.00000000000E+00  0.00000000000E+00  0.45593999997E+02  0.45594000000E+02  0.51100000000E-03 0.  1.
         11   -1    0    0    0    0 -0.00000000000E+00 -0.00000000000E+00 -0.45593999997E+02  0.45594000000E+02  0.51100000000E-03 0. -1.
         23    2    1    2    0    0  0.00000000000E+00  0.00000000000E+00  0.35527136788E-14  0.91188000000E+02  0.91188000000E+02 0.  0.
    9900012    2    3    3    0    0 -0.20890627178E+02 -0.19469417756E+02 -0.23244411145E+02  0.54367093152E+02  0.40000020459E+02 0.  0.
        -12    1    3    3    0    0  0.20890627178E+02  0.19469417756E+02  0.23244411145E+02  0.36820906848E+02  0.00000000000E+00 0.  1.
         11    1    4    4    0    0 -0.16592881695E+02 -0.12868031435E+02 -0.20377305601E+01  0.21096499758E+02  0.51100000000E-03 0.  1.
        -11    1    4    4    0    0 -0.72292724382E+01 -0.45659669317E+01 -0.25956988990E+02  0.27329026907E+02  0.51100000000E-03 0. -1.
        -12    1    4    4    0    0  0.29315269550E+01 -0.20354193891E+01  0.47503084048E+01  0.59415664869E+01  0.00000000000E+00 0.  1.
</event>
<event>
 8    1  0.1253488E-006  0.9118800E+02  0.7816164E-02  0.1184000E+00
        -11   -1    0    0    0    0  0.00000000000E+00  0.00000000000E+00  0.45593999997E+02  0.45594000000E+02  0.51100000000E-03 0. -1.
         11   -1    0    0    0    0 -0.00000000000E+00 -0.00000000000E+00 -0.45593999997E+02  0.45594000000E+02  0.51100000000E-03 0.  1.
         23    2    1    2    0    0  0.35527136788E-14  0.00000000000E+00  0.00000000000E+00  0.91188000000E+02  0.91188000000E+02 0.  0.
    9900012    2    3    3    0    0  0.16237547762E+02  0.11811827530E+02 -0.30864240537E+02  0.54367101439E+02  0.40000039350E+02 0.  0.
         12    1    3    3    0    0 -0.16237547762E+02 -0.11811827530E+02  0.30864240537E+02  0.36820898561E+02  0.00000000000E+00 0. -1.
         11    1    4    4    0    0 -0.37949140703E+01  0.27786929111E+01  0.85579154902E+00  0.47806784594E+01  0.51100000000E-03 0. -1.
        -11    1    4    4    0    0  0.17046552148E+02 -0.90463302777E+01 -0.20225964083E+02  0.27955512068E+02  0.51100000000E-03 0.  1.
        -12    1    4    4    0    0  0.29859096843E+01  0.18079464897E+02 -0.11494068003E+02  0.21630910912E+02  0.00000000000E+00 0.  1.
</event>
<event>
 8    1  0.1253488E-006  0.9118800E+02  0.7816164E-02  0.1184000E+00
        -11   -1    0    0    0    0  0.00000000000E+00  0.00000000000E+00  0.45593999997E+02  0.45594000000E+02  0.51100000000E-03 0.  1.
         11   -1    0    0    0    0 -0.00000000000E+00 -0.00000000000E+00 -0.45593999997E+02  0.45594000000E+02  0.51100000000E-03 0. -1.
         23    2    1    2    0    0  0.88817841970E-15  0.38857805862E-15  0.00000000000E+00  0.91188000000E+02  0.91188000000E+02 0.  0.
    9900012    2    3    3    0    0  0.49614327846E+01 -0.36861550066E+00 -0.36483262416E+02  0.54367080278E+02  0.39999991109E+02 0.  0.
        -12    1    3    3    0    0 -0.49614327846E+01  0.36861550066E+00  0.36483262416E+02  0.36820919722E+02  0.00000000000E+00 0.  1.
         11    1    4    4    0    0  0.80091419562E+01 -0.11496043609E+01 -0.71960540328E+01  0.10828256506E+02  0.51100000000E-03 0. -1.
        -11    1    4    4    0    0  0.69146738284E+01 -0.27499911536E+01  0.41155372834E+01  0.85036940732E+01  0.51100000000E-03 0.  1.
         12    1    4    4    0    0 -0.99623830000E+01  0.35309800138E+01 -0.33402745667E+02  0.35035129698E+02  0.00000000000E+00 0. -1.
</event>
<event>
 8    1  0.1253488E-006  0.9118800E+02  0.7816164E-02  0.1184000E+00
        -11   -1    0    0    0    0  0.00000000000E+00  0.00000000000E+00  0.45593999997E+02  0.45594000000E+02  0.51100000000E-03 0. -1.
         11   -1    0    0    0    0 -0.00000000000E+00 -0.00000000000E+00 -0.45593999997E+02  0.45594000000E+02  0.51100000000E-03 0.  1.
         23    2    1    2    0    0  0.00000000000E+00  0.35527136788E-14  0.00000000000E+00  0.91188000000E+02  0.91188000000E+02 0.  0.
    9900012    2    3    3    0    0  0.14376519903E+02 -0.27898292174E+02  0.19255651773E+02  0.54367093494E+02  0.40000021239E+02 0.  0.
         12    1    3    3    0    0 -0.14376519903E+02  0.27898292174E+02 -0.19255651773E+02  0.36820906506E+02  0.00000000000E+00 0. -1.
         11    1    4    4    0    0  0.78183384035E+01 -0.14459997789E+02  0.23710923812E+02  0.28851791274E+02  0.51100000000E-03 0. -1.
        -11    1    4    4    0    0  0.11577673419E+02 -0.12669874900E+02 -0.83779723054E+01  0.19098656288E+02  0.51100000000E-03 0.  1.
         12    1    4    4    0    0 -0.50194919201E+01 -0.76841948433E+00  0.39227002661E+01  0.64166459321E+01  0.00000000000E+00 0. -1.
</event>
<event>
 8    1  0.1253488E-006  0.9118800E+02  0.7816164E-02  0.1184000E+00
        -11   -1    0    0    0    0  0.00000000000E+00  0.00000000000E+00  0.45593999997E+02  0.45594000000E+02  0.51100000000E-03 0.  1.
         11   -1    0    0    0    0 -0.00000000000E+00 -0.00000000000E+00 -0.45593999997E+02  0.45594000000E+02  0.51100000000E-03 0. -1.
         23    2    1    2    0    0  0.35527136788E-14  0.00000000000E+00 -0.71054273576E-14  0.91188000000E+02  0.91188000000E+02 0.  0.
    9900012    2    3    3    0    0  0.27167457614E+02 -0.17881160976E+02 -0.17261900623E+02  0.54367083605E+02  0.39999998694E+02 0.  0.
        -12    1    3    3    0    0 -0.27167457614E+02  0.17881160976E+02  0.17261900623E+02  0.36820916395E+02  0.00000000000E+00 0.  1.
         11    1    4    4    0    0  0.12182103289E+02  0.10880749680E+02 -0.73907315661E+01  0.17928113885E+02  0.51100000000E-03 0. -1.
        -11    1    4    4    0    0  0.63576327282E+01 -0.12730107146E+02  0.24730677578E+01  0.14442686255E+02  0.51100000000E-03 0.  1.
        -12    1    4    4    0    0  0.86277215974E+01 -0.16031803509E+02 -0.12344236815E+02  0.21996283465E+02  0.00000000000E+00 0.  1.
</event>
<event>
 8    1  0.1253488E-006  0.9118800E+02  0.7816164E-02  0.1184000E+00
        -11   -1    0    0    0    0  0.00000000000E+00  0.00000000000E+00  0.45593999997E+02  0.45594000000E+02  0.51100000000E-03 0.  1.
         11   -1    0    0    0    0 -0.00000000000E+00 -0.00000000000E+00 -0.45593999997E+02  0.45594000000E+02  0.51100000000E-03 0. -1.
         23    2    1    2    0    0  0.00000000000E+00 -0.17763568394E-14 -0.35527136788E-14  0.91188000000E+02  0.91188000000E+02 0.  0.
    9900012    2    3    3    0    0 -0.29176176179E+02  0.90220794376E+01  0.20570168532E+02  0.54367095513E+02  0.40000025841E+02 0.  0.
         12    1    3    3    0    0  0.29176176179E+02 -0.90220794376E+01 -0.20570168532E+02  0.36820904487E+02  0.00000000000E+00 0. -1.
         11    1    4    4    0    0 -0.53005520869E+01 -0.46944373499E+01  0.18368138229E+02  0.19685580935E+02  0.51100000000E-03 0. -1.
        -11    1    4    4    0    0 -0.13554034401E+02  0.17093143804E+02  0.68554138652E+01  0.22866659423E+02  0.51100000000E-03 0.  1.
         12    1    4    4    0    0 -0.10321589691E+02 -0.33766270162E+01 -0.46533835626E+01  0.11814855155E+02  0.00000000000E+00 0. -1.
</event>
<event>
 8    1  0.1253488E-006  0.9118800E+02  0.7816164E-02  0.1184000E+00
        -11   -1    0    0    0    0  0.00000000000E+00  0.00000000000E+00  0.45593999997E+02  0.45594000000E+02  0.51100000000E-03 0. -1.
         11   -1    0    0    0    0 -0.00000000000E+00 -0.00000000000E+00 -0.45593999997E+02  0.45594000000E+02  0.51100000000E-03 0.  1.
         23    2    1    2    0    0  0.00000000000E+00 -0.22204460493E-15  0.00000000000E+00  0.91188000000E+02  0.91188000000E+02 0.  0.
    9900012    2    3    3    0    0 -0.32226219658E+02  0.12622964467E+01 -0.17766750136E+02  0.54367081542E+02  0.39999993991E+02 0.  0.
         12    1    3    3    0    0  0.32226219658E+02 -0.12622964467E+01  0.17766750136E+02  0.36820918458E+02  0.00000000000E+00 0. -1.
         11    1    4    4    0    0 -0.24707345260E+01  0.61646832569E+01 -0.15540904120E+02  0.16900519219E+02  0.51100000000E-03 0.  1.
        -11    1    4    4    0    0 -0.28086040568E+01 -0.95925752966E+01 -0.14810412445E+01  0.10104416905E+02  0.51100000000E-03 0. -1.
        -12    1    4    4    0    0 -0.26946881075E+02  0.46901884864E+01 -0.74480477164E+00  0.27362145417E+02  0.00000000000E+00 0.  1.
</event>
<event>
 8    1  0.1253488E-006  0.9118800E+02  0.7816164E-02  0.1184000E+00
        -11   -1    0    0    0    0  0.00000000000E+00  0.00000000000E+00  0.45593999997E+02  0.45594000000E+02  0.51100000000E-03 0. -1.
         11   -1    0    0    0    0 -0.00000000000E+00 -0.00000000000E+00 -0.45593999997E+02  0.45594000000E+02  0.51100000000E-03 0.  1.
         23    2    1    2    0    0 -0.17763568394E-14  0.00000000000E+00 -0.35527136788E-14  0.91188000000E+02  0.91188000000E+02 0.  0.
    9900012    2    3    3    0    0 -0.12666582270E+02 -0.32408535107E+02 -0.12042606994E+02  0.54367084240E+02  0.40000000142E+02 0.  0.
        -12    1    3    3    0    0  0.12666582270E+02  0.32408535107E+02  0.12042606994E+02  0.36820915760E+02  0.00000000000E+00 0.  1.
         11    1    4    4    0    0 -0.78715634016E+01 -0.17963675419E+02 -0.10231174217E+02  0.22120851500E+02  0.51100000000E-03 0. -1.
        -11    1    4    4    0    0 -0.16773125819E+02 -0.78081863998E+01 -0.10460014090E+01  0.18531045405E+02  0.51100000000E-03 0.  1.
        -12    1    4    4    0    0  0.11978106951E+02 -0.66366732877E+01 -0.76543136809E+00  0.13715187335E+02  0.00000000000E+00 0.  1.
</event>
<event>
 8    1  0.1253488E-006  0.9118800E+02  0.7816164E-02  0.1184000E+00
        -11   -1    0    0    0    0  0.00000000000E+00  0.00000000000E+00  0.45593999997E+02  0.45594000000E+02  0.51100000000E-03 0.  1.
         11   -1    0    0    0    0 -0.00000000000E+00 -0.00000000000E+00 -0.45593999997E+02  0.45594000000E+02  0.51100000000E-03 0. -1.
         23    2    1    2    0    0  0.00000000000E+00  0.88817841970E-15  0.00000000000E+00  0.91188000000E+02  0.91188000000E+02 0.  0.
    9900012    2    3    3    0    0 -0.28318441213E+01  0.77153949133E+01 -0.35892034434E+02  0.54367016911E+02  0.39999846652E+02 0.  0.
        -12    1    3    3    0    0  0.28318441213E+01 -0.77153949133E+01  0.35892034434E+02  0.36820983089E+02  0.00000000000E+00 0.  1.
         11    1    4    4    0    0  0.34114938580E+01  0.15938131401E+02 -0.33267315252E+02  0.37045601456E+02  0.51100000000E-03 0. -1.
        -11    1    4    4    0    0 -0.24000987982E+01  0.22727565060E+01 -0.49043702399E+01  0.59142830578E+01  0.51100000000E-03 0.  1.
        -12    1    4    4    0    0 -0.38432391812E+01 -0.10495492994E+02  0.22796510577E+01  0.11407132397E+02  0.00000000000E+00 0.  1.
</event>
<event>
 8    1  0.1253488E-006  0.9118800E+02  0.7816164E-02  0.1184000E+00
        -11   -1    0    0    0    0  0.00000000000E+00  0.00000000000E+00  0.45593999997E+02  0.45594000000E+02  0.51100000000E-03 0.  1.
         11   -1    0    0    0    0 -0.00000000000E+00 -0.00000000000E+00 -0.45593999997E+02  0.45594000000E+02  0.51100000000E-03 0. -1.
         23    2    1    2    0    0  0.00000000000E+00  0.00000000000E+00  0.35527136788E-14  0.91188000000E+02  0.91188000000E+02 0.  0.
    9900012    2    3    3    0    0  0.25179726972E+02 -0.13680984960E+01 -0.26830760285E+02  0.54367081470E+02  0.39999993827E+02 0.  0.
        -12    1    3    3    0    0 -0.25179726972E+02  0.13680984960E+01  0.26830760285E+02  0.36820918530E+02  0.00000000000E+00 0.  1.
         11    1    4    4    0    0 -0.86007280756E+01  0.35965007008E+01 -0.93662609565E+01  0.13214922826E+02  0.51100000000E-03 0. -1.
        -11    1    4    4    0    0  0.43054766812E+01 -0.64405955834E+01 -0.38579070452E+01  0.86545853714E+01  0.51100000000E-03 0.  1.
        -12    1    4    4    0    0  0.29474978367E+02  0.14759963865E+01 -0.13606592284E+02  0.32497573273E+02  0.00000000000E+00 0.  1.
</event>
<event>
 8    1  0.1253488E-006  0.9118800E+02  0.7816164E-02  0.1184000E+00
        -11   -1    0    0    0    0  0.00000000000E+00  0.00000000000E+00  0.45593999997E+02  0.45594000000E+02  0.51100000000E-03 0. -1.
         11   -1    0    0    0    0 -0.00000000000E+00 -0.00000000000E+00 -0.45593999997E+02  0.45594000000E+02  0.51100000000E-03 0.  1.
         23    2    1    2    0    0 -0.88817841970E-15  0.35527136788E-14 -0.35527136788E-14  0.91188000000E+02  0.91188000000E+02 0.  0.
    9900012    2    3    3    0    0  0.70358382447E+01 -0.27342823844E+02  0.23635705610E+02  0.54367087256E+02  0.40000007018E+02 0.  0.
        -12    1    3    3    0    0 -0.70358382447E+01  0.27342823844E+02 -0.23635705610E+02  0.36820912744E+02  0.00000000000E+00 0.  1.
         11    1    4    4    0    0  0.10923045068E+02  0.97578178232E+00  0.86539838585E+01  0.13969842538E+02  0.51100000000E-03 0. -1.
        -11    1    4    4    0    0  0.46868704756E+01 -0.82503128402E+00 -0.37354209575E+01  0.60498596237E+01  0.51100000000E-03 0.  1.
         12    1    4    4    0    0 -0.85740772988E+01 -0.27493574343E+02  0.18717142709E+02  0.34347385095E+02  0.00000000000E+00 0. -1.
</event>
<event>
 8    1  0.1253488E-006  0.9118800E+02  0.7816164E-02  0.1184000E+00
        -11   -1    0    0    0    0  0.00000000000E+00  0.00000000000E+00  0.45593999997E+02  0.45594000000E+02  0.51100000000E-03 0.  1.
         11   -1    0    0    0    0 -0.00000000000E+00 -0.00000000000E+00 -0.45593999997E+02  0.45594000000E+02  0.51100000000E-03 0. -1.
         23    2    1    2    0    0  0.00000000000E+00 -0.88817841970E-15  0.00000000000E+00  0.91188000000E+02  0.91188000000E+02 0.  0.
    9900012    2    3    3    0    0  0.99088402927E+01  0.51572316274E+01  0.35085577137E+02  0.54367083702E+02  0.39999998915E+02 0.  0.
         12    1    3    3    0    0 -0.99088402927E+01 -0.51572316274E+01 -0.35085577137E+02  0.36820916298E+02  0.00000000000E+00 0. -1.
         11    1    4    4    0    0 -0.78814785999E+01 -0.10580310568E+01  0.25273557037E+01  0.83441393655E+01  0.51100000000E-03 0. -1.
        -11    1    4    4    0    0  0.18261924363E+02  0.66578302794E+01  0.36860895288E+02  0.41671935246E+02  0.51100000000E-03 0.  1.
        -12    1    4    4    0    0 -0.47160547031E+00 -0.44256759520E+00 -0.43026738552E+01  0.43510090898E+01  0.00000000000E+00 0.  1.
</event>
<event>
 8    1  0.1253488E-006  0.9118800E+02  0.7816164E-02  0.1184000E+00
        -11   -1    0    0    0    0  0.00000000000E+00  0.00000000000E+00  0.45593999997E+02  0.45594000000E+02  0.51100000000E-03 0.  1.
         11   -1    0    0    0    0 -0.00000000000E+00 -0.00000000000E+00 -0.45593999997E+02  0.45594000000E+02  0.51100000000E-03 0. -1.
         23    2    1    2    0    0  0.88817841970E-15  0.00000000000E+00 -0.35527136788E-14  0.91188000000E+02  0.91188000000E+02 0.  0.
    9900012    2    3    3    0    0 -0.68518495391E+01  0.25554628406E+02  0.25608446477E+02  0.54367090098E+02  0.40000013497E+02 0.  0.
         12    1    3    3    0    0  0.68518495391E+01 -0.25554628406E+02 -0.25608446477E+02  0.36820909902E+02  0.00000000000E+00 0. -1.
         11    1    4    4    0    0 -0.29511101274E+01  0.16882401215E+02  0.23096302998E+01  0.17293319928E+02  0.51100000000E-03 0. -1.
        -11    1    4    4    0    0 -0.13242752226E+02  0.82458680304E+01  0.47606648643E+01  0.16310387988E+02  0.51100000000E-03 0.  1.
         12    1    4    4    0    0  0.93420128145E+01  0.42635916061E+00  0.18538151312E+02  0.20763382182E+02  0.00000000000E+00 0. -1.
</event>
<event>
 8    1  0.1253488E-006  0.9118800E+02  0.7816164E-02  0.1184000E+00
        -11   -1    0    0    0    0  0.00000000000E+00  0.00000000000E+00  0.45593999997E+02  0.45594000000E+02  0.51100000000E-03 0. -1.
         11   -1    0    0    0    0 -0.00000000000E+00 -0.00000000000E+00 -0.45593999997E+02  0.45594000000E+02  0.51100000000E-03 0.  1.
         23    2    1    2    0    0  0.00000000000E+00  0.35527136788E-14  0.88817841970E-15  0.91188000000E+02  0.91188000000E+02 0.  0.
    9900012    2    3    3    0    0 -0.32616464603E+02  0.16963703050E+02  0.20441537409E+01  0.54367088158E+02  0.40000009074E+02 0.  0.
         12    1    3    3    0    0  0.32616464603E+02 -0.16963703050E+02 -0.20441537409E+01  0.36820911842E+02  0.00000000000E+00 0. -1.
         11    1    4    4    0    0 -0.16620937535E+02  0.47905535580E+01 -0.29981986798E+01  0.17555459649E+02  0.51100000000E-03 0. -1.
        -11    1    4    4    0    0 -0.19379785044E+02  0.26999539858E+01 -0.73041896274E+01  0.20885808728E+02  0.51100000000E-03 0.  1.
         12    1    4    4    0    0  0.33842579751E+01  0.94731955058E+01  0.12346542048E+02  0.15925819780E+02  0.00000000000E+00 0. -1.
</event>
<event>
 8    1  0.1253488E-006  0.9118800E+02  0.7816164E-02  0.1184000E+00
        -11   -1    0    0    0    0  0.00000000000E+00  0.00000000000E+00  0.45593999997E+02  0.45594000000E+02  0.51100000000E-03 0.  1.
         11   -1    0    0    0    0 -0.00000000000E+00 -0.00000000000E+00 -0.45593999997E+02  0.45594000000E+02  0.51100000000E-03 0. -1.
         23    2    1    2    0    0 -0.35527136788E-14  0.35527136788E-14  0.00000000000E+00  0.91188000000E+02  0.91188000000E+02 0.  0.
    9900012    2    3    3    0    0 -0.16674202938E+02 -0.19517177396E+02 -0.26397525547E+02  0.54367100878E+02  0.40000038071E+02 0.  0.
        -12    1    3    3    0    0  0.16674202938E+02  0.19517177396E+02  0.26397525547E+02  0.36820899122E+02  0.00000000000E+00 0.  1.
         11    1    4    4    0    0  0.62489067920E+01 -0.81516669619E+00 -0.17013795675E+02  0.18143389329E+02  0.51100000000E-03 0. -1.
        -11    1    4    4    0    0 -0.71768431999E+00 -0.10058766538E+02 -0.70016171859E+01  0.12276664797E+02  0.51100000000E-03 0.  1.
        -12    1    4    4    0    0 -0.22205425410E+02 -0.86432441621E+01 -0.23821126868E+01  0.23947046752E+02  0.00000000000E+00 0.  1.
</event>
<event>
 8    1  0.1253488E-006  0.9118800E+02  0.7816164E-02  0.1184000E+00
        -11   -1    0    0    0    0  0.00000000000E+00  0.00000000000E+00  0.45593999997E+02  0.45594000000E+02  0.51100000000E-03 0. -1.
         11   -1    0    0    0    0 -0.00000000000E+00 -0.00000000000E+00 -0.45593999997E+02  0.45594000000E+02  0.51100000000E-03 0.  1.
         23    2    1    2    0    0  0.44408920985E-15  0.17763568394E-14  0.71054273576E-14  0.91188000000E+02  0.91188000000E+02 0.  0.
    9900012    2    3    3    0    0 -0.28591825865E+01 -0.11858388423E+02 -0.34741679265E+02  0.54367074167E+02  0.39999977179E+02 0.  0.
         12    1    3    3    0    0  0.28591825865E+01  0.11858388423E+02  0.34741679265E+02  0.36820925833E+02  0.00000000000E+00 0. -1.
         11    1    4    4    0    0 -0.15608136881E+01 -0.12291028433E+02 -0.22457164983E+01  0.12591614756E+02  0.51100000000E-03 0. -1.
        -11    1    4    4    0    0  0.53419649411E+01 -0.10145359412E+02 -0.71312969734E+01  0.13502603594E+02  0.51100000000E-03 0.  1.
         12    1    4    4    0    0 -0.66403338394E+01  0.10577999422E+02 -0.25364665793E+02  0.28272855817E+02  0.00000000000E+00 0. -1.
</event>
<event>
 8    1  0.1253488E-006  0.9118800E+02  0.7816164E-02  0.1184000E+00
        -11   -1    0    0    0    0  0.00000000000E+00  0.00000000000E+00  0.45593999997E+02  0.45594000000E+02  0.51100000000E-03 0.  1.
         11   -1    0    0    0    0 -0.00000000000E+00 -0.00000000000E+00 -0.45593999997E+02  0.45594000000E+02  0.51100000000E-03 0. -1.
         23    2    1    2    0    0  0.00000000000E+00  0.00000000000E+00 -0.71054273576E-14  0.91188000000E+02  0.91188000000E+02 0.  0.
    9900012    2    3    3    0    0  0.13938277215E+02 -0.22857845264E+02 -0.25278883929E+02  0.54367100574E+02  0.40000037378E+02 0.  0.
        -12    1    3    3    0    0 -0.13938277215E+02  0.22857845264E+02  0.25278883929E+02  0.36820899426E+02  0.00000000000E+00 0.  1.
         11    1    4    4    0    0  0.50822246939E+01 -0.10064089632E+02  0.62224468274E+01  0.12877645466E+02  0.51100000000E-03 0. -1.
        -11    1    4    4    0    0 -0.66377562489E+01 -0.82005891716E+00 -0.42201288582E+01  0.79083368978E+01  0.51100000000E-03 0.  1.
         12    1    4    4    0    0  0.15493808771E+02 -0.11973696715E+02 -0.27281201898E+02  0.33581118210E+02  0.00000000000E+00 0. -1.
</event>
<event>
 8    1  0.1253488E-006  0.9118800E+02  0.7816164E-02  0.1184000E+00
        -11   -1    0    0    0    0  0.00000000000E+00  0.00000000000E+00  0.45593999997E+02  0.45594000000E+02  0.51100000000E-03 0.  1.
         11   -1    0    0    0    0 -0.00000000000E+00 -0.00000000000E+00 -0.45593999997E+02  0.45594000000E+02  0.51100000000E-03 0. -1.
         23    2    1    2    0    0  0.35527136788E-14  0.00000000000E+00  0.00000000000E+00  0.91188000000E+02  0.91188000000E+02 0.  0.
    9900012    2    3    3    0    0  0.20563279297E+02  0.23805713483E+02  0.19136884775E+02  0.54367071049E+02  0.39999970071E+02 0.  0.
         12    1    3    3    0    0 -0.20563279297E+02 -0.23805713483E+02 -0.19136884775E+02  0.36820928951E+02  0.00000000000E+00 0. -1.
         11    1    4    4    0    0  0.46902352574E+01  0.33079019107E+01 -0.14676593171E+01  0.59240649855E+01  0.51100000000E-03 0. -1.
        -11    1    4    4    0    0  0.18398190344E+02  0.20857905796E+02  0.13283477744E+00  0.27813005725E+02  0.51100000000E-03 0.  1.
        -12    1    4    4    0    0 -0.25251463048E+01 -0.36009422275E+00  0.20471709315E+02  0.20630000339E+02  0.00000000000E+00 0.  1.
</event>
<event>
 8    1  0.1253488E-006  0.9118800E+02  0.7816164E-02  0.1184000E+00
        -11   -1    0    0    0    0  0.00000000000E+00  0.00000000000E+00  0.45593999997E+02  0.45594000000E+02  0.51100000000E-03 0.  1.
         11   -1    0    0    0    0 -0.00000000000E+00 -0.00000000000E+00 -0.45593999997E+02  0.45594000000E+02  0.51100000000E-03 0. -1.
         23    2    1    2    0    0  0.17763568394E-14  0.00000000000E+00  0.71054273576E-14  0.91188000000E+02  0.91188000000E+02 0.  0.
    9900012    2    3    3    0    0 -0.73822297535E+01  0.65246468292E+01 -0.35478313222E+02  0.54367095048E+02  0.40000024782E+02 0.  0.
        -12    1    3    3    0    0  0.73822297535E+01 -0.65246468292E+01  0.35478313222E+02  0.36820904952E+02  0.00000000000E+00 0.  1.
         11    1    4    4    0    0  0.19445433671E+01  0.10364244582E+02 -0.30031129864E+02  0.31828722498E+02  0.51100000000E-03 0. -1.
        -11    1    4    4    0    0  0.25055204850E+01  0.57501416713E+01 -0.35033971122E+01  0.71843965459E+01  0.51100000000E-03 0.  1.
        -12    1    4    4    0    0 -0.11832293606E+02 -0.95897394240E+01 -0.19437862456E+01  0.15353976005E+02  0.00000000000E+00 0.  1.
</event>
<event>
 8    1  0.1253488E-006  0.9118800E+02  0.7816164E-02  0.1184000E+00
        -11   -1    0    0    0    0  0.00000000000E+00  0.00000000000E+00  0.45593999997E+02  0.45594000000E+02  0.51100000000E-03 0. -1.
         11   -1    0    0    0    0 -0.00000000000E+00 -0.00000000000E+00 -0.45593999997E+02  0.45594000000E+02  0.51100000000E-03 0.  1.
         23    2    1    2    0    0  0.37123082386E-15 -0.35527136788E-14  0.00000000000E+00  0.91188000000E+02  0.91188000000E+02 0.  0.
    9900012    2    3    3    0    0 -0.16796100120E-01 -0.27355774648E+02 -0.24646336703E+02  0.54367073863E+02  0.39999976486E+02 0.  0.
         12    1    3    3    0    0  0.16796100120E-01  0.27355774648E+02  0.24646336703E+02  0.36820926137E+02  0.00000000000E+00 0. -1.
         11    1    4    4    0    0  0.55077038275E+01 -0.18539429709E+02 -0.25801176320E+02  0.32245091954E+02  0.51100000000E-03 0. -1.
        -11    1    4    4    0    0 -0.11583608374E+02 -0.10310835137E+02  0.25790397426E+01  0.15720838096E+02  0.51100000000E-03 0.  1.
         12    1    4    4    0    0  0.60591084461E+01  0.14944901986E+01 -0.14242001256E+01  0.64011438129E+01  0.00000000000E+00 0. -1.
</event>
<event>
 8    1  0.1253488E-006  0.9118800E+02  0.7816164E-02  0.1184000E+00
        -11   -1    0    0    0    0  0.00000000000E+00  0.00000000000E+00  0.45593999997E+02  0.45594000000E+02  0.51100000000E-03 0.  1.
         11   -1    0    0    0    0 -0.00000000000E+00 -0.00000000000E+00 -0.45593999997E+02  0.45594000000E+02  0.51100000000E-03 0. -1.
         23    2    1    2    0    0  0.00000000000E+00  0.00000000000E+00  0.00000000000E+00  0.91188000000E+02  0.91188000000E+02 0.  0.
    9900012    2    3    3    0    0 -0.35709939505E+02 -0.45290130807E+01 -0.77502971985E+01  0.54367097708E+02  0.40000030844E+02 0.  0.
        -12    1    3    3    0    0  0.35709939505E+02  0.45290130807E+01  0.77502971985E+01  0.36820902292E+02  0.00000000000E+00 0.  1.
         11    1    4    4    0    0 -0.24760903290E+02  0.45783943536E+01  0.52566300985E+01  0.25723455966E+02  0.51100000000E-03 0. -1.
        -11    1    4    4    0    0  0.38614917673E+00 -0.10501097491E+01 -0.14602538928E+02  0.14645340047E+02  0.51100000000E-03 0.  1.
         12    1    4    4    0    0 -0.11335185392E+02 -0.80572976853E+01  0.15956116315E+01  0.13998301695E+02  0.00000000000E+00 0. -1.
</event>
<event>
 8    1  0.1253488E-006  0.9118800E+02  0.7816164E-02  0.1184000E+00
        -11   -1    0    0    0    0  0.00000000000E+00  0.00000000000E+00  0.45593999997E+02  0.45594000000E+02  0.51100000000E-03 0.  1.
         11   -1    0    0    0    0 -0.00000000000E+00 -0.00000000000E+00 -0.45593999997E+02  0.45594000000E+02  0.51100000000E-03 0. -1.
         23    2    1    2    0    0 -0.17763568394E-14  0.00000000000E+00  0.35527136788E-14  0.91188000000E+02  0.91188000000E+02 0.  0.
    9900012    2    3    3    0    0 -0.76711425810E+01 -0.29847296821E+02  0.20151242140E+02  0.54367080459E+02  0.39999991523E+02 0.  0.
         12    1    3    3    0    0  0.76711425810E+01  0.29847296821E+02 -0.20151242140E+02  0.36820919541E+02  0.00000000000E+00 0. -1.
         11    1    4    4    0    0  0.66927161287E+01  0.42070065904E+00 -0.16011727612E+00  0.67078369112E+01  0.51100000000E-03 0. -1.
        -11    1    4    4    0    0  0.32558674612E+01 -0.24289621615E+02  0.11722231810E+02  0.27166102223E+02  0.51100000000E-03 0.  1.
         12    1    4    4    0    0 -0.17619726171E+02 -0.59783758653E+01  0.85891276065E+01  0.20493141325E+02  0.00000000000E+00 0. -1.
</event>
<event>
 8    1  0.1253488E-006  0.9118800E+02  0.7816164E-02  0.1184000E+00
        -11   -1    0    0    0    0  0.00000000000E+00  0.00000000000E+00  0.45593999997E+02  0.45594000000E+02  0.51100000000E-03 0. -1.
         11   -1    0    0    0    0 -0.00000000000E+00 -0.00000000000E+00 -0.45593999997E+02  0.45594000000E+02  0.51100000000E-03 0.  1.
         23    2    1    2    0    0  0.35527136788E-14  0.00000000000E+00  0.00000000000E+00  0.91188000000E+02  0.91188000000E+02 0.  0.
    9900012    2    3    3    0    0  0.31129080009E+02  0.79753994479E+01  0.17976474812E+02  0.54367078431E+02  0.39999986899E+02 0.  0.
        -12    1    3    3    0    0 -0.31129080009E+02 -0.79753994479E+01 -0.17976474812E+02  0.36820921569E+02  0.00000000000E+00 0.  1.
         11    1    4    4    0    0  0.72795743244E+01 -0.26818778661E+01  0.14204139263E+02  0.16184629860E+02  0.51100000000E-03 0. -1.
        -11    1    4    4    0    0 -0.50912397018E+01  0.52733527881E+01  0.47403554045E+01  0.87292577549E+01  0.51100000000E-03 0.  1.
        -12    1    4    4    0    0  0.28940745386E+02  0.53839245259E+01 -0.96801985581E+00  0.29453190816E+02  0.00000000000E+00 0.  1.
</event>
<event>
 8    1  0.1253488E-006  0.9118800E+02  0.7816164E-02  0.1184000E+00
        -11   -1    0    0    0    0  0.00000000000E+00  0.00000000000E+00  0.45593999997E+02  0.45594000000E+02  0.51100000000E-03 0. -1.
         11   -1    0    0    0    0 -0.00000000000E+00 -0.00000000000E+00 -0.45593999997E+02  0.45594000000E+02  0.51100000000E-03 0.  1.
         23    2    1    2    0    0  0.00000000000E+00 -0.11102230246E-15  0.00000000000E+00  0.91188000000E+02  0.91188000000E+02 0.  0.
    9900012    2    3    3    0    0  0.18807168819E+02  0.24846161220E+00  0.31654477236E+02  0.54367119223E+02  0.40000079891E+02 0.  0.
        -12    1    3    3    0    0 -0.18807168819E+02 -0.24846161220E+00 -0.31654477236E+02  0.36820880777E+02  0.00000000000E+00 0.  1.
         11    1    4    4    0    0  0.57966123123E+01  0.82904584878E+00  0.66946033582E+01  0.88941410886E+01  0.51100000000E-03 0. -1.
        -11    1    4    4    0    0  0.20149842459E+01  0.10550877720E+02 -0.48658969652E+01  0.11792291368E+02  0.51100000000E-03 0.  1.
        -12    1    4    4    0    0  0.10995572261E+02 -0.11131461957E+02  0.29825770843E+02  0.33680686766E+02  0.00000000000E+00 0.  1.
</event>
<event>
 8    1  0.1253488E-006  0.9118800E+02  0.7816164E-02  0.1184000E+00
        -11   -1    0    0    0    0  0.00000000000E+00  0.00000000000E+00  0.45593999997E+02  0.45594000000E+02  0.51100000000E-03 0.  1.
         11   -1    0    0    0    0 -0.00000000000E+00 -0.00000000000E+00 -0.45593999997E+02  0.45594000000E+02  0.51100000000E-03 0. -1.
         23    2    1    2    0    0  0.00000000000E+00  0.00000000000E+00  0.35527136788E-14  0.91188000000E+02  0.91188000000E+02 0.  0.
    9900012    2    3    3    0    0 -0.13261570050E+02  0.18995686934E+02  0.28619487438E+02  0.54367076282E+02  0.39999981999E+02 0.  0.
         12    1    3    3    0    0  0.13261570050E+02 -0.18995686934E+02 -0.28619487438E+02  0.36820923718E+02  0.00000000000E+00 0. -1.
         11    1    4    4    0    0  0.19994247075E+01 -0.59534395960E+01 -0.48918761615E+01  0.79606277909E+01  0.51100000000E-03 0. -1.
        -11    1    4    4    0    0 -0.78534040906E+01  0.98369975813E+01  0.55188636830E+01  0.13744101784E+02  0.51100000000E-03 0.  1.
        -12    1    4    4    0    0 -0.74075906668E+01  0.15112128949E+02  0.27992499916E+02  0.32662346707E+02  0.00000000000E+00 0.  1.
</event>
<event>
 8    1  0.1253488E-006  0.9118800E+02  0.7816164E-02  0.1184000E+00
        -11   -1    0    0    0    0  0.00000000000E+00  0.00000000000E+00  0.45593999997E+02  0.45594000000E+02  0.51100000000E-03 0.  1.
         11   -1    0    0    0    0 -0.00000000000E+00 -0.00000000000E+00 -0.45593999997E+02  0.45594000000E+02  0.51100000000E-03 0. -1.
         23    2    1    2    0    0  0.00000000000E+00  0.00000000000E+00  0.00000000000E+00  0.91188000000E+02  0.91188000000E+02 0.  0.
    9900012    2    3    3    0    0  0.28183470132E+02 -0.17276545316E+02  0.16217066823E+02  0.54367078459E+02  0.39999986963E+02 0.  0.
         12    1    3    3    0    0 -0.28183470132E+02  0.17276545316E+02 -0.16217066823E+02  0.36820921541E+02  0.00000000000E+00 0. -1.
         11    1    4    4    0    0  0.17019728727E+02  0.42863843221E+01  0.81981398913E+01  0.19371467535E+02  0.51100000000E-03 0. -1.
        -11    1    4    4    0    0  0.89369236095E+01 -0.65304336934E+01  0.14695038535E+02  0.18397264080E+02  0.51100000000E-03 0.  1.
         12    1    4    4    0    0  0.22268177956E+01 -0.15032495945E+02 -0.66761116029E+01  0.16598346844E+02  0.00000000000E+00 0. -1.
</event>
<event>
 8    1  0.1253488E-006  0.9118800E+02  0.7816164E-02  0.1184000E+00
        -11   -1    0    0    0    0  0.00000000000E+00  0.00000000000E+00  0.45593999997E+02  0.45594000000E+02  0.51100000000E-03 0.  1.
         11   -1    0    0    0    0 -0.00000000000E+00 -0.00000000000E+00 -0.45593999997E+02  0.45594000000E+02  0.51100000000E-03 0. -1.
         23    2    1    2    0    0 -0.35527136788E-14 -0.35527136788E-14 -0.35527136788E-14  0.91188000000E+02  0.91188000000E+02 0.  0.
    9900012    2    3    3    0    0  0.27838894455E+02  0.15248058546E+02  0.18662005713E+02  0.54367112027E+02  0.40000063487E+02 0.  0.
         12    1    3    3    0    0 -0.27838894455E+02 -0.15248058546E+02 -0.18662005713E+02  0.36820887973E+02  0.00000000000E+00 0. -1.
         11    1    4    4    0    0  0.57036115186E+01 -0.66365533111E+01 -0.90174594294E+00  0.87970546328E+01  0.51100000000E-03 0. -1.
        -11    1    4    4    0    0  0.27337505180E+02  0.11733929551E+02  0.14310771996E+02  0.33012459581E+02  0.51100000000E-03 0.  1.
         12    1    4    4    0    0 -0.52022222430E+01  0.10150682305E+02  0.52529796598E+01  0.12557597813E+02  0.00000000000E+00 0. -1.
</event>
<event>
 8    1  0.1253488E-006  0.9118800E+02  0.7816164E-02  0.1184000E+00
        -11   -1    0    0    0    0  0.00000000000E+00  0.00000000000E+00  0.45593999997E+02  0.45594000000E+02  0.51100000000E-03 0. -1.
         11   -1    0    0    0    0 -0.00000000000E+00 -0.00000000000E+00 -0.45593999997E+02  0.45594000000E+02  0.51100000000E-03 0.  1.
         23    2    1    2    0    0 -0.35527136788E-14 -0.35527136788E-14  0.00000000000E+00  0.91188000000E+02  0.91188000000E+02 0.  0.
    9900012    2    3    3    0    0  0.20955515733E+02 -0.24120950548E+02  0.18298234461E+02  0.54367091817E+02  0.40000017416E+02 0.  0.
        -12    1    3    3    0    0 -0.20955515733E+02  0.24120950548E+02 -0.18298234461E+02  0.36820908183E+02  0.00000000000E+00 0.  1.
         11    1    4    4    0    0  0.16699809670E+02 -0.12794964861E+02  0.87050902865E+01  0.22767814256E+02  0.51100000000E-03 0. -1.
        -11    1    4    4    0    0 -0.81878987974E+01 -0.83205583108E+01  0.13845596743E+02  0.18110050435E+02  0.51100000000E-03 0.  1.
        -12    1    4    4    0    0  0.12443604861E+02 -0.30054273763E+01 -0.42524525685E+01  0.13489227127E+02  0.00000000000E+00 0.  1.
</event>
<event>
 8    1  0.1253488E-006  0.9118800E+02  0.7816164E-02  0.1184000E+00
        -11   -1    0    0    0    0  0.00000000000E+00  0.00000000000E+00  0.45593999997E+02  0.45594000000E+02  0.51100000000E-03 0.  1.
         11   -1    0    0    0    0 -0.00000000000E+00 -0.00000000000E+00 -0.45593999997E+02  0.45594000000E+02  0.51100000000E-03 0. -1.
         23    2    1    2    0    0  0.17763568394E-14  0.00000000000E+00  0.00000000000E+00  0.91188000000E+02  0.91188000000E+02 0.  0.
    9900012    2    3    3    0    0 -0.14847330359E+02  0.21088160193E+01 -0.33628707628E+02  0.54367077951E+02  0.39999985806E+02 0.  0.
        -12    1    3    3    0    0  0.14847330359E+02 -0.21088160193E+01  0.33628707628E+02  0.36820922049E+02  0.00000000000E+00 0.  1.
         11    1    4    4    0    0  0.62430380222E+01 -0.12457146177E+02 -0.79851066338E+01  0.16059823873E+02  0.51100000000E-03 0.  1.
        -11    1    4    4    0    0 -0.59204645249E+01  0.11111913846E+02 -0.86998102946E+01  0.15304026560E+02  0.51100000000E-03 0. -1.
         12    1    4    4    0    0 -0.15169903856E+02  0.34540483495E+01 -0.16943790700E+02  0.23003227519E+02  0.00000000000E+00 0. -1.
</event>
<event>
 8    1  0.1253488E-006  0.9118800E+02  0.7816164E-02  0.1184000E+00
        -11   -1    0    0    0    0  0.00000000000E+00  0.00000000000E+00  0.45593999997E+02  0.45594000000E+02  0.51100000000E-03 0.  1.
         11   -1    0    0    0    0 -0.00000000000E+00 -0.00000000000E+00 -0.45593999997E+02  0.45594000000E+02  0.51100000000E-03 0. -1.
         23    2    1    2    0    0  0.35527136788E-14  0.17763568394E-14  0.35527136788E-14  0.91188000000E+02  0.91188000000E+02 0.  0.
    9900012    2    3    3    0    0 -0.21441430455E+02 -0.11765689955E+02 -0.27524770024E+02  0.54367090656E+02  0.40000014767E+02 0.  0.
        -12    1    3    3    0    0  0.21441430455E+02  0.11765689955E+02  0.27524770024E+02  0.36820909344E+02  0.00000000000E+00 0.  1.
         11    1    4    4    0    0 -0.11828145393E+02  0.71747038322E+01 -0.10224648262E+02  0.17202465836E+02  0.51100000000E-03 0. -1.
        -11    1    4    4    0    0 -0.47983929557E+01  0.47802578346E+01 -0.96312344439E+01  0.11774383937E+02  0.51100000000E-03 0.  1.
        -12    1    4    4    0    0 -0.48148921066E+01 -0.23720651622E+02 -0.76688873186E+01  0.25390240882E+02  0.00000000000E+00 0.  1.
</event>
<event>
 8    1  0.1253488E-006  0.9118800E+02  0.7816164E-02  0.1184000E+00
        -11   -1    0    0    0    0  0.00000000000E+00  0.00000000000E+00  0.45593999997E+02  0.45594000000E+02  0.51100000000E-03 0.  1.
         11   -1    0    0    0    0 -0.00000000000E+00 -0.00000000000E+00 -0.45593999997E+02  0.45594000000E+02  0.51100000000E-03 0. -1.
         23    2    1    2    0    0  0.00000000000E+00  0.17763568394E-14  0.00000000000E+00  0.91188000000E+02  0.91188000000E+02 0.  0.
    9900012    2    3    3    0    0  0.33671203809E+02  0.12007025536E+02 -0.88237688941E+01  0.54367115631E+02  0.40000071705E+02 0.  0.
         12    1    3    3    0    0 -0.33671203809E+02 -0.12007025536E+02  0.88237688941E+01  0.36820884369E+02  0.00000000000E+00 0. -1.
         11    1    4    4    0    0  0.15483748049E+01 -0.78570856844E+01 -0.67781503172E+01  0.10491643435E+02  0.51100000000E-03 0. -1.
        -11    1    4    4    0    0  0.10976584768E+02  0.19761277659E+02  0.23470896624E+00  0.22606383975E+02  0.51100000000E-03 0.  1.
         12    1    4    4    0    0  0.21146244237E+02  0.10283356190E+00 -0.22803275431E+01  0.21269088221E+02  0.00000000000E+00 0. -1.
</event>
<event>
 8    1  0.1253488E-006  0.9118800E+02  0.7816164E-02  0.1184000E+00
        -11   -1    0    0    0    0  0.00000000000E+00  0.00000000000E+00  0.45593999997E+02  0.45594000000E+02  0.51100000000E-03 0.  1.
         11   -1    0    0    0    0 -0.00000000000E+00 -0.00000000000E+00 -0.45593999997E+02  0.45594000000E+02  0.51100000000E-03 0. -1.
         23    2    1    2    0    0  0.71054273576E-14  0.17763568394E-14 -0.88817841970E-15  0.91188000000E+02  0.91188000000E+02 0.  0.
    9900012    2    3    3    0    0 -0.33931856713E+02 -0.12263442501E+02  0.73497904717E+01  0.54367050231E+02  0.39999922611E+02 0.  0.
         12    1    3    3    0    0  0.33931856713E+02  0.12263442501E+02 -0.73497904717E+01  0.36820949769E+02  0.00000000000E+00 0. -1.
         11    1    4    4    0    0  0.43597865048E+00  0.36917343764E+00 -0.83401422090E+00  0.10109136425E+01  0.51100000000E-03 0. -1.
        -11    1    4    4    0    0 -0.30259890712E+02 -0.57889179412E+01 -0.10892290734E+02  0.32677431884E+02  0.51100000000E-03 0.  1.
         12    1    4    4    0    0 -0.41079446512E+01 -0.68436979971E+01  0.19076095426E+02  0.20678704704E+02  0.00000000000E+00 0. -1.
</event>
<event>
 8    1  0.1253488E-006  0.9118800E+02  0.7816164E-02  0.1184000E+00
        -11   -1    0    0    0    0  0.00000000000E+00  0.00000000000E+00  0.45593999997E+02  0.45594000000E+02  0.51100000000E-03 0. -1.
         11   -1    0    0    0    0 -0.00000000000E+00 -0.00000000000E+00 -0.45593999997E+02  0.45594000000E+02  0.51100000000E-03 0.  1.
         23    2    1    2    0    0  0.35527136788E-14  0.00000000000E+00 -0.35527136788E-14  0.91188000000E+02  0.91188000000E+02 0.  0.
    9900012    2    3    3    0    0  0.16281225648E+02  0.16781524652E+02 -0.28444451501E+02  0.54367018217E+02  0.39999849630E+02 0.  0.
         12    1    3    3    0    0 -0.16281225648E+02 -0.16781524652E+02  0.28444451501E+02  0.36820981783E+02  0.00000000000E+00 0. -1.
         11    1    4    4    0    0 -0.43512420439E+01  0.49228922878E+01 -0.28879573954E+01  0.71769404331E+01  0.51100000000E-03 0. -1.
        -11    1    4    4    0    0  0.20431222524E+02  0.59691137952E+01 -0.32016291062E+02  0.38446171031E+02  0.51100000000E-03 0.  1.
        -12    1    4    4    0    0  0.20124516791E+00  0.58895185695E+01  0.64597969561E+01  0.87439067534E+01  0.00000000000E+00 0.  1.
</event>
<event>
 8    1  0.1253488E-006  0.9118800E+02  0.7816164E-02  0.1184000E+00
        -11   -1    0    0    0    0  0.00000000000E+00  0.00000000000E+00  0.45593999997E+02  0.45594000000E+02  0.51100000000E-03 0.  1.
         11   -1    0    0    0    0 -0.00000000000E+00 -0.00000000000E+00 -0.45593999997E+02  0.45594000000E+02  0.51100000000E-03 0. -1.
         23    2    1    2    0    0  0.77715611724E-15  0.88817841970E-15  0.71054273576E-14  0.91188000000E+02  0.91188000000E+02 0.  0.
    9900012    2    3    3    0    0  0.95137835507E+00 -0.75306894506E+01  0.36029903629E+02  0.54367212938E+02  0.40000293533E+02 0.  0.
         12    1    3    3    0    0 -0.95137835507E+00  0.75306894506E+01 -0.36029903629E+02  0.36820787062E+02  0.00000000000E+00 0. -1.
         11    1    4    4    0    0  0.57429940223E+00  0.82727542808E+01 -0.34850983838E+01  0.89952317480E+01  0.51100000000E-03 0. -1.
        -11    1    4    4    0    0 -0.73272853485E+01 -0.56167803493E+01  0.13042547207E+02  0.15979529717E+02  0.51100000000E-03 0.  1.
        -12    1    4    4    0    0  0.77043643013E+01 -0.10186663382E+02  0.26472454806E+02  0.29392451473E+02  0.00000000000E+00 0.  1.
</event>
<event>
 8    1  0.1253488E-006  0.9118800E+02  0.7816164E-02  0.1184000E+00
        -11   -1    0    0    0    0  0.00000000000E+00  0.00000000000E+00  0.45593999997E+02  0.45594000000E+02  0.51100000000E-03 0. -1.
         11   -1    0    0    0    0 -0.00000000000E+00 -0.00000000000E+00 -0.45593999997E+02  0.45594000000E+02  0.51100000000E-03 0.  1.
         23    2    1    2    0    0  0.35527136788E-14  0.00000000000E+00  0.00000000000E+00  0.91188000000E+02  0.91188000000E+02 0.  0.
    9900012    2    3    3    0    0  0.21971737220E+02 -0.18540679326E+02 -0.23005783005E+02  0.54367080973E+02  0.39999992694E+02 0.  0.
         12    1    3    3    0    0 -0.21971737220E+02  0.18540679326E+02  0.23005783005E+02  0.36820919027E+02  0.00000000000E+00 0. -1.
         11    1    4    4    0    0  0.36249690661E+01  0.18667491274E+01 -0.44366086057E+01  0.60256658732E+01  0.51100000000E-03 0. -1.
        -11    1    4    4    0    0  0.15477173110E+02  0.51289180754E+01 -0.15438554395E+02  0.22454345908E+02  0.51100000000E-03 0.  1.
        -12    1    4    4    0    0  0.28695950444E+01 -0.25536346528E+02 -0.31306200043E+01  0.25887069192E+02  0.00000000000E+00 0.  1.
</event>
<event>
 8    1  0.1253488E-006  0.9118800E+02  0.7816164E-02  0.1184000E+00
        -11   -1    0    0    0    0  0.00000000000E+00  0.00000000000E+00  0.45593999997E+02  0.45594000000E+02  0.51100000000E-03 0. -1.
         11   -1    0    0    0    0 -0.00000000000E+00 -0.00000000000E+00 -0.45593999997E+02  0.45594000000E+02  0.51100000000E-03 0.  1.
         23    2    1    2    0    0  0.00000000000E+00  0.00000000000E+00 -0.35527136788E-14  0.91188000000E+02  0.91188000000E+02 0.  0.
    9900012    2    3    3    0    0  0.32106382535E+02 -0.92016010059E+01  0.15501318752E+02  0.54367080082E+02  0.39999990662E+02 0.  0.
         12    1    3    3    0    0 -0.32106382535E+02  0.92016010059E+01 -0.15501318752E+02  0.36820919918E+02  0.00000000000E+00 0. -1.
         11    1    4    4    0    0  0.15353395788E+02 -0.11561422071E+01  0.65977134753E+00  0.15410993658E+02  0.51100000000E-03 0. -1.
        -11    1    4    4    0    0  0.88807484050E+01 -0.22736196857E+01 -0.92127390363E+01  0.12996599537E+02  0.51100000000E-03 0.  1.
         12    1    4    4    0    0  0.78722383422E+01 -0.57718391131E+01  0.24054286441E+02  0.25959486887E+02  0.00000000000E+00 0. -1.
</event>
<event>
 8    1  0.1253488E-006  0.9118800E+02  0.7816164E-02  0.1184000E+00
        -11   -1    0    0    0    0  0.00000000000E+00  0.00000000000E+00  0.45593999997E+02  0.45594000000E+02  0.51100000000E-03 0.  1.
         11   -1    0    0    0    0 -0.00000000000E+00 -0.00000000000E+00 -0.45593999997E+02  0.45594000000E+02  0.51100000000E-03 0. -1.
         23    2    1    2    0    0  0.00000000000E+00  0.00000000000E+00 -0.35527136788E-14  0.91188000000E+02  0.91188000000E+02 0.  0.
    9900012    2    3    3    0    0  0.87547581630E+01 -0.29965619633E+02  0.19524218747E+02  0.54367091970E+02  0.40000017764E+02 0.  0.
         12    1    3    3    0    0 -0.87547581630E+01  0.29965619633E+02 -0.19524218747E+02  0.36820908030E+02  0.00000000000E+00 0. -1.
         11    1    4    4    0    0 -0.94287746839E+01 -0.12613684399E+02 -0.31941496136E+01  0.16068895985E+02  0.51100000000E-03 0. -1.
        -11    1    4    4    0    0  0.86411023083E+01 -0.68146366028E+01 -0.56347847435E+00  0.11019320731E+02  0.51100000000E-03 0.  1.
        -12    1    4    4    0    0  0.95424305387E+01 -0.10537298631E+02  0.23281846835E+02  0.27278875253E+02  0.00000000000E+00 0.  1.
</event>
<event>
 8    1  0.1253488E-006  0.9118800E+02  0.7816164E-02  0.1184000E+00
        -11   -1    0    0    0    0  0.00000000000E+00  0.00000000000E+00  0.45593999997E+02  0.45594000000E+02  0.51100000000E-03 0.  1.
         11   -1    0    0    0    0 -0.00000000000E+00 -0.00000000000E+00 -0.45593999997E+02  0.45594000000E+02  0.51100000000E-03 0. -1.
         23    2    1    2    0    0  0.44408920985E-15 -0.35527136788E-14  0.00000000000E+00  0.91188000000E+02  0.91188000000E+02 0.  0.
    9900012    2    3    3    0    0  0.35967307335E+01  0.24254371579E+02  0.27469473051E+02  0.54367041805E+02  0.39999903403E+02 0.  0.
         12    1    3    3    0    0 -0.35967307335E+01 -0.24254371579E+02 -0.27469473051E+02  0.36820958195E+02  0.00000000000E+00 0. -1.
         11    1    4    4    0    0  0.53216254857E+01 -0.28614408250E+01  0.16611700105E+02  0.17676428430E+02  0.51100000000E-03 0. -1.
        -11    1    4    4    0    0 -0.26842828639E+01 -0.10713342692E+01  0.78043714888E+01  0.83223401881E+01  0.51100000000E-03 0.  1.
         12    1    4    4    0    0  0.95938811169E+00  0.28187146674E+02  0.30534014571E+01  0.28368273187E+02  0.00000000000E+00 0. -1.
</event>
<event>
 8    1  0.1253488E-006  0.9118800E+02  0.7816164E-02  0.1184000E+00
        -11   -1    0    0    0    0  0.00000000000E+00  0.00000000000E+00  0.45593999997E+02  0.45594000000E+02  0.51100000000E-03 0.  1.
         11   -1    0    0    0    0 -0.00000000000E+00 -0.00000000000E+00 -0.45593999997E+02  0.45594000000E+02  0.51100000000E-03 0. -1.
         23    2    1    2    0    0  0.00000000000E+00  0.35527136788E-14  0.00000000000E+00  0.91188000000E+02  0.91188000000E+02 0.  0.
    9900012    2    3    3    0    0  0.16809508644E+02 -0.16943672686E+02 -0.28038092413E+02  0.54367051464E+02  0.39999925422E+02 0.  0.
        -12    1    3    3    0    0 -0.16809508644E+02  0.16943672686E+02  0.28038092413E+02  0.36820948536E+02  0.00000000000E+00 0.  1.
         11    1    4    4    0    0  0.73601983441E+00 -0.60499910420E+00 -0.26450150983E+01  0.28113794201E+01  0.51100000000E-03 0. -1.
        -11    1    4    4    0    0 -0.85868945932E+01 -0.13010855556E+01  0.46740698231E+01  0.98627841581E+01  0.51100000000E-03 0.  1.
        -12    1    4    4    0    0  0.24660383403E+02 -0.15037588026E+02 -0.30067147138E+02  0.41692887886E+02  0.00000000000E+00 0.  1.
</event>
<event>
 8    1  0.1253488E-006  0.9118800E+02  0.7816164E-02  0.1184000E+00
        -11   -1    0    0    0    0  0.00000000000E+00  0.00000000000E+00  0.45593999997E+02  0.45594000000E+02  0.51100000000E-03 0.  1.
         11   -1    0    0    0    0 -0.00000000000E+00 -0.00000000000E+00 -0.45593999997E+02  0.45594000000E+02  0.51100000000E-03 0. -1.
         23    2    1    2    0    0  0.00000000000E+00  0.71054273576E-14  0.00000000000E+00  0.91188000000E+02  0.91188000000E+02 0.  0.
    9900012    2    3    3    0    0  0.10286914319E+02  0.35050855415E+02  0.46255116839E+01  0.54367103353E+02  0.40000043713E+02 0.  0.
        -12    1    3    3    0    0 -0.10286914319E+02 -0.35050855415E+02 -0.46255116839E+01  0.36820896647E+02  0.00000000000E+00 0.  1.
         11    1    4    4    0    0 -0.39301557806E+01  0.11040754542E+02  0.10694436568E+02  0.15865539987E+02  0.51100000000E-03 0. -1.
        -11    1    4    4    0    0  0.36105639304E+01  0.16414146264E+02  0.85929509909E+01  0.18875888760E+02  0.51100000000E-03 0.  1.
         12    1    4    4    0    0  0.10606506170E+02  0.75959546092E+01 -0.14661875875E+02  0.19625674606E+02  0.00000000000E+00 0. -1.
</event>
<event>
 8    1  0.1253488E-006  0.9118800E+02  0.7816164E-02  0.1184000E+00
        -11   -1    0    0    0    0  0.00000000000E+00  0.00000000000E+00  0.45593999997E+02  0.45594000000E+02  0.51100000000E-03 0. -1.
         11   -1    0    0    0    0 -0.00000000000E+00 -0.00000000000E+00 -0.45593999997E+02  0.45594000000E+02  0.51100000000E-03 0.  1.
         23    2    1    2    0    0 -0.17763568394E-14  0.00000000000E+00  0.00000000000E+00  0.91188000000E+02  0.91188000000E+02 0.  0.
    9900012    2    3    3    0    0 -0.15192345247E+02 -0.12170341782E+02 -0.31254689487E+02  0.54367079478E+02  0.39999989286E+02 0.  0.
         12    1    3    3    0    0  0.15192345247E+02  0.12170341782E+02  0.31254689487E+02  0.36820920522E+02  0.00000000000E+00 0. -1.
         11    1    4    4    0    0  0.47056814766E+01 -0.74464031444E+01 -0.19426337454E+02  0.21330141703E+02  0.51100000000E-03 0.  1.
        -11    1    4    4    0    0 -0.20813208738E+02 -0.10705804220E+02 -0.50378296299E+01  0.23941253718E+02  0.51100000000E-03 0. -1.
         12    1    4    4    0    0  0.91518201433E+00  0.59818655823E+01 -0.67905224028E+01  0.90956840571E+01  0.00000000000E+00 0. -1.
</event>
<event>
 8    1  0.1253488E-006  0.9118800E+02  0.7816164E-02  0.1184000E+00
        -11   -1    0    0    0    0  0.00000000000E+00  0.00000000000E+00  0.45593999997E+02  0.45594000000E+02  0.51100000000E-03 0.  1.
         11   -1    0    0    0    0 -0.00000000000E+00 -0.00000000000E+00 -0.45593999997E+02  0.45594000000E+02  0.51100000000E-03 0. -1.
         23    2    1    2    0    0  0.00000000000E+00 -0.17763568394E-14  0.00000000000E+00  0.91188000000E+02  0.91188000000E+02 0.  0.
    9900012    2    3    3    0    0 -0.33105531626E+02  0.13494727858E+02 -0.88144274882E+01  0.54367108700E+02  0.40000055904E+02 0.  0.
         12    1    3    3    0    0  0.33105531626E+02 -0.13494727858E+02  0.88144274882E+01  0.36820891300E+02  0.00000000000E+00 0. -1.
         11    1    4    4    0    0 -0.32826023845E+02  0.58633125251E+01 -0.44785640858E+01  0.33644967109E+02  0.51100000000E-03 0. -1.
        -11    1    4    4    0    0 -0.12887140110E+01 -0.46892375053E+01  0.35837596792E+01  0.60409490879E+01  0.51100000000E-03 0.  1.
         12    1    4    4    0    0  0.10092062305E+01  0.12320652838E+02 -0.79196230815E+01  0.14681192503E+02  0.00000000000E+00 0. -1.
</event>
<event>
 8    1  0.1253488E-006  0.9118800E+02  0.7816164E-02  0.1184000E+00
        -11   -1    0    0    0    0  0.00000000000E+00  0.00000000000E+00  0.45593999997E+02  0.45594000000E+02  0.51100000000E-03 0.  1.
         11   -1    0    0    0    0 -0.00000000000E+00 -0.00000000000E+00 -0.45593999997E+02  0.45594000000E+02  0.51100000000E-03 0. -1.
         23    2    1    2    0    0  0.00000000000E+00  0.22204460493E-14  0.71054273576E-14  0.91188000000E+02  0.91188000000E+02 0.  0.
    9900012    2    3    3    0    0  0.13182474453E+02  0.31456305340E+01  0.34236043629E+02  0.54367091436E+02  0.40000016546E+02 0.  0.
         12    1    3    3    0    0 -0.13182474453E+02 -0.31456305340E+01 -0.34236043629E+02  0.36820908564E+02  0.00000000000E+00 0. -1.
         11    1    4    4    0    0  0.85375143473E+01 -0.54103484798E+01  0.12709097234E+02  0.16238293466E+02  0.51100000000E-03 0. -1.
        -11    1    4    4    0    0 -0.39928511041E+01  0.34129323251E+00  0.25307935700E+02  0.25623250197E+02  0.51100000000E-03 0.  1.
         12    1    4    4    0    0  0.86378112095E+01  0.82146857813E+01 -0.37809893055E+01  0.12505547773E+02  0.00000000000E+00 0. -1.
</event>
<event>
 8    1  0.1253488E-006  0.9118800E+02  0.7816164E-02  0.1184000E+00
        -11   -1    0    0    0    0  0.00000000000E+00  0.00000000000E+00  0.45593999997E+02  0.45594000000E+02  0.51100000000E-03 0.  1.
         11   -1    0    0    0    0 -0.00000000000E+00 -0.00000000000E+00 -0.45593999997E+02  0.45594000000E+02  0.51100000000E-03 0. -1.
         23    2    1    2    0    0  0.17763568394E-14  0.00000000000E+00 -0.35527136788E-14  0.91188000000E+02  0.91188000000E+02 0.  0.
    9900012    2    3    3    0    0  0.82598820026E+01 -0.29924792101E+02 -0.19800222237E+02  0.54367249958E+02  0.40000377928E+02 0.  0.
        -12    1    3    3    0    0 -0.82598820026E+01  0.29924792101E+02  0.19800222237E+02  0.36820750042E+02  0.00000000000E+00 0.  1.
         11    1    4    4    0    0 -0.42190071050E+01 -0.14764692857E+02 -0.45675014891E+01  0.16020556989E+02  0.51100000000E-03 0. -1.
        -11    1    4    4    0    0  0.48299194529E+01 -0.47183662384E+01  0.87749499316E+01  0.11072075164E+02  0.51100000000E-03 0.  1.
         12    1    4    4    0    0  0.76489696548E+01 -0.10441733006E+02 -0.24007670680E+02  0.27274617805E+02  0.00000000000E+00 0. -1.
</event>
<event>
 8    1  0.1253488E-006  0.9118800E+02  0.7816164E-02  0.1184000E+00
        -11   -1    0    0    0    0  0.00000000000E+00  0.00000000000E+00  0.45593999997E+02  0.45594000000E+02  0.51100000000E-03 0.  1.
         11   -1    0    0    0    0 -0.00000000000E+00 -0.00000000000E+00 -0.45593999997E+02  0.45594000000E+02  0.51100000000E-03 0. -1.
         23    2    1    2    0    0  0.71054273576E-14  0.17763568394E-14  0.00000000000E+00  0.91188000000E+02  0.91188000000E+02 0.  0.
    9900012    2    3    3    0    0  0.30276752400E+02  0.10927108120E+02 -0.17880082156E+02  0.54367071635E+02  0.39999971407E+02 0.  0.
         12    1    3    3    0    0 -0.30276752400E+02 -0.10927108120E+02  0.17880082156E+02  0.36820928365E+02  0.00000000000E+00 0. -1.
         11    1    4    4    0    0  0.83286505344E+01 -0.24605659739E+01 -0.73390771423E+01  0.11370262011E+02  0.51100000000E-03 0. -1.
        -11    1    4    4    0    0  0.25214703291E+01 -0.71105680444E+00  0.10656216502E+02  0.10973530189E+02  0.51100000000E-03 0.  1.
        -12    1    4    4    0    0  0.19426631536E+02  0.14098730898E+02 -0.21197221516E+02  0.32023279435E+02  0.00000000000E+00 0.  1.
</event>
<event>
 8    1  0.1253488E-006  0.9118800E+02  0.7816164E-02  0.1184000E+00
        -11   -1    0    0    0    0  0.00000000000E+00  0.00000000000E+00  0.45593999997E+02  0.45594000000E+02  0.51100000000E-03 0. -1.
         11   -1    0    0    0    0 -0.00000000000E+00 -0.00000000000E+00 -0.45593999997E+02  0.45594000000E+02  0.51100000000E-03 0.  1.
         23    2    1    2    0    0 -0.71054273576E-14 -0.88817841970E-15  0.00000000000E+00  0.91188000000E+02  0.91188000000E+02 0.  0.
    9900012    2    3    3    0    0  0.27543805174E+02  0.66241143586E+01  0.23521038071E+02  0.54367091179E+02  0.40000015960E+02 0.  0.
        -12    1    3    3    0    0 -0.27543805174E+02 -0.66241143586E+01 -0.23521038071E+02  0.36820908821E+02  0.00000000000E+00 0.  1.
         11    1    4    4    0    0  0.18136398671E+01 -0.38273624679E+01  0.17135378255E+02  0.17651039097E+02  0.51100000000E-03 0. -1.
        -11    1    4    4    0    0  0.84228338517E+01  0.15792641459E+02  0.15294532308E+01  0.17963598798E+02  0.51100000000E-03 0.  1.
         12    1    4    4    0    0  0.17307331455E+02 -0.53411646321E+01  0.48562065853E+01  0.18752453283E+02  0.00000000000E+00 0. -1.
</event>
<event>
 8    1  0.1253488E-006  0.9118800E+02  0.7816164E-02  0.1184000E+00
        -11   -1    0    0    0    0  0.00000000000E+00  0.00000000000E+00  0.45593999997E+02  0.45594000000E+02  0.51100000000E-03 0.  1.
         11   -1    0    0    0    0 -0.00000000000E+00 -0.00000000000E+00 -0.45593999997E+02  0.45594000000E+02  0.51100000000E-03 0. -1.
         23    2    1    2    0    0  0.88817841970E-15  0.00000000000E+00 -0.44408920985E-15  0.91188000000E+02  0.91188000000E+02 0.  0.
    9900012    2    3    3    0    0 -0.62858617807E+01 -0.36095389681E+02 -0.36590978364E+01  0.54367106319E+02  0.40000050474E+02 0.  0.
        -12    1    3    3    0    0  0.62858617807E+01  0.36095389681E+02  0.36590978364E+01  0.36820893681E+02  0.00000000000E+00 0.  1.
         11    1    4    4    0    0 -0.37476032600E+01  0.10967102013E+01 -0.52275504451E+01  0.65249204882E+01  0.51100000000E-03 0. -1.
        -11    1    4    4    0    0 -0.77589361755E+01 -0.79536407995E+01  0.12007900080E+02  0.16360047590E+02  0.51100000000E-03 0.  1.
        -12    1    4    4    0    0  0.52206776548E+01 -0.29238459082E+02 -0.10439447472E+02  0.31482138241E+02  0.00000000000E+00 0.  1.
</event>
<event>
 8    1  0.1253488E-006  0.9118800E+02  0.7816164E-02  0.1184000E+00
        -11   -1    0    0    0    0  0.00000000000E+00  0.00000000000E+00  0.45593999997E+02  0.45594000000E+02  0.51100000000E-03 0.  1.
         11   -1    0    0    0    0 -0.00000000000E+00 -0.00000000000E+00 -0.45593999997E+02  0.45594000000E+02  0.51100000000E-03 0. -1.
         23    2    1    2    0    0  0.35527136788E-14 -0.17763568394E-14 -0.35527136788E-14  0.91188000000E+02  0.91188000000E+02 0.  0.
    9900012    2    3    3    0    0 -0.28045824168E+02  0.79815230373E+01 -0.22483486180E+02  0.54367080483E+02  0.39999991578E+02 0.  0.
        -12    1    3    3    0    0  0.28045824168E+02 -0.79815230373E+01  0.22483486180E+02  0.36820919517E+02  0.00000000000E+00 0.  1.
         11    1    4    4    0    0 -0.23472619217E+02  0.75558324086E+01 -0.19129731895E+02  0.31208990675E+02  0.51100000000E-03 0. -1.
        -11    1    4    4    0    0  0.66270747618E+01 -0.52806816771E+01 -0.59093979210E+01  0.10330764876E+02  0.51100000000E-03 0.  1.
        -12    1    4    4    0    0 -0.11200279712E+02  0.57063723058E+01  0.25556436360E+01  0.12827324933E+02  0.00000000000E+00 0.  1.
</event>
<event>
 8    1  0.1253488E-006  0.9118800E+02  0.7816164E-02  0.1184000E+00
        -11   -1    0    0    0    0  0.00000000000E+00  0.00000000000E+00  0.45593999997E+02  0.45594000000E+02  0.51100000000E-03 0.  1.
         11   -1    0    0    0    0 -0.00000000000E+00 -0.00000000000E+00 -0.45593999997E+02  0.45594000000E+02  0.51100000000E-03 0. -1.
         23    2    1    2    0    0  0.00000000000E+00 -0.71054273576E-14  0.35527136788E-14  0.91188000000E+02  0.91188000000E+02 0.  0.
    9900012    2    3    3    0    0  0.11179284360E+02 -0.29104730318E+02 -0.19588707963E+02  0.54367092822E+02  0.40000019707E+02 0.  0.
        -12    1    3    3    0    0 -0.11179284360E+02  0.29104730318E+02  0.19588707963E+02  0.36820907178E+02  0.00000000000E+00 0.  1.
         11    1    4    4    0    0 -0.54209839376E+01  0.35316110825E+01 -0.10032014199E+02  0.11937363730E+02  0.51100000000E-03 0. -1.
        -11    1    4    4    0    0 -0.29824837754E+01 -0.34805164941E+01  0.25924513752E+01  0.52659290662E+01  0.51100000000E-03 0.  1.
         12    1    4    4    0    0  0.19582752073E+02 -0.29155824907E+02 -0.12149145140E+02  0.37163800026E+02  0.00000000000E+00 0. -1.
</event>
<event>
 8    1  0.1253488E-006  0.9118800E+02  0.7816164E-02  0.1184000E+00
        -11   -1    0    0    0    0  0.00000000000E+00  0.00000000000E+00  0.45593999997E+02  0.45594000000E+02  0.51100000000E-03 0.  1.
         11   -1    0    0    0    0 -0.00000000000E+00 -0.00000000000E+00 -0.45593999997E+02  0.45594000000E+02  0.51100000000E-03 0. -1.
         23    2    1    2    0    0 -0.35527136788E-14 -0.35527136788E-14  0.00000000000E+00  0.91188000000E+02  0.91188000000E+02 0.  0.
    9900012    2    3    3    0    0 -0.16213526184E+02  0.16388715812E+02  0.28710801803E+02  0.54367101349E+02  0.40000039146E+02 0.  0.
         12    1    3    3    0    0  0.16213526184E+02 -0.16388715812E+02 -0.28710801803E+02  0.36820898651E+02  0.00000000000E+00 0. -1.
         11    1    4    4    0    0 -0.18249909442E+02  0.15722611644E+01  0.76039202483E+01  0.19833073469E+02  0.51100000000E-03 0. -1.
        -11    1    4    4    0    0 -0.98255819701E+01  0.10788414421E+02  0.91957284516E+01  0.17247996080E+02  0.51100000000E-03 0.  1.
         12    1    4    4    0    0  0.11861965228E+02  0.40280402262E+01  0.11911153104E+02  0.17286031800E+02  0.00000000000E+00 0. -1.
</event>
<event>
 8    1  0.1253488E-006  0.9118800E+02  0.7816164E-02  0.1184000E+00
        -11   -1    0    0    0    0  0.00000000000E+00  0.00000000000E+00  0.45593999997E+02  0.45594000000E+02  0.51100000000E-03 0. -1.
         11   -1    0    0    0    0 -0.00000000000E+00 -0.00000000000E+00 -0.45593999997E+02  0.45594000000E+02  0.51100000000E-03 0.  1.
         23    2    1    2    0    0  0.17763568394E-14  0.35527136788E-14  0.00000000000E+00  0.91188000000E+02  0.91188000000E+02 0.  0.
    9900012    2    3    3    0    0  0.14354551914E+02 -0.27658455409E+02 -0.19614702978E+02  0.54367083537E+02  0.39999998539E+02 0.  0.
         12    1    3    3    0    0 -0.14354551914E+02  0.27658455409E+02  0.19614702978E+02  0.36820916463E+02  0.00000000000E+00 0. -1.
         11    1    4    4    0    0  0.14359247279E+02 -0.30278837467E+01  0.67576000284E+01  0.16156151176E+02  0.51100000000E-03 0. -1.
        -11    1    4    4    0    0  0.53901473874E+01 -0.14712900437E+02 -0.19415516736E+02  0.24949657683E+02  0.51100000000E-03 0.  1.
         12    1    4    4    0    0 -0.53948427526E+01 -0.99176712261E+01 -0.69567862705E+01  0.13261274678E+02  0.00000000000E+00 0. -1.
</event>
<event>
 8    1  0.1253488E-006  0.9118800E+02  0.7816164E-02  0.1184000E+00
        -11   -1    0    0    0    0  0.00000000000E+00  0.00000000000E+00  0.45593999997E+02  0.45594000000E+02  0.51100000000E-03 0. -1.
         11   -1    0    0    0    0 -0.00000000000E+00 -0.00000000000E+00 -0.45593999997E+02  0.45594000000E+02  0.51100000000E-03 0.  1.
         23    2    1    2    0    0  0.00000000000E+00  0.00000000000E+00  0.35527136788E-14  0.91188000000E+02  0.91188000000E+02 0.  0.
    9900012    2    3    3    0    0 -0.22160356805E+02  0.13203918677E+02 -0.26274597465E+02  0.54367090803E+02  0.40000015103E+02 0.  0.
        -12    1    3    3    0    0  0.22160356805E+02 -0.13203918677E+02  0.26274597465E+02  0.36820909197E+02  0.00000000000E+00 0.  1.
         11    1    4    4    0    0 -0.10921486527E+02  0.13480500548E+01  0.43593342215E+01  0.11836380444E+02  0.51100000000E-03 0.  1.
        -11    1    4    4    0    0 -0.54661130089E+01 -0.13245483582E+01  0.26888031552E+01  0.62339780596E+01  0.51100000000E-03 0. -1.
        -12    1    4    4    0    0 -0.57727572698E+01  0.13180416980E+02 -0.33322734842E+02  0.36296732299E+02  0.00000000000E+00 0.  1.
</event>
<event>
 8    1  0.1253488E-006  0.9118800E+02  0.7816164E-02  0.1184000E+00
        -11   -1    0    0    0    0  0.00000000000E+00  0.00000000000E+00  0.45593999997E+02  0.45594000000E+02  0.51100000000E-03 0.  1.
         11   -1    0    0    0    0 -0.00000000000E+00 -0.00000000000E+00 -0.45593999997E+02  0.45594000000E+02  0.51100000000E-03 0. -1.
         23    2    1    2    0    0  0.00000000000E+00  0.00000000000E+00 -0.14432899320E-14  0.91188000000E+02  0.91188000000E+02 0.  0.
    9900012    2    3    3    0    0  0.22811021173E+02 -0.28891045428E+02 -0.86464635503E+00  0.54367043926E+02  0.39999908238E+02 0.  0.
         12    1    3    3    0    0 -0.22811021173E+02  0.28891045428E+02  0.86464635503E+00  0.36820956074E+02  0.00000000000E+00 0. -1.
         11    1    4    4    0    0  0.93036280320E+00 -0.79862867054E+01 -0.15440997569E+02  0.17408927494E+02  0.51100000000E-03 0. -1.
        -11    1    4    4    0    0  0.18810338482E+02 -0.23174076166E+02  0.11259126330E+02  0.31900385043E+02  0.51100000000E-03 0.  1.
         12    1    4    4    0    0  0.30703198877E+01  0.22693174429E+01  0.33172248841E+01  0.50577313888E+01  0.00000000000E+00 0. -1.
</event>
<event>
 8    1  0.1253488E-006  0.9118800E+02  0.7816164E-02  0.1184000E+00
        -11   -1    0    0    0    0  0.00000000000E+00  0.00000000000E+00  0.45593999997E+02  0.45594000000E+02  0.51100000000E-03 0.  1.
         11   -1    0    0    0    0 -0.00000000000E+00 -0.00000000000E+00 -0.45593999997E+02  0.45594000000E+02  0.51100000000E-03 0. -1.
         23    2    1    2    0    0 -0.35527136788E-14  0.00000000000E+00  0.00000000000E+00  0.91188000000E+02  0.91188000000E+02 0.  0.
    9900012    2    3    3    0    0  0.28744370128E+02  0.10696013615E+02  0.20374904131E+02  0.54367078777E+02  0.39999987689E+02 0.  0.
         12    1    3    3    0    0 -0.28744370128E+02 -0.10696013615E+02 -0.20374904131E+02  0.36820921223E+02  0.00000000000E+00 0. -1.
         11    1    4    4    0    0  0.19899731521E+02  0.52821156505E+00 -0.33524748831E+01  0.20187060464E+02  0.51100000000E-03 0. -1.
        -11    1    4    4    0    0  0.66936836413E+01  0.67344978513E+01  0.27221478056E+02  0.28829979706E+02  0.51100000000E-03 0.  1.
        -12    1    4    4    0    0  0.21509549662E+01  0.34333041991E+01 -0.34940990421E+01  0.53500386080E+01  0.00000000000E+00 0.  1.
</event>
<event>
 8    1  0.1253488E-006  0.9118800E+02  0.7816164E-02  0.1184000E+00
        -11   -1    0    0    0    0  0.00000000000E+00  0.00000000000E+00  0.45593999997E+02  0.45594000000E+02  0.51100000000E-03 0. -1.
         11   -1    0    0    0    0 -0.00000000000E+00 -0.00000000000E+00 -0.45593999997E+02  0.45594000000E+02  0.51100000000E-03 0.  1.
         23    2    1    2    0    0  0.00000000000E+00 -0.13322676296E-14  0.00000000000E+00  0.91188000000E+02  0.91188000000E+02 0.  0.
    9900012    2    3    3    0    0  0.31551085784E+02  0.22047023384E+01 -0.18853252365E+02  0.54367124790E+02  0.40000092583E+02 0.  0.
         12    1    3    3    0    0 -0.31551085784E+02 -0.22047023384E+01  0.18853252365E+02  0.36820875210E+02  0.00000000000E+00 0. -1.
         11    1    4    4    0    0 -0.13978042656E+01 -0.38284468734E+01  0.16877962474E+00  0.40791358215E+01  0.51100000000E-03 0. -1.
        -11    1    4    4    0    0  0.53962344797E+01 -0.91409947091E+01 -0.15288736333E+02  0.18612431055E+02  0.51100000000E-03 0.  1.
        -12    1    4    4    0    0  0.27552655569E+02  0.15174143921E+02 -0.37332956565E+01  0.31675557913E+02  0.00000000000E+00 0.  1.
</event>
<event>
 8    1  0.1253488E-006  0.9118800E+02  0.7816164E-02  0.1184000E+00
        -11   -1    0    0    0    0  0.00000000000E+00  0.00000000000E+00  0.45593999997E+02  0.45594000000E+02  0.51100000000E-03 0. -1.
         11   -1    0    0    0    0 -0.00000000000E+00 -0.00000000000E+00 -0.45593999997E+02  0.45594000000E+02  0.51100000000E-03 0.  1.
         23    2    1    2    0    0 -0.71054273576E-14  0.00000000000E+00 -0.35527136788E-14  0.91188000000E+02  0.91188000000E+02 0.  0.
    9900012    2    3    3    0    0  0.32386096551E+02 -0.50015786872E+01  0.16790041011E+02  0.54367075020E+02  0.39999979124E+02 0.  0.
         12    1    3    3    0    0 -0.32386096551E+02  0.50015786872E+01 -0.16790041011E+02  0.36820924980E+02  0.00000000000E+00 0. -1.
         11    1    4    4    0    0 -0.55062338466E+01  0.53552433435E+01 -0.23186193884E+01  0.80232934990E+01  0.51100000000E-03 0. -1.
        -11    1    4    4    0    0  0.14939960313E+02 -0.75235441838E+01  0.15748510241E+02  0.22974370640E+02  0.51100000000E-03 0.  1.
         12    1    4    4    0    0  0.22952370085E+02 -0.28332778470E+01  0.33601501591E+01  0.23369410882E+02  0.00000000000E+00 0. -1.
</event>
<event>
 8    1  0.1253488E-006  0.9118800E+02  0.7816164E-02  0.1184000E+00
        -11   -1    0    0    0    0  0.00000000000E+00  0.00000000000E+00  0.45593999997E+02  0.45594000000E+02  0.51100000000E-03 0. -1.
         11   -1    0    0    0    0 -0.00000000000E+00 -0.00000000000E+00 -0.45593999997E+02  0.45594000000E+02  0.51100000000E-03 0.  1.
         23    2    1    2    0    0  0.35527136788E-14 -0.44408920985E-15 -0.35527136788E-14  0.91188000000E+02  0.91188000000E+02 0.  0.
    9900012    2    3    3    0    0  0.25166588531E+02 -0.20219789136E+01 -0.26801786488E+02  0.54367063891E+02  0.39999953752E+02 0.  0.
         12    1    3    3    0    0 -0.25166588531E+02  0.20219789136E+01  0.26801786488E+02  0.36820936109E+02  0.00000000000E+00 0. -1.
         11    1    4    4    0    0  0.28134281230E+01  0.54778471447E+01  0.27861100181E+01  0.67590381296E+01  0.51100000000E-03 0. -1.
        -11    1    4    4    0    0 -0.16827861033E+00 -0.72341005612E+01  0.31325959477E+01  0.78850292487E+01  0.51100000000E-03 0.  1.
        -12    1    4    4    0    0  0.22521439018E+02 -0.26572549714E+00 -0.32720492454E+02  0.39722996512E+02  0.00000000000E+00 0.  1.
</event>
<event>
 8    1  0.1253488E-006  0.9118800E+02  0.7816164E-02  0.1184000E+00
        -11   -1    0    0    0    0  0.00000000000E+00  0.00000000000E+00  0.45593999997E+02  0.45594000000E+02  0.51100000000E-03 0.  1.
         11   -1    0    0    0    0 -0.00000000000E+00 -0.00000000000E+00 -0.45593999997E+02  0.45594000000E+02  0.51100000000E-03 0. -1.
         23    2    1    2    0    0  0.00000000000E+00  0.17763568394E-14  0.00000000000E+00  0.91188000000E+02  0.91188000000E+02 0.  0.
    9900012    2    3    3    0    0 -0.15229555453E+02  0.12239870745E+02  0.31209387490E+02  0.54367086613E+02  0.40000005553E+02 0.  0.
         12    1    3    3    0    0  0.15229555453E+02 -0.12239870745E+02 -0.31209387490E+02  0.36820913387E+02  0.00000000000E+00 0. -1.
         11    1    4    4    0    0  0.34809061419E+01  0.53660635692E+01  0.12350397740E+02  0.13908402870E+02  0.51100000000E-03 0. -1.
        -11    1    4    4    0    0  0.65646616566E+01  0.77091739815E+01  0.81404342940E+01  0.12992028975E+02  0.51100000000E-03 0.  1.
        -12    1    4    4    0    0 -0.25275123251E+02 -0.83536680619E+00  0.10718555456E+02  0.27466654768E+02  0.00000000000E+00 0.  1.
</event>
<event>
 8    1  0.1253488E-006  0.9118800E+02  0.7816164E-02  0.1184000E+00
        -11   -1    0    0    0    0  0.00000000000E+00  0.00000000000E+00  0.45593999997E+02  0.45594000000E+02  0.51100000000E-03 0. -1.
         11   -1    0    0    0    0 -0.00000000000E+00 -0.00000000000E+00 -0.45593999997E+02  0.45594000000E+02  0.51100000000E-03 0.  1.
         23    2    1    2    0    0  0.88817841970E-15  0.00000000000E+00  0.00000000000E+00  0.91188000000E+02  0.91188000000E+02 0.  0.
    9900012    2    3    3    0    0 -0.51958157311E+01 -0.35301576402E+02  0.90874523308E+01  0.54367087634E+02  0.40000007880E+02 0.  0.
        -12    1    3    3    0    0  0.51958157311E+01  0.35301576402E+02 -0.90874523308E+01  0.36820912366E+02  0.00000000000E+00 0.  1.
         11    1    4    4    0    0 -0.11710008388E+02 -0.24086883591E+02 -0.60683352228E+01  0.27461371966E+02  0.51100000000E-03 0. -1.
        -11    1    4    4    0    0 -0.49280329038E+01 -0.25777642376E+01 -0.61197248895E+00  0.55950770642E+01  0.51100000000E-03 0.  1.
        -12    1    4    4    0    0  0.11442225561E+02 -0.86369285733E+01  0.15767760043E+02  0.21310638605E+02  0.00000000000E+00 0.  1.
</event>
<event>
 8    1  0.1253488E-006  0.9118800E+02  0.7816164E-02  0.1184000E+00
        -11   -1    0    0    0    0  0.00000000000E+00  0.00000000000E+00  0.45593999997E+02  0.45594000000E+02  0.51100000000E-03 0.  1.
         11   -1    0    0    0    0 -0.00000000000E+00 -0.00000000000E+00 -0.45593999997E+02  0.45594000000E+02  0.51100000000E-03 0. -1.
         23    2    1    2    0    0  0.17763568394E-14 -0.88817841970E-15 -0.71054273576E-14  0.91188000000E+02  0.91188000000E+02 0.  0.
    9900012    2    3    3    0    0  0.83353069541E+01 -0.49681836439E+01 -0.35519253548E+02  0.54367115120E+02  0.40000070540E+02 0.  0.
        -12    1    3    3    0    0 -0.83353069541E+01  0.49681836439E+01  0.35519253548E+02  0.36820884880E+02  0.00000000000E+00 0.  1.
         11    1    4    4    0    0 -0.10556246553E+02  0.20576238991E+01 -0.86294150338E+01  0.13788943451E+02  0.51100000000E-03 0. -1.
        -11    1    4    4    0    0 -0.48913972460E+01  0.92552174550E+00 -0.23992380995E+01  0.55261832433E+01  0.51100000000E-03 0.  1.
        -12    1    4    4    0    0  0.23782950753E+02 -0.79513292885E+01 -0.24490600414E+02  0.35051988426E+02  0.00000000000E+00 0.  1.
</event>
<event>
 8    1  0.1253488E-006  0.9118800E+02  0.7816164E-02  0.1184000E+00
        -11   -1    0    0    0    0  0.00000000000E+00  0.00000000000E+00  0.45593999997E+02  0.45594000000E+02  0.51100000000E-03 0. -1.
         11   -1    0    0    0    0 -0.00000000000E+00 -0.00000000000E+00 -0.45593999997E+02  0.45594000000E+02  0.51100000000E-03 0.  1.
         23    2    1    2    0    0  0.00000000000E+00 -0.17763568394E-14  0.71054273576E-14  0.91188000000E+02  0.91188000000E+02 0.  0.
    9900012    2    3    3    0    0  0.45248297943E+01  0.14182235991E+02 -0.33677453953E+02  0.54367071072E+02  0.39999970122E+02 0.  0.
         12    1    3    3    0    0 -0.45248297943E+01 -0.14182235991E+02  0.33677453953E+02  0.36820928928E+02  0.00000000000E+00 0. -1.
         11    1    4    4    0    0  0.86575908532E+01  0.92873155389E+01  0.57129203903E+01  0.13922843422E+02  0.51100000000E-03 0. -1.
        -11    1    4    4    0    0 -0.37833998078E+01  0.34712713423E+01 -0.12493762358E+02  0.13507699173E+02  0.51100000000E-03 0.  1.
         12    1    4    4    0    0 -0.34936125112E+00  0.14236491100E+01 -0.26896611985E+02  0.26936528476E+02  0.00000000000E+00 0. -1.
</event>
<event>
 8    1  0.1253488E-006  0.9118800E+02  0.7816164E-02  0.1184000E+00
        -11   -1    0    0    0    0  0.00000000000E+00  0.00000000000E+00  0.45593999997E+02  0.45594000000E+02  0.51100000000E-03 0.  1.
         11   -1    0    0    0    0 -0.00000000000E+00 -0.00000000000E+00 -0.45593999997E+02  0.45594000000E+02  0.51100000000E-03 0. -1.
         23    2    1    2    0    0  0.88817841970E-15  0.00000000000E+00  0.00000000000E+00  0.91188000000E+02  0.91188000000E+02 0.  0.
    9900012    2    3    3    0    0 -0.36275699213E+01 -0.35022213394E+02  0.10773656812E+02  0.54366995456E+02  0.39999797740E+02 0.  0.
         12    1    3    3    0    0  0.36275699213E+01  0.35022213394E+02 -0.10773656812E+02  0.36821004544E+02  0.00000000000E+00 0. -1.
         11    1    4    4    0    0  0.38715650078E+01  0.56009339964E+01 -0.26977629175E+01  0.73237560215E+01  0.51100000000E-03 0. -1.
        -11    1    4    4    0    0 -0.54541090447E+00 -0.26173841555E+02  0.16186710491E+02  0.30779490762E+02  0.51100000000E-03 0.  1.
        -12    1    4    4    0    0 -0.69537240246E+01 -0.14449305835E+02 -0.27152907615E+01  0.16263748672E+02  0.00000000000E+00 0.  1.
</event>
<event>
 8    1  0.1253488E-006  0.9118800E+02  0.7816164E-02  0.1184000E+00
        -11   -1    0    0    0    0  0.00000000000E+00  0.00000000000E+00  0.45593999997E+02  0.45594000000E+02  0.51100000000E-03 0.  1.
         11   -1    0    0    0    0 -0.00000000000E+00 -0.00000000000E+00 -0.45593999997E+02  0.45594000000E+02  0.51100000000E-03 0. -1.
         23    2    1    2    0    0  0.00000000000E+00  0.00000000000E+00  0.00000000000E+00  0.91188000000E+02  0.91188000000E+02 0.  0.
    9900012    2    3    3    0    0 -0.15987677873E+02  0.21650385370E+02  0.25128339514E+02  0.54367102711E+02  0.40000042250E+02 0.  0.
         12    1    3    3    0    0  0.15987677873E+02 -0.21650385370E+02 -0.25128339514E+02  0.36820897289E+02  0.00000000000E+00 0. -1.
         11    1    4    4    0    0  0.60782861329E+01  0.83894144312E+01 -0.45236960281E+00  0.10369786658E+02  0.51100000000E-03 0. -1.
        -11    1    4    4    0    0  0.66832123921E-01 -0.62706769950E+01  0.41565020041E+01  0.75234543715E+01  0.51100000000E-03 0.  1.
        -12    1    4    4    0    0 -0.22132796130E+02  0.19531647934E+02  0.21424207112E+02  0.36473861681E+02  0.00000000000E+00 0.  1.
</event>
<event>
 8    1  0.1253488E-006  0.9118800E+02  0.7816164E-02  0.1184000E+00
        -11   -1    0    0    0    0  0.00000000000E+00  0.00000000000E+00  0.45593999997E+02  0.45594000000E+02  0.51100000000E-03 0. -1.
         11   -1    0    0    0    0 -0.00000000000E+00 -0.00000000000E+00 -0.45593999997E+02  0.45594000000E+02  0.51100000000E-03 0.  1.
         23    2    1    2    0    0  0.00000000000E+00  0.00000000000E+00  0.00000000000E+00  0.91188000000E+02  0.91188000000E+02 0.  0.
    9900012    2    3    3    0    0  0.18768590655E+02 -0.19259345438E+02 -0.25151488323E+02  0.54367085471E+02  0.40000002947E+02 0.  0.
         12    1    3    3    0    0 -0.18768590655E+02  0.19259345438E+02  0.25151488323E+02  0.36820914529E+02  0.00000000000E+00 0. -1.
         11    1    4    4    0    0  0.84039192265E+00 -0.11765697068E+02 -0.18172659443E+01  0.11934837319E+02  0.51100000000E-03 0. -1.
        -11    1    4    4    0    0  0.13407336032E+02 -0.12096582050E+02 -0.28788941085E+02  0.33983629674E+02  0.51100000000E-03 0.  1.
        -12    1    4    4    0    0  0.45208627009E+01  0.46029336789E+01  0.54547187060E+01  0.84486184773E+01  0.00000000000E+00 0.  1.
</event>
<event>
 8    1  0.1253488E-006  0.9118800E+02  0.7816164E-02  0.1184000E+00
        -11   -1    0    0    0    0  0.00000000000E+00  0.00000000000E+00  0.45593999997E+02  0.45594000000E+02  0.51100000000E-03 0. -1.
         11   -1    0    0    0    0 -0.00000000000E+00 -0.00000000000E+00 -0.45593999997E+02  0.45594000000E+02  0.51100000000E-03 0.  1.
         23    2    1    2    0    0  0.88817841970E-15  0.11102230246E-15  0.00000000000E+00  0.91188000000E+02  0.91188000000E+02 0.  0.
    9900012    2    3    3    0    0  0.40453948649E+01  0.96834614907E+00 -0.36585196452E+02  0.54367088641E+02  0.40000010175E+02 0.  0.
         12    1    3    3    0    0 -0.40453948649E+01 -0.96834614907E+00  0.36585196452E+02  0.36820911359E+02  0.00000000000E+00 0. -1.
         11    1    4    4    0    0  0.50616346731E+01 -0.37048848092E+01 -0.51840187640E+01  0.81375898041E+01  0.51100000000E-03 0. -1.
        -11    1    4    4    0    0  0.11406240675E+02 -0.63696767722E+01 -0.25391414800E+02  0.28555193123E+02  0.51100000000E-03 0.  1.
         12    1    4    4    0    0 -0.12422480483E+02  0.11042907730E+02 -0.60097628877E+01  0.17674305714E+02  0.00000000000E+00 0. -1.
</event>
<event>
 8    1  0.1253488E-006  0.9118800E+02  0.7816164E-02  0.1184000E+00
        -11   -1    0    0    0    0  0.00000000000E+00  0.00000000000E+00  0.45593999997E+02  0.45594000000E+02  0.51100000000E-03 0.  1.
         11   -1    0    0    0    0 -0.00000000000E+00 -0.00000000000E+00 -0.45593999997E+02  0.45594000000E+02  0.51100000000E-03 0. -1.
         23    2    1    2    0    0  0.71054273576E-14 -0.44408920985E-15 -0.88817841970E-15  0.91188000000E+02  0.91188000000E+02 0.  0.
    9900012    2    3    3    0    0  0.36438129080E+02 -0.23149515755E+01 -0.47627709478E+01  0.54367078790E+02  0.39999987718E+02 0.  0.
        -12    1    3    3    0    0 -0.36438129080E+02  0.23149515755E+01  0.47627709478E+01  0.36820921210E+02  0.00000000000E+00 0.  1.
         11    1    4    4    0    0  0.27903287463E+02 -0.88207221935E+01  0.18150458581E+01  0.29320521534E+02  0.51100000000E-03 0. -1.
        -11    1    4    4    0    0  0.15783774844E+02  0.28499090308E+01 -0.47022098573E+01  0.16714075135E+02  0.51100000000E-03 0.  1.
        -12    1    4    4    0    0 -0.72489332274E+01  0.36558615872E+01 -0.18756069486E+01  0.83324821216E+01  0.00000000000E+00 0.  1.
</event>
<event>
 8    1  0.1253488E-006  0.9118800E+02  0.7816164E-02  0.1184000E+00
        -11   -1    0    0    0    0  0.00000000000E+00  0.00000000000E+00  0.45593999997E+02  0.45594000000E+02  0.51100000000E-03 0. -1.
         11   -1    0    0    0    0 -0.00000000000E+00 -0.00000000000E+00 -0.45593999997E+02  0.45594000000E+02  0.51100000000E-03 0.  1.
         23    2    1    2    0    0 -0.71054273576E-14 -0.88817841970E-15  0.00000000000E+00  0.91188000000E+02  0.91188000000E+02 0.  0.
    9900012    2    3    3    0    0 -0.35540467837E+02 -0.65928402448E+01 -0.70134643961E+01  0.54367094533E+02  0.40000023607E+02 0.  0.
         12    1    3    3    0    0  0.35540467837E+02  0.65928402448E+01  0.70134643961E+01  0.36820905467E+02  0.00000000000E+00 0. -1.
         11    1    4    4    0    0 -0.11029573479E+01  0.60380838179E+01 -0.74841074764E+01  0.96791960453E+01  0.51100000000E-03 0. -1.
        -11    1    4    4    0    0 -0.36274260740E+02 -0.58880658075E+01 -0.30260010359E+01  0.36873404966E+02  0.51100000000E-03 0.  1.
         12    1    4    4    0    0  0.18367502515E+01 -0.67428582552E+01  0.34966441162E+01  0.78144935224E+01  0.00000000000E+00 0. -1.
</event>
<event>
 8    1  0.1253488E-006  0.9118800E+02  0.7816164E-02  0.1184000E+00
        -11   -1    0    0    0    0  0.00000000000E+00  0.00000000000E+00  0.45593999997E+02  0.45594000000E+02  0.51100000000E-03 0.  1.
         11   -1    0    0    0    0 -0.00000000000E+00 -0.00000000000E+00 -0.45593999997E+02  0.45594000000E+02  0.51100000000E-03 0. -1.
         23    2    1    2    0    0 -0.26367796835E-15  0.44408920985E-15  0.00000000000E+00  0.91188000000E+02  0.91188000000E+02 0.  0.
    9900012    2    3    3    0    0  0.90743555417E-01  0.77446102753E+00  0.36812654348E+02  0.54367088219E+02  0.40000009212E+02 0.  0.
         12    1    3    3    0    0 -0.90743555417E-01 -0.77446102753E+00 -0.36812654348E+02  0.36820911781E+02  0.00000000000E+00 0. -1.
         11    1    4    4    0    0  0.20395786198E+01 -0.25693017861E+01 -0.43105123630E+01  0.54167988431E+01  0.51100000000E-03 0. -1.
        -11    1    4    4    0    0  0.11722601954E+02 -0.10433729577E+01  0.22929887850E+02  0.25773780878E+02  0.51100000000E-03 0.  1.
        -12    1    4    4    0    0 -0.13671437018E+02  0.43871357713E+01  0.18193278861E+02  0.23176508497E+02  0.00000000000E+00 0.  1.
</event>
<event>
 8    1  0.1253488E-006  0.9118800E+02  0.7816164E-02  0.1184000E+00
        -11   -1    0    0    0    0  0.00000000000E+00  0.00000000000E+00  0.45593999997E+02  0.45594000000E+02  0.51100000000E-03 0. -1.
         11   -1    0    0    0    0 -0.00000000000E+00 -0.00000000000E+00 -0.45593999997E+02  0.45594000000E+02  0.51100000000E-03 0.  1.
         23    2    1    2    0    0  0.71054273576E-14  0.17763568394E-14  0.00000000000E+00  0.91188000000E+02  0.91188000000E+02 0.  0.
    9900012    2    3    3    0    0  0.24973884857E+02  0.11052411475E+02  0.24696786675E+02  0.54367054923E+02  0.39999933309E+02 0.  0.
         12    1    3    3    0    0 -0.24973884857E+02 -0.11052411475E+02 -0.24696786675E+02  0.36820945077E+02  0.00000000000E+00 0. -1.
         11    1    4    4    0    0 -0.52224637410E+01  0.33447465225E+01  0.17109071848E+01  0.64334019369E+01  0.51100000000E-03 0.  1.
        -11    1    4    4    0    0  0.31644892979E+02  0.46163451763E+00  0.24935559592E+02  0.40291369926E+02  0.51100000000E-03 0. -1.
         12    1    4    4    0    0 -0.14485443808E+01  0.72460304345E+01 -0.19496801019E+01  0.76422830607E+01  0.00000000000E+00 0. -1.
</event>
<event>
 8    1  0.1253488E-006  0.9118800E+02  0.7816164E-02  0.1184000E+00
        -11   -1    0    0    0    0  0.00000000000E+00  0.00000000000E+00  0.45593999997E+02  0.45594000000E+02  0.51100000000E-03 0.  1.
         11   -1    0    0    0    0 -0.00000000000E+00 -0.00000000000E+00 -0.45593999997E+02  0.45594000000E+02  0.51100000000E-03 0. -1.
         23    2    1    2    0    0  0.17763568394E-14 -0.35527136788E-14  0.35527136788E-14  0.91188000000E+02  0.91188000000E+02 0.  0.
    9900012    2    3    3    0    0 -0.12731538690E+02  0.29573769325E+02 -0.17863050560E+02  0.54366966815E+02  0.39999732448E+02 0.  0.
        -12    1    3    3    0    0  0.12731538690E+02 -0.29573769325E+02  0.17863050560E+02  0.36821033185E+02  0.00000000000E+00 0.  1.
         11    1    4    4    0    0 -0.23767931644E+01 -0.23370530118E+01 -0.58291213606E+01  0.67148803879E+01  0.51100000000E-03 0. -1.
        -11    1    4    4    0    0 -0.12133389240E+01  0.16377609996E-01  0.85310930169E+01  0.86169604789E+01  0.51100000000E-03 0.  1.
         12    1    4    4    0    0 -0.91414066021E+01  0.31894444726E+02 -0.20565022216E+02  0.39035125948E+02  0.00000000000E+00 0. -1.
</event>
<event>
 8    1  0.1253488E-006  0.9118800E+02  0.7816164E-02  0.1184000E+00
        -11   -1    0    0    0    0  0.00000000000E+00  0.00000000000E+00  0.45593999997E+02  0.45594000000E+02  0.51100000000E-03 0.  1.
         11   -1    0    0    0    0 -0.00000000000E+00 -0.00000000000E+00 -0.45593999997E+02  0.45594000000E+02  0.51100000000E-03 0. -1.
         23    2    1    2    0    0  0.00000000000E+00  0.00000000000E+00  0.00000000000E+00  0.91188000000E+02  0.91188000000E+02 0.  0.
    9900012    2    3    3    0    0 -0.12639643355E+01 -0.16707303680E+02  0.32787929313E+02  0.54367083245E+02  0.39999997873E+02 0.  0.
         12    1    3    3    0    0  0.12639643355E+01  0.16707303680E+02 -0.32787929313E+02  0.36820916755E+02  0.00000000000E+00 0. -1.
         11    1    4    4    0    0 -0.49363133091E+00  0.11968374107E+01  0.20272054741E+01  0.24053386402E+01  0.51100000000E-03 0. -1.
        -11    1    4    4    0    0  0.13386970225E+02 -0.18684715129E+02  0.65428017714E+01  0.23898489629E+02  0.51100000000E-03 0.  1.
        -12    1    4    4    0    0 -0.14157303230E+02  0.78057403818E+00  0.24217922067E+02  0.28063254976E+02  0.00000000000E+00 0.  1.
</event>
<event>
 8    1  0.1253488E-006  0.9118800E+02  0.7816164E-02  0.1184000E+00
        -11   -1    0    0    0    0  0.00000000000E+00  0.00000000000E+00  0.45593999997E+02  0.45594000000E+02  0.51100000000E-03 0.  1.
         11   -1    0    0    0    0 -0.00000000000E+00 -0.00000000000E+00 -0.45593999997E+02  0.45594000000E+02  0.51100000000E-03 0. -1.
         23    2    1    2    0    0 -0.88817841970E-15  0.72164496601E-15  0.00000000000E+00  0.91188000000E+02  0.91188000000E+02 0.  0.
    9900012    2    3    3    0    0  0.73719837800E+01  0.39549625022E+00  0.36073224987E+02  0.54367080361E+02  0.39999991298E+02 0.  0.
         12    1    3    3    0    0 -0.73719837800E+01 -0.39549625022E+00 -0.36073224987E+02  0.36820919639E+02  0.00000000000E+00 0. -1.
         11    1    4    4    0    0 -0.39520368865E+00  0.40718164398E+01 -0.11653999548E+01  0.42537080753E+01  0.51100000000E-03 0. -1.
        -11    1    4    4    0    0 -0.58175850456E+01 -0.40661993541E+01  0.35743047446E+02  0.36440962034E+02  0.51100000000E-03 0.  1.
        -12    1    4    4    0    0  0.13584772514E+02  0.38987916456E+00  0.14955774953E+01  0.13672410251E+02  0.00000000000E+00 0.  1.
</event>
<event>
 8    1  0.1253488E-006  0.9118800E+02  0.7816164E-02  0.1184000E+00
        -11   -1    0    0    0    0  0.00000000000E+00  0.00000000000E+00  0.45593999997E+02  0.45594000000E+02  0.51100000000E-03 0. -1.
         11   -1    0    0    0    0 -0.00000000000E+00 -0.00000000000E+00 -0.45593999997E+02  0.45594000000E+02  0.51100000000E-03 0.  1.
         23    2    1    2    0    0  0.17763568394E-14  0.00000000000E+00  0.00000000000E+00  0.91188000000E+02  0.91188000000E+02 0.  0.
    9900012    2    3    3    0    0 -0.10188185659E+02  0.13868862253E+02 -0.32552046648E+02  0.54367079205E+02  0.39999988664E+02 0.  0.
         12    1    3    3    0    0  0.10188185659E+02 -0.13868862253E+02  0.32552046648E+02  0.36820920795E+02  0.00000000000E+00 0. -1.
         11    1    4    4    0    0  0.11237494957E+02 -0.15112018430E+01  0.41422988868E+00  0.11346215695E+02  0.51100000000E-03 0. -1.
        -11    1    4    4    0    0 -0.13463562943E+02  0.10149465827E+02 -0.26833739996E+02  0.31691146810E+02  0.51100000000E-03 0.  1.
         12    1    4    4    0    0 -0.79621176731E+01  0.52305982688E+01 -0.61325365401E+01  0.11329716700E+02  0.00000000000E+00 0. -1.
</event>
<event>
 8    1  0.1253488E-006  0.9118800E+02  0.7816164E-02  0.1184000E+00
        -11   -1    0    0    0    0  0.00000000000E+00  0.00000000000E+00  0.45593999997E+02  0.45594000000E+02  0.51100000000E-03 0. -1.
         11   -1    0    0    0    0 -0.00000000000E+00 -0.00000000000E+00 -0.45593999997E+02  0.45594000000E+02  0.51100000000E-03 0.  1.
         23    2    1    2    0    0  0.00000000000E+00 -0.35527136788E-14  0.00000000000E+00  0.91188000000E+02  0.91188000000E+02 0.  0.
    9900012    2    3    3    0    0  0.23196281585E+02 -0.21751475147E+02  0.18563021624E+02  0.54367083087E+02  0.39999997514E+02 0.  0.
        -12    1    3    3    0    0 -0.23196281585E+02  0.21751475147E+02 -0.18563021624E+02  0.36820916913E+02  0.00000000000E+00 0.  1.
         11    1    4    4    0    0  0.22322246720E+02 -0.66933016621E+01  0.22831706093E+01  0.23415718098E+02  0.51100000000E-03 0. -1.
        -11    1    4    4    0    0  0.62473903229E+01  0.12851418273E+01  0.11409522476E+02  0.13071292160E+02  0.51100000000E-03 0.  1.
        -12    1    4    4    0    0 -0.53733554575E+01 -0.16343315313E+02  0.48703285391E+01  0.17880072829E+02  0.00000000000E+00 0.  1.
</event>
<event>
 8    1  0.1253488E-006  0.9118800E+02  0.7816164E-02  0.1184000E+00
        -11   -1    0    0    0    0  0.00000000000E+00  0.00000000000E+00  0.45593999997E+02  0.45594000000E+02  0.51100000000E-03 0.  1.
         11   -1    0    0    0    0 -0.00000000000E+00 -0.00000000000E+00 -0.45593999997E+02  0.45594000000E+02  0.51100000000E-03 0. -1.
         23    2    1    2    0    0  0.00000000000E+00  0.35527136788E-14  0.00000000000E+00  0.91188000000E+02  0.91188000000E+02 0.  0.
    9900012    2    3    3    0    0 -0.11217862141E+02 -0.22514728574E+02 -0.26889138848E+02  0.54367092599E+02  0.40000019199E+02 0.  0.
        -12    1    3    3    0    0  0.11217862141E+02  0.22514728574E+02  0.26889138848E+02  0.36820907401E+02  0.00000000000E+00 0.  1.
         11    1    4    4    0    0 -0.54104539023E+00 -0.14108500206E+02 -0.30682139627E+02  0.33774786462E+02  0.51100000000E-03 0.  1.
        -11    1    4    4    0    0 -0.93928386275E+01 -0.57096714092E+01 -0.44243140061E+01  0.11849064088E+02  0.51100000000E-03 0. -1.
        -12    1    4    4    0    0 -0.12839781237E+01 -0.26965569593E+01  0.82173147849E+01  0.87432420492E+01  0.00000000000E+00 0.  1.
</event>
<event>
 8    1  0.1253488E-006  0.9118800E+02  0.7816164E-02  0.1184000E+00
        -11   -1    0    0    0    0  0.00000000000E+00  0.00000000000E+00  0.45593999997E+02  0.45594000000E+02  0.51100000000E-03 0.  1.
         11   -1    0    0    0    0 -0.00000000000E+00 -0.00000000000E+00 -0.45593999997E+02  0.45594000000E+02  0.51100000000E-03 0. -1.
         23    2    1    2    0    0  0.35527136788E-14  0.00000000000E+00  0.00000000000E+00  0.91188000000E+02  0.91188000000E+02 0.  0.
    9900012    2    3    3    0    0 -0.17393694486E+02  0.20116682495E+02 -0.25466828021E+02  0.54367070463E+02  0.39999968736E+02 0.  0.
        -12    1    3    3    0    0  0.17393694486E+02 -0.20116682495E+02  0.25466828021E+02  0.36820929537E+02  0.00000000000E+00 0.  1.
         11    1    4    4    0    0 -0.25440814719E+01  0.26908461964E+02 -0.26266398095E+02  0.37689008278E+02  0.51100000000E-03 0. -1.
        -11    1    4    4    0    0 -0.10289840508E+02 -0.48076461786E+01 -0.97219447075E+00  0.11399098290E+02  0.51100000000E-03 0.  1.
         12    1    4    4    0    0 -0.45597725056E+01 -0.19841332898E+01  0.17717645451E+01  0.52789638963E+01  0.00000000000E+00 0. -1.
</event>
<event>
 8    1  0.1253488E-006  0.9118800E+02  0.7816164E-02  0.1184000E+00
        -11   -1    0    0    0    0  0.00000000000E+00  0.00000000000E+00  0.45593999997E+02  0.45594000000E+02  0.51100000000E-03 0. -1.
         11   -1    0    0    0    0 -0.00000000000E+00 -0.00000000000E+00 -0.45593999997E+02  0.45594000000E+02  0.51100000000E-03 0.  1.
         23    2    1    2    0    0  0.00000000000E+00  0.00000000000E+00 -0.35527136788E-14  0.91188000000E+02  0.91188000000E+02 0.  0.
    9900012    2    3    3    0    0 -0.58592051451E+01 -0.18473884008E+02  0.31307577188E+02  0.54367094733E+02  0.40000024063E+02 0.  0.
        -12    1    3    3    0    0  0.58592051451E+01  0.18473884008E+02 -0.31307577188E+02  0.36820905267E+02  0.00000000000E+00 0.  1.
         11    1    4    4    0    0 -0.81476548739E+01 -0.13551079507E+02  0.20426050652E+02  0.25830981036E+02  0.51100000000E-03 0. -1.
        -11    1    4    4    0    0 -0.88752913155E+01 -0.10378931429E+02  0.35554708890E+01  0.14111498399E+02  0.51100000000E-03 0.  1.
        -12    1    4    4    0    0  0.11163741044E+02  0.54561269286E+01  0.73260556469E+01  0.14424615298E+02  0.00000000000E+00 0.  1.
</event>
<event>
 8    1  0.1253488E-006  0.9118800E+02  0.7816164E-02  0.1184000E+00
        -11   -1    0    0    0    0  0.00000000000E+00  0.00000000000E+00  0.45593999997E+02  0.45594000000E+02  0.51100000000E-03 0. -1.
         11   -1    0    0    0    0 -0.00000000000E+00 -0.00000000000E+00 -0.45593999997E+02  0.45594000000E+02  0.51100000000E-03 0.  1.
         23    2    1    2    0    0  0.00000000000E+00  0.35527136788E-14  0.00000000000E+00  0.91188000000E+02  0.91188000000E+02 0.  0.
    9900012    2    3    3    0    0  0.24175411866E+02  0.22994742507E+02  0.15574624445E+02  0.54367113965E+02  0.40000067905E+02 0.  0.
        -12    1    3    3    0    0 -0.24175411866E+02 -0.22994742507E+02 -0.15574624445E+02  0.36820886035E+02  0.00000000000E+00 0.  1.
         11    1    4    4    0    0  0.54396047104E+01  0.58358267594E+01  0.78231593612E+01  0.11173539995E+02  0.51100000000E-03 0. -1.
        -11    1    4    4    0    0  0.15834892497E+02 -0.66987553068E+01  0.84335529885E+01  0.19150508069E+02  0.51100000000E-03 0.  1.
        -12    1    4    4    0    0  0.29009146590E+01  0.23857671054E+02 -0.68208790495E+00  0.24043065900E+02  0.00000000000E+00 0.  1.
</event>
<event>
 8    1  0.1253488E-006  0.9118800E+02  0.7816164E-02  0.1184000E+00
        -11   -1    0    0    0    0  0.00000000000E+00  0.00000000000E+00  0.45593999997E+02  0.45594000000E+02  0.51100000000E-03 0.  1.
         11   -1    0    0    0    0 -0.00000000000E+00 -0.00000000000E+00 -0.45593999997E+02  0.45594000000E+02  0.51100000000E-03 0. -1.
         23    2    1    2    0    0  0.35527136788E-14  0.00000000000E+00 -0.33306690739E-15  0.91188000000E+02  0.91188000000E+02 0.  0.
    9900012    2    3    3    0    0  0.28798300504E+02 -0.22938647734E+02 -0.50747770102E+00  0.54367065664E+02  0.39999957793E+02 0.  0.
        -12    1    3    3    0    0 -0.28798300504E+02  0.22938647734E+02  0.50747770102E+00  0.36820934336E+02  0.00000000000E+00 0.  1.
         11    1    4    4    0    0  0.17308469170E+02  0.11775381400E+01  0.14141509258E+02  0.22381956693E+02  0.51100000000E-03 0. -1.
        -11    1    4    4    0    0  0.94946661804E+01 -0.99280583864E+01 -0.46093913345E+01  0.14490048928E+02  0.51100000000E-03 0.  1.
         12    1    4    4    0    0  0.19951651544E+01 -0.14188127487E+02 -0.10039595624E+02  0.17495060042E+02  0.00000000000E+00 0. -1.
</event>
<event>
 8    1  0.1253488E-006  0.9118800E+02  0.7816164E-02  0.1184000E+00
        -11   -1    0    0    0    0  0.00000000000E+00  0.00000000000E+00  0.45593999997E+02  0.45594000000E+02  0.51100000000E-03 0.  1.
         11   -1    0    0    0    0 -0.00000000000E+00 -0.00000000000E+00 -0.45593999997E+02  0.45594000000E+02  0.51100000000E-03 0. -1.
         23    2    1    2    0    0  0.00000000000E+00  0.00000000000E+00 -0.71054273576E-14  0.91188000000E+02  0.91188000000E+02 0.  0.
    9900012    2    3    3    0    0  0.18564789539E+02 -0.19264708291E+02 -0.25298211224E+02  0.54367083563E+02  0.39999998598E+02 0.  0.
        -12    1    3    3    0    0 -0.18564789539E+02  0.19264708291E+02  0.25298211224E+02  0.36820916437E+02  0.00000000000E+00 0.  1.
         11    1    4    4    0    0  0.23752809993E+01  0.35456580107E+01  0.76613353727E+01  0.87698181571E+01  0.51100000000E-03 0. -1.
        -11    1    4    4    0    0 -0.56401692588E+00 -0.10523463953E+02 -0.87711602291E+01  0.13711114495E+02  0.51100000000E-03 0.  1.
         12    1    4    4    0    0  0.16753525465E+02 -0.12286902349E+02 -0.24188386368E+02  0.31886150911E+02  0.00000000000E+00 0. -1.
</event>
<event>
 8    1  0.1253488E-006  0.9118800E+02  0.7816164E-02  0.1184000E+00
        -11   -1    0    0    0    0  0.00000000000E+00  0.00000000000E+00  0.45593999997E+02  0.45594000000E+02  0.51100000000E-03 0. -1.
         11   -1    0    0    0    0 -0.00000000000E+00 -0.00000000000E+00 -0.45593999997E+02  0.45594000000E+02  0.51100000000E-03 0.  1.
         23    2    1    2    0    0 -0.71054273576E-14  0.44408920985E-15 -0.71054273576E-14  0.91188000000E+02  0.91188000000E+02 0.  0.
    9900012    2    3    3    0    0  0.19326952185E+02 -0.15194746073E+01  0.31304006441E+02  0.54367072485E+02  0.39999973344E+02 0.  0.
        -12    1    3    3    0    0 -0.19326952185E+02  0.15194746073E+01 -0.31304006441E+02  0.36820927515E+02  0.00000000000E+00 0.  1.
         11    1    4    4    0    0  0.69795878699E+01 -0.42894773398E+01  0.10595069732E+02  0.13392899819E+02  0.51100000000E-03 0. -1.
        -11    1    4    4    0    0 -0.27835735558E+01  0.15396963056E+02  0.89711416024E+01  0.18035967814E+02  0.51100000000E-03 0.  1.
        -12    1    4    4    0    0  0.15130937871E+02 -0.12626960323E+02  0.11737795106E+02  0.22938204852E+02  0.00000000000E+00 0.  1.
</event>
<event>
 8    1  0.1253488E-006  0.9118800E+02  0.7816164E-02  0.1184000E+00
        -11   -1    0    0    0    0  0.00000000000E+00  0.00000000000E+00  0.45593999997E+02  0.45594000000E+02  0.51100000000E-03 0.  1.
         11   -1    0    0    0    0 -0.00000000000E+00 -0.00000000000E+00 -0.45593999997E+02  0.45594000000E+02  0.51100000000E-03 0. -1.
         23    2    1    2    0    0  0.26645352591E-14 -0.14210854715E-13 -0.35527136788E-14  0.91188000000E+02  0.91188000000E+02 0.  0.
    9900012    2    3    3    0    0 -0.31245650762E+01  0.33569594672E+02  0.14801993157E+02  0.54367087535E+02  0.40000007653E+02 0.  0.
         12    1    3    3    0    0  0.31245650762E+01 -0.33569594672E+02 -0.14801993157E+02  0.36820912465E+02  0.00000000000E+00 0. -1.
         11    1    4    4    0    0  0.72290032458E+01 -0.93068509830E-01  0.21310390659E+01  0.75371398711E+01  0.51100000000E-03 0. -1.
        -11    1    4    4    0    0 -0.14846541635E+02  0.60465830928E+01  0.95936285587E+01  0.18682041505E+02  0.51100000000E-03 0.  1.
         12    1    4    4    0    0  0.44929733125E+01  0.27616080089E+02  0.30773255320E+01  0.28147906159E+02  0.00000000000E+00 0. -1.
</event>
<event>
 8    1  0.1253488E-006  0.9118800E+02  0.7816164E-02  0.1184000E+00
        -11   -1    0    0    0    0  0.00000000000E+00  0.00000000000E+00  0.45593999997E+02  0.45594000000E+02  0.51100000000E-03 0.  1.
         11   -1    0    0    0    0 -0.00000000000E+00 -0.00000000000E+00 -0.45593999997E+02  0.45594000000E+02  0.51100000000E-03 0. -1.
         23    2    1    2    0    0  0.00000000000E+00 -0.88817841970E-15  0.00000000000E+00  0.91188000000E+02  0.91188000000E+02 0.  0.
    9900012    2    3    3    0    0  0.14198296529E+02  0.64297369464E+01 -0.33359364607E+02  0.54367077300E+02  0.39999984321E+02 0.  0.
        -12    1    3    3    0    0 -0.14198296529E+02 -0.64297369464E+01  0.33359364607E+02  0.36820922700E+02  0.00000000000E+00 0.  1.
         11    1    4    4    0    0 -0.19836706102E+01 -0.93438205117E+01 -0.60494339157E+01  0.11306528283E+02  0.51100000000E-03 0. -1.
        -11    1    4    4    0    0  0.10749747921E+01  0.14284267543E+02 -0.33737502575E+01  0.14716591355E+02  0.51100000000E-03 0.  1.
         12    1    4    4    0    0  0.15106992347E+02  0.14892899151E+01 -0.23936180434E+02  0.28343957662E+02  0.00000000000E+00 0. -1.
</event>
<event>
 8    1  0.1253488E-006  0.9118800E+02  0.7816164E-02  0.1184000E+00
        -11   -1    0    0    0    0  0.00000000000E+00  0.00000000000E+00  0.45593999997E+02  0.45594000000E+02  0.51100000000E-03 0. -1.
         11   -1    0    0    0    0 -0.00000000000E+00 -0.00000000000E+00 -0.45593999997E+02  0.45594000000E+02  0.51100000000E-03 0.  1.
         23    2    1    2    0    0  0.00000000000E+00 -0.17763568394E-14  0.00000000000E+00  0.91188000000E+02  0.91188000000E+02 0.  0.
    9900012    2    3    3    0    0  0.12107235094E+02  0.11223730717E+02  0.32912364644E+02  0.54367068191E+02  0.39999963556E+02 0.  0.
        -12    1    3    3    0    0 -0.12107235094E+02 -0.11223730717E+02 -0.32912364644E+02  0.36820931809E+02  0.00000000000E+00 0.  1.
         11    1    4    4    0    0  0.37442112174E+01  0.82764278802E+00  0.37548878619E+02  0.37744170358E+02  0.51100000000E-03 0. -1.
        -11    1    4    4    0    0  0.25851841197E+01  0.93333387794E+01 -0.10539349630E+01  0.97419283959E+01  0.51100000000E-03 0.  1.
         12    1    4    4    0    0  0.57778397570E+01  0.10627491493E+01 -0.35825790126E+01  0.68809694370E+01  0.00000000000E+00 0. -1.
</event>
<event>
 8    1  0.1253488E-006  0.9118800E+02  0.7816164E-02  0.1184000E+00
        -11   -1    0    0    0    0  0.00000000000E+00  0.00000000000E+00  0.45593999997E+02  0.45594000000E+02  0.51100000000E-03 0.  1.
         11   -1    0    0    0    0 -0.00000000000E+00 -0.00000000000E+00 -0.45593999997E+02  0.45594000000E+02  0.51100000000E-03 0. -1.
         23    2    1    2    0    0 -0.35527136788E-14  0.00000000000E+00  0.00000000000E+00  0.91188000000E+02  0.91188000000E+02 0.  0.
    9900012    2    3    3    0    0 -0.22538148926E+02 -0.53505200631E+01 -0.28621356841E+02  0.54367105261E+02  0.40000048064E+02 0.  0.
        -12    1    3    3    0    0  0.22538148926E+02  0.53505200631E+01  0.28621356841E+02  0.36820894739E+02  0.00000000000E+00 0.  1.
         11    1    4    4    0    0  0.77856068204E+01 -0.46905186856E+01 -0.14810224313E+02  0.17376978551E+02  0.51100000000E-03 0. -1.
        -11    1    4    4    0    0 -0.43849619452E+01 -0.49486658521E+01 -0.74102445927E+01  0.99312088973E+01  0.51100000000E-03 0.  1.
         12    1    4    4    0    0 -0.25938793801E+02  0.42886644747E+01 -0.64008879347E+01  0.27058917813E+02  0.00000000000E+00 0. -1.
</event>
<event>
 8    1  0.1253488E-006  0.9118800E+02  0.7816164E-02  0.1184000E+00
        -11   -1    0    0    0    0  0.00000000000E+00  0.00000000000E+00  0.45593999997E+02  0.45594000000E+02  0.51100000000E-03 0.  1.
         11   -1    0    0    0    0 -0.00000000000E+00 -0.00000000000E+00 -0.45593999997E+02  0.45594000000E+02  0.51100000000E-03 0. -1.
         23    2    1    2    0    0  0.00000000000E+00  0.17763568394E-14 -0.35527136788E-14  0.91188000000E+02  0.91188000000E+02 0.  0.
    9900012    2    3    3    0    0  0.27337512785E+02 -0.10908343940E+02  0.22123477271E+02  0.54367084485E+02  0.40000000701E+02 0.  0.
         12    1    3    3    0    0 -0.27337512785E+02  0.10908343940E+02 -0.22123477271E+02  0.36820915515E+02  0.00000000000E+00 0. -1.
         11    1    4    4    0    0  0.18489112364E+02 -0.15417637075E+02 -0.85471325548E+00  0.24089029536E+02  0.51100000000E-03 0. -1.
        -11    1    4    4    0    0  0.97979785367E+01  0.99612765096E+01  0.14358885067E+02  0.20035094054E+02  0.51100000000E-03 0.  1.
         12    1    4    4    0    0 -0.94957811528E+00 -0.54519833745E+01  0.86193054590E+01  0.10242960896E+02  0.00000000000E+00 0. -1.
</event>
<event>
 8    1  0.1253488E-006  0.9118800E+02  0.7816164E-02  0.1184000E+00
        -11   -1    0    0    0    0  0.00000000000E+00  0.00000000000E+00  0.45593999997E+02  0.45594000000E+02  0.51100000000E-03 0.  1.
         11   -1    0    0    0    0 -0.00000000000E+00 -0.00000000000E+00 -0.45593999997E+02  0.45594000000E+02  0.51100000000E-03 0. -1.
         23    2    1    2    0    0  0.71054273576E-14 -0.35527136788E-14  0.00000000000E+00  0.91188000000E+02  0.91188000000E+02 0.  0.
    9900012    2    3    3    0    0 -0.29999589550E+02  0.16044668628E+02 -0.14084570474E+02  0.54367056367E+02  0.39999936601E+02 0.  0.
        -12    1    3    3    0    0  0.29999589550E+02 -0.16044668628E+02  0.14084570474E+02  0.36820943633E+02  0.00000000000E+00 0.  1.
         11    1    4    4    0    0  0.41918827584E+01 -0.55307271239E+01 -0.90800038838E+01  0.11428354841E+02  0.51100000000E-03 0.  1.
        -11    1    4    4    0    0 -0.20334599847E+02  0.81884389210E+01  0.29014469604E+01  0.22112550229E+02  0.51100000000E-03 0. -1.
        -12    1    4    4    0    0 -0.13856872461E+02  0.13386956831E+02 -0.79060135503E+01  0.20826151297E+02  0.00000000000E+00 0.  1.
</event>
<event>
 8    1  0.1253488E-006  0.9118800E+02  0.7816164E-02  0.1184000E+00
        -11   -1    0    0    0    0  0.00000000000E+00  0.00000000000E+00  0.45593999997E+02  0.45594000000E+02  0.51100000000E-03 0. -1.
         11   -1    0    0    0    0 -0.00000000000E+00 -0.00000000000E+00 -0.45593999997E+02  0.45594000000E+02  0.51100000000E-03 0.  1.
         23    2    1    2    0    0 -0.35527136788E-14  0.00000000000E+00  0.35527136788E-14  0.91188000000E+02  0.91188000000E+02 0.  0.
    9900012    2    3    3    0    0 -0.17716863014E+02 -0.16279312321E+02  0.27872509999E+02  0.54367081240E+02  0.39999993302E+02 0.  0.
        -12    1    3    3    0    0  0.17716863014E+02  0.16279312321E+02 -0.27872509999E+02  0.36820918760E+02  0.00000000000E+00 0.  1.
         11    1    4    4    0    0 -0.74921045119E+01 -0.11834019584E+02  0.15063615533E+02  0.20569106999E+02  0.51100000000E-03 0. -1.
        -11    1    4    4    0    0 -0.19022848696E+02 -0.90331406261E+01  0.64969778508E+01  0.22038083481E+02  0.51100000000E-03 0.  1.
        -12    1    4    4    0    0  0.87980901935E+01  0.45878478897E+01  0.63119166148E+01  0.11759890759E+02  0.00000000000E+00 0.  1.
</event>
<event>
 8    1  0.1253488E-006  0.9118800E+02  0.7816164E-02  0.1184000E+00
        -11   -1    0    0    0    0  0.00000000000E+00  0.00000000000E+00  0.45593999997E+02  0.45594000000E+02  0.51100000000E-03 0. -1.
         11   -1    0    0    0    0 -0.00000000000E+00 -0.00000000000E+00 -0.45593999997E+02  0.45594000000E+02  0.51100000000E-03 0.  1.
         23    2    1    2    0    0  0.17763568394E-14  0.00000000000E+00  0.35527136788E-14  0.91188000000E+02  0.91188000000E+02 0.  0.
    9900012    2    3    3    0    0 -0.74854026254E+01  0.32030833022E+02 -0.16546142088E+02  0.54367077489E+02  0.39999984751E+02 0.  0.
         12    1    3    3    0    0  0.74854026254E+01 -0.32030833022E+02  0.16546142088E+02  0.36820922511E+02  0.00000000000E+00 0. -1.
         11    1    4    4    0    0  0.10186155023E+02  0.14316082970E+02 -0.58390819373E+01  0.18514936237E+02  0.51100000000E-03 0. -1.
        -11    1    4    4    0    0 -0.22007553408E+02  0.18939181661E+02 -0.66445038357E+01  0.29785473648E+02  0.51100000000E-03 0.  1.
        -12    1    4    4    0    0  0.43359957596E+01 -0.12244316079E+01 -0.40625563153E+01  0.60666676029E+01  0.00000000000E+00 0.  1.
</event>
<event>
 8    1  0.1253488E-006  0.9118800E+02  0.7816164E-02  0.1184000E+00
        -11   -1    0    0    0    0  0.00000000000E+00  0.00000000000E+00  0.45593999997E+02  0.45594000000E+02  0.51100000000E-03 0.  1.
         11   -1    0    0    0    0 -0.00000000000E+00 -0.00000000000E+00 -0.45593999997E+02  0.45594000000E+02  0.51100000000E-03 0. -1.
         23    2    1    2    0    0  0.00000000000E+00  0.44408920985E-15  0.00000000000E+00  0.91188000000E+02  0.91188000000E+02 0.  0.
    9900012    2    3    3    0    0 -0.35807032873E+02  0.23189719856E+01  0.82620668766E+01  0.54367041521E+02  0.39999902755E+02 0.  0.
         12    1    3    3    0    0  0.35807032873E+02 -0.23189719856E+01 -0.82620668766E+01  0.36820958479E+02  0.00000000000E+00 0. -1.
         11    1    4    4    0    0 -0.28820289836E+02 -0.71754263037E+01 -0.12008576134E+01  0.29724365563E+02  0.51100000000E-03 0. -1.
        -11    1    4    4    0    0 -0.11248937930E+02  0.55843495441E+01 -0.10926800394E+01  0.12606249018E+02  0.51100000000E-03 0.  1.
         12    1    4    4    0    0  0.42621948926E+01  0.39100487452E+01  0.10555604529E+02  0.12036426940E+02  0.00000000000E+00 0. -1.
</event>
<event>
 8    1  0.1253488E-006  0.9118800E+02  0.7816164E-02  0.1184000E+00
        -11   -1    0    0    0    0  0.00000000000E+00  0.00000000000E+00  0.45593999997E+02  0.45594000000E+02  0.51100000000E-03 0.  1.
         11   -1    0    0    0    0 -0.00000000000E+00 -0.00000000000E+00 -0.45593999997E+02  0.45594000000E+02  0.51100000000E-03 0. -1.
         23    2    1    2    0    0  0.00000000000E+00  0.00000000000E+00  0.00000000000E+00  0.91188000000E+02  0.91188000000E+02 0.  0.
    9900012    2    3    3    0    0  0.23633934326E+02 -0.18445364756E+02  0.21377211164E+02  0.54367088960E+02  0.40000010901E+02 0.  0.
        -12    1    3    3    0    0 -0.23633934326E+02  0.18445364756E+02 -0.21377211164E+02  0.36820911040E+02  0.00000000000E+00 0.  1.
         11    1    4    4    0    0  0.15406632072E+02 -0.24466972767E+02  0.18324672829E+02  0.34231428581E+02  0.51100000000E-03 0. -1.
        -11    1    4    4    0    0  0.35172879310E+01  0.82801797936E+01  0.86495064663E+01  0.12479849926E+02  0.51100000000E-03 0.  1.
         12    1    4    4    0    0  0.47100143231E+01 -0.22585717830E+01 -0.55969681310E+01  0.76558104524E+01  0.00000000000E+00 0. -1.
</event>
<event>
 8    1  0.1253488E-006  0.9118800E+02  0.7816164E-02  0.1184000E+00
        -11   -1    0    0    0    0  0.00000000000E+00  0.00000000000E+00  0.45593999997E+02  0.45594000000E+02  0.51100000000E-03 0.  1.
         11   -1    0    0    0    0 -0.00000000000E+00 -0.00000000000E+00 -0.45593999997E+02  0.45594000000E+02  0.51100000000E-03 0. -1.
         23    2    1    2    0    0  0.00000000000E+00  0.00000000000E+00  0.00000000000E+00  0.91188000000E+02  0.91188000000E+02 0.  0.
    9900012    2    3    3    0    0 -0.17550211876E+02  0.95089907160E+01 -0.30941065193E+02  0.54367077190E+02  0.39999984070E+02 0.  0.
        -12    1    3    3    0    0  0.17550211876E+02 -0.95089907160E+01  0.30941065193E+02  0.36820922810E+02  0.00000000000E+00 0.  1.
         11    1    4    4    0    0 -0.14817171691E+02  0.21546052085E+01 -0.12726624266E+02  0.19650899877E+02  0.51100000000E-03 0. -1.
        -11    1    4    4    0    0 -0.17672080104E+01 -0.87028763549E+01  0.17768219474E+01  0.90564991854E+01  0.51100000000E-03 0.  1.
         12    1    4    4    0    0 -0.96583217490E+00  0.16057261862E+02 -0.19991262874E+02  0.25659678128E+02  0.00000000000E+00 0. -1.
</event>
<event>
 8    1  0.1253488E-006  0.9118800E+02  0.7816164E-02  0.1184000E+00
        -11   -1    0    0    0    0  0.00000000000E+00  0.00000000000E+00  0.45593999997E+02  0.45594000000E+02  0.51100000000E-03 0. -1.
         11   -1    0    0    0    0 -0.00000000000E+00 -0.00000000000E+00 -0.45593999997E+02  0.45594000000E+02  0.51100000000E-03 0.  1.
         23    2    1    2    0    0  0.00000000000E+00  0.00000000000E+00  0.00000000000E+00  0.91188000000E+02  0.91188000000E+02 0.  0.
    9900012    2    3    3    0    0 -0.19752185035E+02 -0.22662799046E+02 -0.21260957646E+02  0.54367087541E+02  0.40000007667E+02 0.  0.
         12    1    3    3    0    0  0.19752185035E+02  0.22662799046E+02  0.21260957646E+02  0.36820912459E+02  0.00000000000E+00 0. -1.
         11    1    4    4    0    0 -0.89122109249E+00  0.49378260451E+01  0.29135325666E+01  0.58021610944E+01  0.51100000000E-03 0. -1.
        -11    1    4    4    0    0 -0.18030421535E+02 -0.25479090681E+02 -0.79886681626E+01  0.32219543478E+02  0.51100000000E-03 0.  1.
        -12    1    4    4    0    0 -0.83054240764E+00 -0.21215344106E+01 -0.16185822050E+02  0.16345382969E+02  0.00000000000E+00 0.  1.
</event>
<event>
 8    1  0.1253488E-006  0.9118800E+02  0.7816164E-02  0.1184000E+00
        -11   -1    0    0    0    0  0.00000000000E+00  0.00000000000E+00  0.45593999997E+02  0.45594000000E+02  0.51100000000E-03 0.  1.
         11   -1    0    0    0    0 -0.00000000000E+00 -0.00000000000E+00 -0.45593999997E+02  0.45594000000E+02  0.51100000000E-03 0. -1.
         23    2    1    2    0    0  0.00000000000E+00  0.00000000000E+00  0.35527136788E-14  0.91188000000E+02  0.91188000000E+02 0.  0.
    9900012    2    3    3    0    0 -0.18340237354E+02  0.60900932317E+01 -0.31342091082E+02  0.54367079110E+02  0.39999988447E+02 0.  0.
        -12    1    3    3    0    0  0.18340237354E+02 -0.60900932317E+01  0.31342091082E+02  0.36820920890E+02  0.00000000000E+00 0.  1.
         11    1    4    4    0    0 -0.16711926336E+02 -0.55577354584E+01 -0.48718841090E+01  0.18273263538E+02  0.51100000000E-03 0. -1.
        -11    1    4    4    0    0 -0.54824043954E+01  0.70615225046E+01  0.14620774577E-01  0.89399145447E+01  0.51100000000E-03 0.  1.
         12    1    4    4    0    0  0.38540933774E+01  0.45863061855E+01 -0.26484827747E+02  0.27153901027E+02  0.00000000000E+00 0. -1.
</event>
<event>
 8    1  0.1253488E-006  0.9118800E+02  0.7816164E-02  0.1184000E+00
        -11   -1    0    0    0    0  0.00000000000E+00  0.00000000000E+00  0.45593999997E+02  0.45594000000E+02  0.51100000000E-03 0. -1.
         11   -1    0    0    0    0 -0.00000000000E+00 -0.00000000000E+00 -0.45593999997E+02  0.45594000000E+02  0.51100000000E-03 0.  1.
         23    2    1    2    0    0  0.00000000000E+00  0.17763568394E-14  0.00000000000E+00  0.91188000000E+02  0.91188000000E+02 0.  0.
    9900012    2    3    3    0    0 -0.28437654620E+02 -0.13208536652E+02  0.19303208240E+02  0.54367088969E+02  0.40000010923E+02 0.  0.
        -12    1    3    3    0    0  0.28437654620E+02  0.13208536652E+02 -0.19303208240E+02  0.36820911031E+02  0.00000000000E+00 0.  1.
         11    1    4    4    0    0 -0.20758677314E+02 -0.90026381012E+01  0.25861676407E+02  0.34362719384E+02  0.51100000000E-03 0. -1.
        -11    1    4    4    0    0  0.50234167867E+01  0.10570123050E+01 -0.21491833625E+01  0.55651577347E+01  0.51100000000E-03 0.  1.
        -12    1    4    4    0    0 -0.12702394093E+02 -0.52629108560E+01 -0.44092848049E+01  0.14439211851E+02  0.00000000000E+00 0.  1.
</event>
<event>
 8    1  0.1253488E-006  0.9118800E+02  0.7816164E-02  0.1184000E+00
        -11   -1    0    0    0    0  0.00000000000E+00  0.00000000000E+00  0.45593999997E+02  0.45594000000E+02  0.51100000000E-03 0.  1.
         11   -1    0    0    0    0 -0.00000000000E+00 -0.00000000000E+00 -0.45593999997E+02  0.45594000000E+02  0.51100000000E-03 0. -1.
         23    2    1    2    0    0  0.35527136788E-14  0.17763568394E-14  0.35527136788E-14  0.91188000000E+02  0.91188000000E+02 0.  0.
    9900012    2    3    3    0    0  0.24628426742E+02 -0.12409020002E+02  0.24397485507E+02  0.54367075511E+02  0.39999980242E+02 0.  0.
         12    1    3    3    0    0 -0.24628426742E+02  0.12409020002E+02 -0.24397485507E+02  0.36820924489E+02  0.00000000000E+00 0. -1.
         11    1    4    4    0    0  0.70862372604E+01 -0.79477826324E+00  0.18870797286E+01  0.73761440578E+01  0.51100000000E-03 0. -1.
        -11    1    4    4    0    0  0.24473607471E+02 -0.16284946325E+02  0.83698441269E+01  0.30564869220E+02  0.51100000000E-03 0.  1.
        -12    1    4    4    0    0 -0.69314179897E+01  0.46707045864E+01  0.14140561651E+02  0.16426062233E+02  0.00000000000E+00 0.  1.
</event>
<event>
 8    1  0.1253488E-006  0.9118800E+02  0.7816164E-02  0.1184000E+00
        -11   -1    0    0    0    0  0.00000000000E+00  0.00000000000E+00  0.45593999997E+02  0.45594000000E+02  0.51100000000E-03 0. -1.
         11   -1    0    0    0    0 -0.00000000000E+00 -0.00000000000E+00 -0.45593999997E+02  0.45594000000E+02  0.51100000000E-03 0.  1.
         23    2    1    2    0    0  0.17763568394E-14 -0.35527136788E-14  0.71054273576E-14  0.91188000000E+02  0.91188000000E+02 0.  0.
    9900012    2    3    3    0    0 -0.13345826855E+02  0.22574952946E+02 -0.25846467377E+02  0.54367089218E+02  0.40000011489E+02 0.  0.
         12    1    3    3    0    0  0.13345826855E+02 -0.22574952946E+02  0.25846467377E+02  0.36820910782E+02  0.00000000000E+00 0. -1.
         11    1    4    4    0    0  0.31320521833E+01 -0.43815486588E+01  0.55364282934E+01  0.77239729438E+01  0.51100000000E-03 0. -1.
        -11    1    4    4    0    0 -0.18837483255E+00  0.41722057898E+01 -0.11665017267E+02  0.12390133749E+02  0.51100000000E-03 0.  1.
        -12    1    4    4    0    0 -0.16289504206E+02  0.22784295815E+02 -0.19717878404E+02  0.34252982524E+02  0.00000000000E+00 0.  1.
</event>
<event>
 8    1  0.1253488E-006  0.9118800E+02  0.7816164E-02  0.1184000E+00
        -11   -1    0    0    0    0  0.00000000000E+00  0.00000000000E+00  0.45593999997E+02  0.45594000000E+02  0.51100000000E-03 0.  1.
         11   -1    0    0    0    0 -0.00000000000E+00 -0.00000000000E+00 -0.45593999997E+02  0.45594000000E+02  0.51100000000E-03 0. -1.
         23    2    1    2    0    0  0.17763568394E-14  0.71054273576E-14  0.00000000000E+00  0.91188000000E+02  0.91188000000E+02 0.  0.
    9900012    2    3    3    0    0 -0.92052982752E+01 -0.34148674647E+02  0.10242591272E+02  0.54367079691E+02  0.39999989770E+02 0.  0.
         12    1    3    3    0    0  0.92052982752E+01  0.34148674647E+02 -0.10242591272E+02  0.36820920309E+02  0.00000000000E+00 0. -1.
         11    1    4    4    0    0  0.48512391380E+01 -0.93551812611E+01  0.65454867176E+01  0.12405536435E+02  0.51100000000E-03 0.  1.
        -11    1    4    4    0    0 -0.13480855201E+02  0.27736541476E+01 -0.16914561345E+01  0.13866781832E+02  0.51100000000E-03 0. -1.
         12    1    4    4    0    0 -0.57568221241E+00 -0.27567147533E+02  0.53885606889E+01  0.28094761423E+02  0.00000000000E+00 0. -1.
</event>
<event>
 8    1  0.1253488E-006  0.9118800E+02  0.7816164E-02  0.1184000E+00
        -11   -1    0    0    0    0  0.00000000000E+00  0.00000000000E+00  0.45593999997E+02  0.45594000000E+02  0.51100000000E-03 0. -1.
         11   -1    0    0    0    0 -0.00000000000E+00 -0.00000000000E+00 -0.45593999997E+02  0.45594000000E+02  0.51100000000E-03 0.  1.
         23    2    1    2    0    0  0.17763568394E-14 -0.35527136788E-14 -0.35527136788E-14  0.91188000000E+02  0.91188000000E+02 0.  0.
    9900012    2    3    3    0    0  0.10650350990E+02 -0.16503098823E+02 -0.31144779333E+02  0.54367088459E+02  0.40000009760E+02 0.  0.
         12    1    3    3    0    0 -0.10650350990E+02  0.16503098823E+02  0.31144779333E+02  0.36820911541E+02  0.00000000000E+00 0. -1.
         11    1    4    4    0    0  0.41687705816E+01 -0.22481393240E+02 -0.22415766302E+01  0.22974254204E+02  0.51100000000E-03 0. -1.
        -11    1    4    4    0    0  0.19475473960E+01  0.18651489570E+01 -0.10811747019E+01  0.29052814818E+01  0.51100000000E-03 0.  1.
        -12    1    4    4    0    0  0.45340330122E+01  0.41131454597E+01 -0.27822028001E+02  0.28487552774E+02  0.00000000000E+00 0.  1.
</event>
<event>
 8    1  0.1253488E-006  0.9118800E+02  0.7816164E-02  0.1184000E+00
        -11   -1    0    0    0    0  0.00000000000E+00  0.00000000000E+00  0.45593999997E+02  0.45594000000E+02  0.51100000000E-03 0. -1.
         11   -1    0    0    0    0 -0.00000000000E+00 -0.00000000000E+00 -0.45593999997E+02  0.45594000000E+02  0.51100000000E-03 0.  1.
         23    2    1    2    0    0  0.00000000000E+00  0.00000000000E+00  0.00000000000E+00  0.91188000000E+02  0.91188000000E+02 0.  0.
    9900012    2    3    3    0    0 -0.46208708817E+01 -0.13330510536E+02 -0.34010599656E+02  0.54367138416E+02  0.40000123646E+02 0.  0.
         12    1    3    3    0    0  0.46208708817E+01  0.13330510536E+02  0.34010599656E+02  0.36820861584E+02  0.00000000000E+00 0. -1.
         11    1    4    4    0    0 -0.54567105083E+01  0.10039362755E+02  0.79311701238E+00  0.11453974374E+02  0.51100000000E-03 0. -1.
        -11    1    4    4    0    0 -0.33948734776E+01 -0.89459676873E+01 -0.95134420413E+01  0.13493001279E+02  0.51100000000E-03 0.  1.
        -12    1    4    4    0    0  0.42307131042E+01 -0.14423905604E+02 -0.25290274627E+02  0.29420162762E+02  0.00000000000E+00 0.  1.
</event>
<event>
 8    1  0.1253488E-006  0.9118800E+02  0.7816164E-02  0.1184000E+00
        -11   -1    0    0    0    0  0.00000000000E+00  0.00000000000E+00  0.45593999997E+02  0.45594000000E+02  0.51100000000E-03 0. -1.
         11   -1    0    0    0    0 -0.00000000000E+00 -0.00000000000E+00 -0.45593999997E+02  0.45594000000E+02  0.51100000000E-03 0.  1.
         23    2    1    2    0    0  0.00000000000E+00  0.35527136788E-14 -0.17763568394E-14  0.91188000000E+02  0.91188000000E+02 0.  0.
    9900012    2    3    3    0    0 -0.10174953192E+02  0.31985508105E+02  0.15138624248E+02  0.54367077343E+02  0.39999984419E+02 0.  0.
        -12    1    3    3    0    0  0.10174953192E+02 -0.31985508105E+02 -0.15138624248E+02  0.36820922657E+02  0.00000000000E+00 0.  1.
         11    1    4    4    0    0 -0.51014034097E+00 -0.24788867691E+01  0.70101030900E+01  0.74529637310E+01  0.51100000000E-03 0. -1.
        -11    1    4    4    0    0 -0.19571159698E+02  0.18561223778E+02  0.14108251764E+01  0.27009993485E+02  0.51100000000E-03 0.  1.
         12    1    4    4    0    0  0.99063468475E+01  0.15903171095E+02  0.67176959819E+01  0.19904120128E+02  0.00000000000E+00 0. -1.
</event>
<event>
 8    1  0.1253488E-006  0.9118800E+02  0.7816164E-02  0.1184000E+00
        -11   -1    0    0    0    0  0.00000000000E+00  0.00000000000E+00  0.45593999997E+02  0.45594000000E+02  0.51100000000E-03 0. -1.
         11   -1    0    0    0    0 -0.00000000000E+00 -0.00000000000E+00 -0.45593999997E+02  0.45594000000E+02  0.51100000000E-03 0.  1.
         23    2    1    2    0    0  0.00000000000E+00  0.00000000000E+00  0.00000000000E+00  0.91188000000E+02  0.91188000000E+02 0.  0.
    9900012    2    3    3    0    0 -0.13276820923E+02 -0.21377049177E+02  0.26879911236E+02  0.54367057136E+02  0.39999938352E+02 0.  0.
        -12    1    3    3    0    0  0.13276820923E+02  0.21377049177E+02 -0.26879911236E+02  0.36820942864E+02  0.00000000000E+00 0.  1.
         11    1    4    4    0    0 -0.13809357160E+01 -0.18122062065E+02  0.22720537442E+02  0.29095342219E+02  0.51100000000E-03 0. -1.
        -11    1    4    4    0    0 -0.81326037771E+01 -0.59980141957E+01  0.12284454598E+02  0.15906704358E+02  0.51100000000E-03 0.  1.
        -12    1    4    4    0    0 -0.37632814301E+01  0.27430270829E+01 -0.81250808041E+01  0.93650105591E+01  0.00000000000E+00 0.  1.
</event>
<event>
 8    1  0.1253488E-006  0.9118800E+02  0.7816164E-02  0.1184000E+00
        -11   -1    0    0    0    0  0.00000000000E+00  0.00000000000E+00  0.45593999997E+02  0.45594000000E+02  0.51100000000E-03 0. -1.
         11   -1    0    0    0    0 -0.00000000000E+00 -0.00000000000E+00 -0.45593999997E+02  0.45594000000E+02  0.51100000000E-03 0.  1.
         23    2    1    2    0    0  0.00000000000E+00  0.35527136788E-14  0.35527136788E-14  0.91188000000E+02  0.91188000000E+02 0.  0.
    9900012    2    3    3    0    0  0.15643000483E+02 -0.26840554101E+02  0.19765178590E+02  0.54367067187E+02  0.39999961265E+02 0.  0.
        -12    1    3    3    0    0 -0.15643000483E+02  0.26840554101E+02 -0.19765178590E+02  0.36820932813E+02  0.00000000000E+00 0.  1.
         11    1    4    4    0    0  0.23416545544E+01 -0.85194562865E+01 -0.68914319697E-01  0.88356794258E+01  0.51100000000E-03 0. -1.
        -11    1    4    4    0    0 -0.68715481795E+01 -0.11819602217E+02 -0.33939541838E+01  0.14086876738E+02  0.51100000000E-03 0.  1.
        -12    1    4    4    0    0  0.20172894108E+02 -0.65014955971E+01  0.23228047094E+02  0.31444511023E+02  0.00000000000E+00 0.  1.
</event>
<event>
 8    1  0.1253488E-006  0.9118800E+02  0.7816164E-02  0.1184000E+00
        -11   -1    0    0    0    0  0.00000000000E+00  0.00000000000E+00  0.45593999997E+02  0.45594000000E+02  0.51100000000E-03 0. -1.
         11   -1    0    0    0    0 -0.00000000000E+00 -0.00000000000E+00 -0.45593999997E+02  0.45594000000E+02  0.51100000000E-03 0.  1.
         23    2    1    2    0    0 -0.71054273576E-14  0.00000000000E+00  0.13322676296E-14  0.91188000000E+02  0.91188000000E+02 0.  0.
    9900012    2    3    3    0    0 -0.35733304777E+02 -0.84261835900E+01 -0.28125400600E+01  0.54367081736E+02  0.39999994434E+02 0.  0.
         12    1    3    3    0    0  0.35733304777E+02  0.84261835900E+01  0.28125400600E+01  0.36820918264E+02  0.00000000000E+00 0. -1.
         11    1    4    4    0    0 -0.17455899154E+02 -0.82183381614E+01 -0.57861026912E+01  0.20142702947E+02  0.51100000000E-03 0. -1.
        -11    1    4    4    0    0 -0.18414229776E+02  0.37196271766E+01 -0.95674048948E+01  0.21082094802E+02  0.51100000000E-03 0.  1.
        -12    1    4    4    0    0  0.13682415197E+00 -0.39274726052E+01  0.12540967526E+02  0.13142283987E+02  0.00000000000E+00 0.  1.
</event>
<event>
 8    1  0.1253488E-006  0.9118800E+02  0.7816164E-02  0.1184000E+00
        -11   -1    0    0    0    0  0.00000000000E+00  0.00000000000E+00  0.45593999997E+02  0.45594000000E+02  0.51100000000E-03 0.  1.
         11   -1    0    0    0    0 -0.00000000000E+00 -0.00000000000E+00 -0.45593999997E+02  0.45594000000E+02  0.51100000000E-03 0. -1.
         23    2    1    2    0    0  0.00000000000E+00  0.00000000000E+00  0.00000000000E+00  0.91188000000E+02  0.91188000000E+02 0.  0.
    9900012    2    3    3    0    0 -0.20766687536E+02  0.28196987266E+02  0.11377956389E+02  0.54367037306E+02  0.39999893147E+02 0.  0.
         12    1    3    3    0    0  0.20766687536E+02 -0.28196987266E+02 -0.11377956389E+02  0.36820962694E+02  0.00000000000E+00 0. -1.
         11    1    4    4    0    0  0.34964562219E+01  0.18139205248E+02 -0.13844407830E+01  0.18524919695E+02  0.51100000000E-03 0. -1.
        -11    1    4    4    0    0 -0.11807363334E+02  0.99382769776E+01  0.16737566117E+02  0.22766846465E+02  0.51100000000E-03 0.  1.
        -12    1    4    4    0    0 -0.12455780423E+02  0.11950504056E+00 -0.39751689453E+01  0.13075271146E+02  0.00000000000E+00 0.  1.
</event>
<event>
 8    1  0.1253488E-006  0.9118800E+02  0.7816164E-02  0.1184000E+00
        -11   -1    0    0    0    0  0.00000000000E+00  0.00000000000E+00  0.45593999997E+02  0.45594000000E+02  0.51100000000E-03 0. -1.
         11   -1    0    0    0    0 -0.00000000000E+00 -0.00000000000E+00 -0.45593999997E+02  0.45594000000E+02  0.51100000000E-03 0.  1.
         23    2    1    2    0    0 -0.35527136788E-14  0.00000000000E+00  0.00000000000E+00  0.91188000000E+02  0.91188000000E+02 0.  0.
    9900012    2    3    3    0    0 -0.24913066391E+02  0.16621814990E+01 -0.27062073117E+02  0.54367088472E+02  0.40000009791E+02 0.  0.
         12    1    3    3    0    0  0.24913066391E+02 -0.16621814990E+01  0.27062073117E+02  0.36820911528E+02  0.00000000000E+00 0. -1.
         11    1    4    4    0    0 -0.12473101071E+02  0.40235511113E+01 -0.20276695543E+01  0.13261925123E+02  0.51100000000E-03 0. -1.
        -11    1    4    4    0    0  0.40537434056E+01 -0.78250711031E+00 -0.24162984394E+02  0.24513159080E+02  0.51100000000E-03 0.  1.
        -12    1    4    4    0    0 -0.16493708726E+02 -0.15788625020E+01 -0.87141916814E+00  0.16592004270E+02  0.00000000000E+00 0.  1.
</event>
<event>
 8    1  0.1253488E-006  0.9118800E+02  0.7816164E-02  0.1184000E+00
        -11   -1    0    0    0    0  0.00000000000E+00  0.00000000000E+00  0.45593999997E+02  0.45594000000E+02  0.51100000000E-03 0.  1.
         11   -1    0    0    0    0 -0.00000000000E+00 -0.00000000000E+00 -0.45593999997E+02  0.45594000000E+02  0.51100000000E-03 0. -1.
         23    2    1    2    0    0  0.00000000000E+00 -0.35527136788E-14  0.00000000000E+00  0.91188000000E+02  0.91188000000E+02 0.  0.
    9900012    2    3    3    0    0 -0.19732787728E+02 -0.27204407127E+02  0.15043917718E+02  0.54367052986E+02  0.39999928893E+02 0.  0.
         12    1    3    3    0    0  0.19732787728E+02  0.27204407127E+02 -0.15043917718E+02  0.36820947014E+02  0.00000000000E+00 0. -1.
         11    1    4    4    0    0  0.40013741655E+01  0.43448238889E+00  0.83885211110E+01  0.93041419190E+01  0.51100000000E-03 0. -1.
        -11    1    4    4    0    0 -0.26124354070E+02 -0.12295469336E+02  0.61800314137E+01  0.29527160891E+02  0.51100000000E-03 0.  1.
        -12    1    4    4    0    0  0.23901921764E+01 -0.15343420180E+02  0.47536519378E+00  0.15535750176E+02  0.00000000000E+00 0.  1.
</event>
<event>
 8    1  0.1253488E-006  0.9118800E+02  0.7816164E-02  0.1184000E+00
        -11   -1    0    0    0    0  0.00000000000E+00  0.00000000000E+00  0.45593999997E+02  0.45594000000E+02  0.51100000000E-03 0.  1.
         11   -1    0    0    0    0 -0.00000000000E+00 -0.00000000000E+00 -0.45593999997E+02  0.45594000000E+02  0.51100000000E-03 0. -1.
         23    2    1    2    0    0 -0.71054273576E-14 -0.55511151231E-16  0.00000000000E+00  0.91188000000E+02  0.91188000000E+02 0.  0.
    9900012    2    3    3    0    0  0.36694167849E+02 -0.25078534500E+00  0.30424641017E+01  0.54367062543E+02  0.39999950679E+02 0.  0.
         12    1    3    3    0    0 -0.36694167849E+02  0.25078534500E+00 -0.30424641017E+01  0.36820937457E+02  0.00000000000E+00 0. -1.
         11    1    4    4    0    0  0.28389298889E+02  0.29459418842E+01  0.39363943249E+01  0.28811908398E+02  0.51100000000E-03 0. -1.
        -11    1    4    4    0    0 -0.65342530566E+01  0.36968424763E+01 -0.45646220377E+01  0.87862894279E+01  0.51100000000E-03 0.  1.
        -12    1    4    4    0    0  0.14839122017E+02 -0.68935697055E+01  0.36706918144E+01  0.16768864717E+02  0.00000000000E+00 0.  1.
</event>
<event>
 8    1  0.1253488E-006  0.9118800E+02  0.7816164E-02  0.1184000E+00
        -11   -1    0    0    0    0  0.00000000000E+00  0.00000000000E+00  0.45593999997E+02  0.45594000000E+02  0.51100000000E-03 0.  1.
         11   -1    0    0    0    0 -0.00000000000E+00 -0.00000000000E+00 -0.45593999997E+02  0.45594000000E+02  0.51100000000E-03 0. -1.
         23    2    1    2    0    0  0.17763568394E-14  0.00000000000E+00 -0.17763568394E-14  0.91188000000E+02  0.91188000000E+02 0.  0.
    9900012    2    3    3    0    0 -0.11963689595E+02  0.33679672668E+02 -0.88504014050E+01  0.54367084411E+02  0.40000000532E+02 0.  0.
        -12    1    3    3    0    0  0.11963689595E+02 -0.33679672668E+02  0.88504014050E+01  0.36820915589E+02  0.00000000000E+00 0.  1.
         11    1    4    4    0    0 -0.63104859917E+01  0.18637891655E+02 -0.91267879143E+01  0.21690815952E+02  0.51100000000E-03 0. -1.
        -11    1    4    4    0    0 -0.15336503070E+02  0.87690817298E+01  0.73594233965E+01  0.19138083336E+02  0.51100000000E-03 0.  1.
         12    1    4    4    0    0  0.96832994667E+01  0.62726992838E+01 -0.70830368872E+01  0.13538185123E+02  0.00000000000E+00 0. -1.
</event>
<event>
 8    1  0.1253488E-006  0.9118800E+02  0.7816164E-02  0.1184000E+00
        -11   -1    0    0    0    0  0.00000000000E+00  0.00000000000E+00  0.45593999997E+02  0.45594000000E+02  0.51100000000E-03 0.  1.
         11   -1    0    0    0    0 -0.00000000000E+00 -0.00000000000E+00 -0.45593999997E+02  0.45594000000E+02  0.51100000000E-03 0. -1.
         23    2    1    2    0    0  0.00000000000E+00 -0.35527136788E-14  0.00000000000E+00  0.91188000000E+02  0.91188000000E+02 0.  0.
    9900012    2    3    3    0    0  0.23948185902E+02 -0.23220981299E+02  0.15590064637E+02  0.54367086162E+02  0.40000004524E+02 0.  0.
         12    1    3    3    0    0 -0.23948185902E+02  0.23220981299E+02 -0.15590064637E+02  0.36820913838E+02  0.00000000000E+00 0. -1.
         11    1    4    4    0    0  0.22610270340E+02 -0.72211532157E+01 -0.50003306338E+01  0.24256394730E+02  0.51100000000E-03 0. -1.
        -11    1    4    4    0    0  0.46306804214E+01 -0.20663852466E+01  0.12895428956E+02  0.13856595447E+02  0.51100000000E-03 0.  1.
        -12    1    4    4    0    0 -0.32927648593E+01 -0.13933442837E+02  0.76949663146E+01  0.16254095985E+02  0.00000000000E+00 0.  1.
</event>
<event>
 8    1  0.1253488E-006  0.9118800E+02  0.7816164E-02  0.1184000E+00
        -11   -1    0    0    0    0  0.00000000000E+00  0.00000000000E+00  0.45593999997E+02  0.45594000000E+02  0.51100000000E-03 0.  1.
         11   -1    0    0    0    0 -0.00000000000E+00 -0.00000000000E+00 -0.45593999997E+02  0.45594000000E+02  0.51100000000E-03 0. -1.
         23    2    1    2    0    0  0.00000000000E+00  0.00000000000E+00  0.00000000000E+00  0.91188000000E+02  0.91188000000E+02 0.  0.
    9900012    2    3    3    0    0  0.24576285088E+02  0.21517135951E+02  0.16994098370E+02  0.54367077854E+02  0.39999985585E+02 0.  0.
         12    1    3    3    0    0 -0.24576285088E+02 -0.21517135951E+02 -0.16994098370E+02  0.36820922146E+02  0.00000000000E+00 0. -1.
         11    1    4    4    0    0  0.15483840420E+02 -0.48127312922E+01 -0.33951133016E+01  0.16566185174E+02  0.51100000000E-03 0. -1.
        -11    1    4    4    0    0  0.25618704382E+01  0.96607942398E+01 -0.84084708283E+00  0.10030012441E+02  0.51100000000E-03 0.  1.
         12    1    4    4    0    0  0.65305742299E+01  0.16669073003E+02  0.21230058754E+02  0.27770880239E+02  0.00000000000E+00 0. -1.
</event>
<event>
 8    1  0.1253488E-006  0.9118800E+02  0.7816164E-02  0.1184000E+00
        -11   -1    0    0    0    0  0.00000000000E+00  0.00000000000E+00  0.45593999997E+02  0.45594000000E+02  0.51100000000E-03 0. -1.
         11   -1    0    0    0    0 -0.00000000000E+00 -0.00000000000E+00 -0.45593999997E+02  0.45594000000E+02  0.51100000000E-03 0.  1.
         23    2    1    2    0    0  0.00000000000E+00  0.15543122345E-14  0.71054273576E-14  0.91188000000E+02  0.91188000000E+02 0.  0.
    9900012    2    3    3    0    0  0.84729241712E+01 -0.52784367907E+00  0.35828918796E+02  0.54367075446E+02  0.39999980094E+02 0.  0.
        -12    1    3    3    0    0 -0.84729241712E+01  0.52784367907E+00 -0.35828918796E+02  0.36820924554E+02  0.00000000000E+00 0.  1.
         11    1    4    4    0    0  0.18861852657E+01  0.10265095703E+02  0.20783567769E+02  0.23256968292E+02  0.51100000000E-03 0. -1.
        -11    1    4    4    0    0  0.15138013340E+02 -0.92888270548E+01  0.64582447251E+01  0.18898430652E+02  0.51100000000E-03 0.  1.
         12    1    4    4    0    0 -0.85512744343E+01 -0.15041123276E+01  0.85871063011E+01  0.12211676501E+02  0.00000000000E+00 0. -1.
</event>
<event>
 8    1  0.1253488E-006  0.9118800E+02  0.7816164E-02  0.1184000E+00
        -11   -1    0    0    0    0  0.00000000000E+00  0.00000000000E+00  0.45593999997E+02  0.45594000000E+02  0.51100000000E-03 0.  1.
         11   -1    0    0    0    0 -0.00000000000E+00 -0.00000000000E+00 -0.45593999997E+02  0.45594000000E+02  0.51100000000E-03 0. -1.
         23    2    1    2    0    0  0.00000000000E+00  0.00000000000E+00  0.00000000000E+00  0.91188000000E+02  0.91188000000E+02 0.  0.
    9900012    2    3    3    0    0  0.17823677888E+02 -0.11768889843E+02  0.29993157343E+02  0.54367085440E+02  0.40000002878E+02 0.  0.
         12    1    3    3    0    0 -0.17823677888E+02  0.11768889843E+02 -0.29993157343E+02  0.36820914560E+02  0.00000000000E+00 0. -1.
         11    1    4    4    0    0  0.24606045478E+02 -0.99058284618E+01  0.54646021829E+01  0.27082185821E+02  0.51100000000E-03 0. -1.
        -11    1    4    4    0    0 -0.37550903915E+01  0.38904373889E+01  0.12285672679E+02  0.13422889419E+02  0.51100000000E-03 0.  1.
         12    1    4    4    0    0 -0.30272771981E+01 -0.57534987699E+01  0.12242882482E+02  0.13862010200E+02  0.00000000000E+00 0. -1.
</event>
<event>
 8    1  0.1253488E-006  0.9118800E+02  0.7816164E-02  0.1184000E+00
        -11   -1    0    0    0    0  0.00000000000E+00  0.00000000000E+00  0.45593999997E+02  0.45594000000E+02  0.51100000000E-03 0.  1.
         11   -1    0    0    0    0 -0.00000000000E+00 -0.00000000000E+00 -0.45593999997E+02  0.45594000000E+02  0.51100000000E-03 0. -1.
         23    2    1    2    0    0 -0.88817841970E-15  0.17763568394E-14 -0.71054273576E-14  0.91188000000E+02  0.91188000000E+02 0.  0.
    9900012    2    3    3    0    0 -0.51878020085E+01 -0.15312132009E+02 -0.33081769331E+02  0.54367107311E+02  0.40000052738E+02 0.  0.
        -12    1    3    3    0    0  0.51878020085E+01  0.15312132009E+02  0.33081769331E+02  0.36820892689E+02  0.00000000000E+00 0.  1.
         11    1    4    4    0    0  0.18533391301E+01  0.96871559762E-01 -0.19791563134E+02  0.19878385789E+02  0.51100000000E-03 0. -1.
        -11    1    4    4    0    0 -0.29117983081E+01  0.47333449743E+01 -0.12763343288E+02  0.13920706024E+02  0.51100000000E-03 0.  1.
         12    1    4    4    0    0 -0.41293428305E+01 -0.20142348543E+02 -0.52686290841E+00  0.20568015499E+02  0.00000000000E+00 0. -1.
</event>
<event>
 8    1  0.1253488E-006  0.9118800E+02  0.7816164E-02  0.1184000E+00
        -11   -1    0    0    0    0  0.00000000000E+00  0.00000000000E+00  0.45593999997E+02  0.45594000000E+02  0.51100000000E-03 0. -1.
         11   -1    0    0    0    0 -0.00000000000E+00 -0.00000000000E+00 -0.45593999997E+02  0.45594000000E+02  0.51100000000E-03 0.  1.
         23    2    1    2    0    0  0.00000000000E+00 -0.17763568394E-14  0.35527136788E-14  0.91188000000E+02  0.91188000000E+02 0.  0.
    9900012    2    3    3    0    0  0.11302915904E+02 -0.15387160326E+02 -0.31484248305E+02  0.54367102371E+02  0.40000041476E+02 0.  0.
         12    1    3    3    0    0 -0.11302915904E+02  0.15387160326E+02  0.31484248305E+02  0.36820897629E+02  0.00000000000E+00 0. -1.
         11    1    4    4    0    0  0.96572519722E+01 -0.15652162381E+02  0.18226327203E+01  0.18481739452E+02  0.51100000000E-03 0. -1.
        -11    1    4    4    0    0  0.48016802619E+01  0.44820386272E+01 -0.98143084994E+01  0.11809549321E+02  0.51100000000E-03 0.  1.
        -12    1    4    4    0    0 -0.31560163302E+01 -0.42170365719E+01 -0.23492572526E+02  0.24075813598E+02  0.00000000000E+00 0.  1.
</event>
<event>
 8    1  0.1253488E-006  0.9118800E+02  0.7816164E-02  0.1184000E+00
        -11   -1    0    0    0    0  0.00000000000E+00  0.00000000000E+00  0.45593999997E+02  0.45594000000E+02  0.51100000000E-03 0. -1.
         11   -1    0    0    0    0 -0.00000000000E+00 -0.00000000000E+00 -0.45593999997E+02  0.45594000000E+02  0.51100000000E-03 0.  1.
         23    2    1    2    0    0  0.35527136788E-14  0.00000000000E+00  0.35527136788E-14  0.91188000000E+02  0.91188000000E+02 0.  0.
    9900012    2    3    3    0    0 -0.30659895788E+02  0.96407574305E+01 -0.17966765246E+02  0.54367108281E+02  0.40000054949E+02 0.  0.
         12    1    3    3    0    0  0.30659895788E+02 -0.96407574305E+01  0.17966765246E+02  0.36820891719E+02  0.00000000000E+00 0. -1.
         11    1    4    4    0    0  0.55241391201E+01  0.48227366856E+01  0.12218118867E+01  0.74342267052E+01  0.51100000000E-03 0. -1.
        -11    1    4    4    0    0  0.27846165714E+01  0.53784598506E+00  0.77417034864E+00  0.29398482517E+01  0.51100000000E-03 0.  1.
        -12    1    4    4    0    0 -0.38968651479E+02  0.42801747598E+01 -0.19962747482E+02  0.43993033324E+02  0.00000000000E+00 0.  1.
</event>
<event>
 8    1  0.1253488E-006  0.9118800E+02  0.7816164E-02  0.1184000E+00
        -11   -1    0    0    0    0  0.00000000000E+00  0.00000000000E+00  0.45593999997E+02  0.45594000000E+02  0.51100000000E-03 0. -1.
         11   -1    0    0    0    0 -0.00000000000E+00 -0.00000000000E+00 -0.45593999997E+02  0.45594000000E+02  0.51100000000E-03 0.  1.
         23    2    1    2    0    0  0.00000000000E+00  0.35527136788E-14  0.35527136788E-14  0.91188000000E+02  0.91188000000E+02 0.  0.
    9900012    2    3    3    0    0 -0.17452357771E+02 -0.31236010717E+02  0.86894782928E+01  0.54367079448E+02  0.39999989218E+02 0.  0.
        -12    1    3    3    0    0  0.17452357771E+02  0.31236010717E+02 -0.86894782928E+01  0.36820920552E+02  0.00000000000E+00 0.  1.
         11    1    4    4    0    0 -0.28317507293E+01 -0.10335574718E+02 -0.97119747115E+01  0.14462550605E+02  0.51100000000E-03 0. -1.
        -11    1    4    4    0    0 -0.22774458582E+01 -0.37012043098E+01 -0.61219204683E+01  0.75075684120E+01  0.51100000000E-03 0.  1.
         12    1    4    4    0    0 -0.12343161183E+02 -0.17199231689E+02  0.24523373473E+02  0.32396960431E+02  0.00000000000E+00 0. -1.
</event>
<event>
 8    1  0.1253488E-006  0.9118800E+02  0.7816164E-02  0.1184000E+00
        -11   -1    0    0    0    0  0.00000000000E+00  0.00000000000E+00  0.45593999997E+02  0.45594000000E+02  0.51100000000E-03 0. -1.
         11   -1    0    0    0    0 -0.00000000000E+00 -0.00000000000E+00 -0.45593999997E+02  0.45594000000E+02  0.51100000000E-03 0.  1.
         23    2    1    2    0    0  0.00000000000E+00  0.00000000000E+00 -0.17763568394E-14  0.91188000000E+02  0.91188000000E+02 0.  0.
    9900012    2    3    3    0    0  0.33819681868E+02 -0.82366412070E+01  0.12006889472E+02  0.54367101928E+02  0.40000040465E+02 0.  0.
         12    1    3    3    0    0 -0.33819681868E+02  0.82366412070E+01 -0.12006889472E+02  0.36820898072E+02  0.00000000000E+00 0. -1.
         11    1    4    4    0    0  0.23790057447E+00 -0.16428377247E+02  0.90364570997E+01  0.18751152840E+02  0.51100000000E-03 0. -1.
        -11    1    4    4    0    0  0.39870210546E+01 -0.10081321853E+01 -0.13413255436E+01  0.43257163415E+01  0.51100000000E-03 0.  1.
         12    1    4    4    0    0  0.29594760239E+02  0.91998682252E+01  0.43117579160E+01  0.31290232746E+02  0.00000000000E+00 0. -1.
</event>
<event>
 8    1  0.1253488E-006  0.9118800E+02  0.7816164E-02  0.1184000E+00
        -11   -1    0    0    0    0  0.00000000000E+00  0.00000000000E+00  0.45593999997E+02  0.45594000000E+02  0.51100000000E-03 0. -1.
         11   -1    0    0    0    0 -0.00000000000E+00 -0.00000000000E+00 -0.45593999997E+02  0.45594000000E+02  0.51100000000E-03 0.  1.
         23    2    1    2    0    0  0.17763568394E-14  0.00000000000E+00  0.00000000000E+00  0.91188000000E+02  0.91188000000E+02 0.  0.
    9900012    2    3    3    0    0 -0.15307607522E+02  0.84095952761E+01  0.32415034440E+02  0.54367101063E+02  0.40000038494E+02 0.  0.
        -12    1    3    3    0    0  0.15307607522E+02 -0.84095952761E+01 -0.32415034440E+02  0.36820898937E+02  0.00000000000E+00 0.  1.
         11    1    4    4    0    0  0.60966376282E+01  0.55729679631E+01  0.21928110568E+01  0.85460741209E+01  0.51100000000E-03 0. -1.
        -11    1    4    4    0    0 -0.13837384098E+02  0.84123309344E+01  0.32356382131E+02  0.36182536883E+02  0.51100000000E-03 0.  1.
        -12    1    4    4    0    0 -0.75668610521E+01 -0.55757036214E+01 -0.21341587483E+01  0.96384900591E+01  0.00000000000E+00 0.  1.
</event>
<event>
 8    1  0.1253488E-006  0.9118800E+02  0.7816164E-02  0.1184000E+00
        -11   -1    0    0    0    0  0.00000000000E+00  0.00000000000E+00  0.45593999997E+02  0.45594000000E+02  0.51100000000E-03 0.  1.
         11   -1    0    0    0    0 -0.00000000000E+00 -0.00000000000E+00 -0.45593999997E+02  0.45594000000E+02  0.51100000000E-03 0. -1.
         23    2    1    2    0    0  0.53290705182E-14  0.71054273576E-14  0.17763568394E-14  0.91188000000E+02  0.91188000000E+02 0.  0.
    9900012    2    3    3    0    0  0.14065173721E+02  0.31582281528E+02  0.12669267916E+02  0.54367082469E+02  0.39999996105E+02 0.  0.
         12    1    3    3    0    0 -0.14065173721E+02 -0.31582281528E+02 -0.12669267916E+02  0.36820917531E+02  0.00000000000E+00 0. -1.
         11    1    4    4    0    0  0.30921524844E+01  0.52659799076E+01  0.15504452709E+02  0.16663733238E+02  0.51100000000E-03 0. -1.
        -11    1    4    4    0    0  0.18123169294E+02  0.16239128597E+02 -0.57579271519E+01  0.25006244984E+02  0.51100000000E-03 0.  1.
         12    1    4    4    0    0 -0.71501480570E+01  0.10077173023E+02  0.29227423590E+01  0.12697104247E+02  0.00000000000E+00 0. -1.
</event>
<event>
 8    1  0.1253488E-006  0.9118800E+02  0.7816164E-02  0.1184000E+00
        -11   -1    0    0    0    0  0.00000000000E+00  0.00000000000E+00  0.45593999997E+02  0.45594000000E+02  0.51100000000E-03 0.  1.
         11   -1    0    0    0    0 -0.00000000000E+00 -0.00000000000E+00 -0.45593999997E+02  0.45594000000E+02  0.51100000000E-03 0. -1.
         23    2    1    2    0    0  0.00000000000E+00  0.35527136788E-14  0.00000000000E+00  0.91188000000E+02  0.91188000000E+02 0.  0.
    9900012    2    3    3    0    0 -0.47373779564E+01 -0.26276503325E+02 -0.25355132585E+02  0.54367080330E+02  0.39999991229E+02 0.  0.
        -12    1    3    3    0    0  0.47373779564E+01  0.26276503325E+02  0.25355132585E+02  0.36820919670E+02  0.00000000000E+00 0.  1.
         11    1    4    4    0    0 -0.11980681423E+02 -0.48648775746E+01  0.33870200755E+01  0.13366961750E+02  0.51100000000E-03 0. -1.
        -11    1    4    4    0    0  0.73474675544E+01 -0.15503653222E+01 -0.21529856329E+01  0.78118025764E+01  0.51100000000E-03 0.  1.
         12    1    4    4    0    0 -0.10416408831E+00 -0.19861260428E+02 -0.26589167028E+02  0.33188316004E+02  0.00000000000E+00 0. -1.
</event>
<event>
 8    1  0.1253488E-006  0.9118800E+02  0.7816164E-02  0.1184000E+00
        -11   -1    0    0    0    0  0.00000000000E+00  0.00000000000E+00  0.45593999997E+02  0.45594000000E+02  0.51100000000E-03 0. -1.
         11   -1    0    0    0    0 -0.00000000000E+00 -0.00000000000E+00 -0.45593999997E+02  0.45594000000E+02  0.51100000000E-03 0.  1.
         23    2    1    2    0    0  0.71054273576E-14  0.00000000000E+00 -0.88817841970E-15  0.91188000000E+02  0.91188000000E+02 0.  0.
    9900012    2    3    3    0    0 -0.36425721983E+02  0.33654098622E+01  0.41976770550E+01  0.54367086130E+02  0.40000004452E+02 0.  0.
        -12    1    3    3    0    0  0.36425721983E+02 -0.33654098622E+01 -0.41976770550E+01  0.36820913870E+02  0.00000000000E+00 0.  1.
         11    1    4    4    0    0 -0.86610744544E+01 -0.97670657760E+00  0.27304077416E+01  0.91336352642E+01  0.51100000000E-03 0. -1.
        -11    1    4    4    0    0 -0.36365049996E+02  0.40403920147E+01  0.16471870478E+01  0.36625876840E+02  0.51100000000E-03 0.  1.
        -12    1    4    4    0    0  0.86004024674E+01  0.30172442509E+00 -0.17991773436E+00  0.86075740265E+01  0.00000000000E+00 0.  1.
</event>
<event>
 8    1  0.1253488E-006  0.9118800E+02  0.7816164E-02  0.1184000E+00
        -11   -1    0    0    0    0  0.00000000000E+00  0.00000000000E+00  0.45593999997E+02  0.45594000000E+02  0.51100000000E-03 0. -1.
         11   -1    0    0    0    0 -0.00000000000E+00 -0.00000000000E+00 -0.45593999997E+02  0.45594000000E+02  0.51100000000E-03 0.  1.
         23    2    1    2    0    0  0.53290705182E-14  0.00000000000E+00 -0.71054273576E-14  0.91188000000E+02  0.91188000000E+02 0.  0.
    9900012    2    3    3    0    0 -0.12931136836E+02 -0.10504143377E+02  0.32836395622E+02  0.54367079243E+02  0.39999988751E+02 0.  0.
        -12    1    3    3    0    0  0.12931136836E+02  0.10504143377E+02 -0.32836395622E+02  0.36820920757E+02  0.00000000000E+00 0.  1.
         11    1    4    4    0    0  0.30933339309E+01 -0.66352960320E+01 -0.48249077143E+00  0.73368021539E+01  0.51100000000E-03 0. -1.
        -11    1    4    4    0    0  0.21105533243E+01  0.89857572712E+01  0.35763651104E+01  0.98989219986E+01  0.51100000000E-03 0.  1.
         12    1    4    4    0    0 -0.18135024091E+02 -0.12854604616E+02  0.29742521283E+02  0.37131355091E+02  0.00000000000E+00 0. -1.
</event>
<event>
 8    1  0.1253488E-006  0.9118800E+02  0.7816164E-02  0.1184000E+00
        -11   -1    0    0    0    0  0.00000000000E+00  0.00000000000E+00  0.45593999997E+02  0.45594000000E+02  0.51100000000E-03 0.  1.
         11   -1    0    0    0    0 -0.00000000000E+00 -0.00000000000E+00 -0.45593999997E+02  0.45594000000E+02  0.51100000000E-03 0. -1.
         23    2    1    2    0    0  0.00000000000E+00  0.17763568394E-14  0.00000000000E+00  0.91188000000E+02  0.91188000000E+02 0.  0.
    9900012    2    3    3    0    0 -0.26974520258E+02 -0.14476793757E+02 -0.20459071016E+02  0.54367137878E+02  0.40000122419E+02 0.  0.
        -12    1    3    3    0    0  0.26974520258E+02  0.14476793757E+02  0.20459071016E+02  0.36820862122E+02  0.00000000000E+00 0.  1.
         11    1    4    4    0    0 -0.30180663319E+02 -0.76282248227E+01 -0.24794826858E+02  0.39797558864E+02  0.51100000000E-03 0. -1.
        -11    1    4    4    0    0  0.46812522623E+01 -0.47443970038E+01 -0.26144539806E+01  0.71595248132E+01  0.51100000000E-03 0.  1.
         12    1    4    4    0    0 -0.14751092012E+01 -0.21041719306E+01  0.69502098235E+01  0.74100542008E+01  0.00000000000E+00 0. -1.
</event>
<event>
 8    1  0.1253488E-006  0.9118800E+02  0.7816164E-02  0.1184000E+00
        -11   -1    0    0    0    0  0.00000000000E+00  0.00000000000E+00  0.45593999997E+02  0.45594000000E+02  0.51100000000E-03 0.  1.
         11   -1    0    0    0    0 -0.00000000000E+00 -0.00000000000E+00 -0.45593999997E+02  0.45594000000E+02  0.51100000000E-03 0. -1.
         23    2    1    2    0    0  0.00000000000E+00  0.17763568394E-14  0.35527136788E-14  0.91188000000E+02  0.91188000000E+02 0.  0.
    9900012    2    3    3    0    0  0.20893831961E+02 -0.45177866143E+01  0.29980303314E+02  0.54367065782E+02  0.39999958063E+02 0.  0.
         12    1    3    3    0    0 -0.20893831961E+02  0.45177866143E+01 -0.29980303314E+02  0.36820934218E+02  0.00000000000E+00 0. -1.
         11    1    4    4    0    0  0.40211121570E+01  0.71708561670E+01 -0.24451499354E+01  0.85772536172E+01  0.51100000000E-03 0. -1.
        -11    1    4    4    0    0  0.12452153572E+02  0.45979499941E+01  0.63128560853E+01  0.14698619831E+02  0.51100000000E-03 0.  1.
        -12    1    4    4    0    0  0.44205662312E+01 -0.16286592775E+02  0.26112597164E+02  0.31091192333E+02  0.00000000000E+00 0.  1.
</event>
<event>
 8    1  0.1253488E-006  0.9118800E+02  0.7816164E-02  0.1184000E+00
        -11   -1    0    0    0    0  0.00000000000E+00  0.00000000000E+00  0.45593999997E+02  0.45594000000E+02  0.51100000000E-03 0. -1.
         11   -1    0    0    0    0 -0.00000000000E+00 -0.00000000000E+00 -0.45593999997E+02  0.45594000000E+02  0.51100000000E-03 0.  1.
         23    2    1    2    0    0  0.00000000000E+00  0.00000000000E+00  0.00000000000E+00  0.91188000000E+02  0.91188000000E+02 0.  0.
    9900012    2    3    3    0    0 -0.25525799979E+02  0.36322656010E+01 -0.26287254776E+02  0.54367087713E+02  0.40000008060E+02 0.  0.
         12    1    3    3    0    0  0.25525799979E+02 -0.36322656010E+01  0.26287254776E+02  0.36820912287E+02  0.00000000000E+00 0. -1.
         11    1    4    4    0    0 -0.28536078140E+02 -0.63518007114E+01 -0.15404432324E+02  0.33044661647E+02  0.51100000000E-03 0.  1.
        -11    1    4    4    0    0 -0.57123178948E-01  0.10081557304E+01  0.37502887083E+01  0.38838520429E+01  0.51100000000E-03 0. -1.
         12    1    4    4    0    0  0.30674013396E+01  0.89759105821E+01 -0.14633111160E+02  0.17438574024E+02  0.00000000000E+00 0. -1.
</event>
<event>
 8    1  0.1253488E-006  0.9118800E+02  0.7816164E-02  0.1184000E+00
        -11   -1    0    0    0    0  0.00000000000E+00  0.00000000000E+00  0.45593999997E+02  0.45594000000E+02  0.51100000000E-03 0.  1.
         11   -1    0    0    0    0 -0.00000000000E+00 -0.00000000000E+00 -0.45593999997E+02  0.45594000000E+02  0.51100000000E-03 0. -1.
         23    2    1    2    0    0  0.00000000000E+00  0.00000000000E+00  0.00000000000E+00  0.91188000000E+02  0.91188000000E+02 0.  0.
    9900012    2    3    3    0    0 -0.31854951686E+02  0.15432054006E+02 -0.10144213351E+02  0.54366928556E+02  0.39999645228E+02 0.  0.
        -12    1    3    3    0    0  0.31854951686E+02 -0.15432054006E+02  0.10144213351E+02  0.36821071444E+02  0.00000000000E+00 0.  1.
         11    1    4    4    0    0 -0.27849784114E+02  0.91755063704E+01 -0.59801683088E+01  0.29925955384E+02  0.51100000000E-03 0. -1.
        -11    1    4    4    0    0 -0.40356457758E+01  0.21394168935E+01  0.93001736361E+01  0.10361311278E+02  0.51100000000E-03 0.  1.
         12    1    4    4    0    0  0.30478203995E-01  0.41171307422E+01 -0.13464218678E+02  0.14079661895E+02  0.00000000000E+00 0. -1.
</event>
<event>
 8    1  0.1253488E-006  0.9118800E+02  0.7816164E-02  0.1184000E+00
        -11   -1    0    0    0    0  0.00000000000E+00  0.00000000000E+00  0.45593999997E+02  0.45594000000E+02  0.51100000000E-03 0.  1.
         11   -1    0    0    0    0 -0.00000000000E+00 -0.00000000000E+00 -0.45593999997E+02  0.45594000000E+02  0.51100000000E-03 0. -1.
         23    2    1    2    0    0 -0.88817841970E-15  0.00000000000E+00  0.71054273576E-14  0.91188000000E+02  0.91188000000E+02 0.  0.
    9900012    2    3    3    0    0  0.62581556729E+01 -0.14845691028E+02  0.33109229174E+02  0.54367080525E+02  0.39999991673E+02 0.  0.
         12    1    3    3    0    0 -0.62581556729E+01  0.14845691028E+02 -0.33109229174E+02  0.36820919475E+02  0.00000000000E+00 0. -1.
         11    1    4    4    0    0  0.94957915327E+01 -0.49052819274E+01  0.11010745944E+02  0.15344978792E+02  0.51100000000E-03 0.  1.
        -11    1    4    4    0    0 -0.28802116743E+01  0.46999680325E+01 -0.54949161469E+01  0.77832783914E+01  0.51100000000E-03 0. -1.
        -12    1    4    4    0    0 -0.35742418549E+00 -0.14640377133E+02  0.27593399376E+02  0.31238823342E+02  0.00000000000E+00 0.  1.
</event>
<event>
 8    1  0.1253488E-006  0.9118800E+02  0.7816164E-02  0.1184000E+00
        -11   -1    0    0    0    0  0.00000000000E+00  0.00000000000E+00  0.45593999997E+02  0.45594000000E+02  0.51100000000E-03 0.  1.
         11   -1    0    0    0    0 -0.00000000000E+00 -0.00000000000E+00 -0.45593999997E+02  0.45594000000E+02  0.51100000000E-03 0. -1.
         23    2    1    2    0    0 -0.88817841970E-15  0.71054273576E-14  0.00000000000E+00  0.91188000000E+02  0.91188000000E+02 0.  0.
    9900012    2    3    3    0    0  0.30315664322E+01  0.22917809170E+02  0.28659461354E+02  0.54367067132E+02  0.39999961141E+02 0.  0.
         12    1    3    3    0    0 -0.30315664322E+01 -0.22917809170E+02 -0.28659461354E+02  0.36820932868E+02  0.00000000000E+00 0. -1.
         11    1    4    4    0    0 -0.22768489182E+01  0.10105107947E+01 -0.25192523834E+00  0.25037251545E+01  0.51100000000E-03 0. -1.
        -11    1    4    4    0    0 -0.11435503684E+02  0.11071329571E+02 -0.95995656417E+00  0.15945739238E+02  0.51100000000E-03 0.  1.
         12    1    4    4    0    0  0.16743919035E+02  0.10835968804E+02  0.29871343156E+02  0.35917602739E+02  0.00000000000E+00 0. -1.
</event>
<event>
 8    1  0.1253488E-006  0.9118800E+02  0.7816164E-02  0.1184000E+00
        -11   -1    0    0    0    0  0.00000000000E+00  0.00000000000E+00  0.45593999997E+02  0.45594000000E+02  0.51100000000E-03 0. -1.
         11   -1    0    0    0    0 -0.00000000000E+00 -0.00000000000E+00 -0.45593999997E+02  0.45594000000E+02  0.51100000000E-03 0.  1.
         23    2    1    2    0    0  0.00000000000E+00  0.00000000000E+00  0.00000000000E+00  0.91188000000E+02  0.91188000000E+02 0.  0.
    9900012    2    3    3    0    0 -0.18583414533E+02  0.12231020088E+02  0.29340064299E+02  0.54367074955E+02  0.39999978975E+02 0.  0.
        -12    1    3    3    0    0  0.18583414533E+02 -0.12231020088E+02 -0.29340064299E+02  0.36820925045E+02  0.00000000000E+00 0.  1.
         11    1    4    4    0    0  0.68384966283E+01  0.30298527097E+01  0.16788454566E+02  0.18379261426E+02  0.51100000000E-03 0. -1.
        -11    1    4    4    0    0 -0.11127179691E+02  0.13554928396E+02  0.19057296335E+01  0.17640351964E+02  0.51100000000E-03 0.  1.
        -12    1    4    4    0    0 -0.14294731470E+02 -0.43537610183E+01  0.10645880099E+02  0.18347461565E+02  0.00000000000E+00 0.  1.
</event>
<event>
 8    1  0.1253488E-006  0.9118800E+02  0.7816164E-02  0.1184000E+00
        -11   -1    0    0    0    0  0.00000000000E+00  0.00000000000E+00  0.45593999997E+02  0.45594000000E+02  0.51100000000E-03 0. -1.
         11   -1    0    0    0    0 -0.00000000000E+00 -0.00000000000E+00 -0.45593999997E+02  0.45594000000E+02  0.51100000000E-03 0.  1.
         23    2    1    2    0    0  0.00000000000E+00 -0.35527136788E-14  0.35527136788E-14  0.91188000000E+02  0.91188000000E+02 0.  0.
    9900012    2    3    3    0    0 -0.17364080271E+02 -0.24537772025E+02  0.21264207034E+02  0.54367081483E+02  0.39999993858E+02 0.  0.
        -12    1    3    3    0    0  0.17364080271E+02  0.24537772025E+02 -0.21264207034E+02  0.36820918517E+02  0.00000000000E+00 0.  1.
         11    1    4    4    0    0 -0.76457987850E+01  0.21194326750E+01  0.28010963923E+00  0.79390613801E+01  0.51100000000E-03 0. -1.
        -11    1    4    4    0    0 -0.10594996111E+02 -0.15137567133E+02 -0.39973962822E+01  0.18904471921E+02  0.51100000000E-03 0.  1.
         12    1    4    4    0    0  0.87671462560E+00 -0.11519637567E+02  0.24981493677E+02  0.27523548183E+02  0.00000000000E+00 0. -1.
</event>
<event>
 8    1  0.1253488E-006  0.9118800E+02  0.7816164E-02  0.1184000E+00
        -11   -1    0    0    0    0  0.00000000000E+00  0.00000000000E+00  0.45593999997E+02  0.45594000000E+02  0.51100000000E-03 0. -1.
         11   -1    0    0    0    0 -0.00000000000E+00 -0.00000000000E+00 -0.45593999997E+02  0.45594000000E+02  0.51100000000E-03 0.  1.
         23    2    1    2    0    0  0.00000000000E+00 -0.17763568394E-14  0.35527136788E-14  0.91188000000E+02  0.91188000000E+02 0.  0.
    9900012    2    3    3    0    0  0.12298641718E+02 -0.14351875665E+02  0.31599795273E+02  0.54367082243E+02  0.39999995588E+02 0.  0.
        -12    1    3    3    0    0 -0.12298641718E+02  0.14351875665E+02 -0.31599795273E+02  0.36820917757E+02  0.00000000000E+00 0.  1.
         11    1    4    4    0    0 -0.44065450514E+01  0.77375799090E+00  0.30362150928E+01  0.54069347203E+01  0.51100000000E-03 0. -1.
        -11    1    4    4    0    0  0.13820832188E+01 -0.95380416367E+00  0.28031154516E+02  0.28081408799E+02  0.51100000000E-03 0.  1.
        -12    1    4    4    0    0  0.15323103551E+02 -0.14171829492E+02  0.53242566426E+00  0.20878738723E+02  0.00000000000E+00 0.  1.
</event>
<event>
 8    1  0.1253488E-006  0.9118800E+02  0.7816164E-02  0.1184000E+00
        -11   -1    0    0    0    0  0.00000000000E+00  0.00000000000E+00  0.45593999997E+02  0.45594000000E+02  0.51100000000E-03 0. -1.
         11   -1    0    0    0    0 -0.00000000000E+00 -0.00000000000E+00 -0.45593999997E+02  0.45594000000E+02  0.51100000000E-03 0.  1.
         23    2    1    2    0    0 -0.17763568394E-14 -0.88817841970E-15  0.00000000000E+00  0.91188000000E+02  0.91188000000E+02 0.  0.
    9900012    2    3    3    0    0 -0.76698268325E+01 -0.62195795969E+01  0.35472067501E+02  0.54367122949E+02  0.40000088387E+02 0.  0.
        -12    1    3    3    0    0  0.76698268325E+01  0.62195795969E+01 -0.35472067501E+02  0.36820877051E+02  0.00000000000E+00 0.  1.
         11    1    4    4    0    0  0.46542301799E+01  0.39789166297E-01  0.13879890945E+02  0.14639495027E+02  0.51100000000E-03 0.  1.
        -11    1    4    4    0    0  0.78040534943E+01 -0.96915904875E+01  0.49712335390E+01  0.13399378354E+02  0.51100000000E-03 0. -1.
        -12    1    4    4    0    0 -0.20128110507E+02  0.34322217243E+01  0.16620943017E+02  0.26328249568E+02  0.00000000000E+00 0.  1.
</event>
<event>
 8    1  0.1253488E-006  0.9118800E+02  0.7816164E-02  0.1184000E+00
        -11   -1    0    0    0    0  0.00000000000E+00  0.00000000000E+00  0.45593999997E+02  0.45594000000E+02  0.51100000000E-03 0.  1.
         11   -1    0    0    0    0 -0.00000000000E+00 -0.00000000000E+00 -0.45593999997E+02  0.45594000000E+02  0.51100000000E-03 0. -1.
         23    2    1    2    0    0  0.00000000000E+00  0.00000000000E+00  0.71054273576E-14  0.91188000000E+02  0.91188000000E+02 0.  0.
    9900012    2    3    3    0    0  0.56762202247E+01  0.62504756563E+01 -0.35839804316E+02  0.54367088885E+02  0.40000010730E+02 0.  0.
        -12    1    3    3    0    0 -0.56762202247E+01 -0.62504756563E+01  0.35839804316E+02  0.36820911115E+02  0.00000000000E+00 0.  1.
         11    1    4    4    0    0  0.12052708849E+02  0.35039772699E+01 -0.15777150419E+02  0.20160955407E+02  0.51100000000E-03 0. -1.
        -11    1    4    4    0    0  0.15205936953E+01  0.13508031687E+02 -0.61312170188E+01  0.14912107417E+02  0.51100000000E-03 0.  1.
        -12    1    4    4    0    0 -0.78970823197E+01 -0.10761533300E+02 -0.13931436878E+02  0.19294026060E+02  0.00000000000E+00 0.  1.
</event>
<event>
 8    1  0.1253488E-006  0.9118800E+02  0.7816164E-02  0.1184000E+00
        -11   -1    0    0    0    0  0.00000000000E+00  0.00000000000E+00  0.45593999997E+02  0.45594000000E+02  0.51100000000E-03 0.  1.
         11   -1    0    0    0    0 -0.00000000000E+00 -0.00000000000E+00 -0.45593999997E+02  0.45594000000E+02  0.51100000000E-03 0. -1.
         23    2    1    2    0    0  0.00000000000E+00  0.17763568394E-14 -0.17763568394E-14  0.91188000000E+02  0.91188000000E+02 0.  0.
    9900012    2    3    3    0    0 -0.32137466871E+02 -0.11876814722E+02 -0.13487185941E+02  0.54367086249E+02  0.40000004723E+02 0.  0.
        -12    1    3    3    0    0  0.32137466871E+02  0.11876814722E+02  0.13487185941E+02  0.36820913751E+02  0.00000000000E+00 0.  1.
         11    1    4    4    0    0 -0.11476874353E+02 -0.17360723690E+02  0.53187403822E+01  0.21480278664E+02  0.51100000000E-03 0. -1.
        -11    1    4    4    0    0 -0.31287329307E+01  0.85507528415E+01 -0.52143906178E+01  0.10492578982E+02  0.51100000000E-03 0.  1.
         12    1    4    4    0    0 -0.17531859587E+02 -0.30668438728E+01 -0.13591535706E+02  0.22394228604E+02  0.00000000000E+00 0. -1.
</event>
<event>
 8    1  0.1253488E-006  0.9118800E+02  0.7816164E-02  0.1184000E+00
        -11   -1    0    0    0    0  0.00000000000E+00  0.00000000000E+00  0.45593999997E+02  0.45594000000E+02  0.51100000000E-03 0. -1.
         11   -1    0    0    0    0 -0.00000000000E+00 -0.00000000000E+00 -0.45593999997E+02  0.45594000000E+02  0.51100000000E-03 0.  1.
         23    2    1    2    0    0  0.00000000000E+00  0.35527136788E-14  0.00000000000E+00  0.91188000000E+02  0.91188000000E+02 0.  0.
    9900012    2    3    3    0    0 -0.28133686722E+02  0.74161425009E+01  0.22567156109E+02  0.54367081584E+02  0.39999994087E+02 0.  0.
        -12    1    3    3    0    0  0.28133686722E+02 -0.74161425009E+01 -0.22567156109E+02  0.36820918416E+02  0.00000000000E+00 0.  1.
         11    1    4    4    0    0 -0.95009272646E+01 -0.46899449261E+01  0.10224439039E+02  0.14724209867E+02  0.51100000000E-03 0. -1.
        -11    1    4    4    0    0 -0.27266576027E+01 -0.86607214621E+01 -0.26934240106E+01  0.94708653822E+01  0.51100000000E-03 0.  1.
         12    1    4    4    0    0 -0.15906101855E+02  0.20766808889E+02  0.15036141081E+02  0.30172006334E+02  0.00000000000E+00 0. -1.
</event>
<event>
 8    1  0.1253488E-006  0.9118800E+02  0.7816164E-02  0.1184000E+00
        -11   -1    0    0    0    0  0.00000000000E+00  0.00000000000E+00  0.45593999997E+02  0.45594000000E+02  0.51100000000E-03 0. -1.
         11   -1    0    0    0    0 -0.00000000000E+00 -0.00000000000E+00 -0.45593999997E+02  0.45594000000E+02  0.51100000000E-03 0.  1.
         23    2    1    2    0    0 -0.35527136788E-14 -0.71054273576E-14  0.13322676296E-14  0.91188000000E+02  0.91188000000E+02 0.  0.
    9900012    2    3    3    0    0  0.11388646644E+02 -0.34959347750E+02 -0.19810923940E+01  0.54367054947E+02  0.39999933363E+02 0.  0.
        -12    1    3    3    0    0 -0.11388646644E+02  0.34959347750E+02  0.19810923940E+01  0.36820945053E+02  0.00000000000E+00 0.  1.
         11    1    4    4    0    0 -0.56253880094E+01 -0.28738183577E+01 -0.91467632211E+01  0.11116073942E+02  0.51100000000E-03 0.  1.
        -11    1    4    4    0    0  0.18904780706E+02 -0.13406435829E+02  0.78351041569E+01  0.24464507201E+02  0.51100000000E-03 0. -1.
         12    1    4    4    0    0 -0.18907460526E+01 -0.18679093563E+02 -0.66943332976E+00  0.18786473803E+02  0.00000000000E+00 0. -1.
</event>
<event>
 8    1  0.1253488E-006  0.9118800E+02  0.7816164E-02  0.1184000E+00
        -11   -1    0    0    0    0  0.00000000000E+00  0.00000000000E+00  0.45593999997E+02  0.45594000000E+02  0.51100000000E-03 0. -1.
         11   -1    0    0    0    0 -0.00000000000E+00 -0.00000000000E+00 -0.45593999997E+02  0.45594000000E+02  0.51100000000E-03 0.  1.
         23    2    1    2    0    0 -0.35527136788E-14 -0.35527136788E-14  0.35527136788E-14  0.91188000000E+02  0.91188000000E+02 0.  0.
    9900012    2    3    3    0    0 -0.21065503700E+02 -0.27839453784E+02  0.11704222714E+02  0.54367089331E+02  0.40000011749E+02 0.  0.
        -12    1    3    3    0    0  0.21065503700E+02  0.27839453784E+02 -0.11704222714E+02  0.36820910669E+02  0.00000000000E+00 0.  1.
         11    1    4    4    0    0 -0.98554734198E+01 -0.56722496929E+01  0.48800584030E+01  0.12374156262E+02  0.51100000000E-03 0. -1.
        -11    1    4    4    0    0 -0.18084675772E+02 -0.43391643646E+01 -0.53308376913E+01  0.19346877678E+02  0.51100000000E-03 0.  1.
         12    1    4    4    0    0  0.68746454911E+01 -0.17828039726E+02  0.12155002003E+02  0.22646055391E+02  0.00000000000E+00 0. -1.
</event>
<event>
 8    1  0.1253488E-006  0.9118800E+02  0.7816164E-02  0.1184000E+00
        -11   -1    0    0    0    0  0.00000000000E+00  0.00000000000E+00  0.45593999997E+02  0.45594000000E+02  0.51100000000E-03 0. -1.
         11   -1    0    0    0    0 -0.00000000000E+00 -0.00000000000E+00 -0.45593999997E+02  0.45594000000E+02  0.51100000000E-03 0.  1.
         23    2    1    2    0    0  0.00000000000E+00 -0.35527136788E-14  0.00000000000E+00  0.91188000000E+02  0.91188000000E+02 0.  0.
    9900012    2    3    3    0    0 -0.29599943054E+02  0.20711323768E+02  0.71179294117E+01  0.54367075513E+02  0.39999980246E+02 0.  0.
        -12    1    3    3    0    0  0.29599943054E+02 -0.20711323768E+02 -0.71179294117E+01  0.36820924487E+02  0.00000000000E+00 0.  1.
         11    1    4    4    0    0 -0.23319171172E+02  0.20430105611E+02  0.37677619322E+01  0.31230897997E+02  0.51100000000E-03 0. -1.
        -11    1    4    4    0    0 -0.88684880022E+01  0.95548156753E+01  0.31089181047E+00  0.13039986043E+02  0.51100000000E-03 0.  1.
         12    1    4    4    0    0  0.25877161209E+01 -0.92735975185E+01  0.30392756690E+01  0.10096191472E+02  0.00000000000E+00 0. -1.
</event>
<event>
 8    1  0.1253488E-006  0.9118800E+02  0.7816164E-02  0.1184000E+00
        -11   -1    0    0    0    0  0.00000000000E+00  0.00000000000E+00  0.45593999997E+02  0.45594000000E+02  0.51100000000E-03 0.  1.
         11   -1    0    0    0    0 -0.00000000000E+00 -0.00000000000E+00 -0.45593999997E+02  0.45594000000E+02  0.51100000000E-03 0. -1.
         23    2    1    2    0    0  0.00000000000E+00 -0.17763568394E-14  0.00000000000E+00  0.91188000000E+02  0.91188000000E+02 0.  0.
    9900012    2    3    3    0    0 -0.92192929383E+01 -0.66736479517E+01  0.35017771799E+02  0.54367118954E+02  0.40000079279E+02 0.  0.
         12    1    3    3    0    0  0.92192929383E+01  0.66736479517E+01 -0.35017771799E+02  0.36820881046E+02  0.00000000000E+00 0. -1.
         11    1    4    4    0    0  0.29447523635E+01  0.35597419926E+01 -0.60009185711E+01  0.75732657087E+01  0.51100000000E-03 0. -1.
        -11    1    4    4    0    0 -0.85084199122E+01 -0.25299442836E+01  0.59088073367E+01  0.10663387449E+02  0.51100000000E-03 0.  1.
         12    1    4    4    0    0 -0.36556253896E+01 -0.77034456606E+01  0.35109883033E+02  0.36130465796E+02  0.00000000000E+00 0. -1.
</event>
<event>
 8    1  0.1253488E-006  0.9118800E+02  0.7816164E-02  0.1184000E+00
        -11   -1    0    0    0    0  0.00000000000E+00  0.00000000000E+00  0.45593999997E+02  0.45594000000E+02  0.51100000000E-03 0. -1.
         11   -1    0    0    0    0 -0.00000000000E+00 -0.00000000000E+00 -0.45593999997E+02  0.45594000000E+02  0.51100000000E-03 0.  1.
         23    2    1    2    0    0  0.35527136788E-14  0.35527136788E-14 -0.35527136788E-14  0.91188000000E+02  0.91188000000E+02 0.  0.
    9900012    2    3    3    0    0  0.21994136146E+02  0.20989566257E+02  0.20772006949E+02  0.54367079463E+02  0.39999989253E+02 0.  0.
        -12    1    3    3    0    0 -0.21994136146E+02 -0.20989566257E+02 -0.20772006949E+02  0.36820920537E+02  0.00000000000E+00 0.  1.
         11    1    4    4    0    0  0.12789224583E+02  0.14639775823E+02 -0.15260332081E+01  0.19499130216E+02  0.51100000000E-03 0. -1.
        -11    1    4    4    0    0  0.11540398477E+02 -0.54731206652E+01  0.48495023120E+01  0.13662119885E+02  0.51100000000E-03 0.  1.
         12    1    4    4    0    0 -0.23354869138E+01  0.11822911099E+02  0.17448537845E+02  0.21205829362E+02  0.00000000000E+00 0. -1.
</event>
<event>
 8    1  0.1253488E-006  0.9118800E+02  0.7816164E-02  0.1184000E+00
        -11   -1    0    0    0    0  0.00000000000E+00  0.00000000000E+00  0.45593999997E+02  0.45594000000E+02  0.51100000000E-03 0. -1.
         11   -1    0    0    0    0 -0.00000000000E+00 -0.00000000000E+00 -0.45593999997E+02  0.45594000000E+02  0.51100000000E-03 0.  1.
         23    2    1    2    0    0  0.35527136788E-14  0.00000000000E+00 -0.88817841970E-15  0.91188000000E+02  0.91188000000E+02 0.  0.
    9900012    2    3    3    0    0  0.20307011900E+02 -0.30409442015E+02  0.43213408878E+01  0.54367042883E+02  0.39999905859E+02 0.  0.
         12    1    3    3    0    0 -0.20307011900E+02  0.30409442015E+02 -0.43213408878E+01  0.36820957117E+02  0.00000000000E+00 0. -1.
         11    1    4    4    0    0  0.10181885836E+02 -0.63620924159E+01  0.55287887484E+01  0.13217962187E+02  0.51100000000E-03 0. -1.
        -11    1    4    4    0    0 -0.10866495532E+02 -0.32250910166E+01 -0.22821042537E+01  0.11562436478E+02  0.51100000000E-03 0.  1.
        -12    1    4    4    0    0  0.20991621596E+02 -0.20822258583E+02  0.10746563930E+01  0.29586644218E+02  0.00000000000E+00 0.  1.
</event>
<event>
 8    1  0.1253488E-006  0.9118800E+02  0.7816164E-02  0.1184000E+00
        -11   -1    0    0    0    0  0.00000000000E+00  0.00000000000E+00  0.45593999997E+02  0.45594000000E+02  0.51100000000E-03 0. -1.
         11   -1    0    0    0    0 -0.00000000000E+00 -0.00000000000E+00 -0.45593999997E+02  0.45594000000E+02  0.51100000000E-03 0.  1.
         23    2    1    2    0    0  0.00000000000E+00  0.00000000000E+00  0.00000000000E+00  0.91188000000E+02  0.91188000000E+02 0.  0.
    9900012    2    3    3    0    0 -0.10675729550E+02 -0.28217857422E+02  0.21108312441E+02  0.54367088374E+02  0.40000009565E+02 0.  0.
        -12    1    3    3    0    0  0.10675729550E+02  0.28217857422E+02 -0.21108312441E+02  0.36820911626E+02  0.00000000000E+00 0.  1.
         11    1    4    4    0    0 -0.17761033753E+02 -0.84804955300E+01  0.21857475510E+01  0.19802793162E+02  0.51100000000E-03 0. -1.
        -11    1    4    4    0    0  0.11800401025E+02 -0.74254145169E+01  0.36972833349E+01  0.14424151601E+02  0.51100000000E-03 0.  1.
         12    1    4    4    0    0 -0.47150968226E+01 -0.12311947375E+02  0.15225281555E+02  0.20140143610E+02  0.00000000000E+00 0. -1.
</event>
<event>
 8    1  0.1253488E-006  0.9118800E+02  0.7816164E-02  0.1184000E+00
        -11   -1    0    0    0    0  0.00000000000E+00  0.00000000000E+00  0.45593999997E+02  0.45594000000E+02  0.51100000000E-03 0. -1.
         11   -1    0    0    0    0 -0.00000000000E+00 -0.00000000000E+00 -0.45593999997E+02  0.45594000000E+02  0.51100000000E-03 0.  1.
         23    2    1    2    0    0 -0.35527136788E-14 -0.35527136788E-14  0.00000000000E+00  0.91188000000E+02  0.91188000000E+02 0.  0.
    9900012    2    3    3    0    0 -0.16801116758E+02  0.21476921228E+02 -0.24743441485E+02  0.54367169398E+02  0.40000194275E+02 0.  0.
         12    1    3    3    0    0  0.16801116758E+02 -0.21476921228E+02  0.24743441485E+02  0.36820830602E+02  0.00000000000E+00 0. -1.
         11    1    4    4    0    0 -0.12260398386E+02  0.69866558948E+01 -0.69695663519E+01  0.15738665272E+02  0.51100000000E-03 0. -1.
        -11    1    4    4    0    0 -0.17226613078E+02  0.36847241507E+01 -0.85411839910E+01  0.19577671323E+02  0.51100000000E-03 0.  1.
         12    1    4    4    0    0  0.12685894706E+02  0.10805541183E+02 -0.92326911417E+01  0.19050832802E+02  0.00000000000E+00 0. -1.
</event>
<event>
 8    1  0.1253488E-006  0.9118800E+02  0.7816164E-02  0.1184000E+00
        -11   -1    0    0    0    0  0.00000000000E+00  0.00000000000E+00  0.45593999997E+02  0.45594000000E+02  0.51100000000E-03 0. -1.
         11   -1    0    0    0    0 -0.00000000000E+00 -0.00000000000E+00 -0.45593999997E+02  0.45594000000E+02  0.51100000000E-03 0.  1.
         23    2    1    2    0    0  0.35527136788E-14  0.00000000000E+00 -0.35527136788E-14  0.91188000000E+02  0.91188000000E+02 0.  0.
    9900012    2    3    3    0    0 -0.23453119368E+02 -0.96882185441E+01 -0.26680879744E+02  0.54367085690E+02  0.40000003448E+02 0.  0.
         12    1    3    3    0    0  0.23453119368E+02  0.96882185441E+01  0.26680879744E+02  0.36820914310E+02  0.00000000000E+00 0. -1.
         11    1    4    4    0    0 -0.59771812189E+01 -0.73671518033E+01  0.20714148213E+01  0.97104263882E+01  0.51100000000E-03 0. -1.
        -11    1    4    4    0    0 -0.24789569974E+02 -0.49548290985E+01 -0.26361285612E+02  0.36523834551E+02  0.51100000000E-03 0.  1.
        -12    1    4    4    0    0  0.73136318245E+01  0.26337623578E+01 -0.23910089532E+01  0.81328247513E+01  0.00000000000E+00 0.  1.
</event>
<event>
 8    1  0.1253488E-006  0.9118800E+02  0.7816164E-02  0.1184000E+00
        -11   -1    0    0    0    0  0.00000000000E+00  0.00000000000E+00  0.45593999997E+02  0.45594000000E+02  0.51100000000E-03 0.  1.
         11   -1    0    0    0    0 -0.00000000000E+00 -0.00000000000E+00 -0.45593999997E+02  0.45594000000E+02  0.51100000000E-03 0. -1.
         23    2    1    2    0    0  0.35527136788E-14 -0.17763568394E-14  0.00000000000E+00  0.91188000000E+02  0.91188000000E+02 0.  0.
    9900012    2    3    3    0    0  0.29566870511E+02 -0.82354541238E+01 -0.20341114703E+02  0.54367034725E+02  0.39999887262E+02 0.  0.
        -12    1    3    3    0    0 -0.29566870511E+02  0.82354541238E+01  0.20341114703E+02  0.36820965275E+02  0.00000000000E+00 0.  1.
         11    1    4    4    0    0  0.25097157312E+02 -0.12710692447E+02 -0.19230835084E+02  0.34077177494E+02  0.51100000000E-03 0. -1.
        -11    1    4    4    0    0  0.32515072538E+01 -0.70939660233E+01  0.23555308051E+01  0.81513912307E+01  0.51100000000E-03 0.  1.
        -12    1    4    4    0    0  0.12182059456E+01  0.11569204347E+02 -0.34658104233E+01  0.12138466000E+02  0.00000000000E+00 0.  1.
</event>
<event>
 8    1  0.1253488E-006  0.9118800E+02  0.7816164E-02  0.1184000E+00
        -11   -1    0    0    0    0  0.00000000000E+00  0.00000000000E+00  0.45593999997E+02  0.45594000000E+02  0.51100000000E-03 0.  1.
         11   -1    0    0    0    0 -0.00000000000E+00 -0.00000000000E+00 -0.45593999997E+02  0.45594000000E+02  0.51100000000E-03 0. -1.
         23    2    1    2    0    0  0.00000000000E+00 -0.17763568394E-14  0.00000000000E+00  0.91188000000E+02  0.91188000000E+02 0.  0.
    9900012    2    3    3    0    0 -0.34037960392E+02  0.85786526952E+01  0.11117737113E+02  0.54367080562E+02  0.39999991758E+02 0.  0.
        -12    1    3    3    0    0  0.34037960392E+02 -0.85786526952E+01 -0.11117737113E+02  0.36820919438E+02  0.00000000000E+00 0.  1.
         11    1    4    4    0    0 -0.14666352583E+02  0.21112871393E+02  0.10362974856E+02  0.27717259689E+02  0.51100000000E-03 0. -1.
        -11    1    4    4    0    0  0.13939604767E+01  0.98789571339E+00  0.75931585275E+00  0.18696589465E+01  0.51100000000E-03 0.  1.
         12    1    4    4    0    0 -0.20765568286E+02 -0.13522114411E+02 -0.45535960310E-02  0.24780161927E+02  0.00000000000E+00 0. -1.
</event>
<event>
 8    1  0.1253488E-006  0.9118800E+02  0.7816164E-02  0.1184000E+00
        -11   -1    0    0    0    0  0.00000000000E+00  0.00000000000E+00  0.45593999997E+02  0.45594000000E+02  0.51100000000E-03 0.  1.
         11   -1    0    0    0    0 -0.00000000000E+00 -0.00000000000E+00 -0.45593999997E+02  0.45594000000E+02  0.51100000000E-03 0. -1.
         23    2    1    2    0    0  0.00000000000E+00  0.00000000000E+00  0.00000000000E+00  0.91188000000E+02  0.91188000000E+02 0.  0.
    9900012    2    3    3    0    0 -0.68527338116E+01  0.33046353059E+02  0.14722713817E+02  0.54367085925E+02  0.40000003983E+02 0.  0.
        -12    1    3    3    0    0  0.68527338116E+01 -0.33046353059E+02 -0.14722713817E+02  0.36820914075E+02  0.00000000000E+00 0.  1.
         11    1    4    4    0    0 -0.15881881200E+02  0.35208793288E+02  0.15320342784E+02  0.41552450933E+02  0.51100000000E-03 0. -1.
        -11    1    4    4    0    0  0.10846067587E+00  0.17919244393E+01  0.20292749419E+01  0.27093751984E+01  0.51100000000E-03 0.  1.
        -12    1    4    4    0    0  0.89206867128E+01 -0.39543646681E+01 -0.26269039084E+01  0.10105259794E+02  0.00000000000E+00 0.  1.
</event>
<event>
 8    1  0.1253488E-006  0.9118800E+02  0.7816164E-02  0.1184000E+00
        -11   -1    0    0    0    0  0.00000000000E+00  0.00000000000E+00  0.45593999997E+02  0.45594000000E+02  0.51100000000E-03 0.  1.
         11   -1    0    0    0    0 -0.00000000000E+00 -0.00000000000E+00 -0.45593999997E+02  0.45594000000E+02  0.51100000000E-03 0. -1.
         23    2    1    2    0    0  0.00000000000E+00 -0.17763568394E-14 -0.17763568394E-14  0.91188000000E+02  0.91188000000E+02 0.  0.
    9900012    2    3    3    0    0 -0.30177550166E+02  0.14999653890E+02 -0.14835947910E+02  0.54367088805E+02  0.40000010549E+02 0.  0.
        -12    1    3    3    0    0  0.30177550166E+02 -0.14999653890E+02  0.14835947910E+02  0.36820911195E+02  0.00000000000E+00 0.  1.
         11    1    4    4    0    0 -0.25123448967E+01 -0.29466756681E+01  0.26095029346E+01  0.46695053485E+01  0.51100000000E-03 0. -1.
        -11    1    4    4    0    0  0.71629325558E+01  0.49003970660E+01 -0.67623439403E+01  0.11002308396E+02  0.51100000000E-03 0.  1.
         12    1    4    4    0    0 -0.34828137825E+02  0.13045932492E+02 -0.10683106905E+02  0.38695275061E+02  0.00000000000E+00 0. -1.
</event>
<event>
 8    1  0.1253488E-006  0.9118800E+02  0.7816164E-02  0.1184000E+00
        -11   -1    0    0    0    0  0.00000000000E+00  0.00000000000E+00  0.45593999997E+02  0.45594000000E+02  0.51100000000E-03 0.  1.
         11   -1    0    0    0    0 -0.00000000000E+00 -0.00000000000E+00 -0.45593999997E+02  0.45594000000E+02  0.51100000000E-03 0. -1.
         23    2    1    2    0    0 -0.17763568394E-14  0.00000000000E+00  0.00000000000E+00  0.91188000000E+02  0.91188000000E+02 0.  0.
    9900012    2    3    3    0    0  0.13233875525E+02  0.20686605353E+02 -0.27435543026E+02  0.54367080354E+02  0.39999991282E+02 0.  0.
        -12    1    3    3    0    0 -0.13233875525E+02 -0.20686605353E+02  0.27435543026E+02  0.36820919646E+02  0.00000000000E+00 0.  1.
         11    1    4    4    0    0  0.18326608880E+00 -0.18646436603E+01  0.17607903137E+01  0.25711602885E+01  0.51100000000E-03 0.  1.
        -11    1    4    4    0    0 -0.97091672388E+01  0.16623379084E+02 -0.13775074314E+02  0.23671867972E+02  0.51100000000E-03 0. -1.
         12    1    4    4    0    0  0.22759776675E+02  0.59278699291E+01 -0.15421259026E+02  0.28124052093E+02  0.00000000000E+00 0. -1.
</event>
<event>
 8    1  0.1253488E-006  0.9118800E+02  0.7816164E-02  0.1184000E+00
        -11   -1    0    0    0    0  0.00000000000E+00  0.00000000000E+00  0.45593999997E+02  0.45594000000E+02  0.51100000000E-03 0. -1.
         11   -1    0    0    0    0 -0.00000000000E+00 -0.00000000000E+00 -0.45593999997E+02  0.45594000000E+02  0.51100000000E-03 0.  1.
         23    2    1    2    0    0  0.55511151231E-15  0.00000000000E+00  0.00000000000E+00  0.91188000000E+02  0.91188000000E+02 0.  0.
    9900012    2    3    3    0    0  0.80227805360E+00  0.30894569295E+02  0.20016536674E+02  0.54367084715E+02  0.40000001225E+02 0.  0.
         12    1    3    3    0    0 -0.80227805360E+00 -0.30894569295E+02 -0.20016536674E+02  0.36820915285E+02  0.00000000000E+00 0. -1.
         11    1    4    4    0    0  0.54806385449E+01  0.22805238693E+02  0.11205801923E+02  0.25993966756E+02  0.51100000000E-03 0. -1.
        -11    1    4    4    0    0 -0.42203066891E+01  0.16239926161E+02  0.59301568592E+00  0.16789814118E+02  0.51100000000E-03 0.  1.
        -12    1    4    4    0    0 -0.45805380213E+00 -0.81505955589E+01  0.82177190646E+01  0.11583303841E+02  0.00000000000E+00 0.  1.
</event>
<event>
 8    1  0.1253488E-006  0.9118800E+02  0.7816164E-02  0.1184000E+00
        -11   -1    0    0    0    0  0.00000000000E+00  0.00000000000E+00  0.45593999997E+02  0.45594000000E+02  0.51100000000E-03 0. -1.
         11   -1    0    0    0    0 -0.00000000000E+00 -0.00000000000E+00 -0.45593999997E+02  0.45594000000E+02  0.51100000000E-03 0.  1.
         23    2    1    2    0    0  0.00000000000E+00  0.35527136788E-14  0.00000000000E+00  0.91188000000E+02  0.91188000000E+02 0.  0.
    9900012    2    3    3    0    0 -0.27271785752E+02 -0.18337608079E+02  0.16606082201E+02  0.54367080209E+02  0.39999990953E+02 0.  0.
        -12    1    3    3    0    0  0.27271785752E+02  0.18337608079E+02 -0.16606082201E+02  0.36820919791E+02  0.00000000000E+00 0.  1.
         11    1    4    4    0    0  0.35341072089E+01 -0.12474445441E+02  0.64191165628E+01  0.14467437939E+02  0.51100000000E-03 0. -1.
        -11    1    4    4    0    0 -0.22989744956E+02 -0.73456085862E+01 -0.31810588165E+01  0.24343489357E+02  0.51100000000E-03 0.  1.
        -12    1    4    4    0    0 -0.78161480054E+01  0.14824459479E+01  0.13368024454E+02  0.15556152913E+02  0.00000000000E+00 0.  1.
</event>
<event>
 8    1  0.1253488E-006  0.9118800E+02  0.7816164E-02  0.1184000E+00
        -11   -1    0    0    0    0  0.00000000000E+00  0.00000000000E+00  0.45593999997E+02  0.45594000000E+02  0.51100000000E-03 0.  1.
         11   -1    0    0    0    0 -0.00000000000E+00 -0.00000000000E+00 -0.45593999997E+02  0.45594000000E+02  0.51100000000E-03 0. -1.
         23    2    1    2    0    0  0.00000000000E+00 -0.17763568394E-14  0.00000000000E+00  0.91188000000E+02  0.91188000000E+02 0.  0.
    9900012    2    3    3    0    0  0.62977486238E+01  0.12950550599E+02  0.33888077812E+02  0.54367079095E+02  0.39999988412E+02 0.  0.
         12    1    3    3    0    0 -0.62977486238E+01 -0.12950550599E+02 -0.33888077812E+02  0.36820920905E+02  0.00000000000E+00 0. -1.
         11    1    4    4    0    0  0.14758843866E+01 -0.87746578233E+01  0.26611490651E+02  0.28059655906E+02  0.51100000000E-03 0. -1.
        -11    1    4    4    0    0 -0.12116865562E+01  0.51057748858E+01  0.68402733663E+01  0.86212795733E+01  0.51100000000E-03 0.  1.
         12    1    4    4    0    0  0.60335507934E+01  0.16619433537E+02  0.43631379453E+00  0.17686143616E+02  0.00000000000E+00 0. -1.
</event>
<event>
 8    1  0.1253488E-006  0.9118800E+02  0.7816164E-02  0.1184000E+00
        -11   -1    0    0    0    0  0.00000000000E+00  0.00000000000E+00  0.45593999997E+02  0.45594000000E+02  0.51100000000E-03 0. -1.
         11   -1    0    0    0    0 -0.00000000000E+00 -0.00000000000E+00 -0.45593999997E+02  0.45594000000E+02  0.51100000000E-03 0.  1.
         23    2    1    2    0    0  0.00000000000E+00 -0.35527136788E-14  0.00000000000E+00  0.91188000000E+02  0.91188000000E+02 0.  0.
    9900012    2    3    3    0    0 -0.22087351700E+02  0.64996429445E+01 -0.28734706701E+02  0.54367084303E+02  0.40000000286E+02 0.  0.
         12    1    3    3    0    0  0.22087351700E+02 -0.64996429445E+01  0.28734706701E+02  0.36820915697E+02  0.00000000000E+00 0. -1.
         11    1    4    4    0    0 -0.72725487158E+01 -0.11594288417E+02 -0.17977761984E+02  0.22594632436E+02  0.51100000000E-03 0.  1.
        -11    1    4    4    0    0  0.20064264342E+01 -0.11961458131E+01  0.20904982264E+01  0.31347559614E+01  0.51100000000E-03 0. -1.
         12    1    4    4    0    0 -0.16821229419E+02  0.19290077175E+02 -0.12847442944E+02  0.28637695905E+02  0.00000000000E+00 0. -1.
</event>
<event>
 8    1  0.1253488E-006  0.9118800E+02  0.7816164E-02  0.1184000E+00
        -11   -1    0    0    0    0  0.00000000000E+00  0.00000000000E+00  0.45593999997E+02  0.45594000000E+02  0.51100000000E-03 0. -1.
         11   -1    0    0    0    0 -0.00000000000E+00 -0.00000000000E+00 -0.45593999997E+02  0.45594000000E+02  0.51100000000E-03 0.  1.
         23    2    1    2    0    0  0.88817841970E-15  0.00000000000E+00  0.00000000000E+00  0.91188000000E+02  0.91188000000E+02 0.  0.
    9900012    2    3    3    0    0  0.56861433648E+01 -0.20818680596E+02  0.29833374458E+02  0.54367083123E+02  0.39999997595E+02 0.  0.
        -12    1    3    3    0    0 -0.56861433648E+01  0.20818680596E+02 -0.29833374458E+02  0.36820916877E+02  0.00000000000E+00 0.  1.
         11    1    4    4    0    0  0.11635306463E+02 -0.48661812179E+01 -0.49855642609E+01  0.13561560654E+02  0.51100000000E-03 0. -1.
        -11    1    4    4    0    0 -0.16265982501E+01 -0.10766853940E+02  0.90254138994E+01  0.14143163081E+02  0.51100000000E-03 0.  1.
         12    1    4    4    0    0 -0.43225648476E+01 -0.51856454387E+01  0.25793524819E+02  0.26662359387E+02  0.00000000000E+00 0. -1.
</event>
<event>
 8    1  0.1253488E-006  0.9118800E+02  0.7816164E-02  0.1184000E+00
        -11   -1    0    0    0    0  0.00000000000E+00  0.00000000000E+00  0.45593999997E+02  0.45594000000E+02  0.51100000000E-03 0. -1.
         11   -1    0    0    0    0 -0.00000000000E+00 -0.00000000000E+00 -0.45593999997E+02  0.45594000000E+02  0.51100000000E-03 0.  1.
         23    2    1    2    0    0  0.00000000000E+00  0.35527136788E-14  0.00000000000E+00  0.91188000000E+02  0.91188000000E+02 0.  0.
    9900012    2    3    3    0    0  0.84015943552E+01  0.31504804987E+02 -0.17106718978E+02  0.54367090734E+02  0.40000014947E+02 0.  0.
        -12    1    3    3    0    0 -0.84015943552E+01 -0.31504804987E+02  0.17106718978E+02  0.36820909266E+02  0.00000000000E+00 0.  1.
         11    1    4    4    0    0  0.14828077498E+02 -0.10645357591E+01 -0.69543102223E+01  0.16412420589E+02  0.51100000000E-03 0. -1.
        -11    1    4    4    0    0 -0.39727848260E+01  0.29453746463E+02 -0.31234866211E+01  0.29884149125E+02  0.51100000000E-03 0.  1.
        -12    1    4    4    0    0 -0.24536983167E+01  0.31155942826E+01 -0.70289221343E+01  0.80705210199E+01  0.00000000000E+00 0.  1.
</event>
<event>
 8    1  0.1253488E-006  0.9118800E+02  0.7816164E-02  0.1184000E+00
        -11   -1    0    0    0    0  0.00000000000E+00  0.00000000000E+00  0.45593999997E+02  0.45594000000E+02  0.51100000000E-03 0.  1.
         11   -1    0    0    0    0 -0.00000000000E+00 -0.00000000000E+00 -0.45593999997E+02  0.45594000000E+02  0.51100000000E-03 0. -1.
         23    2    1    2    0    0  0.00000000000E+00  0.00000000000E+00  0.88817841970E-15  0.91188000000E+02  0.91188000000E+02 0.  0.
    9900012    2    3    3    0    0 -0.23301436113E+02 -0.28457096895E+02 -0.17389866596E+01  0.54366982045E+02  0.39999767168E+02 0.  0.
        -12    1    3    3    0    0  0.23301436113E+02  0.28457096895E+02  0.17389866596E+01  0.36821017955E+02  0.00000000000E+00 0.  1.
         11    1    4    4    0    0 -0.78885890150E+01 -0.24044532026E+02  0.26464416124E+01  0.25443525904E+02  0.51100000000E-03 0. -1.
        -11    1    4    4    0    0 -0.14547748693E+02  0.41595439156E+01  0.52334094651E+01  0.16010227123E+02  0.51100000000E-03 0.  1.
         12    1    4    4    0    0 -0.86509840458E+00 -0.85721087849E+01 -0.96188377371E+01  0.12913229018E+02  0.00000000000E+00 0. -1.
</event>
<event>
 8    1  0.1253488E-006  0.9118800E+02  0.7816164E-02  0.1184000E+00
        -11   -1    0    0    0    0  0.00000000000E+00  0.00000000000E+00  0.45593999997E+02  0.45594000000E+02  0.51100000000E-03 0.  1.
         11   -1    0    0    0    0 -0.00000000000E+00 -0.00000000000E+00 -0.45593999997E+02  0.45594000000E+02  0.51100000000E-03 0. -1.
         23    2    1    2    0    0  0.17763568394E-14  0.00000000000E+00  0.17763568394E-14  0.91188000000E+02  0.91188000000E+02 0.  0.
    9900012    2    3    3    0    0 -0.13351424265E+02 -0.31925013414E+02 -0.12582252603E+02  0.54367080783E+02  0.39999992262E+02 0.  0.
         12    1    3    3    0    0  0.13351424265E+02  0.31925013414E+02  0.12582252603E+02  0.36820919217E+02  0.00000000000E+00 0. -1.
         11    1    4    4    0    0  0.24154152308E+01 -0.69593969579E+01  0.97299637340E+01  0.12204082566E+02  0.51100000000E-03 0. -1.
        -11    1    4    4    0    0 -0.13393591723E+01 -0.71385948404E+00  0.35655682257E+01  0.38751458538E+01  0.51100000000E-03 0.  1.
        -12    1    4    4    0    0 -0.14427480324E+02 -0.24251756972E+02 -0.25877784563E+02  0.38287852363E+02  0.00000000000E+00 0.  1.
</event>
<event>
 8    1  0.1253488E-006  0.9118800E+02  0.7816164E-02  0.1184000E+00
        -11   -1    0    0    0    0  0.00000000000E+00  0.00000000000E+00  0.45593999997E+02  0.45594000000E+02  0.51100000000E-03 0. -1.
         11   -1    0    0    0    0 -0.00000000000E+00 -0.00000000000E+00 -0.45593999997E+02  0.45594000000E+02  0.51100000000E-03 0.  1.
         23    2    1    2    0    0  0.00000000000E+00  0.00000000000E+00  0.35527136788E-14  0.91188000000E+02  0.91188000000E+02 0.  0.
    9900012    2    3    3    0    0  0.57024490456E+01 -0.23386208582E+02  0.27862991956E+02  0.54367095643E+02  0.40000026137E+02 0.  0.
        -12    1    3    3    0    0 -0.57024490456E+01  0.23386208582E+02 -0.27862991956E+02  0.36820904357E+02  0.00000000000E+00 0.  1.
         11    1    4    4    0    0 -0.24376460611E+01 -0.12802464603E+02  0.29082712638E+02  0.31869254664E+02  0.51100000000E-03 0. -1.
        -11    1    4    4    0    0  0.11323703959E+02 -0.13347927338E+02  0.13570179504E+01  0.17556620790E+02  0.51100000000E-03 0.  1.
        -12    1    4    4    0    0 -0.31836088527E+01  0.27641833590E+01 -0.25767386325E+01  0.49412201883E+01  0.00000000000E+00 0.  1.
</event>
<event>
 8    1  0.1253488E-006  0.9118800E+02  0.7816164E-02  0.1184000E+00
        -11   -1    0    0    0    0  0.00000000000E+00  0.00000000000E+00  0.45593999997E+02  0.45594000000E+02  0.51100000000E-03 0.  1.
         11   -1    0    0    0    0 -0.00000000000E+00 -0.00000000000E+00 -0.45593999997E+02  0.45594000000E+02  0.51100000000E-03 0. -1.
         23    2    1    2    0    0 -0.35527136788E-14  0.35527136788E-14  0.00000000000E+00  0.91188000000E+02  0.91188000000E+02 0.  0.
    9900012    2    3    3    0    0 -0.25118223664E+02  0.26556231184E+02  0.44296483855E+01  0.54367077150E+02  0.39999983978E+02 0.  0.
        -12    1    3    3    0    0  0.25118223664E+02 -0.26556231184E+02 -0.44296483855E+01  0.36820922850E+02  0.00000000000E+00 0.  1.
         11    1    4    4    0    0 -0.45699574413E+01  0.20025618608E+02  0.56802256011E+01  0.21311378998E+02  0.51100000000E-03 0. -1.
        -11    1    4    4    0    0 -0.26332211408E+02  0.69320814916E+01 -0.12451518109E+01  0.27257834007E+02  0.51100000000E-03 0.  1.
        -12    1    4    4    0    0  0.57839451861E+01 -0.40146891506E+00 -0.54254045716E-02  0.57978641447E+01  0.00000000000E+00 0.  1.
</event>
<event>
 8    1  0.1253488E-006  0.9118800E+02  0.7816164E-02  0.1184000E+00
        -11   -1    0    0    0    0  0.00000000000E+00  0.00000000000E+00  0.45593999997E+02  0.45594000000E+02  0.51100000000E-03 0.  1.
         11   -1    0    0    0    0 -0.00000000000E+00 -0.00000000000E+00 -0.45593999997E+02  0.45594000000E+02  0.51100000000E-03 0. -1.
         23    2    1    2    0    0  0.00000000000E+00  0.71054273576E-14 -0.17763568394E-14  0.91188000000E+02  0.91188000000E+02 0.  0.
    9900012    2    3    3    0    0 -0.60604692918E+01  0.33099729392E+02 -0.14948524096E+02  0.54367085475E+02  0.40000002957E+02 0.  0.
        -12    1    3    3    0    0  0.60604692918E+01 -0.33099729392E+02  0.14948524096E+02  0.36820914525E+02  0.00000000000E+00 0.  1.
         11    1    4    4    0    0  0.12809700684E+01  0.16062424461E+02 -0.23298005099E+02  0.28327361433E+02  0.51100000000E-03 0. -1.
        -11    1    4    4    0    0  0.21901906199E+01  0.98616123215E+01 -0.19380518632E+01  0.10286125501E+02  0.51100000000E-03 0.  1.
        -12    1    4    4    0    0 -0.95316299801E+01  0.71756926094E+01  0.10287532867E+02  0.15753598541E+02  0.00000000000E+00 0.  1.
</event>
<event>
 8    1  0.1253488E-006  0.9118800E+02  0.7816164E-02  0.1184000E+00
        -11   -1    0    0    0    0  0.00000000000E+00  0.00000000000E+00  0.45593999997E+02  0.45594000000E+02  0.51100000000E-03 0.  1.
         11   -1    0    0    0    0 -0.00000000000E+00 -0.00000000000E+00 -0.45593999997E+02  0.45594000000E+02  0.51100000000E-03 0. -1.
         23    2    1    2    0    0  0.00000000000E+00  0.35527136788E-14  0.00000000000E+00  0.91188000000E+02  0.91188000000E+02 0.  0.
    9900012    2    3    3    0    0  0.22038276390E+02 -0.27522728317E+02 -0.10610978282E+02  0.54367094792E+02  0.40000024197E+02 0.  0.
         12    1    3    3    0    0 -0.22038276390E+02  0.27522728317E+02  0.10610978282E+02  0.36820905208E+02  0.00000000000E+00 0. -1.
         11    1    4    4    0    0  0.74637868811E+01  0.40987377927E+01 -0.48096343129E+01  0.97795883648E+01  0.51100000000E-03 0. -1.
        -11    1    4    4    0    0  0.15722518854E+02 -0.41061649118E+01  0.79494546753E+00  0.16269300168E+02  0.51100000000E-03 0.  1.
        -12    1    4    4    0    0 -0.11480293458E+01 -0.27515301198E+02 -0.65962894366E+01  0.28318206259E+02  0.00000000000E+00 0.  1.
</event>
<event>
 8    1  0.1253488E-006  0.9118800E+02  0.7816164E-02  0.1184000E+00
        -11   -1    0    0    0    0  0.00000000000E+00  0.00000000000E+00  0.45593999997E+02  0.45594000000E+02  0.51100000000E-03 0.  1.
         11   -1    0    0    0    0 -0.00000000000E+00 -0.00000000000E+00 -0.45593999997E+02  0.45594000000E+02  0.51100000000E-03 0. -1.
         23    2    1    2    0    0 -0.11102230246E-15  0.00000000000E+00 -0.35527136788E-14  0.91188000000E+02  0.91188000000E+02 0.  0.
    9900012    2    3    3    0    0  0.96378157816E+00  0.28903119281E+02 -0.22791638694E+02  0.54367109551E+02  0.40000057843E+02 0.  0.
        -12    1    3    3    0    0 -0.96378157816E+00 -0.28903119281E+02  0.22791638694E+02  0.36820890449E+02  0.00000000000E+00 0.  1.
         11    1    4    4    0    0  0.97509590702E+00 -0.75295581493E+01 -0.95070569459E+01  0.12166724702E+02  0.51100000000E-03 0.  1.
        -11    1    4    4    0    0 -0.14071492365E+01  0.18702257252E+02  0.18514065802E+01  0.18846278197E+02  0.51100000000E-03 0. -1.
        -12    1    4    4    0    0  0.13958349076E+01  0.17730420179E+02 -0.15135988328E+02  0.23354106651E+02  0.00000000000E+00 0.  1.
</event>
<event>
 8    1  0.1253488E-006  0.9118800E+02  0.7816164E-02  0.1184000E+00
        -11   -1    0    0    0    0  0.00000000000E+00  0.00000000000E+00  0.45593999997E+02  0.45594000000E+02  0.51100000000E-03 0.  1.
         11   -1    0    0    0    0 -0.00000000000E+00 -0.00000000000E+00 -0.45593999997E+02  0.45594000000E+02  0.51100000000E-03 0. -1.
         23    2    1    2    0    0 -0.17763568394E-14  0.35527136788E-14  0.00000000000E+00  0.91188000000E+02  0.91188000000E+02 0.  0.
    9900012    2    3    3    0    0  0.10192615497E+02  0.29706642786E+02  0.19219970296E+02  0.54367064454E+02  0.39999955037E+02 0.  0.
         12    1    3    3    0    0 -0.10192615497E+02 -0.29706642786E+02 -0.19219970296E+02  0.36820935546E+02  0.00000000000E+00 0. -1.
         11    1    4    4    0    0 -0.20488200539E+01  0.10409984349E+02 -0.22710887761E+01  0.10850036048E+02  0.51100000000E-03 0. -1.
        -11    1    4    4    0    0  0.19747975499E+02  0.18519311553E+02  0.23342445263E+02  0.35746568896E+02  0.51100000000E-03 0.  1.
        -12    1    4    4    0    0 -0.75065399485E+01  0.77734688505E+00 -0.18513861912E+01  0.77704595107E+01  0.00000000000E+00 0.  1.
</event>
<event>
 8    1  0.1253488E-006  0.9118800E+02  0.7816164E-02  0.1184000E+00
        -11   -1    0    0    0    0  0.00000000000E+00  0.00000000000E+00  0.45593999997E+02  0.45594000000E+02  0.51100000000E-03 0. -1.
         11   -1    0    0    0    0 -0.00000000000E+00 -0.00000000000E+00 -0.45593999997E+02  0.45594000000E+02  0.51100000000E-03 0.  1.
         23    2    1    2    0    0  0.00000000000E+00  0.00000000000E+00  0.00000000000E+00  0.91188000000E+02  0.91188000000E+02 0.  0.
    9900012    2    3    3    0    0 -0.11245579573E+02  0.33420888981E+02  0.10600067743E+02  0.54367077736E+02  0.39999985315E+02 0.  0.
        -12    1    3    3    0    0  0.11245579573E+02 -0.33420888981E+02 -0.10600067743E+02  0.36820922264E+02  0.00000000000E+00 0.  1.
         11    1    4    4    0    0 -0.11508790594E+02  0.23152446882E+02  0.65890408469E+00  0.25863530548E+02  0.51100000000E-03 0.  1.
        -11    1    4    4    0    0 -0.32592165359E+01 -0.76573341469E+01  0.18600565841E+01  0.85274304115E+01  0.51100000000E-03 0. -1.
         12    1    4    4    0    0  0.35224275571E+01  0.17925776246E+02  0.80811070737E+01  0.19976116776E+02  0.00000000000E+00 0. -1.
</event>
<event>
 8    1  0.1253488E-006  0.9118800E+02  0.7816164E-02  0.1184000E+00
        -11   -1    0    0    0    0  0.00000000000E+00  0.00000000000E+00  0.45593999997E+02  0.45594000000E+02  0.51100000000E-03 0.  1.
         11   -1    0    0    0    0 -0.00000000000E+00 -0.00000000000E+00 -0.45593999997E+02  0.45594000000E+02  0.51100000000E-03 0. -1.
         23    2    1    2    0    0  0.00000000000E+00  0.00000000000E+00 -0.35527136788E-14  0.91188000000E+02  0.91188000000E+02 0.  0.
    9900012    2    3    3    0    0  0.17161568405E+02  0.17984008165E+02 -0.27163130148E+02  0.54367087203E+02  0.40000006896E+02 0.  0.
        -12    1    3    3    0    0 -0.17161568405E+02 -0.17984008165E+02  0.27163130148E+02  0.36820912797E+02  0.00000000000E+00 0.  1.
         11    1    4    4    0    0 -0.42258158202E+01  0.47582097006E+01 -0.18105169858E+02  0.19191020160E+02  0.51100000000E-03 0. -1.
        -11    1    4    4    0    0  0.13845978395E+02 -0.43709441669E+01 -0.63248454655E+01  0.15837295888E+02  0.51100000000E-03 0.  1.
         12    1    4    4    0    0  0.75414058301E+01  0.17596742631E+02 -0.27331148238E+01  0.19338771155E+02  0.00000000000E+00 0. -1.
</event>
<event>
 8    1  0.1253488E-006  0.9118800E+02  0.7816164E-02  0.1184000E+00
        -11   -1    0    0    0    0  0.00000000000E+00  0.00000000000E+00  0.45593999997E+02  0.45594000000E+02  0.51100000000E-03 0.  1.
         11   -1    0    0    0    0 -0.00000000000E+00 -0.00000000000E+00 -0.45593999997E+02  0.45594000000E+02  0.51100000000E-03 0. -1.
         23    2    1    2    0    0  0.00000000000E+00  0.17763568394E-14  0.00000000000E+00  0.91188000000E+02  0.91188000000E+02 0.  0.
    9900012    2    3    3    0    0  0.34444685267E+02  0.73229003219E+01 -0.10757291145E+02  0.54367074902E+02  0.39999978854E+02 0.  0.
        -12    1    3    3    0    0 -0.34444685267E+02 -0.73229003219E+01  0.10757291145E+02  0.36820925098E+02  0.00000000000E+00 0.  1.
         11    1    4    4    0    0  0.35600913978E+02 -0.39850417717E+01 -0.11935967372E+02  0.37759408779E+02  0.51100000000E-03 0. -1.
        -11    1    4    4    0    0 -0.16982328556E+01  0.39804834852E+01  0.63059374769E+01  0.76480776233E+01  0.51100000000E-03 0.  1.
         12    1    4    4    0    0  0.54200414472E+00  0.73274586084E+01 -0.51272612508E+01  0.89595884997E+01  0.00000000000E+00 0. -1.
</event>
<event>
 8    1  0.1253488E-006  0.9118800E+02  0.7816164E-02  0.1184000E+00
        -11   -1    0    0    0    0  0.00000000000E+00  0.00000000000E+00  0.45593999997E+02  0.45594000000E+02  0.51100000000E-03 0. -1.
         11   -1    0    0    0    0 -0.00000000000E+00 -0.00000000000E+00 -0.45593999997E+02  0.45594000000E+02  0.51100000000E-03 0.  1.
         23    2    1    2    0    0  0.00000000000E+00  0.44408920985E-15  0.00000000000E+00  0.91188000000E+02  0.91188000000E+02 0.  0.
    9900012    2    3    3    0    0 -0.15241728620E+02 -0.30117561254E+01 -0.33382572154E+02  0.54367121549E+02  0.40000085195E+02 0.  0.
         12    1    3    3    0    0  0.15241728620E+02  0.30117561254E+01  0.33382572154E+02  0.36820878451E+02  0.00000000000E+00 0. -1.
         11    1    4    4    0    0 -0.34800699188E+01 -0.87993597654E+01 -0.54441844470E+01  0.10916902650E+02  0.51100000000E-03 0. -1.
        -11    1    4    4    0    0  0.74875496529E+01  0.97997488289E+01 -0.51865409868E+01  0.13379039001E+02  0.51100000000E-03 0.  1.
         12    1    4    4    0    0 -0.19249208354E+02 -0.40121451890E+01 -0.22751846720E+02  0.30071179898E+02  0.00000000000E+00 0. -1.
</event>
<event>
 8    1  0.1253488E-006  0.9118800E+02  0.7816164E-02  0.1184000E+00
        -11   -1    0    0    0    0  0.00000000000E+00  0.00000000000E+00  0.45593999997E+02  0.45594000000E+02  0.51100000000E-03 0. -1.
         11   -1    0    0    0    0 -0.00000000000E+00 -0.00000000000E+00 -0.45593999997E+02  0.45594000000E+02  0.51100000000E-03 0.  1.
         23    2    1    2    0    0  0.00000000000E+00  0.00000000000E+00  0.00000000000E+00  0.91188000000E+02  0.91188000000E+02 0.  0.
    9900012    2    3    3    0    0 -0.17814460776E+02  0.21557392086E+01  0.32152397908E+02  0.54367096758E+02  0.40000028680E+02 0.  0.
        -12    1    3    3    0    0  0.17814460776E+02 -0.21557392086E+01 -0.32152397908E+02  0.36820903242E+02  0.00000000000E+00 0.  1.
         11    1    4    4    0    0 -0.69199508344E+01 -0.43194186566E+00  0.20340735459E+01  0.72256313757E+01  0.51100000000E-03 0. -1.
        -11    1    4    4    0    0 -0.20378668022E+02 -0.11399211507E+01  0.65032736102E+01  0.21421533523E+02  0.51100000000E-03 0.  1.
        -12    1    4    4    0    0  0.94841580800E+01  0.37276022250E+01  0.23615050752E+02  0.25719931860E+02  0.00000000000E+00 0.  1.
</event>
<event>
 8    1  0.1253488E-006  0.9118800E+02  0.7816164E-02  0.1184000E+00
        -11   -1    0    0    0    0  0.00000000000E+00  0.00000000000E+00  0.45593999997E+02  0.45594000000E+02  0.51100000000E-03 0.  1.
         11   -1    0    0    0    0 -0.00000000000E+00 -0.00000000000E+00 -0.45593999997E+02  0.45594000000E+02  0.51100000000E-03 0. -1.
         23    2    1    2    0    0  0.00000000000E+00  0.00000000000E+00 -0.71054273576E-14  0.91188000000E+02  0.91188000000E+02 0.  0.
    9900012    2    3    3    0    0  0.16215013444E+02  0.73251750329E+01 -0.32236556288E+02  0.54367076443E+02  0.39999982368E+02 0.  0.
        -12    1    3    3    0    0 -0.16215013444E+02 -0.73251750329E+01  0.32236556288E+02  0.36820923557E+02  0.00000000000E+00 0.  1.
         11    1    4    4    0    0 -0.31624425449E+01  0.26539621296E+01 -0.11708221230E+01  0.42913147798E+01  0.51100000000E-03 0. -1.
        -11    1    4    4    0    0 -0.45425202357E+01 -0.66639265039E+01 -0.19666197754E+02  0.21255628452E+02  0.51100000000E-03 0.  1.
         12    1    4    4    0    0  0.23919976224E+02  0.11335139407E+02 -0.11399536412E+02  0.28820133212E+02  0.00000000000E+00 0. -1.
</event>
<event>
 8    1  0.1253488E-006  0.9118800E+02  0.7816164E-02  0.1184000E+00
        -11   -1    0    0    0    0  0.00000000000E+00  0.00000000000E+00  0.45593999997E+02  0.45594000000E+02  0.51100000000E-03 0.  1.
         11   -1    0    0    0    0 -0.00000000000E+00 -0.00000000000E+00 -0.45593999997E+02  0.45594000000E+02  0.51100000000E-03 0. -1.
         23    2    1    2    0    0  0.00000000000E+00  0.00000000000E+00  0.00000000000E+00  0.91188000000E+02  0.91188000000E+02 0.  0.
    9900012    2    3    3    0    0  0.23936164186E+02  0.11638526205E+02 -0.25443748867E+02  0.54367087401E+02  0.40000007349E+02 0.  0.
        -12    1    3    3    0    0 -0.23936164186E+02 -0.11638526205E+02  0.25443748867E+02  0.36820912599E+02  0.00000000000E+00 0.  1.
         11    1    4    4    0    0  0.19928671554E+02  0.59507780794E+01 -0.32875757458E+02  0.38902173954E+02  0.51100000000E-03 0. -1.
        -11    1    4    4    0    0  0.10595434467E+01  0.88161913482E+01  0.32164092642E+01  0.94442125675E+01  0.51100000000E-03 0.  1.
         12    1    4    4    0    0  0.29479491853E+01 -0.31284432224E+01  0.42155993267E+01  0.60207008794E+01  0.00000000000E+00 0. -1.
</event>
<event>
 8    1  0.1253488E-006  0.9118800E+02  0.7816164E-02  0.1184000E+00
        -11   -1    0    0    0    0  0.00000000000E+00  0.00000000000E+00  0.45593999997E+02  0.45594000000E+02  0.51100000000E-03 0.  1.
         11   -1    0    0    0    0 -0.00000000000E+00 -0.00000000000E+00 -0.45593999997E+02  0.45594000000E+02  0.51100000000E-03 0. -1.
         23    2    1    2    0    0  0.00000000000E+00  0.00000000000E+00  0.00000000000E+00  0.91188000000E+02  0.91188000000E+02 0.  0.
    9900012    2    3    3    0    0 -0.31241055450E+01  0.10424520786E+02 -0.35175980239E+02  0.54367078571E+02  0.39999987219E+02 0.  0.
        -12    1    3    3    0    0  0.31241055450E+01 -0.10424520786E+02  0.35175980239E+02  0.36820921429E+02  0.00000000000E+00 0.  1.
         11    1    4    4    0    0  0.54074745851E+01  0.98316532042E+01 -0.32514368066E+01  0.11682209880E+02  0.51100000000E-03 0. -1.
        -11    1    4    4    0    0  0.75807754416E+01 -0.69329635844E+01 -0.14647462342E+02  0.17890843850E+02  0.51100000000E-03 0.  1.
        -12    1    4    4    0    0 -0.16112355572E+02  0.75258311660E+01 -0.17277081091E+02  0.24794024841E+02  0.00000000000E+00 0.  1.
</event>
<event>
 8    1  0.1253488E-006  0.9118800E+02  0.7816164E-02  0.1184000E+00
        -11   -1    0    0    0    0  0.00000000000E+00  0.00000000000E+00  0.45593999997E+02  0.45594000000E+02  0.51100000000E-03 0. -1.
         11   -1    0    0    0    0 -0.00000000000E+00 -0.00000000000E+00 -0.45593999997E+02  0.45594000000E+02  0.51100000000E-03 0.  1.
         23    2    1    2    0    0 -0.71054273576E-14 -0.17763568394E-14  0.00000000000E+00  0.91188000000E+02  0.91188000000E+02 0.  0.
    9900012    2    3    3    0    0 -0.35183093635E+02 -0.39568137206E+01  0.10112995669E+02  0.54367093793E+02  0.40000021920E+02 0.  0.
        -12    1    3    3    0    0  0.35183093635E+02  0.39568137206E+01 -0.10112995669E+02  0.36820906207E+02  0.00000000000E+00 0.  1.
         11    1    4    4    0    0 -0.15052151611E+02 -0.14209433983E+02 -0.22344617601E+01  0.20819896778E+02  0.51100000000E-03 0. -1.
        -11    1    4    4    0    0  0.16946589551E+00  0.73513824258E+01  0.10688336023E+02  0.12973514152E+02  0.51100000000E-03 0.  1.
         12    1    4    4    0    0 -0.20300407920E+02  0.29012378369E+01  0.16591214064E+01  0.20573682862E+02  0.00000000000E+00 0. -1.
</event>
<event>
 8    1  0.1253488E-006  0.9118800E+02  0.7816164E-02  0.1184000E+00
        -11   -1    0    0    0    0  0.00000000000E+00  0.00000000000E+00  0.45593999997E+02  0.45594000000E+02  0.51100000000E-03 0. -1.
         11   -1    0    0    0    0 -0.00000000000E+00 -0.00000000000E+00 -0.45593999997E+02  0.45594000000E+02  0.51100000000E-03 0.  1.
         23    2    1    2    0    0  0.35527136788E-14  0.88817841970E-15  0.00000000000E+00  0.91188000000E+02  0.91188000000E+02 0.  0.
    9900012    2    3    3    0    0 -0.29531939790E+02 -0.28947028145E+01  0.21800408117E+02  0.54367182978E+02  0.40000225233E+02 0.  0.
        -12    1    3    3    0    0  0.29531939790E+02  0.28947028145E+01 -0.21800408117E+02  0.36820817022E+02  0.00000000000E+00 0.  1.
         11    1    4    4    0    0 -0.20411939023E+02  0.73128757643E+01  0.21732566662E+02  0.30699020515E+02  0.51100000000E-03 0. -1.
        -11    1    4    4    0    0  0.51292222976E+01 -0.76203667139E+01 -0.15356085117E-02  0.91857995216E+01  0.51100000000E-03 0.  1.
         12    1    4    4    0    0 -0.14249223065E+02 -0.25872118649E+01  0.69377063584E-01  0.14482362941E+02  0.00000000000E+00 0. -1.
</event>
<event>
 8    1  0.1253488E-006  0.9118800E+02  0.7816164E-02  0.1184000E+00
        -11   -1    0    0    0    0  0.00000000000E+00  0.00000000000E+00  0.45593999997E+02  0.45594000000E+02  0.51100000000E-03 0. -1.
         11   -1    0    0    0    0 -0.00000000000E+00 -0.00000000000E+00 -0.45593999997E+02  0.45594000000E+02  0.51100000000E-03 0.  1.
         23    2    1    2    0    0 -0.20920765120E-14  0.35527136788E-14 -0.35527136788E-14  0.91188000000E+02  0.91188000000E+02 0.  0.
    9900012    2    3    3    0    0  0.96558308701E-02 -0.23912840128E+02  0.27999211512E+02  0.54367083912E+02  0.39999999395E+02 0.  0.
        -12    1    3    3    0    0 -0.96558308701E-02  0.23912840128E+02 -0.27999211512E+02  0.36820916088E+02  0.00000000000E+00 0.  1.
         11    1    4    4    0    0  0.60729839261E+01 -0.26492542717E+02  0.17994870655E+02  0.32596799283E+02  0.51100000000E-03 0. -1.
        -11    1    4    4    0    0 -0.11046267103E+02 -0.14563262877E+01  0.10537705911E+02  0.15335714828E+02  0.51100000000E-03 0.  1.
        -12    1    4    4    0    0  0.49829390077E+01  0.40360288759E+01 -0.53336505426E+00  0.64345698009E+01  0.00000000000E+00 0.  1.
</event>
<event>
 8    1  0.1253488E-006  0.9118800E+02  0.7816164E-02  0.1184000E+00
        -11   -1    0    0    0    0  0.00000000000E+00  0.00000000000E+00  0.45593999997E+02  0.45594000000E+02  0.51100000000E-03 0. -1.
         11   -1    0    0    0    0 -0.00000000000E+00 -0.00000000000E+00 -0.45593999997E+02  0.45594000000E+02  0.51100000000E-03 0.  1.
         23    2    1    2    0    0  0.00000000000E+00  0.00000000000E+00 -0.17763568394E-14  0.91188000000E+02  0.91188000000E+02 0.  0.
    9900012    2    3    3    0    0 -0.33925593260E+02  0.74152066773E+01  0.12241322612E+02  0.54367066451E+02  0.39999959589E+02 0.  0.
        -12    1    3    3    0    0  0.33925593260E+02 -0.74152066773E+01 -0.12241322612E+02  0.36820933549E+02  0.00000000000E+00 0.  1.
         11    1    4    4    0    0 -0.15000979448E+02 -0.13818763030E+01 -0.96143768528E+01  0.17871071849E+02  0.51100000000E-03 0. -1.
        -11    1    4    4    0    0 -0.80010537777E+00  0.83601977060E+01  0.40237721251E+00  0.84080308028E+01  0.51100000000E-03 0.  1.
        -12    1    4    4    0    0 -0.18124508434E+02  0.43688527424E+00  0.21453322253E+02  0.28087963799E+02  0.00000000000E+00 0.  1.
</event>
<event>
 8    1  0.1253488E-006  0.9118800E+02  0.7816164E-02  0.1184000E+00
        -11   -1    0    0    0    0  0.00000000000E+00  0.00000000000E+00  0.45593999997E+02  0.45594000000E+02  0.51100000000E-03 0.  1.
         11   -1    0    0    0    0 -0.00000000000E+00 -0.00000000000E+00 -0.45593999997E+02  0.45594000000E+02  0.51100000000E-03 0. -1.
         23    2    1    2    0    0  0.17763568394E-14  0.00000000000E+00  0.00000000000E+00  0.91188000000E+02  0.91188000000E+02 0.  0.
    9900012    2    3    3    0    0  0.93785367236E+01  0.47729964149E+01 -0.35285280569E+02  0.54366953428E+02  0.39999701928E+02 0.  0.
        -12    1    3    3    0    0 -0.93785367236E+01 -0.47729964149E+01  0.35285280569E+02  0.36821046572E+02  0.00000000000E+00 0.  1.
         11    1    4    4    0    0  0.11124676960E+02  0.42332255428E+01 -0.23058262081E+02  0.25949221307E+02  0.51100000000E-03 0. -1.
        -11    1    4    4    0    0 -0.26570620997E+01 -0.46257529164E+01 -0.19066387321E+02  0.19798603354E+02  0.51100000000E-03 0.  1.
         12    1    4    4    0    0  0.91092186308E+00  0.51655237885E+01  0.68393688334E+01  0.86191287663E+01  0.00000000000E+00 0. -1.
</event>
<event>
 8    1  0.1253488E-006  0.9118800E+02  0.7816164E-02  0.1184000E+00
        -11   -1    0    0    0    0  0.00000000000E+00  0.00000000000E+00  0.45593999997E+02  0.45594000000E+02  0.51100000000E-03 0. -1.
         11   -1    0    0    0    0 -0.00000000000E+00 -0.00000000000E+00 -0.45593999997E+02  0.45594000000E+02  0.51100000000E-03 0.  1.
         23    2    1    2    0    0  0.00000000000E+00  0.17763568394E-14  0.35527136788E-14  0.91188000000E+02  0.91188000000E+02 0.  0.
    9900012    2    3    3    0    0  0.28778044968E+02 -0.13802457826E+02 -0.18360177885E+02  0.54367084121E+02  0.39999999871E+02 0.  0.
         12    1    3    3    0    0 -0.28778044968E+02  0.13802457826E+02  0.18360177885E+02  0.36820915879E+02  0.00000000000E+00 0. -1.
         11    1    4    4    0    0  0.98115256513E+01  0.68611163052E+01 -0.36261101962E+01  0.12509581447E+02  0.51100000000E-03 0. -1.
        -11    1    4    4    0    0  0.20560420576E+02 -0.23303074206E+02 -0.19126449872E+02  0.36490892654E+02  0.51100000000E-03 0.  1.
         12    1    4    4    0    0 -0.15939012599E+01  0.26395000749E+01  0.43923821829E+01  0.53666100205E+01  0.00000000000E+00 0. -1.
</event>
<event>
 8    1  0.1253488E-006  0.9118800E+02  0.7816164E-02  0.1184000E+00
        -11   -1    0    0    0    0  0.00000000000E+00  0.00000000000E+00  0.45593999997E+02  0.45594000000E+02  0.51100000000E-03 0. -1.
         11   -1    0    0    0    0 -0.00000000000E+00 -0.00000000000E+00 -0.45593999997E+02  0.45594000000E+02  0.51100000000E-03 0.  1.
         23    2    1    2    0    0 -0.35527136788E-14  0.00000000000E+00  0.00000000000E+00  0.91188000000E+02  0.91188000000E+02 0.  0.
    9900012    2    3    3    0    0  0.19651677100E+02 -0.59087521948E+01  0.30572569973E+02  0.54367030429E+02  0.39999877470E+02 0.  0.
        -12    1    3    3    0    0 -0.19651677100E+02  0.59087521948E+01 -0.30572569973E+02  0.36820969571E+02  0.00000000000E+00 0.  1.
         11    1    4    4    0    0  0.38774862786E+01 -0.47399044623E+01  0.10031227582E+02  0.11752749517E+02  0.51100000000E-03 0. -1.
        -11    1    4    4    0    0  0.16488032854E+02  0.12656807206E+02  0.19867896018E+02  0.28753839543E+02  0.51100000000E-03 0.  1.
        -12    1    4    4    0    0 -0.71384203303E+00 -0.13825654938E+02  0.67344637396E+00  0.13860441369E+02  0.00000000000E+00 0.  1.
</event>
<event>
 8    1  0.1253488E-006  0.9118800E+02  0.7816164E-02  0.1184000E+00
        -11   -1    0    0    0    0  0.00000000000E+00  0.00000000000E+00  0.45593999997E+02  0.45594000000E+02  0.51100000000E-03 0.  1.
         11   -1    0    0    0    0 -0.00000000000E+00 -0.00000000000E+00 -0.45593999997E+02  0.45594000000E+02  0.51100000000E-03 0. -1.
         23    2    1    2    0    0  0.35527136788E-14  0.00000000000E+00 -0.71054273576E-14  0.91188000000E+02  0.91188000000E+02 0.  0.
    9900012    2    3    3    0    0 -0.26584449111E+02 -0.97120486445E+01  0.23552555728E+02  0.54367086042E+02  0.40000004249E+02 0.  0.
        -12    1    3    3    0    0  0.26584449111E+02  0.97120486445E+01 -0.23552555728E+02  0.36820913958E+02  0.00000000000E+00 0.  1.
         11    1    4    4    0    0 -0.99910860456E+01 -0.46609686410E+01 -0.11003496866E+02  0.15576372253E+02  0.51100000000E-03 0. -1.
        -11    1    4    4    0    0 -0.10407321958E+02 -0.18928528971E+01  0.18798577561E+02  0.21570390840E+02  0.51100000000E-03 0.  1.
         12    1    4    4    0    0 -0.61860411080E+01 -0.31582271063E+01  0.15757475032E+02  0.17220322948E+02  0.00000000000E+00 0. -1.
</event>
<event>
 8    1  0.1253488E-006  0.9118800E+02  0.7816164E-02  0.1184000E+00
        -11   -1    0    0    0    0  0.00000000000E+00  0.00000000000E+00  0.45593999997E+02  0.45594000000E+02  0.51100000000E-03 0.  1.
         11   -1    0    0    0    0 -0.00000000000E+00 -0.00000000000E+00 -0.45593999997E+02  0.45594000000E+02  0.51100000000E-03 0. -1.
         23    2    1    2    0    0  0.00000000000E+00  0.00000000000E+00  0.00000000000E+00  0.91188000000E+02  0.91188000000E+02 0.  0.
    9900012    2    3    3    0    0 -0.21834975085E+02  0.24233816650E+02  0.17080297206E+02  0.54367074441E+02  0.39999977803E+02 0.  0.
         12    1    3    3    0    0  0.21834975085E+02 -0.24233816650E+02 -0.17080297206E+02  0.36820925559E+02  0.00000000000E+00 0. -1.
         11    1    4    4    0    0 -0.93102059017E+01  0.24330341286E+02  0.30607694868E+01  0.26230016225E+02  0.51100000000E-03 0. -1.
        -11    1    4    4    0    0 -0.88558454152E+01  0.10000367145E+02  0.99204439816E+01  0.16638766484E+02  0.51100000000E-03 0.  1.
        -12    1    4    4    0    0 -0.36689237681E+01 -0.10096891782E+02  0.40990837372E+01  0.11498291732E+02  0.00000000000E+00 0.  1.
</event>
<event>
 8    1  0.1253488E-006  0.9118800E+02  0.7816164E-02  0.1184000E+00
        -11   -1    0    0    0    0  0.00000000000E+00  0.00000000000E+00  0.45593999997E+02  0.45594000000E+02  0.51100000000E-03 0. -1.
         11   -1    0    0    0    0 -0.00000000000E+00 -0.00000000000E+00 -0.45593999997E+02  0.45594000000E+02  0.51100000000E-03 0.  1.
         23    2    1    2    0    0  0.17763568394E-14 -0.17763568394E-14  0.00000000000E+00  0.91188000000E+02  0.91188000000E+02 0.  0.
    9900012    2    3    3    0    0  0.95586576937E+01 -0.14425712634E+02 -0.32500915426E+02  0.54367100697E+02  0.40000037660E+02 0.  0.
         12    1    3    3    0    0 -0.95586576937E+01  0.14425712634E+02  0.32500915426E+02  0.36820899303E+02  0.00000000000E+00 0. -1.
         11    1    4    4    0    0 -0.10922533922E+02 -0.57278078939E+01 -0.19423670647E+02  0.23008444367E+02  0.51100000000E-03 0. -1.
        -11    1    4    4    0    0  0.19714948747E+02 -0.53148897223E+01 -0.16673929865E+02  0.26361851115E+02  0.51100000000E-03 0.  1.
         12    1    4    4    0    0  0.76624286860E+00 -0.33830150181E+01  0.35966850856E+01  0.49968052145E+01  0.00000000000E+00 0. -1.
</event>
<event>
 8    1  0.1253488E-006  0.9118800E+02  0.7816164E-02  0.1184000E+00
        -11   -1    0    0    0    0  0.00000000000E+00  0.00000000000E+00  0.45593999997E+02  0.45594000000E+02  0.51100000000E-03 0. -1.
         11   -1    0    0    0    0 -0.00000000000E+00 -0.00000000000E+00 -0.45593999997E+02  0.45594000000E+02  0.51100000000E-03 0.  1.
         23    2    1    2    0    0 -0.22204460493E-15  0.17763568394E-14 -0.71054273576E-14  0.91188000000E+02  0.91188000000E+02 0.  0.
    9900012    2    3    3    0    0  0.19625283354E+01  0.15641664603E+02  0.33275607060E+02  0.54367092702E+02  0.40000019434E+02 0.  0.
        -12    1    3    3    0    0 -0.19625283354E+01 -0.15641664603E+02 -0.33275607060E+02  0.36820907298E+02  0.00000000000E+00 0.  1.
         11    1    4    4    0    0 -0.15325259783E+00  0.15083385691E+01 -0.61142576390E+01  0.62994220636E+01  0.51100000000E-03 0. -1.
        -11    1    4    4    0    0 -0.45596793719E+01  0.75360642616E+01  0.13791902491E+01  0.89154420268E+01  0.51100000000E-03 0.  1.
         12    1    4    4    0    0  0.66754603051E+01  0.65972617726E+01  0.38010674449E+02  0.39152228612E+02  0.00000000000E+00 0. -1.
</event>
<event>
 8    1  0.1253488E-006  0.9118800E+02  0.7816164E-02  0.1184000E+00
        -11   -1    0    0    0    0  0.00000000000E+00  0.00000000000E+00  0.45593999997E+02  0.45594000000E+02  0.51100000000E-03 0. -1.
         11   -1    0    0    0    0 -0.00000000000E+00 -0.00000000000E+00 -0.45593999997E+02  0.45594000000E+02  0.51100000000E-03 0.  1.
         23    2    1    2    0    0  0.00000000000E+00  0.00000000000E+00  0.00000000000E+00  0.91188000000E+02  0.91188000000E+02 0.  0.
    9900012    2    3    3    0    0 -0.16156970217E+02 -0.63253437626E+01 -0.32476310559E+02  0.54367239445E+02  0.40000353962E+02 0.  0.
         12    1    3    3    0    0  0.16156970217E+02  0.63253437626E+01  0.32476310559E+02  0.36820760555E+02  0.00000000000E+00 0. -1.
         11    1    4    4    0    0 -0.16437021833E+02 -0.96666747594E+01 -0.86773642390E+01  0.20950344580E+02  0.51100000000E-03 0. -1.
        -11    1    4    4    0    0 -0.77213458785E+01 -0.26012205363E+01 -0.60260734554E+00  0.81699856993E+01  0.51100000000E-03 0.  1.
        -12    1    4    4    0    0  0.80013974946E+01  0.59425515331E+01 -0.23196338975E+02  0.25246909166E+02  0.00000000000E+00 0.  1.
</event>
<event>
 8    1  0.1253488E-006  0.9118800E+02  0.7816164E-02  0.1184000E+00
        -11   -1    0    0    0    0  0.00000000000E+00  0.00000000000E+00  0.45593999997E+02  0.45594000000E+02  0.51100000000E-03 0. -1.
         11   -1    0    0    0    0 -0.00000000000E+00 -0.00000000000E+00 -0.45593999997E+02  0.45594000000E+02  0.51100000000E-03 0.  1.
         23    2    1    2    0    0  0.00000000000E+00 -0.26645352591E-14  0.00000000000E+00  0.91188000000E+02  0.91188000000E+02 0.  0.
    9900012    2    3    3    0    0 -0.13202512519E+02 -0.25408221391E+01  0.34278487756E+02  0.54367124986E+02  0.40000093030E+02 0.  0.
        -12    1    3    3    0    0  0.13202512519E+02  0.25408221391E+01 -0.34278487756E+02  0.36820875014E+02  0.00000000000E+00 0.  1.
         11    1    4    4    0    0 -0.24761060936E+01  0.90684148105E+01  0.30901933614E+02  0.32300104487E+02  0.51100000000E-03 0. -1.
        -11    1    4    4    0    0  0.13077452038E+01  0.21500549370E+01 -0.17702448503E+01  0.30768004227E+01  0.51100000000E-03 0.  1.
         12    1    4    4    0    0 -0.12034151630E+02 -0.13759291887E+02  0.51467989927E+01  0.18990220076E+02  0.00000000000E+00 0. -1.
</event>
<event>
 8    1  0.1253488E-006  0.9118800E+02  0.7816164E-02  0.1184000E+00
        -11   -1    0    0    0    0  0.00000000000E+00  0.00000000000E+00  0.45593999997E+02  0.45594000000E+02  0.51100000000E-03 0.  1.
         11   -1    0    0    0    0 -0.00000000000E+00 -0.00000000000E+00 -0.45593999997E+02  0.45594000000E+02  0.51100000000E-03 0. -1.
         23    2    1    2    0    0  0.88817841970E-15  0.17763568394E-14 -0.71054273576E-14  0.91188000000E+02  0.91188000000E+02 0.  0.
    9900012    2    3    3    0    0 -0.62928421744E+01 -0.10434319775E+02 -0.34746289228E+02  0.54367088727E+02  0.40000010372E+02 0.  0.
        -12    1    3    3    0    0  0.62928421744E+01  0.10434319775E+02  0.34746289228E+02  0.36820911273E+02  0.00000000000E+00 0.  1.
         11    1    4    4    0    0 -0.90355670238E+01 -0.67364160713E+00 -0.84536529601E+01  0.12391913213E+02  0.51100000000E-03 0. -1.
        -11    1    4    4    0    0 -0.59262946756E+01  0.94487867843E+01 -0.57657626760E+01  0.12555658476E+02  0.51100000000E-03 0.  1.
         12    1    4    4    0    0  0.86690195249E+01 -0.19209464952E+02 -0.20526873592E+02  0.29419517038E+02  0.00000000000E+00 0. -1.
</event>
<event>
 8    1  0.1253488E-006  0.9118800E+02  0.7816164E-02  0.1184000E+00
        -11   -1    0    0    0    0  0.00000000000E+00  0.00000000000E+00  0.45593999997E+02  0.45594000000E+02  0.51100000000E-03 0. -1.
         11   -1    0    0    0    0 -0.00000000000E+00 -0.00000000000E+00 -0.45593999997E+02  0.45594000000E+02  0.51100000000E-03 0.  1.
         23    2    1    2    0    0 -0.35527136788E-14  0.35527136788E-14  0.26645352591E-14  0.91188000000E+02  0.91188000000E+02 0.  0.
    9900012    2    3    3    0    0  0.23245659967E+02 -0.28460985455E+02 -0.23218144895E+01  0.54367092584E+02  0.40000019164E+02 0.  0.
        -12    1    3    3    0    0 -0.23245659967E+02  0.28460985455E+02  0.23218144895E+01  0.36820907416E+02  0.00000000000E+00 0.  1.
         11    1    4    4    0    0  0.10981696798E+02 -0.11573176446E+02 -0.11749187296E+02  0.19813618549E+02  0.51100000000E-03 0. -1.
        -11    1    4    4    0    0  0.84402895323E+01 -0.40094716696E+01  0.16804124381E+02  0.19227400941E+02  0.51100000000E-03 0.  1.
        -12    1    4    4    0    0  0.38236736369E+01 -0.12878337340E+02 -0.73767515748E+01  0.15326073095E+02  0.00000000000E+00 0.  1.
</event>
<event>
 8    1  0.1253488E-006  0.9118800E+02  0.7816164E-02  0.1184000E+00
        -11   -1    0    0    0    0  0.00000000000E+00  0.00000000000E+00  0.45593999997E+02  0.45594000000E+02  0.51100000000E-03 0. -1.
         11   -1    0    0    0    0 -0.00000000000E+00 -0.00000000000E+00 -0.45593999997E+02  0.45594000000E+02  0.51100000000E-03 0.  1.
         23    2    1    2    0    0  0.00000000000E+00  0.00000000000E+00  0.00000000000E+00  0.91188000000E+02  0.91188000000E+02 0.  0.
    9900012    2    3    3    0    0  0.20808081135E+02  0.30346462747E+02  0.13772039352E+01  0.54367072086E+02  0.39999972435E+02 0.  0.
         12    1    3    3    0    0 -0.20808081135E+02 -0.30346462747E+02 -0.13772039352E+01  0.36820927914E+02  0.00000000000E+00 0. -1.
         11    1    4    4    0    0  0.83532149064E+00 -0.48802145368E+01  0.26409741773E+01  0.56115061066E+01  0.51100000000E-03 0. -1.
        -11    1    4    4    0    0 -0.36969191075E+01 -0.20949204633E+01  0.14184728231E+01  0.44797285683E+01  0.51100000000E-03 0.  1.
        -12    1    4    4    0    0  0.23669678751E+02  0.37321597747E+02 -0.26822430652E+01  0.44275837411E+02  0.00000000000E+00 0.  1.
</event>
<event>
 8    1  0.1253488E-006  0.9118800E+02  0.7816164E-02  0.1184000E+00
        -11   -1    0    0    0    0  0.00000000000E+00  0.00000000000E+00  0.45593999997E+02  0.45594000000E+02  0.51100000000E-03 0. -1.
         11   -1    0    0    0    0 -0.00000000000E+00 -0.00000000000E+00 -0.45593999997E+02  0.45594000000E+02  0.51100000000E-03 0.  1.
         23    2    1    2    0    0 -0.17763568394E-14 -0.35527136788E-14  0.00000000000E+00  0.91188000000E+02  0.91188000000E+02 0.  0.
    9900012    2    3    3    0    0  0.12011418261E+02 -0.27075886337E+02 -0.21872401918E+02  0.54367085356E+02  0.40000002687E+02 0.  0.
         12    1    3    3    0    0 -0.12011418261E+02  0.27075886337E+02  0.21872401918E+02  0.36820914644E+02  0.00000000000E+00 0. -1.
         11    1    4    4    0    0  0.20022465145E+02 -0.19234693641E+02 -0.24434141882E+02  0.36985129981E+02  0.51100000000E-03 0.  1.
        -11    1    4    4    0    0 -0.58829301978E+01 -0.46856461430E+01  0.78467809877E+01  0.10869044099E+02  0.51100000000E-03 0. -1.
        -12    1    4    4    0    0 -0.21281166862E+01 -0.31555465530E+01 -0.52850410239E+01  0.65129112770E+01  0.00000000000E+00 0.  1.
</event>
<event>
 8    1  0.1253488E-006  0.9118800E+02  0.7816164E-02  0.1184000E+00
        -11   -1    0    0    0    0  0.00000000000E+00  0.00000000000E+00  0.45593999997E+02  0.45594000000E+02  0.51100000000E-03 0. -1.
         11   -1    0    0    0    0 -0.00000000000E+00 -0.00000000000E+00 -0.45593999997E+02  0.45594000000E+02  0.51100000000E-03 0.  1.
         23    2    1    2    0    0  0.00000000000E+00  0.17763568394E-14  0.71054273576E-14  0.91188000000E+02  0.91188000000E+02 0.  0.
    9900012    2    3    3    0    0 -0.50836666922E+01 -0.12551213202E+02 -0.34240366549E+02  0.54367091248E+02  0.40000016118E+02 0.  0.
         12    1    3    3    0    0  0.50836666922E+01  0.12551213202E+02  0.34240366549E+02  0.36820908752E+02  0.00000000000E+00 0. -1.
         11    1    4    4    0    0  0.14286837711E+02 -0.96950610677E+01 -0.21982848889E+02  0.27952702668E+02  0.51100000000E-03 0. -1.
        -11    1    4    4    0    0 -0.70083562215E+01  0.12142878573E+01 -0.11315465259E+02  0.13365302324E+02  0.51100000000E-03 0.  1.
         12    1    4    4    0    0 -0.12362148182E+02 -0.40704399916E+01 -0.94205240151E+00  0.13049086256E+02  0.00000000000E+00 0. -1.
</event>
<event>
 8    1  0.1253488E-006  0.9118800E+02  0.7816164E-02  0.1184000E+00
        -11   -1    0    0    0    0  0.00000000000E+00  0.00000000000E+00  0.45593999997E+02  0.45594000000E+02  0.51100000000E-03 0. -1.
         11   -1    0    0    0    0 -0.00000000000E+00 -0.00000000000E+00 -0.45593999997E+02  0.45594000000E+02  0.51100000000E-03 0.  1.
         23    2    1    2    0    0  0.00000000000E+00  0.17763568394E-14 -0.44408920985E-15  0.91188000000E+02  0.91188000000E+02 0.  0.
    9900012    2    3    3    0    0 -0.35584276496E+02  0.85781450844E+01 -0.39943052482E+01  0.54367085002E+02  0.40000001879E+02 0.  0.
         12    1    3    3    0    0  0.35584276496E+02 -0.85781450844E+01  0.39943052482E+01  0.36820914998E+02  0.00000000000E+00 0. -1.
         11    1    4    4    0    0 -0.33981281186E+02  0.15993558316E+02 -0.37505912181E+01  0.37743718860E+02  0.51100000000E-03 0. -1.
        -11    1    4    4    0    0  0.73622739719E+00  0.34165572006E+01 -0.36268638113E+01  0.50367683342E+01  0.51100000000E-03 0.  1.
         12    1    4    4    0    0 -0.23392227080E+01 -0.10831970432E+02  0.33831497812E+01  0.11586597808E+02  0.00000000000E+00 0. -1.
</event>
<event>
 8    1  0.1253488E-006  0.9118800E+02  0.7816164E-02  0.1184000E+00
        -11   -1    0    0    0    0  0.00000000000E+00  0.00000000000E+00  0.45593999997E+02  0.45594000000E+02  0.51100000000E-03 0. -1.
         11   -1    0    0    0    0 -0.00000000000E+00 -0.00000000000E+00 -0.45593999997E+02  0.45594000000E+02  0.51100000000E-03 0.  1.
         23    2    1    2    0    0  0.00000000000E+00  0.00000000000E+00  0.11102230246E-15  0.91188000000E+02  0.91188000000E+02 0.  0.
    9900012    2    3    3    0    0 -0.36432319859E+02 -0.52977327932E+01 -0.63233304525E+00  0.54367085452E+02  0.40000002906E+02 0.  0.
         12    1    3    3    0    0  0.36432319859E+02  0.52977327932E+01  0.63233304525E+00  0.36820914548E+02  0.00000000000E+00 0. -1.
         11    1    4    4    0    0  0.40645884034E+01 -0.47961990400E+01  0.34987212332E+01  0.71948213772E+01  0.51100000000E-03 0. -1.
        -11    1    4    4    0    0 -0.25430141870E+02 -0.55528332593E+01 -0.12869577060E+02  0.29037081235E+02  0.51100000000E-03 0.  1.
         12    1    4    4    0    0 -0.15066766393E+02  0.50512995061E+01  0.87385227811E+01  0.18135182840E+02  0.00000000000E+00 0. -1.
</event>
<event>
 8    1  0.1253488E-006  0.9118800E+02  0.7816164E-02  0.1184000E+00
        -11   -1    0    0    0    0  0.00000000000E+00  0.00000000000E+00  0.45593999997E+02  0.45594000000E+02  0.51100000000E-03 0.  1.
         11   -1    0    0    0    0 -0.00000000000E+00 -0.00000000000E+00 -0.45593999997E+02  0.45594000000E+02  0.51100000000E-03 0. -1.
         23    2    1    2    0    0 -0.35527136788E-14  0.00000000000E+00  0.00000000000E+00  0.91188000000E+02  0.91188000000E+02 0.  0.
    9900012    2    3    3    0    0 -0.16600390123E+02  0.40755134555E+01 -0.32612830063E+02  0.54367089543E+02  0.40000012231E+02 0.  0.
        -12    1    3    3    0    0  0.16600390123E+02 -0.40755134555E+01  0.32612830063E+02  0.36820910457E+02  0.00000000000E+00 0.  1.
         11    1    4    4    0    0 -0.18674798078E+02  0.32016068908E+01 -0.21634647538E+02  0.28758587314E+02  0.51100000000E-03 0. -1.
        -11    1    4    4    0    0 -0.39129639740E+01  0.84772402203E+01  0.18710891263E+01  0.95223874944E+01  0.51100000000E-03 0.  1.
        -12    1    4    4    0    0  0.59873719287E+01 -0.76033336556E+01 -0.12849271652E+02  0.16086114735E+02  0.00000000000E+00 0.  1.
</event>
<event>
 8    1  0.1253488E-006  0.9118800E+02  0.7816164E-02  0.1184000E+00
        -11   -1    0    0    0    0  0.00000000000E+00  0.00000000000E+00  0.45593999997E+02  0.45594000000E+02  0.51100000000E-03 0.  1.
         11   -1    0    0    0    0 -0.00000000000E+00 -0.00000000000E+00 -0.45593999997E+02  0.45594000000E+02  0.51100000000E-03 0. -1.
         23    2    1    2    0    0  0.00000000000E+00  0.00000000000E+00 -0.35527136788E-14  0.91188000000E+02  0.91188000000E+02 0.  0.
    9900012    2    3    3    0    0  0.14709082123E+02  0.11715512883E+02 -0.31657060315E+02  0.54367084656E+02  0.40000001091E+02 0.  0.
        -12    1    3    3    0    0 -0.14709082123E+02 -0.11715512883E+02  0.31657060315E+02  0.36820915344E+02  0.00000000000E+00 0.  1.
         11    1    4    4    0    0 -0.56467321000E+01  0.54577049788E+01 -0.35749831548E+01  0.86285938521E+01  0.51100000000E-03 0. -1.
        -11    1    4    4    0    0 -0.59764261037E+01 -0.18593454298E+01  0.18692274672E+00  0.62617708977E+01  0.51100000000E-03 0.  1.
         12    1    4    4    0    0  0.26332240327E+02  0.81171533335E+01 -0.28268999906E+02  0.39476719906E+02  0.00000000000E+00 0. -1.
</event>
<event>
 8    1  0.1253488E-006  0.9118800E+02  0.7816164E-02  0.1184000E+00
        -11   -1    0    0    0    0  0.00000000000E+00  0.00000000000E+00  0.45593999997E+02  0.45594000000E+02  0.51100000000E-03 0. -1.
         11   -1    0    0    0    0 -0.00000000000E+00 -0.00000000000E+00 -0.45593999997E+02  0.45594000000E+02  0.51100000000E-03 0.  1.
         23    2    1    2    0    0  0.00000000000E+00  0.35527136788E-14  0.17763568394E-14  0.91188000000E+02  0.91188000000E+02 0.  0.
    9900012    2    3    3    0    0  0.27442903715E+02 -0.22959591705E+02 -0.86905051665E+01  0.54367072586E+02  0.39999973575E+02 0.  0.
        -12    1    3    3    0    0 -0.27442903715E+02  0.22959591705E+02  0.86905051665E+01  0.36820927414E+02  0.00000000000E+00 0.  1.
         11    1    4    4    0    0  0.21372346902E+02 -0.53103615683E+01 -0.13819778352E+01  0.22065516424E+02  0.51100000000E-03 0. -1.
        -11    1    4    4    0    0  0.95894949453E+01 -0.22582571638E+02 -0.26878129383E+01  0.24681071568E+02  0.51100000000E-03 0.  1.
         12    1    4    4    0    0 -0.35189381318E+01  0.49333415016E+01 -0.46207143930E+01  0.76204845940E+01  0.00000000000E+00 0. -1.
</event>
<event>
 8    1  0.1253488E-006  0.9118800E+02  0.7816164E-02  0.1184000E+00
        -11   -1    0    0    0    0  0.00000000000E+00  0.00000000000E+00  0.45593999997E+02  0.45594000000E+02  0.51100000000E-03 0.  1.
         11   -1    0    0    0    0 -0.00000000000E+00 -0.00000000000E+00 -0.45593999997E+02  0.45594000000E+02  0.51100000000E-03 0. -1.
         23    2    1    2    0    0  0.00000000000E+00  0.00000000000E+00  0.00000000000E+00  0.91188000000E+02  0.91188000000E+02 0.  0.
    9900012    2    3    3    0    0 -0.11591037771E+02 -0.48176682465E+01  0.34615245088E+02  0.54367119015E+02  0.40000079419E+02 0.  0.
         12    1    3    3    0    0  0.11591037771E+02  0.48176682465E+01 -0.34615245088E+02  0.36820880985E+02  0.00000000000E+00 0. -1.
         11    1    4    4    0    0 -0.15680535214E+02  0.85684866423E+01  0.20926265337E+01  0.17991032044E+02  0.51100000000E-03 0. -1.
        -11    1    4    4    0    0  0.38492506713E+01 -0.12950484303E+02  0.21834486671E+02  0.25676381810E+02  0.51100000000E-03 0.  1.
        -12    1    4    4    0    0  0.24024677171E+00 -0.43567058625E+00  0.10688131884E+02  0.10699705161E+02  0.00000000000E+00 0.  1.
</event>
<event>
 8    1  0.1253488E-006  0.9118800E+02  0.7816164E-02  0.1184000E+00
        -11   -1    0    0    0    0  0.00000000000E+00  0.00000000000E+00  0.45593999997E+02  0.45594000000E+02  0.51100000000E-03 0. -1.
         11   -1    0    0    0    0 -0.00000000000E+00 -0.00000000000E+00 -0.45593999997E+02  0.45594000000E+02  0.51100000000E-03 0.  1.
         23    2    1    2    0    0 -0.53290705182E-14  0.17763568394E-14  0.00000000000E+00  0.91188000000E+02  0.91188000000E+02 0.  0.
    9900012    2    3    3    0    0 -0.13960968828E+02 -0.12386049388E+02 -0.31740461710E+02  0.54367085025E+02  0.40000001932E+02 0.  0.
         12    1    3    3    0    0  0.13960968828E+02  0.12386049388E+02  0.31740461710E+02  0.36820914975E+02  0.00000000000E+00 0. -1.
         11    1    4    4    0    0  0.12762066220E+02 -0.82850710345E+01 -0.74278965336E+01  0.16931815716E+02  0.51100000000E-03 0. -1.
        -11    1    4    4    0    0 -0.18782969249E+02  0.11712235905E+01 -0.17697365496E+02  0.25833475265E+02  0.51100000000E-03 0.  1.
         12    1    4    4    0    0 -0.79400657990E+01 -0.52722019440E+01 -0.66151996799E+01  0.11601794044E+02  0.00000000000E+00 0. -1.
</event>
<event>
 8    1  0.1253488E-006  0.9118800E+02  0.7816164E-02  0.1184000E+00
        -11   -1    0    0    0    0  0.00000000000E+00  0.00000000000E+00  0.45593999997E+02  0.45594000000E+02  0.51100000000E-03 0. -1.
         11   -1    0    0    0    0 -0.00000000000E+00 -0.00000000000E+00 -0.45593999997E+02  0.45594000000E+02  0.51100000000E-03 0.  1.
         23    2    1    2    0    0 -0.71054273576E-14  0.17763568394E-14 -0.17763568394E-14  0.91188000000E+02  0.91188000000E+02 0.  0.
    9900012    2    3    3    0    0  0.33817306041E+02 -0.89329319810E+01 -0.11505370809E+02  0.54367068193E+02  0.39999963560E+02 0.  0.
        -12    1    3    3    0    0 -0.33817306041E+02  0.89329319810E+01  0.11505370809E+02  0.36820931807E+02  0.00000000000E+00 0.  1.
         11    1    4    4    0    0  0.21165353830E+02  0.12562539257E+02 -0.10465753803E+02  0.26745496785E+02  0.51100000000E-03 0. -1.
        -11    1    4    4    0    0  0.24701917780E+01 -0.15911719463E+01 -0.41122210198E+01  0.50541109564E+01  0.51100000000E-03 0.  1.
        -12    1    4    4    0    0  0.10181760433E+02 -0.19904299292E+02  0.30726040144E+01  0.22567460452E+02  0.00000000000E+00 0.  1.
</event>
<event>
 8    1  0.1253488E-006  0.9118800E+02  0.7816164E-02  0.1184000E+00
        -11   -1    0    0    0    0  0.00000000000E+00  0.00000000000E+00  0.45593999997E+02  0.45594000000E+02  0.51100000000E-03 0.  1.
         11   -1    0    0    0    0 -0.00000000000E+00 -0.00000000000E+00 -0.45593999997E+02  0.45594000000E+02  0.51100000000E-03 0. -1.
         23    2    1    2    0    0  0.00000000000E+00  0.35527136788E-14  0.35527136788E-14  0.91188000000E+02  0.91188000000E+02 0.  0.
    9900012    2    3    3    0    0 -0.73557634876E+01 -0.21338711437E+02 -0.29091796698E+02  0.54367075278E+02  0.39999979711E+02 0.  0.
        -12    1    3    3    0    0  0.73557634876E+01  0.21338711437E+02  0.29091796698E+02  0.36820924722E+02  0.00000000000E+00 0.  1.
         11    1    4    4    0    0  0.72754639190E+01 -0.12237416062E+02 -0.18278927107E+02  0.23169072134E+02  0.51100000000E-03 0. -1.
        -11    1    4    4    0    0 -0.19340402437E+02 -0.12671965303E+02 -0.10147730521E+02  0.25250867431E+02  0.51100000000E-03 0.  1.
        -12    1    4    4    0    0  0.47091750300E+01  0.35706699282E+01 -0.66513907075E+00  0.59471357125E+01  0.00000000000E+00 0.  1.
</event>
<event>
 8    1  0.1253488E-006  0.9118800E+02  0.7816164E-02  0.1184000E+00
        -11   -1    0    0    0    0  0.00000000000E+00  0.00000000000E+00  0.45593999997E+02  0.45594000000E+02  0.51100000000E-03 0. -1.
         11   -1    0    0    0    0 -0.00000000000E+00 -0.00000000000E+00 -0.45593999997E+02  0.45594000000E+02  0.51100000000E-03 0.  1.
         23    2    1    2    0    0 -0.44408920985E-15  0.00000000000E+00  0.17763568394E-14  0.91188000000E+02  0.91188000000E+02 0.  0.
    9900012    2    3    3    0    0 -0.13810163721E+01  0.35889566317E+02  0.81124561945E+01  0.54367080374E+02  0.39999991328E+02 0.  0.
        -12    1    3    3    0    0  0.13810163721E+01 -0.35889566317E+02 -0.81124561945E+01  0.36820919626E+02  0.00000000000E+00 0.  1.
         11    1    4    4    0    0  0.47289905875E+01  0.14890765078E+02  0.17878640307E+02  0.23743294129E+02  0.51100000000E-03 0. -1.
        -11    1    4    4    0    0 -0.18237731112E+01  0.16770058635E+02 -0.15054738543E+02  0.22609868815E+02  0.51100000000E-03 0.  1.
        -12    1    4    4    0    0 -0.42862338484E+01  0.42287426032E+01  0.52885544304E+01  0.80139174298E+01  0.00000000000E+00 0.  1.
</event>
<event>
 8    1  0.1253488E-006  0.9118800E+02  0.7816164E-02  0.1184000E+00
        -11   -1    0    0    0    0  0.00000000000E+00  0.00000000000E+00  0.45593999997E+02  0.45594000000E+02  0.51100000000E-03 0. -1.
         11   -1    0    0    0    0 -0.00000000000E+00 -0.00000000000E+00 -0.45593999997E+02  0.45594000000E+02  0.51100000000E-03 0.  1.
         23    2    1    2    0    0  0.35527136788E-14  0.00000000000E+00 -0.17763568394E-14  0.91188000000E+02  0.91188000000E+02 0.  0.
    9900012    2    3    3    0    0 -0.26838465159E+02  0.19563524887E+02 -0.15897958344E+02  0.54367084780E+02  0.40000001374E+02 0.  0.
         12    1    3    3    0    0  0.26838465159E+02 -0.19563524887E+02  0.15897958344E+02  0.36820915220E+02  0.00000000000E+00 0. -1.
         11    1    4    4    0    0 -0.54448965175E+01 -0.60462809442E+01  0.65739747068E+01  0.10460475852E+02  0.51100000000E-03 0. -1.
        -11    1    4    4    0    0 -0.99842922087E+01  0.18961063604E+02 -0.49981350913E+01  0.22004303637E+02  0.51100000000E-03 0.  1.
        -12    1    4    4    0    0 -0.11409276433E+02  0.66487422269E+01 -0.17473797960E+02  0.21902305291E+02  0.00000000000E+00 0.  1.
</event>
<event>
 8    1  0.1253488E-006  0.9118800E+02  0.7816164E-02  0.1184000E+00
        -11   -1    0    0    0    0  0.00000000000E+00  0.00000000000E+00  0.45593999997E+02  0.45594000000E+02  0.51100000000E-03 0.  1.
         11   -1    0    0    0    0 -0.00000000000E+00 -0.00000000000E+00 -0.45593999997E+02  0.45594000000E+02  0.51100000000E-03 0. -1.
         23    2    1    2    0    0  0.00000000000E+00  0.00000000000E+00  0.00000000000E+00  0.91188000000E+02  0.91188000000E+02 0.  0.
    9900012    2    3    3    0    0  0.31841882414E+02  0.13745817584E+02 -0.12366393084E+02  0.54367073143E+02  0.39999974844E+02 0.  0.
         12    1    3    3    0    0 -0.31841882414E+02 -0.13745817584E+02  0.12366393084E+02  0.36820926857E+02  0.00000000000E+00 0. -1.
         11    1    4    4    0    0  0.60188660790E+01  0.17050618558E+02 -0.11185007294E+01  0.18116329271E+02  0.51100000000E-03 0. -1.
        -11    1    4    4    0    0 -0.12679210862E+01  0.26010788917E+00 -0.87133544333E+01  0.88089628070E+01  0.51100000000E-03 0.  1.
        -12    1    4    4    0    0  0.27090937421E+02 -0.35649088634E+01 -0.25345379214E+01  0.27441781065E+02  0.00000000000E+00 0.  1.
</event>
<event>
 8    1  0.1253488E-006  0.9118800E+02  0.7816164E-02  0.1184000E+00
        -11   -1    0    0    0    0  0.00000000000E+00  0.00000000000E+00  0.45593999997E+02  0.45594000000E+02  0.51100000000E-03 0. -1.
         11   -1    0    0    0    0 -0.00000000000E+00 -0.00000000000E+00 -0.45593999997E+02  0.45594000000E+02  0.51100000000E-03 0.  1.
         23    2    1    2    0    0  0.17763568394E-14 -0.71054273576E-14  0.00000000000E+00  0.91188000000E+02  0.91188000000E+02 0.  0.
    9900012    2    3    3    0    0 -0.28483793305E+01  0.32688130029E+02  0.16707890604E+02  0.54367072282E+02  0.39999972882E+02 0.  0.
        -12    1    3    3    0    0  0.28483793305E+01 -0.32688130029E+02 -0.16707890604E+02  0.36820927718E+02  0.00000000000E+00 0.  1.
         11    1    4    4    0    0  0.15913495560E+02  0.17316866605E+02  0.39568731533E+01  0.23848900506E+02  0.51100000000E-03 0.  1.
        -11    1    4    4    0    0 -0.13880296487E+02  0.10674071500E+02  0.15326992657E+02  0.23270477802E+02  0.51100000000E-03 0. -1.
        -12    1    4    4    0    0 -0.48815784036E+01  0.46971919236E+01 -0.25759752062E+01  0.72476939740E+01  0.00000000000E+00 0.  1.
</event>
<event>
 8    1  0.1253488E-006  0.9118800E+02  0.7816164E-02  0.1184000E+00
        -11   -1    0    0    0    0  0.00000000000E+00  0.00000000000E+00  0.45593999997E+02  0.45594000000E+02  0.51100000000E-03 0.  1.
         11   -1    0    0    0    0 -0.00000000000E+00 -0.00000000000E+00 -0.45593999997E+02  0.45594000000E+02  0.51100000000E-03 0. -1.
         23    2    1    2    0    0  0.88817841970E-15  0.00000000000E+00  0.00000000000E+00  0.91188000000E+02  0.91188000000E+02 0.  0.
    9900012    2    3    3    0    0  0.29183320140E+01  0.34109015954E+02  0.13558724991E+02  0.54367073145E+02  0.39999974849E+02 0.  0.
         12    1    3    3    0    0 -0.29183320140E+01 -0.34109015954E+02 -0.13558724991E+02  0.36820926855E+02  0.00000000000E+00 0. -1.
         11    1    4    4    0    0  0.48371256975E+01  0.19289607741E+01  0.85148983280E+00  0.52767139280E+01  0.51100000000E-03 0. -1.
        -11    1    4    4    0    0  0.11603402842E+02  0.29815097377E+02  0.27092239201E+01  0.32107925558E+02  0.51100000000E-03 0.  1.
         12    1    4    4    0    0 -0.13522196526E+02  0.23649578027E+01  0.99980112378E+01  0.16982433660E+02  0.00000000000E+00 0. -1.
</event>
<event>
 8    1  0.1253488E-006  0.9118800E+02  0.7816164E-02  0.1184000E+00
        -11   -1    0    0    0    0  0.00000000000E+00  0.00000000000E+00  0.45593999997E+02  0.45594000000E+02  0.51100000000E-03 0.  1.
         11   -1    0    0    0    0 -0.00000000000E+00 -0.00000000000E+00 -0.45593999997E+02  0.45594000000E+02  0.51100000000E-03 0. -1.
         23    2    1    2    0    0 -0.17763568394E-14  0.00000000000E+00 -0.88817841970E-15  0.91188000000E+02  0.91188000000E+02 0.  0.
    9900012    2    3    3    0    0  0.49108872317E+01 -0.35703791024E+02  0.75429189054E+01  0.54367175287E+02  0.40000207701E+02 0.  0.
         12    1    3    3    0    0 -0.49108872317E+01  0.35703791024E+02 -0.75429189054E+01  0.36820824713E+02  0.00000000000E+00 0. -1.
         11    1    4    4    0    0  0.27095468995E+01 -0.21838713043E+02  0.52975021700E+01  0.22634808621E+02  0.51100000000E-03 0. -1.
        -11    1    4    4    0    0 -0.66224511951E+01 -0.14514263780E+02  0.10926814623E+02  0.19336907482E+02  0.51100000000E-03 0.  1.
        -12    1    4    4    0    0  0.88237915272E+01  0.64918579919E+00 -0.86813978871E+01  0.12395459184E+02  0.00000000000E+00 0.  1.
</event>
<event>
 8    1  0.1253488E-006  0.9118800E+02  0.7816164E-02  0.1184000E+00
        -11   -1    0    0    0    0  0.00000000000E+00  0.00000000000E+00  0.45593999997E+02  0.45594000000E+02  0.51100000000E-03 0.  1.
         11   -1    0    0    0    0 -0.00000000000E+00 -0.00000000000E+00 -0.45593999997E+02  0.45594000000E+02  0.51100000000E-03 0. -1.
         23    2    1    2    0    0  0.35527136788E-14  0.00000000000E+00  0.00000000000E+00  0.91188000000E+02  0.91188000000E+02 0.  0.
    9900012    2    3    3    0    0 -0.27920672816E+02 -0.17441829646E+02 -0.16492461884E+02  0.54367045492E+02  0.39999911808E+02 0.  0.
        -12    1    3    3    0    0  0.27920672816E+02  0.17441829646E+02  0.16492461884E+02  0.36820954508E+02  0.00000000000E+00 0.  1.
         11    1    4    4    0    0 -0.10504685309E+02 -0.59332749295E+01 -0.65338120544E+01  0.13720162720E+02  0.51100000000E-03 0. -1.
        -11    1    4    4    0    0 -0.18122538737E+01 -0.99307643360E+01 -0.19734317898E+02  0.22166362976E+02  0.51100000000E-03 0.  1.
         12    1    4    4    0    0 -0.15603733633E+02 -0.15777903803E+01  0.97756680688E+01  0.18480519797E+02  0.00000000000E+00 0. -1.
</event>
<event>
 8    1  0.1253488E-006  0.9118800E+02  0.7816164E-02  0.1184000E+00
        -11   -1    0    0    0    0  0.00000000000E+00  0.00000000000E+00  0.45593999997E+02  0.45594000000E+02  0.51100000000E-03 0.  1.
         11   -1    0    0    0    0 -0.00000000000E+00 -0.00000000000E+00 -0.45593999997E+02  0.45594000000E+02  0.51100000000E-03 0. -1.
         23    2    1    2    0    0 -0.35527136788E-14  0.35527136788E-14  0.17763568394E-14  0.91188000000E+02  0.91188000000E+02 0.  0.
    9900012    2    3    3    0    0  0.29980297334E+02  0.16216756146E+02 -0.13927644299E+02  0.54367072746E+02  0.39999973939E+02 0.  0.
        -12    1    3    3    0    0 -0.29980297334E+02 -0.16216756146E+02  0.13927644299E+02  0.36820927254E+02  0.00000000000E+00 0.  1.
         11    1    4    4    0    0  0.17741105279E+02  0.29066593744E+02 -0.54595601567E+01  0.34487975960E+02  0.51100000000E-03 0.  1.
        -11    1    4    4    0    0  0.76036003796E+01 -0.96985763606E+01 -0.65387531514E+01  0.13951072188E+02  0.51100000000E-03 0. -1.
        -12    1    4    4    0    0  0.46355916753E+01 -0.31512612378E+01 -0.19293309908E+01  0.59280245986E+01  0.00000000000E+00 0.  1.
</event>
<event>
 8    1  0.1253488E-006  0.9118800E+02  0.7816164E-02  0.1184000E+00
        -11   -1    0    0    0    0  0.00000000000E+00  0.00000000000E+00  0.45593999997E+02  0.45594000000E+02  0.51100000000E-03 0. -1.
         11   -1    0    0    0    0 -0.00000000000E+00 -0.00000000000E+00 -0.45593999997E+02  0.45594000000E+02  0.51100000000E-03 0.  1.
         23    2    1    2    0    0 -0.88817841970E-15  0.35527136788E-14  0.00000000000E+00  0.91188000000E+02  0.91188000000E+02 0.  0.
    9900012    2    3    3    0    0  0.31112033441E+01 -0.30658868548E+02 -0.20152782842E+02  0.54367075742E+02  0.39999980770E+02 0.  0.
         12    1    3    3    0    0 -0.31112033441E+01  0.30658868548E+02  0.20152782842E+02  0.36820924258E+02  0.00000000000E+00 0. -1.
         11    1    4    4    0    0  0.43769371187E+01 -0.12715836443E+01  0.15005903292E+01  0.47985701102E+01  0.51100000000E-03 0. -1.
        -11    1    4    4    0    0  0.11791841109E+02  0.55602994718E+00 -0.41860981628E+01  0.12525178806E+02  0.51100000000E-03 0.  1.
        -12    1    4    4    0    0 -0.13057574884E+02 -0.29943314851E+02 -0.17467275008E+02  0.37043326826E+02  0.00000000000E+00 0.  1.
</event>
<event>
 8    1  0.1253488E-006  0.9118800E+02  0.7816164E-02  0.1184000E+00
        -11   -1    0    0    0    0  0.00000000000E+00  0.00000000000E+00  0.45593999997E+02  0.45594000000E+02  0.51100000000E-03 0.  1.
         11   -1    0    0    0    0 -0.00000000000E+00 -0.00000000000E+00 -0.45593999997E+02  0.45594000000E+02  0.51100000000E-03 0. -1.
         23    2    1    2    0    0  0.00000000000E+00  0.00000000000E+00 -0.35527136788E-14  0.91188000000E+02  0.91188000000E+02 0.  0.
    9900012    2    3    3    0    0  0.18732353403E+02  0.20630021945E+02 -0.24068268465E+02  0.54367076378E+02  0.39999982219E+02 0.  0.
        -12    1    3    3    0    0 -0.18732353403E+02 -0.20630021945E+02  0.24068268465E+02  0.36820923622E+02  0.00000000000E+00 0.  1.
         11    1    4    4    0    0  0.40286831025E+01  0.87735355897E+01  0.33312419469E+01  0.10212854031E+02  0.51100000000E-03 0. -1.
        -11    1    4    4    0    0  0.21540118456E+02  0.10148222110E+02 -0.10849079157E+02  0.26166116141E+02  0.51100000000E-03 0.  1.
        -12    1    4    4    0    0 -0.68364481561E+01  0.17082642455E+01 -0.16550431256E+02  0.17988106206E+02  0.00000000000E+00 0.  1.
</event>
<event>
 8    1  0.1253488E-006  0.9118800E+02  0.7816164E-02  0.1184000E+00
        -11   -1    0    0    0    0  0.00000000000E+00  0.00000000000E+00  0.45593999997E+02  0.45594000000E+02  0.51100000000E-03 0.  1.
         11   -1    0    0    0    0 -0.00000000000E+00 -0.00000000000E+00 -0.45593999997E+02  0.45594000000E+02  0.51100000000E-03 0. -1.
         23    2    1    2    0    0  0.00000000000E+00  0.00000000000E+00  0.00000000000E+00  0.91188000000E+02  0.91188000000E+02 0.  0.
    9900012    2    3    3    0    0 -0.30414746542E+02 -0.20154914986E+02  0.49491388646E+01  0.54367199074E+02  0.40000261929E+02 0.  0.
         12    1    3    3    0    0  0.30414746542E+02  0.20154914986E+02 -0.49491388646E+01  0.36820800926E+02  0.00000000000E+00 0. -1.
         11    1    4    4    0    0 -0.13702502081E+02 -0.18803401785E+02 -0.57825163129E+01  0.23974235695E+02  0.51100000000E-03 0. -1.
        -11    1    4    4    0    0 -0.19519544521E+02  0.25903675801E+01  0.12289713918E+01  0.19728988658E+02  0.51100000000E-03 0.  1.
        -12    1    4    4    0    0  0.28073000607E+01 -0.39418807812E+01  0.95026837858E+01  0.10663974721E+02  0.00000000000E+00 0.  1.
</event>
<event>
 8    1  0.1253488E-006  0.9118800E+02  0.7816164E-02  0.1184000E+00
        -11   -1    0    0    0    0  0.00000000000E+00  0.00000000000E+00  0.45593999997E+02  0.45594000000E+02  0.51100000000E-03 0.  1.
         11   -1    0    0    0    0 -0.00000000000E+00 -0.00000000000E+00 -0.45593999997E+02  0.45594000000E+02  0.51100000000E-03 0. -1.
         23    2    1    2    0    0  0.00000000000E+00  0.00000000000E+00  0.00000000000E+00  0.91188000000E+02  0.91188000000E+02 0.  0.
    9900012    2    3    3    0    0 -0.33139951244E+02 -0.73184732986E+01  0.14281585453E+02  0.54367080635E+02  0.39999991922E+02 0.  0.
         12    1    3    3    0    0  0.33139951244E+02  0.73184732986E+01 -0.14281585453E+02  0.36820919365E+02  0.00000000000E+00 0. -1.
         11    1    4    4    0    0 -0.56771356311E+01  0.21464702706E+01 -0.11234457043E+02  0.12769112299E+02  0.51100000000E-03 0. -1.
        -11    1    4    4    0    0 -0.24534920179E+02 -0.17606772559E+01  0.18596484625E+02  0.30836529203E+02  0.51100000000E-03 0.  1.
        -12    1    4    4    0    0 -0.29278954342E+01 -0.77042663133E+01  0.69195578697E+01  0.10761439133E+02  0.00000000000E+00 0.  1.
</event>
<event>
 8    1  0.1253488E-006  0.9118800E+02  0.7816164E-02  0.1184000E+00
        -11   -1    0    0    0    0  0.00000000000E+00  0.00000000000E+00  0.45593999997E+02  0.45594000000E+02  0.51100000000E-03 0.  1.
         11   -1    0    0    0    0 -0.00000000000E+00 -0.00000000000E+00 -0.45593999997E+02  0.45594000000E+02  0.51100000000E-03 0. -1.
         23    2    1    2    0    0 -0.88817841970E-15  0.00000000000E+00  0.99920072216E-15  0.91188000000E+02  0.91188000000E+02 0.  0.
    9900012    2    3    3    0    0  0.71961192487E+01 -0.36109606481E+02 -0.30325436448E+00  0.54367085079E+02  0.40000002054E+02 0.  0.
         12    1    3    3    0    0 -0.71961192487E+01  0.36109606481E+02  0.30325436448E+00  0.36820914921E+02  0.00000000000E+00 0. -1.
         11    1    4    4    0    0 -0.11862606213E+02 -0.80579610493E+01 -0.94037978970E+00  0.14371376999E+02  0.51100000000E-03 0. -1.
        -11    1    4    4    0    0  0.37641607105E+01 -0.14382400295E+02  0.95077725272E+01  0.17647098424E+02  0.51100000000E-03 0.  1.
         12    1    4    4    0    0  0.15294564751E+02 -0.13669245136E+02 -0.88706471020E+01  0.22348609656E+02  0.00000000000E+00 0. -1.
</event>
<event>
 8    1  0.1253488E-006  0.9118800E+02  0.7816164E-02  0.1184000E+00
        -11   -1    0    0    0    0  0.00000000000E+00  0.00000000000E+00  0.45593999997E+02  0.45594000000E+02  0.51100000000E-03 0.  1.
         11   -1    0    0    0    0 -0.00000000000E+00 -0.00000000000E+00 -0.45593999997E+02  0.45594000000E+02  0.51100000000E-03 0. -1.
         23    2    1    2    0    0 -0.38857805862E-15  0.00000000000E+00  0.35527136788E-14  0.91188000000E+02  0.91188000000E+02 0.  0.
    9900012    2    3    3    0    0  0.19097455863E+00  0.25525512546E+02 -0.26536569693E+02  0.54367112000E+02  0.40000063427E+02 0.  0.
        -12    1    3    3    0    0 -0.19097455863E+00 -0.25525512546E+02  0.26536569693E+02  0.36820888000E+02  0.00000000000E+00 0.  1.
         11    1    4    4    0    0  0.90087789996E+01  0.13310993734E+02 -0.22579404170E+02  0.27715882562E+02  0.51100000000E-03 0. -1.
        -11    1    4    4    0    0 -0.11929660790E+02  0.14019597562E+02 -0.89729035412E+01  0.20478743140E+02  0.51100000000E-03 0.  1.
        -12    1    4    4    0    0  0.31118563492E+01 -0.18050787508E+01  0.50157380181E+01  0.61724862982E+01  0.00000000000E+00 0.  1.
</event>
<event>
 8    1  0.1253488E-006  0.9118800E+02  0.7816164E-02  0.1184000E+00
        -11   -1    0    0    0    0  0.00000000000E+00  0.00000000000E+00  0.45593999997E+02  0.45594000000E+02  0.51100000000E-03 0. -1.
         11   -1    0    0    0    0 -0.00000000000E+00 -0.00000000000E+00 -0.45593999997E+02  0.45594000000E+02  0.51100000000E-03 0.  1.
         23    2    1    2    0    0 -0.88817841970E-15  0.00000000000E+00 -0.88817841970E-15  0.91188000000E+02  0.91188000000E+02 0.  0.
    9900012    2    3    3    0    0 -0.66464066014E+01 -0.36075374166E+02 -0.31891831610E+01  0.54367106051E+02  0.40000049866E+02 0.  0.
         12    1    3    3    0    0  0.66464066014E+01  0.36075374166E+02  0.31891831610E+01  0.36820893949E+02  0.00000000000E+00 0. -1.
         11    1    4    4    0    0 -0.17783803292E+02 -0.15301697916E+02 -0.14283021029E+02  0.27466530699E+02  0.51100000000E-03 0.  1.
        -11    1    4    4    0    0  0.43479115300E+01 -0.25405173307E+01  0.19105795902E+01  0.53859890097E+01  0.51100000000E-03 0. -1.
        -12    1    4    4    0    0  0.67894851602E+01 -0.18233158919E+02  0.91832582781E+01  0.21514586343E+02  0.00000000000E+00 0.  1.
</event>
<event>
 8    1  0.1253488E-006  0.9118800E+02  0.7816164E-02  0.1184000E+00
        -11   -1    0    0    0    0  0.00000000000E+00  0.00000000000E+00  0.45593999997E+02  0.45594000000E+02  0.51100000000E-03 0. -1.
         11   -1    0    0    0    0 -0.00000000000E+00 -0.00000000000E+00 -0.45593999997E+02  0.45594000000E+02  0.51100000000E-03 0.  1.
         23    2    1    2    0    0  0.00000000000E+00  0.71054273576E-14 -0.35527136788E-14  0.91188000000E+02  0.91188000000E+02 0.  0.
    9900012    2    3    3    0    0 -0.13287395028E+02 -0.26949905355E+02  0.21282102797E+02  0.54367079795E+02  0.39999990009E+02 0.  0.
        -12    1    3    3    0    0  0.13287395028E+02  0.26949905355E+02 -0.21282102797E+02  0.36820920205E+02  0.00000000000E+00 0.  1.
         11    1    4    4    0    0 -0.31066116058E+01 -0.21676756447E+02  0.51696767513E+01  0.22500185859E+02  0.51100000000E-03 0. -1.
        -11    1    4    4    0    0 -0.13297377991E+01  0.96362868035E+01  0.85487815084E+01  0.12950208165E+02  0.51100000000E-03 0.  1.
        -12    1    4    4    0    0 -0.88510456234E+01 -0.14909435711E+02  0.75636445376E+01  0.18916685771E+02  0.00000000000E+00 0.  1.
</event>
<event>
 8    1  0.1253488E-006  0.9118800E+02  0.7816164E-02  0.1184000E+00
        -11   -1    0    0    0    0  0.00000000000E+00  0.00000000000E+00  0.45593999997E+02  0.45594000000E+02  0.51100000000E-03 0.  1.
         11   -1    0    0    0    0 -0.00000000000E+00 -0.00000000000E+00 -0.45593999997E+02  0.45594000000E+02  0.51100000000E-03 0. -1.
         23    2    1    2    0    0  0.22204460493E-15  0.00000000000E+00 -0.17763568394E-14  0.91188000000E+02  0.91188000000E+02 0.  0.
    9900012    2    3    3    0    0 -0.72574433930E+00 -0.33469508376E+02  0.15331100725E+02  0.54367118082E+02  0.40000077292E+02 0.  0.
         12    1    3    3    0    0  0.72574433930E+00  0.33469508376E+02 -0.15331100725E+02  0.36820881918E+02  0.00000000000E+00 0. -1.
         11    1    4    4    0    0  0.34623909858E+01 -0.25842779207E+02 -0.21125319956E+01  0.26159131870E+02  0.51100000000E-03 0. -1.
        -11    1    4    4    0    0  0.23497467674E+01 -0.10553241276E+02  0.18027745600E+02  0.21021223156E+02  0.51100000000E-03 0.  1.
        -12    1    4    4    0    0 -0.65378820925E+01  0.29265121080E+01 -0.58411287898E+00  0.71867630564E+01  0.00000000000E+00 0.  1.
</event>
<event>
 8    1  0.1253488E-006  0.9118800E+02  0.7816164E-02  0.1184000E+00
        -11   -1    0    0    0    0  0.00000000000E+00  0.00000000000E+00  0.45593999997E+02  0.45594000000E+02  0.51100000000E-03 0. -1.
         11   -1    0    0    0    0 -0.00000000000E+00 -0.00000000000E+00 -0.45593999997E+02  0.45594000000E+02  0.51100000000E-03 0.  1.
         23    2    1    2    0    0  0.00000000000E+00  0.00000000000E+00  0.00000000000E+00  0.91188000000E+02  0.91188000000E+02 0.  0.
    9900012    2    3    3    0    0  0.32583044611E+02 -0.14077529620E+02 -0.97954611642E+01  0.54367045426E+02  0.39999911657E+02 0.  0.
         12    1    3    3    0    0 -0.32583044611E+02  0.14077529620E+02  0.97954611642E+01  0.36820954574E+02  0.00000000000E+00 0. -1.
         11    1    4    4    0    0 -0.72015593606E+01 -0.43900633300E+00  0.53117708249E+00  0.72344545847E+01  0.51100000000E-03 0. -1.
        -11    1    4    4    0    0  0.32208032015E+02 -0.65616139919E+01 -0.14539482712E+02  0.35941739834E+02  0.51100000000E-03 0.  1.
        -12    1    4    4    0    0  0.75765719564E+01 -0.70769092952E+01  0.42128444648E+01  0.11190851007E+02  0.00000000000E+00 0.  1.
</event>
<event>
 8    1  0.1253488E-006  0.9118800E+02  0.7816164E-02  0.1184000E+00
        -11   -1    0    0    0    0  0.00000000000E+00  0.00000000000E+00  0.45593999997E+02  0.45594000000E+02  0.51100000000E-03 0. -1.
         11   -1    0    0    0    0 -0.00000000000E+00 -0.00000000000E+00 -0.45593999997E+02  0.45594000000E+02  0.51100000000E-03 0.  1.
         23    2    1    2    0    0  0.00000000000E+00  0.88817841970E-15  0.00000000000E+00  0.91188000000E+02  0.91188000000E+02 0.  0.
    9900012    2    3    3    0    0 -0.24711387394E+02 -0.46777515156E+01 -0.26893239833E+02  0.54367076941E+02  0.39999983503E+02 0.  0.
         12    1    3    3    0    0  0.24711387394E+02  0.46777515156E+01  0.26893239833E+02  0.36820923059E+02  0.00000000000E+00 0. -1.
         11    1    4    4    0    0  0.10234770886E+01 -0.21486951249E+01  0.41033850328E+01  0.47436447041E+01  0.51100000000E-03 0. -1.
        -11    1    4    4    0    0 -0.32116355817E+02 -0.31293906092E+01 -0.26958820457E+02  0.42047965435E+02  0.51100000000E-03 0.  1.
        -12    1    4    4    0    0  0.63814913345E+01  0.60033421855E+00 -0.40378044087E+01  0.75754668021E+01  0.00000000000E+00 0.  1.
</event>
<event>
 8    1  0.1253488E-006  0.9118800E+02  0.7816164E-02  0.1184000E+00
        -11   -1    0    0    0    0  0.00000000000E+00  0.00000000000E+00  0.45593999997E+02  0.45594000000E+02  0.51100000000E-03 0.  1.
         11   -1    0    0    0    0 -0.00000000000E+00 -0.00000000000E+00 -0.45593999997E+02  0.45594000000E+02  0.51100000000E-03 0. -1.
         23    2    1    2    0    0  0.17763568394E-14 -0.35527136788E-14 -0.35527136788E-14  0.91188000000E+02  0.91188000000E+02 0.  0.
    9900012    2    3    3    0    0  0.86751965627E+01 -0.19564311862E+02 -0.29962622749E+02  0.54367080728E+02  0.39999992136E+02 0.  0.
        -12    1    3    3    0    0 -0.86751965627E+01  0.19564311862E+02  0.29962622749E+02  0.36820919272E+02  0.00000000000E+00 0.  1.
         11    1    4    4    0    0 -0.41126125208E+01 -0.18632728292E+02 -0.25693425355E+02  0.32003816211E+02  0.51100000000E-03 0. -1.
        -11    1    4    4    0    0  0.53209751369E+01 -0.89552232837E+01 -0.46242130694E+01  0.11397023613E+02  0.51100000000E-03 0.  1.
        -12    1    4    4    0    0  0.74668339466E+01  0.80236397134E+01  0.35501567511E+00  0.10966240904E+02  0.00000000000E+00 0.  1.
</event>
<event>
 8    1  0.1253488E-006  0.9118800E+02  0.7816164E-02  0.1184000E+00
        -11   -1    0    0    0    0  0.00000000000E+00  0.00000000000E+00  0.45593999997E+02  0.45594000000E+02  0.51100000000E-03 0.  1.
         11   -1    0    0    0    0 -0.00000000000E+00 -0.00000000000E+00 -0.45593999997E+02  0.45594000000E+02  0.51100000000E-03 0. -1.
         23    2    1    2    0    0  0.00000000000E+00  0.11102230246E-14  0.00000000000E+00  0.91188000000E+02  0.91188000000E+02 0.  0.
    9900012    2    3    3    0    0  0.35831442146E+02  0.16548089178E+01 -0.83157187772E+01  0.54367057350E+02  0.39999938841E+02 0.  0.
        -12    1    3    3    0    0 -0.35831442146E+02 -0.16548089178E+01  0.83157187772E+01  0.36820942650E+02  0.00000000000E+00 0.  1.
         11    1    4    4    0    0  0.27913115031E+02  0.10840179279E+02 -0.12337045567E+02  0.32386018142E+02  0.51100000000E-03 0. -1.
        -11    1    4    4    0    0 -0.15700740180E+00  0.14230934468E+01 -0.54448375530E+01  0.56299291756E+01  0.51100000000E-03 0.  1.
        -12    1    4    4    0    0  0.80753345169E+01 -0.10608463808E+02  0.94661643428E+01  0.16351110032E+02  0.00000000000E+00 0.  1.
</event>
<event>
 8    1  0.1253488E-006  0.9118800E+02  0.7816164E-02  0.1184000E+00
        -11   -1    0    0    0    0  0.00000000000E+00  0.00000000000E+00  0.45593999997E+02  0.45594000000E+02  0.51100000000E-03 0. -1.
         11   -1    0    0    0    0 -0.00000000000E+00 -0.00000000000E+00 -0.45593999997E+02  0.45594000000E+02  0.51100000000E-03 0.  1.
         23    2    1    2    0    0  0.17763568394E-14  0.00000000000E+00  0.35527136788E-14  0.91188000000E+02  0.91188000000E+02 0.  0.
    9900012    2    3    3    0    0 -0.10073594532E+02  0.22028591285E+02 -0.27731678752E+02  0.54367052874E+02  0.39999928638E+02 0.  0.
         12    1    3    3    0    0  0.10073594532E+02 -0.22028591285E+02  0.27731678752E+02  0.36820947126E+02  0.00000000000E+00 0. -1.
         11    1    4    4    0    0 -0.66632443639E+01 -0.41875939856E+01 -0.40181979956E+01  0.88363275309E+01  0.51100000000E-03 0. -1.
        -11    1    4    4    0    0  0.28419696069E+00  0.26252984506E+02 -0.53433823581E+01  0.26792754593E+02  0.51100000000E-03 0.  1.
        -12    1    4    4    0    0 -0.36945471287E+01 -0.36799235367E-01 -0.18370098399E+02  0.18737970751E+02  0.00000000000E+00 0.  1.
</event>
<event>
 8    1  0.1253488E-006  0.9118800E+02  0.7816164E-02  0.1184000E+00
        -11   -1    0    0    0    0  0.00000000000E+00  0.00000000000E+00  0.45593999997E+02  0.45594000000E+02  0.51100000000E-03 0.  1.
         11   -1    0    0    0    0 -0.00000000000E+00 -0.00000000000E+00 -0.45593999997E+02  0.45594000000E+02  0.51100000000E-03 0. -1.
         23    2    1    2    0    0  0.00000000000E+00  0.00000000000E+00 -0.71054273576E-14  0.91188000000E+02  0.91188000000E+02 0.  0.
    9900012    2    3    3    0    0 -0.11296734337E+02 -0.54460441919E+01 -0.34619420386E+02  0.54367083772E+02  0.39999999075E+02 0.  0.
        -12    1    3    3    0    0  0.11296734337E+02  0.54460441919E+01  0.34619420386E+02  0.36820916228E+02  0.00000000000E+00 0.  1.
         11    1    4    4    0    0 -0.86184776533E+01 -0.77506715416E+01 -0.20703099864E+01  0.11774432050E+02  0.51100000000E-03 0. -1.
        -11    1    4    4    0    0 -0.76400216580E+01 -0.50296788266E+01 -0.30214457690E+00  0.91519883982E+01  0.51100000000E-03 0.  1.
        -12    1    4    4    0    0  0.49617649739E+01  0.73343061763E+01 -0.32246965823E+02  0.33440663323E+02  0.00000000000E+00 0.  1.
</event>
<event>
 8    1  0.1253488E-006  0.9118800E+02  0.7816164E-02  0.1184000E+00
        -11   -1    0    0    0    0  0.00000000000E+00  0.00000000000E+00  0.45593999997E+02  0.45594000000E+02  0.51100000000E-03 0. -1.
         11   -1    0    0    0    0 -0.00000000000E+00 -0.00000000000E+00 -0.45593999997E+02  0.45594000000E+02  0.51100000000E-03 0.  1.
         23    2    1    2    0    0 -0.17763568394E-14  0.00000000000E+00  0.00000000000E+00  0.91188000000E+02  0.91188000000E+02 0.  0.
    9900012    2    3    3    0    0 -0.10680123357E+02 -0.16058317777E+02 -0.31366290199E+02  0.54367098794E+02  0.40000033321E+02 0.  0.
         12    1    3    3    0    0  0.10680123357E+02  0.16058317777E+02  0.31366290199E+02  0.36820901206E+02  0.00000000000E+00 0. -1.
         11    1    4    4    0    0 -0.24732855468E+02 -0.30871131949E+01 -0.15310522757E+02  0.29251607047E+02  0.51100000000E-03 0. -1.
        -11    1    4    4    0    0  0.46518551035E+01 -0.57494025399E+01 -0.51943286311E+01  0.90375016270E+01  0.51100000000E-03 0.  1.
         12    1    4    4    0    0  0.94008770074E+01 -0.72218020422E+01 -0.10861438811E+02  0.16077990120E+02  0.00000000000E+00 0. -1.
</event>
<event>
 8    1  0.1253488E-006  0.9118800E+02  0.7816164E-02  0.1184000E+00
        -11   -1    0    0    0    0  0.00000000000E+00  0.00000000000E+00  0.45593999997E+02  0.45594000000E+02  0.51100000000E-03 0. -1.
         11   -1    0    0    0    0 -0.00000000000E+00 -0.00000000000E+00 -0.45593999997E+02  0.45594000000E+02  0.51100000000E-03 0.  1.
         23    2    1    2    0    0 -0.17763568394E-14  0.35527136788E-14  0.17763568394E-14  0.91188000000E+02  0.91188000000E+02 0.  0.
    9900012    2    3    3    0    0  0.14740007761E+02 -0.31308816399E+02 -0.12580597911E+02  0.54367064964E+02  0.39999956199E+02 0.  0.
         12    1    3    3    0    0 -0.14740007761E+02  0.31308816399E+02  0.12580597911E+02  0.36820935036E+02  0.00000000000E+00 0. -1.
         11    1    4    4    0    0  0.22114146720E+02 -0.23755653332E+02  0.39784244241E+01  0.32698538370E+02  0.51100000000E-03 0. -1.
        -11    1    4    4    0    0 -0.10215970402E+01 -0.46819292185E+01 -0.14144324526E+01  0.49964728703E+01  0.51100000000E-03 0.  1.
         12    1    4    4    0    0 -0.63525419195E+01 -0.28712338485E+01 -0.15144589883E+02  0.16672053724E+02  0.00000000000E+00 0. -1.
</event>
<event>
 8    1  0.1253488E-006  0.9118800E+02  0.7816164E-02  0.1184000E+00
        -11   -1    0    0    0    0  0.00000000000E+00  0.00000000000E+00  0.45593999997E+02  0.45594000000E+02  0.51100000000E-03 0.  1.
         11   -1    0    0    0    0 -0.00000000000E+00 -0.00000000000E+00 -0.45593999997E+02  0.45594000000E+02  0.51100000000E-03 0. -1.
         23    2    1    2    0    0  0.00000000000E+00 -0.20816681712E-15 -0.17763568394E-14  0.91188000000E+02  0.91188000000E+02 0.  0.
    9900012    2    3    3    0    0 -0.33282957670E+02 -0.72719734319E-01 -0.15748722381E+02  0.54367043792E+02  0.39999907933E+02 0.  0.
        -12    1    3    3    0    0  0.33282957670E+02  0.72719734319E-01  0.15748722381E+02  0.36820956208E+02  0.00000000000E+00 0.  1.
         11    1    4    4    0    0  0.57371119689E+01 -0.28476139824E+00 -0.10037293479E+02  0.11564722368E+02  0.51100000000E-03 0. -1.
        -11    1    4    4    0    0 -0.48149030934E+01 -0.36045582506E+01  0.37753392326E+01  0.71013603318E+01  0.51100000000E-03 0.  1.
        -12    1    4    4    0    0 -0.34205166546E+02  0.38165999145E+01 -0.94867681339E+01  0.35700961093E+02  0.00000000000E+00 0.  1.
</event>
<event>
 8    1  0.1253488E-006  0.9118800E+02  0.7816164E-02  0.1184000E+00
        -11   -1    0    0    0    0  0.00000000000E+00  0.00000000000E+00  0.45593999997E+02  0.45594000000E+02  0.51100000000E-03 0.  1.
         11   -1    0    0    0    0 -0.00000000000E+00 -0.00000000000E+00 -0.45593999997E+02  0.45594000000E+02  0.51100000000E-03 0. -1.
         23    2    1    2    0    0  0.88817841970E-15  0.00000000000E+00  0.00000000000E+00  0.91188000000E+02  0.91188000000E+02 0.  0.
    9900012    2    3    3    0    0  0.57796303888E+01  0.16491128013E+02 -0.32410140314E+02  0.54367100693E+02  0.40000037650E+02 0.  0.
        -12    1    3    3    0    0 -0.57796303888E+01 -0.16491128013E+02  0.32410140314E+02  0.36820899307E+02  0.00000000000E+00 0.  1.
         11    1    4    4    0    0 -0.97578249826E+01  0.65159387177E+01 -0.14457984169E+02  0.18620040608E+02  0.51100000000E-03 0. -1.
        -11    1    4    4    0    0 -0.62985513424E+01 -0.85807283123E+00 -0.53392705707E+01  0.83015569916E+01  0.51100000000E-03 0.  1.
        -12    1    4    4    0    0  0.21836006714E+02  0.10833262127E+02 -0.12612885575E+02  0.27445503093E+02  0.00000000000E+00 0.  1.
</event>
<event>
 8    1  0.1253488E-006  0.9118800E+02  0.7816164E-02  0.1184000E+00
        -11   -1    0    0    0    0  0.00000000000E+00  0.00000000000E+00  0.45593999997E+02  0.45594000000E+02  0.51100000000E-03 0. -1.
         11   -1    0    0    0    0 -0.00000000000E+00 -0.00000000000E+00 -0.45593999997E+02  0.45594000000E+02  0.51100000000E-03 0.  1.
         23    2    1    2    0    0 -0.17763568394E-14  0.00000000000E+00  0.00000000000E+00  0.91188000000E+02  0.91188000000E+02 0.  0.
    9900012    2    3    3    0    0 -0.47720933074E+01 -0.86344684398E+01  0.35474689962E+02  0.54367074595E+02  0.39999978154E+02 0.  0.
        -12    1    3    3    0    0  0.47720933074E+01  0.86344684398E+01 -0.35474689962E+02  0.36820925405E+02  0.00000000000E+00 0.  1.
         11    1    4    4    0    0 -0.11747193316E+02 -0.17139856391E+02  0.36030330431E+02  0.41592739019E+02  0.51100000000E-03 0. -1.
        -11    1    4    4    0    0  0.38549965524E+01  0.11508863637E+01 -0.22472675055E+01  0.46082262687E+01  0.51100000000E-03 0.  1.
         12    1    4    4    0    0  0.31201034561E+01  0.73545015877E+01  0.16916270366E+01  0.81661093068E+01  0.00000000000E+00 0. -1.
</event>
<event>
 8    1  0.1253488E-006  0.9118800E+02  0.7816164E-02  0.1184000E+00
        -11   -1    0    0    0    0  0.00000000000E+00  0.00000000000E+00  0.45593999997E+02  0.45594000000E+02  0.51100000000E-03 0.  1.
         11   -1    0    0    0    0 -0.00000000000E+00 -0.00000000000E+00 -0.45593999997E+02  0.45594000000E+02  0.51100000000E-03 0. -1.
         23    2    1    2    0    0  0.00000000000E+00  0.00000000000E+00 -0.35527136788E-14  0.91188000000E+02  0.91188000000E+02 0.  0.
    9900012    2    3    3    0    0 -0.17109629882E+02 -0.20508438948E+02 -0.25346495484E+02  0.54367077468E+02  0.39999984704E+02 0.  0.
        -12    1    3    3    0    0  0.17109629882E+02  0.20508438948E+02  0.25346495484E+02  0.36820922532E+02  0.00000000000E+00 0.  1.
         11    1    4    4    0    0 -0.29085353520E+01 -0.19137069313E+01  0.30470968972E+01  0.46267323107E+01  0.51100000000E-03 0. -1.
        -11    1    4    4    0    0 -0.13002562970E+02  0.13230643243E+01  0.21612035814E+01  0.13247186273E+02  0.51100000000E-03 0.  1.
         12    1    4    4    0    0 -0.11985315604E+01 -0.19917796341E+02 -0.30554795963E+02  0.36493158884E+02  0.00000000000E+00 0. -1.
</event>
<event>
 8    1  0.1253488E-006  0.9118800E+02  0.7816164E-02  0.1184000E+00
        -11   -1    0    0    0    0  0.00000000000E+00  0.00000000000E+00  0.45593999997E+02  0.45594000000E+02  0.51100000000E-03 0. -1.
         11   -1    0    0    0    0 -0.00000000000E+00 -0.00000000000E+00 -0.45593999997E+02  0.45594000000E+02  0.51100000000E-03 0.  1.
         23    2    1    2    0    0  0.00000000000E+00  0.00000000000E+00  0.00000000000E+00  0.91188000000E+02  0.91188000000E+02 0.  0.
    9900012    2    3    3    0    0 -0.40914609280E+01 -0.10766868653E+02 -0.34972919184E+02  0.54367209822E+02  0.40000286430E+02 0.  0.
         12    1    3    3    0    0  0.40914609280E+01  0.10766868653E+02  0.34972919184E+02  0.36820790178E+02  0.00000000000E+00 0. -1.
         11    1    4    4    0    0 -0.48293053293E+01 -0.14510280994E+02  0.13680680658E+00  0.15293435221E+02  0.51100000000E-03 0. -1.
        -11    1    4    4    0    0 -0.99000697996E+00 -0.11244348910E+01  0.14890506340E+01  0.21122830530E+01  0.51100000000E-03 0.  1.
        -12    1    4    4    0    0  0.17278513812E+01  0.48678472316E+01 -0.36598776624E+02  0.36961491548E+02  0.00000000000E+00 0.  1.
</event>
<event>
 8    1  0.1253488E-006  0.9118800E+02  0.7816164E-02  0.1184000E+00
        -11   -1    0    0    0    0  0.00000000000E+00  0.00000000000E+00  0.45593999997E+02  0.45594000000E+02  0.51100000000E-03 0.  1.
         11   -1    0    0    0    0 -0.00000000000E+00 -0.00000000000E+00 -0.45593999997E+02  0.45594000000E+02  0.51100000000E-03 0. -1.
         23    2    1    2    0    0 -0.35527136788E-14  0.00000000000E+00  0.00000000000E+00  0.91188000000E+02  0.91188000000E+02 0.  0.
    9900012    2    3    3    0    0  0.14846439116E+02 -0.80921469929E+01  0.32709004382E+02  0.54367101518E+02  0.40000039530E+02 0.  0.
         12    1    3    3    0    0 -0.14846439116E+02  0.80921469929E+01 -0.32709004382E+02  0.36820898482E+02  0.00000000000E+00 0. -1.
         11    1    4    4    0    0 -0.40446725335E+01  0.24599713067E+01 -0.54843747967E+01  0.72449431954E+01  0.51100000000E-03 0. -1.
        -11    1    4    4    0    0  0.29628055356E+01 -0.16298128284E+01  0.23347016919E+02  0.23590627499E+02  0.51100000000E-03 0.  1.
         12    1    4    4    0    0  0.15928306113E+02 -0.89223054712E+01  0.14846362259E+02  0.23531530824E+02  0.00000000000E+00 0. -1.
</event>
<event>
 8    1  0.1253488E-006  0.9118800E+02  0.7816164E-02  0.1184000E+00
        -11   -1    0    0    0    0  0.00000000000E+00  0.00000000000E+00  0.45593999997E+02  0.45594000000E+02  0.51100000000E-03 0.  1.
         11   -1    0    0    0    0 -0.00000000000E+00 -0.00000000000E+00 -0.45593999997E+02  0.45594000000E+02  0.51100000000E-03 0. -1.
         23    2    1    2    0    0  0.17763568394E-14  0.00000000000E+00  0.71054273576E-14  0.91188000000E+02  0.91188000000E+02 0.  0.
    9900012    2    3    3    0    0 -0.97291178961E+01 -0.89645038058E+01  0.34362215313E+02  0.54367083326E+02  0.39999998058E+02 0.  0.
         12    1    3    3    0    0  0.97291178961E+01  0.89645038058E+01 -0.34362215313E+02  0.36820916674E+02  0.00000000000E+00 0. -1.
         11    1    4    4    0    0 -0.11077356842E+02 -0.23116238141E+01  0.13968323611E+02  0.17976804611E+02  0.51100000000E-03 0. -1.
        -11    1    4    4    0    0 -0.15431885367E+01 -0.17911568990E+02  0.15650145377E+02  0.23835536183E+02  0.51100000000E-03 0.  1.
         12    1    4    4    0    0  0.28914274828E+01  0.11258688998E+02  0.47437463249E+01  0.12554742532E+02  0.00000000000E+00 0. -1.
</event>
<event>
 8    1  0.1253488E-006  0.9118800E+02  0.7816164E-02  0.1184000E+00
        -11   -1    0    0    0    0  0.00000000000E+00  0.00000000000E+00  0.45593999997E+02  0.45594000000E+02  0.51100000000E-03 0.  1.
         11   -1    0    0    0    0 -0.00000000000E+00 -0.00000000000E+00 -0.45593999997E+02  0.45594000000E+02  0.51100000000E-03 0. -1.
         23    2    1    2    0    0  0.35527136788E-14 -0.88817841970E-15  0.00000000000E+00  0.91188000000E+02  0.91188000000E+02 0.  0.
    9900012    2    3    3    0    0  0.31888768235E+02 -0.38072242468E+01 -0.18010869128E+02  0.54367083353E+02  0.39999998119E+02 0.  0.
        -12    1    3    3    0    0 -0.31888768235E+02  0.38072242468E+01  0.18010869128E+02  0.36820916647E+02  0.00000000000E+00 0.  1.
         11    1    4    4    0    0  0.22323469183E+02  0.11053950571E+02 -0.15044187982E+02  0.29100767891E+02  0.51100000000E-03 0. -1.
        -11    1    4    4    0    0  0.15888463017E+01 -0.67616008847E+01  0.72081392093E+01  0.10010042468E+02  0.51100000000E-03 0.  1.
        -12    1    4    4    0    0  0.79764527506E+01 -0.80995739327E+01 -0.10174820355E+02  0.15256272993E+02  0.00000000000E+00 0.  1.
</event>
<event>
 8    1  0.1253488E-006  0.9118800E+02  0.7816164E-02  0.1184000E+00
        -11   -1    0    0    0    0  0.00000000000E+00  0.00000000000E+00  0.45593999997E+02  0.45594000000E+02  0.51100000000E-03 0.  1.
         11   -1    0    0    0    0 -0.00000000000E+00 -0.00000000000E+00 -0.45593999997E+02  0.45594000000E+02  0.51100000000E-03 0. -1.
         23    2    1    2    0    0  0.00000000000E+00  0.00000000000E+00  0.35527136788E-14  0.91188000000E+02  0.91188000000E+02 0.  0.
    9900012    2    3    3    0    0 -0.18865464573E+02  0.14526353029E+02  0.28086653496E+02  0.54367071298E+02  0.39999970638E+02 0.  0.
         12    1    3    3    0    0  0.18865464573E+02 -0.14526353029E+02 -0.28086653496E+02  0.36820928702E+02  0.00000000000E+00 0. -1.
         11    1    4    4    0    0 -0.13151229710E+02  0.15581224317E+01  0.10838094686E+02  0.17112769650E+02  0.51100000000E-03 0. -1.
        -11    1    4    4    0    0 -0.36212982916E+01  0.54471305153E+01  0.25245137816E+02  0.26078765610E+02  0.51100000000E-03 0.  1.
         12    1    4    4    0    0 -0.20929365714E+01  0.75211000817E+01 -0.79965790058E+01  0.11175536038E+02  0.00000000000E+00 0. -1.
</event>
<event>
 8    1  0.1253488E-006  0.9118800E+02  0.7816164E-02  0.1184000E+00
        -11   -1    0    0    0    0  0.00000000000E+00  0.00000000000E+00  0.45593999997E+02  0.45594000000E+02  0.51100000000E-03 0.  1.
         11   -1    0    0    0    0 -0.00000000000E+00 -0.00000000000E+00 -0.45593999997E+02  0.45594000000E+02  0.51100000000E-03 0. -1.
         23    2    1    2    0    0  0.00000000000E+00  0.13322676296E-14  0.00000000000E+00  0.91188000000E+02  0.91188000000E+02 0.  0.
    9900012    2    3    3    0    0 -0.34867200387E+02  0.22203943183E+01  0.11624412494E+02  0.54367098604E+02  0.40000032889E+02 0.  0.
         12    1    3    3    0    0  0.34867200387E+02 -0.22203943183E+01 -0.11624412494E+02  0.36820901396E+02  0.00000000000E+00 0. -1.
         11    1    4    4    0    0 -0.86185537806E+01  0.15467076910E+02 -0.33516050958E+00  0.17709383677E+02  0.51100000000E-03 0. -1.
        -11    1    4    4    0    0 -0.14572603721E+02 -0.16860901300E+02  0.61137906988E+01  0.23109072003E+02  0.51100000000E-03 0.  1.
        -12    1    4    4    0    0 -0.11676042885E+02  0.36142187090E+01  0.58457823049E+01  0.13548642925E+02  0.00000000000E+00 0.  1.
</event>
<event>
 8    1  0.1253488E-006  0.9118800E+02  0.7816164E-02  0.1184000E+00
        -11   -1    0    0    0    0  0.00000000000E+00  0.00000000000E+00  0.45593999997E+02  0.45594000000E+02  0.51100000000E-03 0. -1.
         11   -1    0    0    0    0 -0.00000000000E+00 -0.00000000000E+00 -0.45593999997E+02  0.45594000000E+02  0.51100000000E-03 0.  1.
         23    2    1    2    0    0  0.17763568394E-14  0.00000000000E+00  0.00000000000E+00  0.91188000000E+02  0.91188000000E+02 0.  0.
    9900012    2    3    3    0    0  0.15466103952E+02 -0.32559693643E+02 -0.75129955883E+01  0.54367093923E+02  0.40000022217E+02 0.  0.
         12    1    3    3    0    0 -0.15466103952E+02  0.32559693643E+02  0.75129955883E+01  0.36820906077E+02  0.00000000000E+00 0. -1.
         11    1    4    4    0    0 -0.97532950427E+00 -0.10858258427E+02 -0.63543856097E+01  0.12618686954E+02  0.51100000000E-03 0.  1.
        -11    1    4    4    0    0  0.18420906553E+02  0.61953952567E-01  0.49177255058E+01  0.19066139120E+02  0.51100000000E-03 0. -1.
         12    1    4    4    0    0 -0.19794730971E+01 -0.21763389169E+02 -0.60763354845E+01  0.22682267849E+02  0.00000000000E+00 0. -1.
</event>
<event>
 8    1  0.1253488E-006  0.9118800E+02  0.7816164E-02  0.1184000E+00
        -11   -1    0    0    0    0  0.00000000000E+00  0.00000000000E+00  0.45593999997E+02  0.45594000000E+02  0.51100000000E-03 0.  1.
         11   -1    0    0    0    0 -0.00000000000E+00 -0.00000000000E+00 -0.45593999997E+02  0.45594000000E+02  0.51100000000E-03 0. -1.
         23    2    1    2    0    0  0.17763568394E-14  0.00000000000E+00  0.44408920985E-15  0.91188000000E+02  0.91188000000E+02 0.  0.
    9900012    2    3    3    0    0 -0.12809625964E+02 -0.34394054302E+02  0.29566705074E+01  0.54367090327E+02  0.40000014019E+02 0.  0.
         12    1    3    3    0    0  0.12809625964E+02  0.34394054302E+02 -0.29566705074E+01  0.36820909673E+02  0.00000000000E+00 0. -1.
         11    1    4    4    0    0  0.10531979483E+01 -0.43698522124E+01  0.33826426028E+01  0.56255760164E+01  0.51100000000E-03 0.  1.
        -11    1    4    4    0    0 -0.24016942719E+02 -0.18931935708E+02  0.78548502381E+01  0.31574204658E+02  0.51100000000E-03 0. -1.
         12    1    4    4    0    0  0.10154118807E+02 -0.11092266381E+02 -0.82808223336E+01  0.17167309653E+02  0.00000000000E+00 0. -1.
</event>
<event>
 8    1  0.1253488E-006  0.9118800E+02  0.7816164E-02  0.1184000E+00
        -11   -1    0    0    0    0  0.00000000000E+00  0.00000000000E+00  0.45593999997E+02  0.45594000000E+02  0.51100000000E-03 0.  1.
         11   -1    0    0    0    0 -0.00000000000E+00 -0.00000000000E+00 -0.45593999997E+02  0.45594000000E+02  0.51100000000E-03 0. -1.
         23    2    1    2    0    0  0.00000000000E+00 -0.71054273576E-14  0.17763568394E-14  0.91188000000E+02  0.91188000000E+02 0.  0.
    9900012    2    3    3    0    0 -0.14615119955E+02  0.32190344138E+02 -0.10293533806E+02  0.54367125143E+02  0.40000093388E+02 0.  0.
         12    1    3    3    0    0  0.14615119955E+02 -0.32190344138E+02  0.10293533806E+02  0.36820874857E+02  0.00000000000E+00 0. -1.
         11    1    4    4    0    0 -0.18374914696E+01 -0.54818977651E+01  0.16042979472E+01  0.60001125133E+01  0.51100000000E-03 0. -1.
        -11    1    4    4    0    0 -0.72644578722E+01  0.14342310103E+02 -0.17484117921E+02  0.23752233306E+02  0.51100000000E-03 0.  1.
        -12    1    4    4    0    0 -0.55131706131E+01  0.23329931800E+02  0.55862861677E+01  0.24614779324E+02  0.00000000000E+00 0.  1.
</event>
<event>
 8    1  0.1253488E-006  0.9118800E+02  0.7816164E-02  0.1184000E+00
        -11   -1    0    0    0    0  0.00000000000E+00  0.00000000000E+00  0.45593999997E+02  0.45594000000E+02  0.51100000000E-03 0. -1.
         11   -1    0    0    0    0 -0.00000000000E+00 -0.00000000000E+00 -0.45593999997E+02  0.45594000000E+02  0.51100000000E-03 0.  1.
         23    2    1    2    0    0  0.00000000000E+00 -0.35527136788E-14  0.00000000000E+00  0.91188000000E+02  0.91188000000E+02 0.  0.
    9900012    2    3    3    0    0 -0.34159476747E+02 -0.10859775826E+02  0.84247025751E+01  0.54367079369E+02  0.39999989037E+02 0.  0.
        -12    1    3    3    0    0  0.34159476747E+02  0.10859775826E+02 -0.84247025751E+01  0.36820920631E+02  0.00000000000E+00 0.  1.
         11    1    4    4    0    0 -0.55771489677E+01 -0.18736903522E+02  0.16680701765E+01  0.19620361938E+02  0.51100000000E-03 0. -1.
        -11    1    4    4    0    0 -0.26996776230E+02  0.11996722560E+02  0.68719592799E+01  0.30331025429E+02  0.51100000000E-03 0.  1.
        -12    1    4    4    0    0 -0.15855515496E+01 -0.41195948638E+01 -0.11532688126E+00  0.44156920010E+01  0.00000000000E+00 0.  1.
</event>
<event>
 8    1  0.1253488E-006  0.9118800E+02  0.7816164E-02  0.1184000E+00
        -11   -1    0    0    0    0  0.00000000000E+00  0.00000000000E+00  0.45593999997E+02  0.45594000000E+02  0.51100000000E-03 0. -1.
         11   -1    0    0    0    0 -0.00000000000E+00 -0.00000000000E+00 -0.45593999997E+02  0.45594000000E+02  0.51100000000E-03 0.  1.
         23    2    1    2    0    0 -0.44408920985E-15  0.00000000000E+00  0.35527136788E-14  0.91188000000E+02  0.91188000000E+02 0.  0.
    9900012    2    3    3    0    0 -0.39465172977E+01  0.28800219839E+02  0.22599739469E+02  0.54367137902E+02  0.40000122475E+02 0.  0.
        -12    1    3    3    0    0  0.39465172977E+01 -0.28800219839E+02 -0.22599739469E+02  0.36820862098E+02  0.00000000000E+00 0.  1.
         11    1    4    4    0    0  0.11337739404E+02  0.20693820717E+02 -0.11826202112E+01  0.23625772823E+02  0.51100000000E-03 0.  1.
        -11    1    4    4    0    0 -0.12436696761E+01  0.38771776544E+01  0.21420296513E+01  0.46008164618E+01  0.51100000000E-03 0. -1.
        -12    1    4    4    0    0 -0.14040587025E+02  0.42292214678E+01  0.21640330029E+02  0.26140548617E+02  0.00000000000E+00 0.  1.
</event>
<event>
 8    1  0.1253488E-006  0.9118800E+02  0.7816164E-02  0.1184000E+00
        -11   -1    0    0    0    0  0.00000000000E+00  0.00000000000E+00  0.45593999997E+02  0.45594000000E+02  0.51100000000E-03 0. -1.
         11   -1    0    0    0    0 -0.00000000000E+00 -0.00000000000E+00 -0.45593999997E+02  0.45594000000E+02  0.51100000000E-03 0.  1.
         23    2    1    2    0    0  0.00000000000E+00 -0.11102230246E-14  0.00000000000E+00  0.91188000000E+02  0.91188000000E+02 0.  0.
    9900012    2    3    3    0    0 -0.20329218855E+02  0.11397823559E+01 -0.30679049772E+02  0.54367077443E+02  0.39999984646E+02 0.  0.
         12    1    3    3    0    0  0.20329218855E+02 -0.11397823559E+01  0.30679049772E+02  0.36820922557E+02  0.00000000000E+00 0. -1.
         11    1    4    4    0    0  0.69771182237E+01  0.12281880805E+01 -0.28906772494E+01  0.76514469148E+01  0.51100000000E-03 0. -1.
        -11    1    4    4    0    0 -0.20304955424E+02 -0.60367364552E+01 -0.30501889130E+02  0.37136217397E+02  0.51100000000E-03 0.  1.
        -12    1    4    4    0    0 -0.70013816551E+01  0.59483307306E+01  0.27135166078E+01  0.95794131314E+01  0.00000000000E+00 0.  1.
</event>
<event>
 8    1  0.1253488E-006  0.9118800E+02  0.7816164E-02  0.1184000E+00
        -11   -1    0    0    0    0  0.00000000000E+00  0.00000000000E+00  0.45593999997E+02  0.45594000000E+02  0.51100000000E-03 0.  1.
         11   -1    0    0    0    0 -0.00000000000E+00 -0.00000000000E+00 -0.45593999997E+02  0.45594000000E+02  0.51100000000E-03 0. -1.
         23    2    1    2    0    0 -0.35527136788E-14 -0.71054273576E-14  0.44408920985E-15  0.91188000000E+02  0.91188000000E+02 0.  0.
    9900012    2    3    3    0    0  0.22625292821E+02  0.28892724650E+02  0.30143826474E+01  0.54367083177E+02  0.39999997720E+02 0.  0.
         12    1    3    3    0    0 -0.22625292821E+02 -0.28892724650E+02 -0.30143826474E+01  0.36820916823E+02  0.00000000000E+00 0. -1.
         11    1    4    4    0    0 -0.16771176248E+01 -0.65262870387E+01 -0.21684892272E+01  0.70786645513E+01  0.51100000000E-03 0. -1.
        -11    1    4    4    0    0  0.24548515300E+02  0.20466968194E+02  0.48765727963E+01  0.32331213293E+02  0.51100000000E-03 0.  1.
         12    1    4    4    0    0 -0.24610485445E+00  0.14952043495E+02  0.30629907834E+00  0.14957205334E+02  0.00000000000E+00 0. -1.
</event>
<event>
 8    1  0.1253488E-006  0.9118800E+02  0.7816164E-02  0.1184000E+00
        -11   -1    0    0    0    0  0.00000000000E+00  0.00000000000E+00  0.45593999997E+02  0.45594000000E+02  0.51100000000E-03 0. -1.
         11   -1    0    0    0    0 -0.00000000000E+00 -0.00000000000E+00 -0.45593999997E+02  0.45594000000E+02  0.51100000000E-03 0.  1.
         23    2    1    2    0    0  0.35527136788E-14 -0.35527136788E-14 -0.17763568394E-14  0.91188000000E+02  0.91188000000E+02 0.  0.
    9900012    2    3    3    0    0  0.28270322475E+02 -0.21246669892E+02 -0.10254146055E+02  0.54367087115E+02  0.40000006697E+02 0.  0.
         12    1    3    3    0    0 -0.28270322475E+02  0.21246669892E+02  0.10254146055E+02  0.36820912885E+02  0.00000000000E+00 0. -1.
         11    1    4    4    0    0  0.96646557242E+01 -0.36675193221E-02 -0.94536786854E+01  0.13519527531E+02  0.51100000000E-03 0. -1.
        -11    1    4    4    0    0  0.12203197775E+02 -0.57284379139E+01  0.13292216180E+02  0.18931879149E+02  0.51100000000E-03 0.  1.
        -12    1    4    4    0    0  0.64024689757E+01 -0.15514564459E+02 -0.14092683549E+02  0.21915680435E+02  0.00000000000E+00 0.  1.
</event>
<event>
 8    1  0.1253488E-006  0.9118800E+02  0.7816164E-02  0.1184000E+00
        -11   -1    0    0    0    0  0.00000000000E+00  0.00000000000E+00  0.45593999997E+02  0.45594000000E+02  0.51100000000E-03 0. -1.
         11   -1    0    0    0    0 -0.00000000000E+00 -0.00000000000E+00 -0.45593999997E+02  0.45594000000E+02  0.51100000000E-03 0.  1.
         23    2    1    2    0    0 -0.35527136788E-14 -0.17763568394E-14 -0.17763568394E-14  0.91188000000E+02  0.91188000000E+02 0.  0.
    9900012    2    3    3    0    0  0.31151916058E+02  0.15954737262E+02 -0.11436117451E+02  0.54367077992E+02  0.39999985898E+02 0.  0.
         12    1    3    3    0    0 -0.31151916058E+02 -0.15954737262E+02  0.11436117451E+02  0.36820922008E+02  0.00000000000E+00 0. -1.
         11    1    4    4    0    0  0.51260096924E+00 -0.19180925578E+01  0.21343749118E+01  0.29150292175E+01  0.51100000000E-03 0. -1.
        -11    1    4    4    0    0  0.22594465112E+02 -0.26949133636E+01 -0.17894072290E+02  0.28947715542E+02  0.51100000000E-03 0.  1.
         12    1    4    4    0    0  0.80448499772E+01  0.20567743184E+02  0.43235799277E+01  0.22504333232E+02  0.00000000000E+00 0. -1.
</event>
<event>
 8    1  0.1253488E-006  0.9118800E+02  0.7816164E-02  0.1184000E+00
        -11   -1    0    0    0    0  0.00000000000E+00  0.00000000000E+00  0.45593999997E+02  0.45594000000E+02  0.51100000000E-03 0.  1.
         11   -1    0    0    0    0 -0.00000000000E+00 -0.00000000000E+00 -0.45593999997E+02  0.45594000000E+02  0.51100000000E-03 0. -1.
         23    2    1    2    0    0  0.71054273576E-14  0.00000000000E+00  0.00000000000E+00  0.91188000000E+02  0.91188000000E+02 0.  0.
    9900012    2    3    3    0    0 -0.21888440986E+02 -0.25234987486E+02 -0.15487864561E+02  0.54367049566E+02  0.39999921095E+02 0.  0.
         12    1    3    3    0    0  0.21888440986E+02  0.25234987486E+02  0.15487864561E+02  0.36820950434E+02  0.00000000000E+00 0. -1.
         11    1    4    4    0    0  0.99861606600E+01 -0.52555841636E+00  0.10441473883E+01  0.10054345349E+02  0.51100000000E-03 0. -1.
        -11    1    4    4    0    0 -0.30826296025E+01  0.93046783401E-01 -0.82277513215E+00  0.31918994579E+01  0.51100000000E-03 0.  1.
         12    1    4    4    0    0 -0.28791972043E+02 -0.24802475853E+02 -0.15709236817E+02  0.41120804758E+02  0.00000000000E+00 0. -1.
</event>
<event>
 8    1  0.1253488E-006  0.9118800E+02  0.7816164E-02  0.1184000E+00
        -11   -1    0    0    0    0  0.00000000000E+00  0.00000000000E+00  0.45593999997E+02  0.45594000000E+02  0.51100000000E-03 0.  1.
         11   -1    0    0    0    0 -0.00000000000E+00 -0.00000000000E+00 -0.45593999997E+02  0.45594000000E+02  0.51100000000E-03 0. -1.
         23    2    1    2    0    0  0.00000000000E+00  0.88817841970E-15  0.00000000000E+00  0.91188000000E+02  0.91188000000E+02 0.  0.
    9900012    2    3    3    0    0  0.35130991054E+02  0.20159217150E+01  0.10840993247E+02  0.54367114523E+02  0.40000069177E+02 0.  0.
         12    1    3    3    0    0 -0.35130991054E+02 -0.20159217150E+01 -0.10840993247E+02  0.36820885477E+02  0.00000000000E+00 0. -1.
         11    1    4    4    0    0  0.16347972267E+02  0.16580188959E+02  0.61708723475E+01  0.24088140837E+02  0.51100000000E-03 0. -1.
        -11    1    4    4    0    0  0.21317537932E+02 -0.15405577794E+02  0.18066478625E+01  0.26363482839E+02  0.51100000000E-03 0.  1.
        -12    1    4    4    0    0 -0.25345191454E+01  0.84131054972E+00  0.28634730368E+01  0.39154908469E+01  0.00000000000E+00 0.  1.
</event>
<event>
 8    1  0.1253488E-006  0.9118800E+02  0.7816164E-02  0.1184000E+00
        -11   -1    0    0    0    0  0.00000000000E+00  0.00000000000E+00  0.45593999997E+02  0.45594000000E+02  0.51100000000E-03 0.  1.
         11   -1    0    0    0    0 -0.00000000000E+00 -0.00000000000E+00 -0.45593999997E+02  0.45594000000E+02  0.51100000000E-03 0. -1.
         23    2    1    2    0    0  0.00000000000E+00 -0.35527136788E-14 -0.17763568394E-14  0.91188000000E+02  0.91188000000E+02 0.  0.
    9900012    2    3    3    0    0 -0.21777428649E+02  0.27361282232E+02  0.11527570727E+02  0.54367067763E+02  0.39999962580E+02 0.  0.
         12    1    3    3    0    0  0.21777428649E+02 -0.27361282232E+02 -0.11527570727E+02  0.36820932237E+02  0.00000000000E+00 0. -1.
         11    1    4    4    0    0 -0.10689803193E+02  0.13804186122E+02 -0.39443319170E+01  0.17899307287E+02  0.51100000000E-03 0. -1.
        -11    1    4    4    0    0  0.83969839217E+01 -0.92031281722E+00  0.19051160740E+01  0.86594331327E+01  0.51100000000E-03 0.  1.
        -12    1    4    4    0    0 -0.19484609378E+02  0.14477408927E+02  0.13566786570E+02  0.27808327344E+02  0.00000000000E+00 0.  1.
</event>
<event>
 8    1  0.1253488E-006  0.9118800E+02  0.7816164E-02  0.1184000E+00
        -11   -1    0    0    0    0  0.00000000000E+00  0.00000000000E+00  0.45593999997E+02  0.45594000000E+02  0.51100000000E-03 0. -1.
         11   -1    0    0    0    0 -0.00000000000E+00 -0.00000000000E+00 -0.45593999997E+02  0.45594000000E+02  0.51100000000E-03 0.  1.
         23    2    1    2    0    0  0.00000000000E+00  0.00000000000E+00 -0.35527136788E-14  0.91188000000E+02  0.91188000000E+02 0.  0.
    9900012    2    3    3    0    0  0.30032290752E+02 -0.11162479520E+02 -0.18145000011E+02  0.54367075755E+02  0.39999980799E+02 0.  0.
         12    1    3    3    0    0 -0.30032290752E+02  0.11162479520E+02  0.18145000011E+02  0.36820924245E+02  0.00000000000E+00 0. -1.
         11    1    4    4    0    0  0.19550418897E+02 -0.12533677411E+01  0.63397711164E+01  0.20590835530E+02  0.51100000000E-03 0.  1.
        -11    1    4    4    0    0  0.51236325252E+01 -0.49146653722E+01  0.10812658086E+01  0.71815515025E+01  0.51100000000E-03 0. -1.
         12    1    4    4    0    0  0.53582393295E+01 -0.49944464063E+01 -0.25566036936E+02  0.26594688723E+02  0.00000000000E+00 0. -1.
</event>
<event>
 8    1  0.1253488E-006  0.9118800E+02  0.7816164E-02  0.1184000E+00
        -11   -1    0    0    0    0  0.00000000000E+00  0.00000000000E+00  0.45593999997E+02  0.45594000000E+02  0.51100000000E-03 0.  1.
         11   -1    0    0    0    0 -0.00000000000E+00 -0.00000000000E+00 -0.45593999997E+02  0.45594000000E+02  0.51100000000E-03 0. -1.
         23    2    1    2    0    0  0.00000000000E+00  0.00000000000E+00  0.00000000000E+00  0.91188000000E+02  0.91188000000E+02 0.  0.
    9900012    2    3    3    0    0  0.11854716158E+02 -0.30464191363E+02 -0.16946351669E+02  0.54367080872E+02  0.39999992464E+02 0.  0.
        -12    1    3    3    0    0 -0.11854716158E+02  0.30464191363E+02  0.16946351669E+02  0.36820919128E+02  0.00000000000E+00 0.  1.
         11    1    4    4    0    0 -0.17568626913E+01 -0.16746436123E+02 -0.13010268119E+02  0.21279021739E+02  0.51100000000E-03 0. -1.
        -11    1    4    4    0    0 -0.80466184129E+01 -0.49878947115E+01 -0.44975257405E+00  0.94778393727E+01  0.51100000000E-03 0.  1.
        -12    1    4    4    0    0  0.21658197262E+02 -0.87298605276E+01 -0.34863309754E+01  0.23610219761E+02  0.00000000000E+00 0.  1.
</event>
<event>
 8    1  0.1253488E-006  0.9118800E+02  0.7816164E-02  0.1184000E+00
        -11   -1    0    0    0    0  0.00000000000E+00  0.00000000000E+00  0.45593999997E+02  0.45594000000E+02  0.51100000000E-03 0.  1.
         11   -1    0    0    0    0 -0.00000000000E+00 -0.00000000000E+00 -0.45593999997E+02  0.45594000000E+02  0.51100000000E-03 0. -1.
         23    2    1    2    0    0  0.00000000000E+00 -0.17763568394E-14  0.35527136788E-14  0.91188000000E+02  0.91188000000E+02 0.  0.
    9900012    2    3    3    0    0 -0.31469458643E+02  0.64578785212E+01 -0.17992990290E+02  0.54367099388E+02  0.40000034675E+02 0.  0.
        -12    1    3    3    0    0  0.31469458643E+02 -0.64578785212E+01  0.17992990290E+02  0.36820900612E+02  0.00000000000E+00 0.  1.
         11    1    4    4    0    0 -0.91165637602E+01  0.13403205830E+02 -0.11063486578E+02  0.19625452781E+02  0.51100000000E-03 0. -1.
        -11    1    4    4    0    0 -0.26825131949E+02 -0.71361881031E+01 -0.16318313723E+01  0.27806038168E+02  0.51100000000E-03 0.  1.
        -12    1    4    4    0    0  0.44722370655E+01  0.19086079422E+00 -0.52976723397E+01  0.69356084399E+01  0.00000000000E+00 0.  1.
</event>
<event>
 8    1  0.1253488E-006  0.9118800E+02  0.7816164E-02  0.1184000E+00
        -11   -1    0    0    0    0  0.00000000000E+00  0.00000000000E+00  0.45593999997E+02  0.45594000000E+02  0.51100000000E-03 0. -1.
         11   -1    0    0    0    0 -0.00000000000E+00 -0.00000000000E+00 -0.45593999997E+02  0.45594000000E+02  0.51100000000E-03 0.  1.
         23    2    1    2    0    0  0.00000000000E+00  0.00000000000E+00  0.00000000000E+00  0.91188000000E+02  0.91188000000E+02 0.  0.
    9900012    2    3    3    0    0  0.25696008526E+02 -0.16985746083E+02  0.20173731078E+02  0.54367084072E+02  0.39999999760E+02 0.  0.
        -12    1    3    3    0    0 -0.25696008526E+02  0.16985746083E+02 -0.20173731078E+02  0.36820915928E+02  0.00000000000E+00 0.  1.
         11    1    4    4    0    0  0.11191767332E+02 -0.77052748368E+01 -0.52680685860E+01  0.14573244773E+02  0.51100000000E-03 0.  1.
        -11    1    4    4    0    0 -0.41505069389E+01 -0.73376445973E+01  0.17502725566E+02  0.19427123786E+02  0.51100000000E-03 0. -1.
        -12    1    4    4    0    0  0.18654748133E+02 -0.19428266485E+01  0.79390740978E+01  0.20366715514E+02  0.00000000000E+00 0.  1.
</event>
<event>
 8    1  0.1253488E-006  0.9118800E+02  0.7816164E-02  0.1184000E+00
        -11   -1    0    0    0    0  0.00000000000E+00  0.00000000000E+00  0.45593999997E+02  0.45594000000E+02  0.51100000000E-03 0. -1.
         11   -1    0    0    0    0 -0.00000000000E+00 -0.00000000000E+00 -0.45593999997E+02  0.45594000000E+02  0.51100000000E-03 0.  1.
         23    2    1    2    0    0  0.00000000000E+00  0.35527136788E-14  0.00000000000E+00  0.91188000000E+02  0.91188000000E+02 0.  0.
    9900012    2    3    3    0    0  0.22092428036E+01  0.25103894043E+02 -0.26845733662E+02  0.54367086571E+02  0.40000005455E+02 0.  0.
         12    1    3    3    0    0 -0.22092428036E+01 -0.25103894043E+02  0.26845733662E+02  0.36820913429E+02  0.00000000000E+00 0. -1.
         11    1    4    4    0    0 -0.19973353575E+01  0.41919736098E+01  0.56919932839E+01  0.73458000981E+01  0.51100000000E-03 0. -1.
        -11    1    4    4    0    0 -0.13582047783E+01 -0.30145378344E+01 -0.18366430051E+02  0.18661669583E+02  0.51100000000E-03 0.  1.
        -12    1    4    4    0    0  0.55647829395E+01  0.23926458268E+02 -0.14171296896E+02  0.28359616889E+02  0.00000000000E+00 0.  1.
</event>
<event>
 8    1  0.1253488E-006  0.9118800E+02  0.7816164E-02  0.1184000E+00
        -11   -1    0    0    0    0  0.00000000000E+00  0.00000000000E+00  0.45593999997E+02  0.45594000000E+02  0.51100000000E-03 0.  1.
         11   -1    0    0    0    0 -0.00000000000E+00 -0.00000000000E+00 -0.45593999997E+02  0.45594000000E+02  0.51100000000E-03 0. -1.
         23    2    1    2    0    0  0.35527136788E-14  0.00000000000E+00 -0.88817841970E-15  0.91188000000E+02  0.91188000000E+02 0.  0.
    9900012    2    3    3    0    0  0.14023786243E+02 -0.33264799863E+02  0.72510853100E+01  0.54366922766E+02  0.39999632027E+02 0.  0.
        -12    1    3    3    0    0 -0.14023786243E+02  0.33264799863E+02 -0.72510853100E+01  0.36821077234E+02  0.00000000000E+00 0.  1.
         11    1    4    4    0    0  0.71028207806E+01 -0.10056682759E+02 -0.44355686749E+00  0.12320051709E+02  0.51100000000E-03 0. -1.
        -11    1    4    4    0    0 -0.88272047192E+01 -0.49052540252E-01 -0.61962934491E+01  0.10784989665E+02  0.51100000000E-03 0.  1.
        -12    1    4    4    0    0  0.15748170182E+02 -0.23159064564E+02  0.13890935627E+02  0.31261881391E+02  0.00000000000E+00 0.  1.
</event>
<event>
 8    1  0.1253488E-006  0.9118800E+02  0.7816164E-02  0.1184000E+00
        -11   -1    0    0    0    0  0.00000000000E+00  0.00000000000E+00  0.45593999997E+02  0.45594000000E+02  0.51100000000E-03 0. -1.
         11   -1    0    0    0    0 -0.00000000000E+00 -0.00000000000E+00 -0.45593999997E+02  0.45594000000E+02  0.51100000000E-03 0.  1.
         23    2    1    2    0    0  0.88817841970E-15  0.71054273576E-14  0.00000000000E+00  0.91188000000E+02  0.91188000000E+02 0.  0.
    9900012    2    3    3    0    0  0.44596352347E+01 -0.29135415842E+02  0.22068507331E+02  0.54367084496E+02  0.40000000726E+02 0.  0.
        -12    1    3    3    0    0 -0.44596352347E+01  0.29135415842E+02 -0.22068507331E+02  0.36820915504E+02  0.00000000000E+00 0.  1.
         11    1    4    4    0    0  0.38638142023E+01 -0.14531891819E+02  0.14866358325E+02  0.21145059709E+02  0.51100000000E-03 0. -1.
        -11    1    4    4    0    0  0.10471008684E+02  0.41015441366E+01  0.17729299686E+01  0.11384549534E+02  0.51100000000E-03 0.  1.
         12    1    4    4    0    0 -0.98751876516E+01 -0.18705068160E+02  0.54292190381E+01  0.21837475252E+02  0.00000000000E+00 0. -1.
</event>
<event>
 8    1  0.1253488E-006  0.9118800E+02  0.7816164E-02  0.1184000E+00
        -11   -1    0    0    0    0  0.00000000000E+00  0.00000000000E+00  0.45593999997E+02  0.45594000000E+02  0.51100000000E-03 0.  1.
         11   -1    0    0    0    0 -0.00000000000E+00 -0.00000000000E+00 -0.45593999997E+02  0.45594000000E+02  0.51100000000E-03 0. -1.
         23    2    1    2    0    0  0.35527136788E-14  0.35527136788E-14  0.66613381478E-15  0.91188000000E+02  0.91188000000E+02 0.  0.
    9900012    2    3    3    0    0  0.20753427553E+02 -0.30413632443E+02 -0.29328534701E+00  0.54367084614E+02  0.40000000994E+02 0.  0.
        -12    1    3    3    0    0 -0.20753427553E+02  0.30413632443E+02  0.29328534701E+00  0.36820915386E+02  0.00000000000E+00 0.  1.
         11    1    4    4    0    0  0.11469878696E+02 -0.63777821802E+01  0.83418284822E+01  0.15550573157E+02  0.51100000000E-03 0.  1.
        -11    1    4    4    0    0  0.10304659095E+02 -0.16281724976E+01 -0.12256314691E+02  0.16095160603E+02  0.51100000000E-03 0. -1.
        -12    1    4    4    0    0 -0.10211102380E+01 -0.22407677765E+02  0.36212008622E+01  0.22721350854E+02  0.00000000000E+00 0.  1.
</event>
<event>
 8    1  0.1253488E-006  0.9118800E+02  0.7816164E-02  0.1184000E+00
        -11   -1    0    0    0    0  0.00000000000E+00  0.00000000000E+00  0.45593999997E+02  0.45594000000E+02  0.51100000000E-03 0. -1.
         11   -1    0    0    0    0 -0.00000000000E+00 -0.00000000000E+00 -0.45593999997E+02  0.45594000000E+02  0.51100000000E-03 0.  1.
         23    2    1    2    0    0  0.00000000000E+00  0.00000000000E+00 -0.35527136788E-14  0.91188000000E+02  0.91188000000E+02 0.  0.
    9900012    2    3    3    0    0 -0.22403438533E+02  0.20583467150E+02 -0.20740931590E+02  0.54367089892E+02  0.40000013026E+02 0.  0.
         12    1    3    3    0    0  0.22403438533E+02 -0.20583467150E+02  0.20740931590E+02  0.36820910108E+02  0.00000000000E+00 0. -1.
         11    1    4    4    0    0  0.98538438135E+01  0.37442395968E+01 -0.75349075812E+01  0.12957329994E+02  0.51100000000E-03 0. -1.
        -11    1    4    4    0    0 -0.25964776235E+01  0.74837886316E+01 -0.45115815349E+01  0.91160932717E+01  0.51100000000E-03 0.  1.
         12    1    4    4    0    0 -0.29660804723E+02  0.93554389214E+01 -0.86944424737E+01  0.32293666626E+02  0.00000000000E+00 0. -1.
</event>
<event>
 8    1  0.1253488E-006  0.9118800E+02  0.7816164E-02  0.1184000E+00
        -11   -1    0    0    0    0  0.00000000000E+00  0.00000000000E+00  0.45593999997E+02  0.45594000000E+02  0.51100000000E-03 0.  1.
         11   -1    0    0    0    0 -0.00000000000E+00 -0.00000000000E+00 -0.45593999997E+02  0.45594000000E+02  0.51100000000E-03 0. -1.
         23    2    1    2    0    0  0.71054273576E-14  0.00000000000E+00  0.00000000000E+00  0.91188000000E+02  0.91188000000E+02 0.  0.
    9900012    2    3    3    0    0 -0.21840877078E+02  0.27378991882E+02 -0.11364356978E+02  0.54367058710E+02  0.39999941941E+02 0.  0.
        -12    1    3    3    0    0  0.21840877078E+02 -0.27378991882E+02  0.11364356978E+02  0.36820941290E+02  0.00000000000E+00 0.  1.
         11    1    4    4    0    0 -0.19701627981E+02  0.31587277169E+02 -0.91141924337E+01  0.38327258290E+02  0.51100000000E-03 0. -1.
        -11    1    4    4    0    0  0.58515436741E+01 -0.37938423225E+01  0.16078399961E+01  0.71567417623E+01  0.51100000000E-03 0.  1.
        -12    1    4    4    0    0 -0.79907927712E+01 -0.41444296477E+00 -0.38580045404E+01  0.88830586577E+01  0.00000000000E+00 0.  1.
</event>
<event>
 8    1  0.1253488E-006  0.9118800E+02  0.7816164E-02  0.1184000E+00
        -11   -1    0    0    0    0  0.00000000000E+00  0.00000000000E+00  0.45593999997E+02  0.45594000000E+02  0.51100000000E-03 0.  1.
         11   -1    0    0    0    0 -0.00000000000E+00 -0.00000000000E+00 -0.45593999997E+02  0.45594000000E+02  0.51100000000E-03 0. -1.
         23    2    1    2    0    0  0.00000000000E+00  0.00000000000E+00  0.00000000000E+00  0.91188000000E+02  0.91188000000E+02 0.  0.
    9900012    2    3    3    0    0  0.23509486550E+02  0.22403936920E+02  0.17353562971E+02  0.54367102467E+02  0.40000041693E+02 0.  0.
        -12    1    3    3    0    0 -0.23509486550E+02 -0.22403936920E+02 -0.17353562971E+02  0.36820897533E+02  0.00000000000E+00 0.  1.
         11    1    4    4    0    0  0.17095925320E+02  0.25842673233E+02  0.30975573623E+01  0.31140155495E+02  0.51100000000E-03 0. -1.
        -11    1    4    4    0    0  0.10870176016E+02 -0.49780351941E+01  0.14131204034E+02  0.18510334646E+02  0.51100000000E-03 0.  1.
        -12    1    4    4    0    0 -0.44566147857E+01  0.15392988809E+01  0.12480157498E+00  0.47166123252E+01  0.00000000000E+00 0.  1.
</event>
<event>
 8    1  0.1253488E-006  0.9118800E+02  0.7816164E-02  0.1184000E+00
        -11   -1    0    0    0    0  0.00000000000E+00  0.00000000000E+00  0.45593999997E+02  0.45594000000E+02  0.51100000000E-03 0.  1.
         11   -1    0    0    0    0 -0.00000000000E+00 -0.00000000000E+00 -0.45593999997E+02  0.45594000000E+02  0.51100000000E-03 0. -1.
         23    2    1    2    0    0 -0.88817841970E-15  0.00000000000E+00  0.00000000000E+00  0.91188000000E+02  0.91188000000E+02 0.  0.
    9900012    2    3    3    0    0 -0.65316016502E+01 -0.32103658285E+02 -0.16806874787E+02  0.54367112782E+02  0.40000065209E+02 0.  0.
         12    1    3    3    0    0  0.65316016502E+01  0.32103658285E+02  0.16806874787E+02  0.36820887218E+02  0.00000000000E+00 0. -1.
         11    1    4    4    0    0  0.42997479273E+01 -0.25778286505E+02 -0.25992434889E+02  0.36859389022E+02  0.51100000000E-03 0. -1.
        -11    1    4    4    0    0 -0.20503596618E+01 -0.48628146680E+01  0.91386038040E+00  0.53559389741E+01  0.51100000000E-03 0.  1.
         12    1    4    4    0    0 -0.87809899157E+01 -0.14625571117E+01  0.82716997211E+01  0.12151784786E+02  0.00000000000E+00 0. -1.
</event>
<event>
 8    1  0.1253488E-006  0.9118800E+02  0.7816164E-02  0.1184000E+00
        -11   -1    0    0    0    0  0.00000000000E+00  0.00000000000E+00  0.45593999997E+02  0.45594000000E+02  0.51100000000E-03 0.  1.
         11   -1    0    0    0    0 -0.00000000000E+00 -0.00000000000E+00 -0.45593999997E+02  0.45594000000E+02  0.51100000000E-03 0. -1.
         23    2    1    2    0    0  0.00000000000E+00  0.00000000000E+00  0.00000000000E+00  0.91188000000E+02  0.91188000000E+02 0.  0.
    9900012    2    3    3    0    0  0.15864839023E+02 -0.19395229795E+02 -0.26979836792E+02  0.54367086794E+02  0.40000005964E+02 0.  0.
        -12    1    3    3    0    0 -0.15864839023E+02  0.19395229795E+02  0.26979836792E+02  0.36820913206E+02  0.00000000000E+00 0.  1.
         11    1    4    4    0    0 -0.69027462898E+01 -0.15093371153E+02 -0.12035838032E+02  0.20501686675E+02  0.51100000000E-03 0. -1.
        -11    1    4    4    0    0  0.11817830449E+02 -0.88830203792E+01 -0.37043712608E-02  0.14784085415E+02  0.51100000000E-03 0.  1.
        -12    1    4    4    0    0  0.10949754864E+02  0.45811617369E+01 -0.14940294388E+02  0.19081314704E+02  0.00000000000E+00 0.  1.
</event>
<event>
 8    1  0.1253488E-006  0.9118800E+02  0.7816164E-02  0.1184000E+00
        -11   -1    0    0    0    0  0.00000000000E+00  0.00000000000E+00  0.45593999997E+02  0.45594000000E+02  0.51100000000E-03 0.  1.
         11   -1    0    0    0    0 -0.00000000000E+00 -0.00000000000E+00 -0.45593999997E+02  0.45594000000E+02  0.51100000000E-03 0. -1.
         23    2    1    2    0    0  0.35527136788E-14  0.00000000000E+00  0.00000000000E+00  0.91188000000E+02  0.91188000000E+02 0.  0.
    9900012    2    3    3    0    0 -0.24707280339E+02 -0.10955244579E+02  0.25006262185E+02  0.54367078855E+02  0.39999987865E+02 0.  0.
         12    1    3    3    0    0  0.24707280339E+02  0.10955244579E+02 -0.25006262185E+02  0.36820921145E+02  0.00000000000E+00 0. -1.
         11    1    4    4    0    0 -0.42369896921E+01 -0.11115769938E+02  0.10353738166E+02  0.15770615626E+02  0.51100000000E-03 0. -1.
        -11    1    4    4    0    0 -0.18866390888E+02  0.96327615506E+01  0.18618978679E+02  0.28202786521E+02  0.51100000000E-03 0.  1.
         12    1    4    4    0    0 -0.16038997590E+01 -0.94722361921E+01 -0.39664546609E+01  0.10393676707E+02  0.00000000000E+00 0. -1.
</event>
<event>
 8    1  0.1253488E-006  0.9118800E+02  0.7816164E-02  0.1184000E+00
        -11   -1    0    0    0    0  0.00000000000E+00  0.00000000000E+00  0.45593999997E+02  0.45594000000E+02  0.51100000000E-03 0.  1.
         11   -1    0    0    0    0 -0.00000000000E+00 -0.00000000000E+00 -0.45593999997E+02  0.45594000000E+02  0.51100000000E-03 0. -1.
         23    2    1    2    0    0  0.00000000000E+00  0.00000000000E+00 -0.71054273576E-14  0.91188000000E+02  0.91188000000E+02 0.  0.
    9900012    2    3    3    0    0  0.88504020069E+01  0.84614559302E+01 -0.34725509182E+02  0.54366989149E+02  0.39999783362E+02 0.  0.
        -12    1    3    3    0    0 -0.88504020069E+01 -0.84614559302E+01  0.34725509182E+02  0.36821010851E+02  0.00000000000E+00 0.  1.
         11    1    4    4    0    0  0.13836151845E+01 -0.63613226484E+00 -0.12983762006E+02  0.13072762957E+02  0.51100000000E-03 0. -1.
        -11    1    4    4    0    0  0.15737620880E+02 -0.20928883759E+01 -0.47967558773E+00  0.15883418449E+02  0.51100000000E-03 0.  1.
         12    1    4    4    0    0 -0.82708340572E+01  0.11190476571E+02 -0.21262071588E+02  0.25410807742E+02  0.00000000000E+00 0. -1.
</event>
<event>
 8    1  0.1253488E-006  0.9118800E+02  0.7816164E-02  0.1184000E+00
        -11   -1    0    0    0    0  0.00000000000E+00  0.00000000000E+00  0.45593999997E+02  0.45594000000E+02  0.51100000000E-03 0.  1.
         11   -1    0    0    0    0 -0.00000000000E+00 -0.00000000000E+00 -0.45593999997E+02  0.45594000000E+02  0.51100000000E-03 0. -1.
         23    2    1    2    0    0  0.22204460493E-15  0.00000000000E+00  0.00000000000E+00  0.91188000000E+02  0.91188000000E+02 0.  0.
    9900012    2    3    3    0    0  0.11416794294E+01  0.32271463099E+02 -0.17692671938E+02  0.54367062983E+02  0.39999951683E+02 0.  0.
        -12    1    3    3    0    0 -0.11416794294E+01 -0.32271463099E+02  0.17692671938E+02  0.36820937017E+02  0.00000000000E+00 0.  1.
         11    1    4    4    0    0  0.10327552966E+02 -0.10271757568E+01 -0.77416976042E+01  0.12947869414E+02  0.51100000000E-03 0. -1.
        -11    1    4    4    0    0 -0.79036515983E+01  0.21248623996E+02  0.39125042286E+01  0.23006073544E+02  0.51100000000E-03 0.  1.
        -12    1    4    4    0    0 -0.12822219384E+01  0.12050014860E+02 -0.13863478563E+02  0.18413120026E+02  0.00000000000E+00 0.  1.
</event>
<event>
 8    1  0.1253488E-006  0.9118800E+02  0.7816164E-02  0.1184000E+00
        -11   -1    0    0    0    0  0.00000000000E+00  0.00000000000E+00  0.45593999997E+02  0.45594000000E+02  0.51100000000E-03 0. -1.
         11   -1    0    0    0    0 -0.00000000000E+00 -0.00000000000E+00 -0.45593999997E+02  0.45594000000E+02  0.51100000000E-03 0.  1.
         23    2    1    2    0    0 -0.71054273576E-14 -0.17763568394E-14 -0.88817841970E-15  0.91188000000E+02  0.91188000000E+02 0.  0.
    9900012    2    3    3    0    0 -0.35405475950E+02 -0.68496476023E+01  0.74376480796E+01  0.54367027600E+02  0.39999871019E+02 0.  0.
        -12    1    3    3    0    0  0.35405475950E+02  0.68496476023E+01 -0.74376480796E+01  0.36820972400E+02  0.00000000000E+00 0.  1.
         11    1    4    4    0    0 -0.48100431612E+01  0.53928018452E+00 -0.17658258136E+01  0.51522305263E+01  0.51100000000E-03 0. -1.
        -11    1    4    4    0    0 -0.32829707052E+02 -0.62918744688E+01 -0.58687162605E+01  0.33938461666E+02  0.51100000000E-03 0.  1.
         12    1    4    4    0    0  0.22342742627E+01 -0.10970533180E+01  0.15072190154E+02  0.15276335408E+02  0.00000000000E+00 0. -1.
</event>
<event>
 8    1  0.1253488E-006  0.9118800E+02  0.7816164E-02  0.1184000E+00
        -11   -1    0    0    0    0  0.00000000000E+00  0.00000000000E+00  0.45593999997E+02  0.45594000000E+02  0.51100000000E-03 0.  1.
         11   -1    0    0    0    0 -0.00000000000E+00 -0.00000000000E+00 -0.45593999997E+02  0.45594000000E+02  0.51100000000E-03 0. -1.
         23    2    1    2    0    0 -0.35527136788E-14  0.00000000000E+00  0.00000000000E+00  0.91188000000E+02  0.91188000000E+02 0.  0.
    9900012    2    3    3    0    0 -0.26448377209E+02 -0.87452373090E+01  0.24078705795E+02  0.54367083318E+02  0.39999998039E+02 0.  0.
         12    1    3    3    0    0  0.26448377209E+02  0.87452373090E+01 -0.24078705795E+02  0.36820916682E+02  0.00000000000E+00 0. -1.
         11    1    4    4    0    0 -0.99644661560E+01 -0.62048572504E+01 -0.69857088131E+01  0.13659830422E+02  0.51100000000E-03 0. -1.
        -11    1    4    4    0    0  0.30889005591E+01  0.41130628061E+01  0.33757620128E+01  0.61525898400E+01  0.51100000000E-03 0.  1.
        -12    1    4    4    0    0 -0.19572811612E+02 -0.66534428647E+01  0.27688652595E+02  0.34554663056E+02  0.00000000000E+00 0.  1.
</event>
<event>
 8    1  0.1253488E-006  0.9118800E+02  0.7816164E-02  0.1184000E+00
        -11   -1    0    0    0    0  0.00000000000E+00  0.00000000000E+00  0.45593999997E+02  0.45594000000E+02  0.51100000000E-03 0. -1.
         11   -1    0    0    0    0 -0.00000000000E+00 -0.00000000000E+00 -0.45593999997E+02  0.45594000000E+02  0.51100000000E-03 0.  1.
         23    2    1    2    0    0 -0.35527136788E-14  0.00000000000E+00 -0.35527136788E-14  0.91188000000E+02  0.91188000000E+02 0.  0.
    9900012    2    3    3    0    0 -0.19584864078E+02 -0.20792276341E+02 -0.23235623727E+02  0.54367083846E+02  0.39999999244E+02 0.  0.
         12    1    3    3    0    0  0.19584864078E+02  0.20792276341E+02  0.23235623727E+02  0.36820916154E+02  0.00000000000E+00 0. -1.
         11    1    4    4    0    0 -0.26110331795E-02 -0.12548305550E+02 -0.10664075351E+02  0.16467619207E+02  0.51100000000E-03 0. -1.
        -11    1    4    4    0    0 -0.17681024870E+01 -0.16142997660E+02 -0.64520840424E+01  0.17474322551E+02  0.51100000000E-03 0.  1.
        -12    1    4    4    0    0 -0.17814150558E+02  0.78990268694E+01 -0.61194643339E+01  0.20425142088E+02  0.00000000000E+00 0.  1.
</event>
<event>
 8    1  0.1253488E-006  0.9118800E+02  0.7816164E-02  0.1184000E+00
        -11   -1    0    0    0    0  0.00000000000E+00  0.00000000000E+00  0.45593999997E+02  0.45594000000E+02  0.51100000000E-03 0. -1.
         11   -1    0    0    0    0 -0.00000000000E+00 -0.00000000000E+00 -0.45593999997E+02  0.45594000000E+02  0.51100000000E-03 0.  1.
         23    2    1    2    0    0  0.00000000000E+00  0.00000000000E+00  0.00000000000E+00  0.91188000000E+02  0.91188000000E+02 0.  0.
    9900012    2    3    3    0    0 -0.22590664287E+02 -0.89817948238E+01  0.27654473261E+02  0.54367073307E+02  0.39999975218E+02 0.  0.
        -12    1    3    3    0    0  0.22590664287E+02  0.89817948238E+01 -0.27654473261E+02  0.36820926693E+02  0.00000000000E+00 0.  1.
         11    1    4    4    0    0 -0.19857793791E+02  0.39500580859E+01  0.14873202093E+02  0.25122640663E+02  0.51100000000E-03 0. -1.
        -11    1    4    4    0    0  0.83638398667E+01  0.42411047280E+00  0.14213800632E+01  0.84943515676E+01  0.51100000000E-03 0.  1.
         12    1    4    4    0    0 -0.11096710362E+02 -0.13355963383E+02  0.11359891105E+02  0.20750081076E+02  0.00000000000E+00 0. -1.
</event>
<event>
 8    1  0.1253488E-006  0.9118800E+02  0.7816164E-02  0.1184000E+00
        -11   -1    0    0    0    0  0.00000000000E+00  0.00000000000E+00  0.45593999997E+02  0.45594000000E+02  0.51100000000E-03 0.  1.
         11   -1    0    0    0    0 -0.00000000000E+00 -0.00000000000E+00 -0.45593999997E+02  0.45594000000E+02  0.51100000000E-03 0. -1.
         23    2    1    2    0    0  0.00000000000E+00  0.48849813084E-14  0.00000000000E+00  0.91188000000E+02  0.91188000000E+02 0.  0.
    9900012    2    3    3    0    0 -0.33311404806E+02  0.31083721840E+01 -0.15377542972E+02  0.54367075302E+02  0.39999979765E+02 0.  0.
        -12    1    3    3    0    0  0.33311404806E+02 -0.31083721840E+01  0.15377542972E+02  0.36820924698E+02  0.00000000000E+00 0.  1.
         11    1    4    4    0    0 -0.12891800407E+02 -0.13154556186E+01 -0.45749666188E+01  0.13742607505E+02  0.51100000000E-03 0. -1.
        -11    1    4    4    0    0 -0.13957943080E+02 -0.12035436595E+02 -0.13353183165E+02  0.22759248888E+02  0.51100000000E-03 0.  1.
        -12    1    4    4    0    0 -0.64616613191E+01  0.16459264398E+02  0.25506068122E+01  0.17865218908E+02  0.00000000000E+00 0.  1.
</event>
<event>
 8    1  0.1253488E-006  0.9118800E+02  0.7816164E-02  0.1184000E+00
        -11   -1    0    0    0    0  0.00000000000E+00  0.00000000000E+00  0.45593999997E+02  0.45594000000E+02  0.51100000000E-03 0. -1.
         11   -1    0    0    0    0 -0.00000000000E+00 -0.00000000000E+00 -0.45593999997E+02  0.45594000000E+02  0.51100000000E-03 0.  1.
         23    2    1    2    0    0 -0.88817841970E-15 -0.35527136788E-14  0.00000000000E+00  0.91188000000E+02  0.91188000000E+02 0.  0.
    9900012    2    3    3    0    0 -0.55085250957E+01 -0.31779501165E+02 -0.17762389922E+02  0.54367040768E+02  0.39999901039E+02 0.  0.
         12    1    3    3    0    0  0.55085250957E+01  0.31779501165E+02  0.17762389922E+02  0.36820959232E+02  0.00000000000E+00 0. -1.
         11    1    4    4    0    0 -0.55398486480E+01 -0.39603557209E+01 -0.73398799045E+01  0.10012401198E+02  0.51100000000E-03 0. -1.
        -11    1    4    4    0    0 -0.19669281802E+01 -0.52564487856E+01 -0.19244574517E+02  0.20046264213E+02  0.51100000000E-03 0.  1.
         12    1    4    4    0    0  0.19982517325E+01 -0.22562696658E+02  0.88220644991E+01  0.24308375357E+02  0.00000000000E+00 0. -1.
</event>
<event>
 8    1  0.1253488E-006  0.9118800E+02  0.7816164E-02  0.1184000E+00
        -11   -1    0    0    0    0  0.00000000000E+00  0.00000000000E+00  0.45593999997E+02  0.45594000000E+02  0.51100000000E-03 0. -1.
         11   -1    0    0    0    0 -0.00000000000E+00 -0.00000000000E+00 -0.45593999997E+02  0.45594000000E+02  0.51100000000E-03 0.  1.
         23    2    1    2    0    0  0.00000000000E+00  0.88817841970E-15  0.00000000000E+00  0.91188000000E+02  0.91188000000E+02 0.  0.
    9900012    2    3    3    0    0  0.84914713202E+01 -0.65841942580E+01 -0.35218218741E+02  0.54367087050E+02  0.40000006547E+02 0.  0.
         12    1    3    3    0    0 -0.84914713202E+01  0.65841942580E+01  0.35218218741E+02  0.36820912950E+02  0.00000000000E+00 0. -1.
         11    1    4    4    0    0  0.48068570210E+01 -0.31109220519E+01 -0.22457128411E+02  0.23175554517E+02  0.51100000000E-03 0. -1.
        -11    1    4    4    0    0  0.11925236004E+02  0.73822751588E+01 -0.10154677118E+02  0.17315504841E+02  0.51100000000E-03 0.  1.
         12    1    4    4    0    0 -0.82406217048E+01 -0.10855547365E+02 -0.26064132121E+01  0.13876027692E+02  0.00000000000E+00 0. -1.
</event>
<event>
 8    1  0.1253488E-006  0.9118800E+02  0.7816164E-02  0.1184000E+00
        -11   -1    0    0    0    0  0.00000000000E+00  0.00000000000E+00  0.45593999997E+02  0.45594000000E+02  0.51100000000E-03 0.  1.
         11   -1    0    0    0    0 -0.00000000000E+00 -0.00000000000E+00 -0.45593999997E+02  0.45594000000E+02  0.51100000000E-03 0. -1.
         23    2    1    2    0    0  0.17763568394E-14  0.00000000000E+00  0.35527136788E-14  0.91188000000E+02  0.91188000000E+02 0.  0.
    9900012    2    3    3    0    0  0.15905826247E+02  0.30582204864E+02  0.12942719827E+02  0.54367074435E+02  0.39999977791E+02 0.  0.
         12    1    3    3    0    0 -0.15905826247E+02 -0.30582204864E+02 -0.12942719827E+02  0.36820925565E+02  0.00000000000E+00 0. -1.
         11    1    4    4    0    0  0.46695747787E+01 -0.40712575684E+01 -0.16709641296E+01  0.64165557884E+01  0.51100000000E-03 0. -1.
        -11    1    4    4    0    0 -0.37703674651E+00  0.16771656135E+02  0.19855468089E+02  0.25993657294E+02  0.51100000000E-03 0.  1.
        -12    1    4    4    0    0  0.11613288214E+02  0.17881806297E+02 -0.52417841325E+01  0.21956861353E+02  0.00000000000E+00 0.  1.
</event>
<event>
 8    1  0.1253488E-006  0.9118800E+02  0.7816164E-02  0.1184000E+00
        -11   -1    0    0    0    0  0.00000000000E+00  0.00000000000E+00  0.45593999997E+02  0.45594000000E+02  0.51100000000E-03 0.  1.
         11   -1    0    0    0    0 -0.00000000000E+00 -0.00000000000E+00 -0.45593999997E+02  0.45594000000E+02  0.51100000000E-03 0. -1.
         23    2    1    2    0    0  0.35527136788E-14 -0.35527136788E-14  0.00000000000E+00  0.91188000000E+02  0.91188000000E+02 0.  0.
    9900012    2    3    3    0    0  0.20859448767E+02  0.20807638970E+02 -0.22084043010E+02  0.54367090207E+02  0.40000013744E+02 0.  0.
        -12    1    3    3    0    0 -0.20859448767E+02 -0.20807638970E+02  0.22084043010E+02  0.36820909793E+02  0.00000000000E+00 0.  1.
         11    1    4    4    0    0  0.10736321593E+02  0.22490279200E+01  0.40545653923E+01  0.11694709432E+02  0.51100000000E-03 0. -1.
        -11    1    4    4    0    0 -0.65413179230E+01  0.14836014366E+02 -0.93036189372E+01  0.18693675080E+02  0.51100000000E-03 0.  1.
         12    1    4    4    0    0  0.16664445097E+02  0.37225966841E+01 -0.16834989465E+02  0.23978705694E+02  0.00000000000E+00 0. -1.
</event>
<event>
 8    1  0.1253488E-006  0.9118800E+02  0.7816164E-02  0.1184000E+00
        -11   -1    0    0    0    0  0.00000000000E+00  0.00000000000E+00  0.45593999997E+02  0.45594000000E+02  0.51100000000E-03 0.  1.
         11   -1    0    0    0    0 -0.00000000000E+00 -0.00000000000E+00 -0.45593999997E+02  0.45594000000E+02  0.51100000000E-03 0. -1.
         23    2    1    2    0    0  0.17763568394E-14  0.00000000000E+00  0.00000000000E+00  0.91188000000E+02  0.91188000000E+02 0.  0.
    9900012    2    3    3    0    0  0.10070395522E+02 -0.22933649063E+02 -0.26989060585E+02  0.54367156493E+02  0.40000164857E+02 0.  0.
        -12    1    3    3    0    0 -0.10070395522E+02  0.22933649063E+02  0.26989060585E+02  0.36820843507E+02  0.00000000000E+00 0.  1.
         11    1    4    4    0    0 -0.91867959985E+00 -0.15316251674E+02 -0.27720962303E+02  0.31684117296E+02  0.51100000000E-03 0. -1.
        -11    1    4    4    0    0 -0.22570117344E+01  0.14353724705E+01 -0.49797541129E+01  0.56526407443E+01  0.51100000000E-03 0.  1.
        -12    1    4    4    0    0  0.13246086856E+02 -0.90527698592E+01  0.57116558314E+01  0.17030398453E+02  0.00000000000E+00 0.  1.
</event>
<event>
 8    1  0.1253488E-006  0.9118800E+02  0.7816164E-02  0.1184000E+00
        -11   -1    0    0    0    0  0.00000000000E+00  0.00000000000E+00  0.45593999997E+02  0.45594000000E+02  0.51100000000E-03 0. -1.
         11   -1    0    0    0    0 -0.00000000000E+00 -0.00000000000E+00 -0.45593999997E+02  0.45594000000E+02  0.51100000000E-03 0.  1.
         23    2    1    2    0    0 -0.35527136788E-14 -0.35527136788E-14 -0.88817841970E-15  0.91188000000E+02  0.91188000000E+02 0.  0.
    9900012    2    3    3    0    0 -0.29009866593E+02 -0.21278921980E+02 -0.78368334937E+01  0.54367070631E+02  0.39999969117E+02 0.  0.
         12    1    3    3    0    0  0.29009866593E+02  0.21278921980E+02  0.78368334937E+01  0.36820929369E+02  0.00000000000E+00 0. -1.
         11    1    4    4    0    0 -0.33537662182E+01 -0.63704391199E+01 -0.62442714833E+01  0.95300141157E+01  0.51100000000E-03 0. -1.
        -11    1    4    4    0    0 -0.26610845568E+02 -0.18179466261E+02 -0.11610539581E+02  0.34255433511E+02  0.51100000000E-03 0.  1.
         12    1    4    4    0    0  0.95474519342E+00  0.32709834006E+01  0.10017977571E+02  0.10581623004E+02  0.00000000000E+00 0. -1.
</event>
<event>
 8    1  0.1253488E-006  0.9118800E+02  0.7816164E-02  0.1184000E+00
        -11   -1    0    0    0    0  0.00000000000E+00  0.00000000000E+00  0.45593999997E+02  0.45594000000E+02  0.51100000000E-03 0. -1.
         11   -1    0    0    0    0 -0.00000000000E+00 -0.00000000000E+00 -0.45593999997E+02  0.45594000000E+02  0.51100000000E-03 0.  1.
         23    2    1    2    0    0 -0.35527136788E-14  0.35527136788E-14 -0.35527136788E-14  0.91188000000E+02  0.91188000000E+02 0.  0.
    9900012    2    3    3    0    0 -0.27546910388E+02  0.10991537211E+02  0.21820478496E+02  0.54367089582E+02  0.40000012321E+02 0.  0.
        -12    1    3    3    0    0  0.27546910388E+02 -0.10991537211E+02 -0.21820478496E+02  0.36820910418E+02  0.00000000000E+00 0.  1.
         11    1    4    4    0    0 -0.43638463373E+01 -0.53536361360E+01  0.14727785595E+01  0.70621279851E+01  0.51100000000E-03 0. -1.
        -11    1    4    4    0    0 -0.66082312441E+01 -0.13941667423E+01 -0.76782286012E+01  0.10225830812E+02  0.51100000000E-03 0.  1.
         12    1    4    4    0    0 -0.16574832806E+02  0.17739340089E+02  0.28025928538E+02  0.37079130785E+02  0.00000000000E+00 0. -1.
</event>
<event>
 8    1  0.1253488E-006  0.9118800E+02  0.7816164E-02  0.1184000E+00
        -11   -1    0    0    0    0  0.00000000000E+00  0.00000000000E+00  0.45593999997E+02  0.45594000000E+02  0.51100000000E-03 0.  1.
         11   -1    0    0    0    0 -0.00000000000E+00 -0.00000000000E+00 -0.45593999997E+02  0.45594000000E+02  0.51100000000E-03 0. -1.
         23    2    1    2    0    0  0.88817841970E-15  0.00000000000E+00 -0.35527136788E-14  0.91188000000E+02  0.91188000000E+02 0.  0.
    9900012    2    3    3    0    0  0.44779475643E+01  0.24645368455E+02  0.26987643960E+02  0.54367093885E+02  0.40000022129E+02 0.  0.
         12    1    3    3    0    0 -0.44779475643E+01 -0.24645368455E+02 -0.26987643960E+02  0.36820906115E+02  0.00000000000E+00 0. -1.
         11    1    4    4    0    0 -0.83826725606E+01 -0.13584032178E-01 -0.37848018546E+01  0.91975055925E+01  0.51100000000E-03 0. -1.
        -11    1    4    4    0    0 -0.40485890868E+01  0.18154078268E+01  0.25554117719E+01  0.51202449899E+01  0.51100000000E-03 0.  1.
        -12    1    4    4    0    0  0.16909209212E+02  0.22843544660E+02  0.28217034042E+02  0.40049343302E+02  0.00000000000E+00 0.  1.
</event>
<event>
 8    1  0.1253488E-006  0.9118800E+02  0.7816164E-02  0.1184000E+00
        -11   -1    0    0    0    0  0.00000000000E+00  0.00000000000E+00  0.45593999997E+02  0.45594000000E+02  0.51100000000E-03 0. -1.
         11   -1    0    0    0    0 -0.00000000000E+00 -0.00000000000E+00 -0.45593999997E+02  0.45594000000E+02  0.51100000000E-03 0.  1.
         23    2    1    2    0    0  0.00000000000E+00 -0.88817841970E-15  0.00000000000E+00  0.91188000000E+02  0.91188000000E+02 0.  0.
    9900012    2    3    3    0    0  0.35582107215E+02  0.26664845377E+01  0.90876004708E+01  0.54367068779E+02  0.39999964895E+02 0.  0.
        -12    1    3    3    0    0 -0.35582107215E+02 -0.26664845377E+01 -0.90876004708E+01  0.36820931221E+02  0.00000000000E+00 0.  1.
         11    1    4    4    0    0  0.20197390897E+02  0.27659621161E+01  0.17324468701E+01  0.20459387036E+02  0.51100000000E-03 0. -1.
        -11    1    4    4    0    0  0.21190312989E+02  0.83058849062E+01  0.64278323539E+01  0.23650245616E+02  0.51100000000E-03 0.  1.
        -12    1    4    4    0    0 -0.58055966707E+01 -0.84053624847E+01  0.92732124682E+00  0.10257436127E+02  0.00000000000E+00 0.  1.
</event>
<event>
 8    1  0.1253488E-006  0.9118800E+02  0.7816164E-02  0.1184000E+00
        -11   -1    0    0    0    0  0.00000000000E+00  0.00000000000E+00  0.45593999997E+02  0.45594000000E+02  0.51100000000E-03 0. -1.
         11   -1    0    0    0    0 -0.00000000000E+00 -0.00000000000E+00 -0.45593999997E+02  0.45594000000E+02  0.51100000000E-03 0.  1.
         23    2    1    2    0    0  0.00000000000E+00  0.00000000000E+00  0.00000000000E+00  0.91188000000E+02  0.91188000000E+02 0.  0.
    9900012    2    3    3    0    0  0.35926226059E+01 -0.13388588343E+02  0.34111812331E+02  0.54367123102E+02  0.40000088736E+02 0.  0.
        -12    1    3    3    0    0 -0.35926226059E+01  0.13388588343E+02 -0.34111812331E+02  0.36820876898E+02  0.00000000000E+00 0.  1.
         11    1    4    4    0    0  0.36046014441E+01 -0.19167818623E+02  0.24426428603E+02  0.31257780421E+02  0.51100000000E-03 0. -1.
        -11    1    4    4    0    0 -0.59473824292E+01 -0.55160028741E+01  0.26209047121E+01  0.85244816404E+01  0.51100000000E-03 0.  1.
         12    1    4    4    0    0  0.59354035910E+01  0.11295233154E+02  0.70644790165E+01  0.14584861040E+02  0.00000000000E+00 0. -1.
</event>
<event>
 8    1  0.1253488E-006  0.9118800E+02  0.7816164E-02  0.1184000E+00
        -11   -1    0    0    0    0  0.00000000000E+00  0.00000000000E+00  0.45593999997E+02  0.45594000000E+02  0.51100000000E-03 0. -1.
         11   -1    0    0    0    0 -0.00000000000E+00 -0.00000000000E+00 -0.45593999997E+02  0.45594000000E+02  0.51100000000E-03 0.  1.
         23    2    1    2    0    0  0.44408920985E-15 -0.17763568394E-14  0.00000000000E+00  0.91188000000E+02  0.91188000000E+02 0.  0.
    9900012    2    3    3    0    0 -0.26535438615E+01  0.44218794491E+01 -0.36457995628E+02  0.54367085317E+02  0.40000002596E+02 0.  0.
         12    1    3    3    0    0  0.26535438615E+01 -0.44218794491E+01  0.36457995628E+02  0.36820914683E+02  0.00000000000E+00 0. -1.
         11    1    4    4    0    0  0.18195053568E+01 -0.10734083893E+02 -0.64471186270E+01  0.12652924390E+02  0.51100000000E-03 0. -1.
        -11    1    4    4    0    0  0.40745460959E+01  0.12750817324E+02 -0.36161325298E+01  0.13865845919E+02  0.51100000000E-03 0.  1.
         12    1    4    4    0    0 -0.85475953141E+01  0.24051460180E+01 -0.26394744471E+02  0.27848315007E+02  0.00000000000E+00 0. -1.
</event>
<event>
 8    1  0.1253488E-006  0.9118800E+02  0.7816164E-02  0.1184000E+00
        -11   -1    0    0    0    0  0.00000000000E+00  0.00000000000E+00  0.45593999997E+02  0.45594000000E+02  0.51100000000E-03 0. -1.
         11   -1    0    0    0    0 -0.00000000000E+00 -0.00000000000E+00 -0.45593999997E+02  0.45594000000E+02  0.51100000000E-03 0.  1.
         23    2    1    2    0    0  0.00000000000E+00  0.17763568394E-14  0.00000000000E+00  0.91188000000E+02  0.91188000000E+02 0.  0.
    9900012    2    3    3    0    0  0.25753049991E+02 -0.12172362766E+02  0.23332245437E+02  0.54367086428E+02  0.40000005129E+02 0.  0.
        -12    1    3    3    0    0 -0.25753049991E+02  0.12172362766E+02 -0.23332245437E+02  0.36820913572E+02  0.00000000000E+00 0.  1.
         11    1    4    4    0    0  0.26698127500E+02 -0.30305130154E+00  0.33800003832E+01  0.26912938430E+02  0.51100000000E-03 0. -1.
        -11    1    4    4    0    0 -0.32435144800E+01 -0.46280893902E+01 -0.46365999484E+00  0.56705007220E+01  0.51100000000E-03 0.  1.
         12    1    4    4    0    0  0.22984369710E+01 -0.72412220745E+01  0.20415905049E+02  0.21783647275E+02  0.00000000000E+00 0. -1.
</event>
<event>
 8    1  0.1253488E-006  0.9118800E+02  0.7816164E-02  0.1184000E+00
        -11   -1    0    0    0    0  0.00000000000E+00  0.00000000000E+00  0.45593999997E+02  0.45594000000E+02  0.51100000000E-03 0. -1.
         11   -1    0    0    0    0 -0.00000000000E+00 -0.00000000000E+00 -0.45593999997E+02  0.45594000000E+02  0.51100000000E-03 0.  1.
         23    2    1    2    0    0  0.00000000000E+00  0.00000000000E+00  0.00000000000E+00  0.91188000000E+02  0.91188000000E+02 0.  0.
    9900012    2    3    3    0    0 -0.23701922183E+01 -0.16147397482E+02 -0.33006417233E+02  0.54367084271E+02  0.40000000212E+02 0.  0.
         12    1    3    3    0    0  0.23701922183E+01  0.16147397482E+02  0.33006417233E+02  0.36820915729E+02  0.00000000000E+00 0. -1.
         11    1    4    4    0    0 -0.32216067013E+01  0.43301390680E+01  0.51741268566E+01  0.74766598877E+01  0.51100000000E-03 0. -1.
        -11    1    4    4    0    0 -0.56521593350E+01 -0.18370292696E+02 -0.33443850719E+02  0.38573380849E+02  0.51100000000E-03 0.  1.
         12    1    4    4    0    0  0.65035738180E+01 -0.21072438534E+01 -0.47366933704E+01  0.83170435341E+01  0.00000000000E+00 0. -1.
</event>
<event>
 8    1  0.1253488E-006  0.9118800E+02  0.7816164E-02  0.1184000E+00
        -11   -1    0    0    0    0  0.00000000000E+00  0.00000000000E+00  0.45593999997E+02  0.45594000000E+02  0.51100000000E-03 0.  1.
         11   -1    0    0    0    0 -0.00000000000E+00 -0.00000000000E+00 -0.45593999997E+02  0.45594000000E+02  0.51100000000E-03 0. -1.
         23    2    1    2    0    0  0.35527136788E-14  0.00000000000E+00  0.00000000000E+00  0.91188000000E+02  0.91188000000E+02 0.  0.
    9900012    2    3    3    0    0  0.23184646459E+02 -0.11924570572E+02  0.26001110509E+02  0.54367068963E+02  0.39999965314E+02 0.  0.
         12    1    3    3    0    0 -0.23184646459E+02  0.11924570572E+02 -0.26001110509E+02  0.36820931037E+02  0.00000000000E+00 0. -1.
         11    1    4    4    0    0  0.64993724102E+01 -0.38072988149E+01 -0.42811387704E+01  0.86640357470E+01  0.51100000000E-03 0. -1.
        -11    1    4    4    0    0  0.62943698044E+01  0.10635298047E+02  0.14670974417E+02  0.19182443703E+02  0.51100000000E-03 0.  1.
         12    1    4    4    0    0  0.10390904244E+02 -0.18752569805E+02  0.15611274862E+02  0.26520589513E+02  0.00000000000E+00 0. -1.
</event>
<event>
 8    1  0.1253488E-006  0.9118800E+02  0.7816164E-02  0.1184000E+00
        -11   -1    0    0    0    0  0.00000000000E+00  0.00000000000E+00  0.45593999997E+02  0.45594000000E+02  0.51100000000E-03 0.  1.
         11   -1    0    0    0    0 -0.00000000000E+00 -0.00000000000E+00 -0.45593999997E+02  0.45594000000E+02  0.51100000000E-03 0. -1.
         23    2    1    2    0    0  0.00000000000E+00  0.00000000000E+00 -0.35527136788E-14  0.91188000000E+02  0.91188000000E+02 0.  0.
    9900012    2    3    3    0    0  0.30280605186E+02 -0.10019539882E+02 -0.18397667477E+02  0.54367076621E+02  0.39999982773E+02 0.  0.
        -12    1    3    3    0    0 -0.30280605186E+02  0.10019539882E+02  0.18397667477E+02  0.36820923379E+02  0.00000000000E+00 0.  1.
         11    1    4    4    0    0  0.18156627771E+02 -0.33771387068E+01 -0.26633340165E+02  0.32409921421E+02  0.51100000000E-03 0. -1.
        -11    1    4    4    0    0  0.14333792360E+02 -0.80500427992E+01  0.39073188476E+01  0.16897571818E+02  0.51100000000E-03 0.  1.
        -12    1    4    4    0    0 -0.22098149458E+01  0.14076416245E+01  0.43283538404E+01  0.50595833826E+01  0.00000000000E+00 0.  1.
</event>
<event>
 8    1  0.1253488E-006  0.9118800E+02  0.7816164E-02  0.1184000E+00
        -11   -1    0    0    0    0  0.00000000000E+00  0.00000000000E+00  0.45593999997E+02  0.45594000000E+02  0.51100000000E-03 0. -1.
         11   -1    0    0    0    0 -0.00000000000E+00 -0.00000000000E+00 -0.45593999997E+02  0.45594000000E+02  0.51100000000E-03 0.  1.
         23    2    1    2    0    0  0.17763568394E-14  0.00000000000E+00 -0.35527136788E-14  0.91188000000E+02  0.91188000000E+02 0.  0.
    9900012    2    3    3    0    0  0.15401071267E+02 -0.16102478016E+02  0.29313771074E+02  0.54367082453E+02  0.39999996068E+02 0.  0.
        -12    1    3    3    0    0 -0.15401071267E+02  0.16102478016E+02 -0.29313771074E+02  0.36820917547E+02  0.00000000000E+00 0.  1.
         11    1    4    4    0    0  0.86416690116E+01  0.13346312962E+01  0.10252747179E+02  0.13475107012E+02  0.51100000000E-03 0. -1.
        -11    1    4    4    0    0 -0.10727683892E+02 -0.86575174219E+01  0.30724375371E+00  0.13788771105E+02  0.51100000000E-03 0.  1.
        -12    1    4    4    0    0  0.17487086148E+02 -0.87795918900E+01  0.18753780141E+02  0.27103204336E+02  0.00000000000E+00 0.  1.
</event>
<event>
 8    1  0.1253488E-006  0.9118800E+02  0.7816164E-02  0.1184000E+00
        -11   -1    0    0    0    0  0.00000000000E+00  0.00000000000E+00  0.45593999997E+02  0.45594000000E+02  0.51100000000E-03 0. -1.
         11   -1    0    0    0    0 -0.00000000000E+00 -0.00000000000E+00 -0.45593999997E+02  0.45594000000E+02  0.51100000000E-03 0.  1.
         23    2    1    2    0    0  0.00000000000E+00  0.17763568394E-14  0.00000000000E+00  0.91188000000E+02  0.91188000000E+02 0.  0.
    9900012    2    3    3    0    0  0.33961241114E+02  0.10869137538E+02  0.91801953473E+01  0.54367081551E+02  0.39999994012E+02 0.  0.
        -12    1    3    3    0    0 -0.33961241114E+02 -0.10869137538E+02 -0.91801953473E+01  0.36820918449E+02  0.00000000000E+00 0.  1.
         11    1    4    4    0    0  0.64286275744E+01 -0.38189776028E+01  0.23600423197E+01  0.78410230476E+01  0.51100000000E-03 0. -1.
        -11    1    4    4    0    0  0.15436112192E+02  0.47740283388E+01 -0.13380370373E+02  0.20978541841E+02  0.51100000000E-03 0.  1.
         12    1    4    4    0    0  0.12096501348E+02  0.99140868017E+01  0.20200523401E+02  0.25547516663E+02  0.00000000000E+00 0. -1.
</event>
<event>
 8    1  0.1253488E-006  0.9118800E+02  0.7816164E-02  0.1184000E+00
        -11   -1    0    0    0    0  0.00000000000E+00  0.00000000000E+00  0.45593999997E+02  0.45594000000E+02  0.51100000000E-03 0. -1.
         11   -1    0    0    0    0 -0.00000000000E+00 -0.00000000000E+00 -0.45593999997E+02  0.45594000000E+02  0.51100000000E-03 0.  1.
         23    2    1    2    0    0  0.17763568394E-14  0.00000000000E+00  0.00000000000E+00  0.91188000000E+02  0.91188000000E+02 0.  0.
    9900012    2    3    3    0    0  0.13139570744E+02 -0.15494943244E+02  0.30708920091E+02  0.54367090742E+02  0.40000014964E+02 0.  0.
        -12    1    3    3    0    0 -0.13139570744E+02  0.15494943244E+02 -0.30708920091E+02  0.36820909258E+02  0.00000000000E+00 0.  1.
         11    1    4    4    0    0  0.72989868750E+00 -0.14609334961E+02  0.10344874513E+02  0.17915966316E+02  0.51100000000E-03 0. -1.
        -11    1    4    4    0    0  0.16040614980E+02 -0.18266517633E+01  0.25445709226E+02  0.30135064358E+02  0.51100000000E-03 0.  1.
        -12    1    4    4    0    0 -0.36309429236E+01  0.94104348017E+00 -0.50816636479E+01  0.63160600675E+01  0.00000000000E+00 0.  1.
</event>
<event>
 8    1  0.1253488E-006  0.9118800E+02  0.7816164E-02  0.1184000E+00
        -11   -1    0    0    0    0  0.00000000000E+00  0.00000000000E+00  0.45593999997E+02  0.45594000000E+02  0.51100000000E-03 0.  1.
         11   -1    0    0    0    0 -0.00000000000E+00 -0.00000000000E+00 -0.45593999997E+02  0.45594000000E+02  0.51100000000E-03 0. -1.
         23    2    1    2    0    0 -0.55511151231E-15  0.35527136788E-14  0.00000000000E+00  0.91188000000E+02  0.91188000000E+02 0.  0.
    9900012    2    3    3    0    0  0.15519682171E+00  0.26178287894E+02 -0.25893109670E+02  0.54367082419E+02  0.39999995991E+02 0.  0.
        -12    1    3    3    0    0 -0.15519682171E+00 -0.26178287894E+02  0.25893109670E+02  0.36820917581E+02  0.00000000000E+00 0.  1.
         11    1    4    4    0    0  0.31990933843E+01  0.76575966701E+01 -0.21249915543E+02  0.22812976484E+02  0.51100000000E-03 0. -1.
        -11    1    4    4    0    0  0.12509105703E+01 -0.59038270475E+01 -0.28949103473E+01  0.66933143690E+01  0.51100000000E-03 0.  1.
        -12    1    4    4    0    0 -0.42948071329E+01  0.24424518271E+02 -0.17482837801E+01  0.24860791566E+02  0.00000000000E+00 0.  1.
</event>
<event>
 8    1  0.1253488E-006  0.9118800E+02  0.7816164E-02  0.1184000E+00
        -11   -1    0    0    0    0  0.00000000000E+00  0.00000000000E+00  0.45593999997E+02  0.45594000000E+02  0.51100000000E-03 0.  1.
         11   -1    0    0    0    0 -0.00000000000E+00 -0.00000000000E+00 -0.45593999997E+02  0.45594000000E+02  0.51100000000E-03 0. -1.
         23    2    1    2    0    0  0.00000000000E+00 -0.35527136788E-14  0.00000000000E+00  0.91188000000E+02  0.91188000000E+02 0.  0.
    9900012    2    3    3    0    0 -0.24275353960E+02 -0.11509904749E+02 -0.25179523441E+02  0.54367094010E+02  0.40000022414E+02 0.  0.
        -12    1    3    3    0    0  0.24275353960E+02  0.11509904749E+02  0.25179523441E+02  0.36820905990E+02  0.00000000000E+00 0.  1.
         11    1    4    4    0    0 -0.44427555535E+00 -0.43658905903E+01 -0.48229089872E+01  0.65206466531E+01  0.51100000000E-03 0. -1.
        -11    1    4    4    0    0 -0.13943311671E+02  0.11738845368E+02  0.20845951283E+00  0.18227997327E+02  0.51100000000E-03 0.  1.
        -12    1    4    4    0    0 -0.98877667341E+01 -0.18882859527E+02 -0.20565073967E+02  0.29618450029E+02  0.00000000000E+00 0.  1.
</event>
<event>
 8    1  0.1253488E-006  0.9118800E+02  0.7816164E-02  0.1184000E+00
        -11   -1    0    0    0    0  0.00000000000E+00  0.00000000000E+00  0.45593999997E+02  0.45594000000E+02  0.51100000000E-03 0. -1.
         11   -1    0    0    0    0 -0.00000000000E+00 -0.00000000000E+00 -0.45593999997E+02  0.45594000000E+02  0.51100000000E-03 0.  1.
         23    2    1    2    0    0  0.00000000000E+00  0.00000000000E+00  0.17763568394E-14  0.91188000000E+02  0.91188000000E+02 0.  0.
    9900012    2    3    3    0    0  0.32681774188E+02 -0.11438627988E+02  0.12523529508E+02  0.54367090646E+02  0.40000014747E+02 0.  0.
         12    1    3    3    0    0 -0.32681774188E+02  0.11438627988E+02 -0.12523529508E+02  0.36820909354E+02  0.00000000000E+00 0. -1.
         11    1    4    4    0    0  0.11945785989E+02  0.12929728894E+01 -0.38283934051E+01  0.12610716796E+02  0.51100000000E-03 0. -1.
        -11    1    4    4    0    0  0.22916516114E+02  0.28627448109E+00  0.17009602840E+02  0.28540764757E+02  0.51100000000E-03 0.  1.
         12    1    4    4    0    0 -0.21805279150E+01 -0.13017875358E+02 -0.65767992709E+00  0.13215609094E+02  0.00000000000E+00 0. -1.
</event>
<event>
 8    1  0.1253488E-006  0.9118800E+02  0.7816164E-02  0.1184000E+00
        -11   -1    0    0    0    0  0.00000000000E+00  0.00000000000E+00  0.45593999997E+02  0.45594000000E+02  0.51100000000E-03 0. -1.
         11   -1    0    0    0    0 -0.00000000000E+00 -0.00000000000E+00 -0.45593999997E+02  0.45594000000E+02  0.51100000000E-03 0.  1.
         23    2    1    2    0    0 -0.35527136788E-14 -0.35527136788E-14  0.17763568394E-14  0.91188000000E+02  0.91188000000E+02 0.  0.
    9900012    2    3    3    0    0  0.23968640535E+02  0.23827610892E+02 -0.14612608348E+02  0.54367094353E+02  0.40000023197E+02 0.  0.
         12    1    3    3    0    0 -0.23968640535E+02 -0.23827610892E+02  0.14612608348E+02  0.36820905647E+02  0.00000000000E+00 0. -1.
         11    1    4    4    0    0  0.13154624272E+02 -0.83658963690E-01  0.62839228365E+01  0.14578711364E+02  0.51100000000E-03 0. -1.
        -11    1    4    4    0    0  0.10596902286E+02  0.10831017944E+02 -0.21320275419E-01  0.15152747031E+02  0.51100000000E-03 0.  1.
         12    1    4    4    0    0  0.21711397691E+00  0.13080251912E+02 -0.20875210909E+02  0.24635635958E+02  0.00000000000E+00 0. -1.
</event>
<event>
 8    1  0.1253488E-006  0.9118800E+02  0.7816164E-02  0.1184000E+00
        -11   -1    0    0    0    0  0.00000000000E+00  0.00000000000E+00  0.45593999997E+02  0.45594000000E+02  0.51100000000E-03 0. -1.
         11   -1    0    0    0    0 -0.00000000000E+00 -0.00000000000E+00 -0.45593999997E+02  0.45594000000E+02  0.51100000000E-03 0.  1.
         23    2    1    2    0    0 -0.35527136788E-14  0.35527136788E-14 -0.71054273576E-14  0.91188000000E+02  0.91188000000E+02 0.  0.
    9900012    2    3    3    0    0 -0.93812642747E+01  0.22878997776E+02 -0.27282288191E+02  0.54367083287E+02  0.39999997969E+02 0.  0.
         12    1    3    3    0    0  0.93812642747E+01 -0.22878997776E+02  0.27282288191E+02  0.36820916713E+02  0.00000000000E+00 0. -1.
         11    1    4    4    0    0 -0.21012833084E+02  0.92168706124E+01 -0.10676174869E+02  0.25307519992E+02  0.51100000000E-03 0. -1.
        -11    1    4    4    0    0  0.52276981208E+01  0.16151633104E+02 -0.11832079297E+02  0.20693046666E+02  0.51100000000E-03 0.  1.
        -12    1    4    4    0    0  0.64038706880E+01 -0.24895059403E+01 -0.47740340257E+01  0.83665166285E+01  0.00000000000E+00 0.  1.
</event>
<event>
 8    1  0.1253488E-006  0.9118800E+02  0.7816164E-02  0.1184000E+00
        -11   -1    0    0    0    0  0.00000000000E+00  0.00000000000E+00  0.45593999997E+02  0.45594000000E+02  0.51100000000E-03 0.  1.
         11   -1    0    0    0    0 -0.00000000000E+00 -0.00000000000E+00 -0.45593999997E+02  0.45594000000E+02  0.51100000000E-03 0. -1.
         23    2    1    2    0    0  0.00000000000E+00  0.00000000000E+00  0.00000000000E+00  0.91188000000E+02  0.91188000000E+02 0.  0.
    9900012    2    3    3    0    0  0.49895797978E+01  0.32379202482E+02  0.16807049056E+02  0.54367006560E+02  0.39999823055E+02 0.  0.
         12    1    3    3    0    0 -0.49895797978E+01 -0.32379202482E+02 -0.16807049056E+02  0.36820993440E+02  0.00000000000E+00 0. -1.
         11    1    4    4    0    0  0.63803870884E+01  0.79481334610E+00 -0.51086796230E+01  0.82121663040E+01  0.51100000000E-03 0. -1.
        -11    1    4    4    0    0 -0.43889027680E+01  0.33497159966E+02  0.12384759683E+02  0.35982001973E+02  0.51100000000E-03 0.  1.
        -12    1    4    4    0    0  0.29980954774E+01 -0.19127708305E+01  0.95309689960E+01  0.10172838284E+02  0.00000000000E+00 0.  1.
</event>
<event>
 8    1  0.1253488E-006  0.9118800E+02  0.7816164E-02  0.1184000E+00
        -11   -1    0    0    0    0  0.00000000000E+00  0.00000000000E+00  0.45593999997E+02  0.45594000000E+02  0.51100000000E-03 0.  1.
         11   -1    0    0    0    0 -0.00000000000E+00 -0.00000000000E+00 -0.45593999997E+02  0.45594000000E+02  0.51100000000E-03 0. -1.
         23    2    1    2    0    0 -0.35527136788E-14  0.00000000000E+00  0.00000000000E+00  0.91188000000E+02  0.91188000000E+02 0.  0.
    9900012    2    3    3    0    0 -0.12692600780E+02  0.34541168763E+02  0.12593070074E+01  0.54367077847E+02  0.39999985568E+02 0.  0.
        -12    1    3    3    0    0  0.12692600780E+02 -0.34541168763E+02 -0.12593070074E+01  0.36820922153E+02  0.00000000000E+00 0.  1.
         11    1    4    4    0    0 -0.41767952875E+01  0.17669620753E+02 -0.64634940316E+01  0.19272723518E+02  0.51100000000E-03 0. -1.
        -11    1    4    4    0    0  0.10142314601E+02  0.19168041864E+01  0.22403109859E+01  0.10562181466E+02  0.51100000000E-03 0.  1.
        -12    1    4    4    0    0 -0.18658120093E+02  0.14954743823E+02  0.54824900531E+01  0.24532172863E+02  0.00000000000E+00 0.  1.
</event>
<event>
 8    1  0.1253488E-006  0.9118800E+02  0.7816164E-02  0.1184000E+00
        -11   -1    0    0    0    0  0.00000000000E+00  0.00000000000E+00  0.45593999997E+02  0.45594000000E+02  0.51100000000E-03 0.  1.
         11   -1    0    0    0    0 -0.00000000000E+00 -0.00000000000E+00 -0.45593999997E+02  0.45594000000E+02  0.51100000000E-03 0. -1.
         23    2    1    2    0    0  0.17763568394E-14  0.00000000000E+00  0.35527136788E-14  0.91188000000E+02  0.91188000000E+02 0.  0.
    9900012    2    3    3    0    0 -0.99863380463E+01  0.17209431594E+02 -0.30982055945E+02  0.54367091892E+02  0.40000017585E+02 0.  0.
        -12    1    3    3    0    0  0.99863380463E+01 -0.17209431594E+02  0.30982055945E+02  0.36820908108E+02  0.00000000000E+00 0.  1.
         11    1    4    4    0    0  0.22241633664E+01  0.16266034814E+01 -0.18528497501E+02  0.18732270590E+02  0.51100000000E-03 0. -1.
        -11    1    4    4    0    0 -0.18952163495E+02  0.32016473658E+01 -0.83158376300E+01  0.20942497529E+02  0.51100000000E-03 0.  1.
         12    1    4    4    0    0  0.67416620821E+01  0.12381180747E+02 -0.41377208142E+01  0.14692323773E+02  0.00000000000E+00 0. -1.
</event>
<event>
 8    1  0.1253488E-006  0.9118800E+02  0.7816164E-02  0.1184000E+00
        -11   -1    0    0    0    0  0.00000000000E+00  0.00000000000E+00  0.45593999997E+02  0.45594000000E+02  0.51100000000E-03 0. -1.
         11   -1    0    0    0    0 -0.00000000000E+00 -0.00000000000E+00 -0.45593999997E+02  0.45594000000E+02  0.51100000000E-03 0.  1.
         23    2    1    2    0    0  0.00000000000E+00  0.00000000000E+00  0.00000000000E+00  0.91188000000E+02  0.91188000000E+02 0.  0.
    9900012    2    3    3    0    0  0.59889527917E+01 -0.11949146519E+02 -0.34309323602E+02  0.54367090939E+02  0.40000015413E+02 0.  0.
         12    1    3    3    0    0 -0.59889527917E+01  0.11949146519E+02  0.34309323602E+02  0.36820909061E+02  0.00000000000E+00 0. -1.
         11    1    4    4    0    0 -0.33776969720E+01  0.10175595352E+02 -0.40349642611E+01  0.11455676080E+02  0.51100000000E-03 0. -1.
        -11    1    4    4    0    0 -0.51915250951E+01 -0.88494841654E+01 -0.14000073695E+02  0.17357055238E+02  0.51100000000E-03 0.  1.
        -12    1    4    4    0    0  0.14558174859E+02 -0.13275257705E+02 -0.16274285646E+02  0.25554359621E+02  0.00000000000E+00 0.  1.
</event>
<event>
 8    1  0.1253488E-006  0.9118800E+02  0.7816164E-02  0.1184000E+00
        -11   -1    0    0    0    0  0.00000000000E+00  0.00000000000E+00  0.45593999997E+02  0.45594000000E+02  0.51100000000E-03 0.  1.
         11   -1    0    0    0    0 -0.00000000000E+00 -0.00000000000E+00 -0.45593999997E+02  0.45594000000E+02  0.51100000000E-03 0. -1.
         23    2    1    2    0    0  0.00000000000E+00 -0.13322676296E-14  0.00000000000E+00  0.91188000000E+02  0.91188000000E+02 0.  0.
    9900012    2    3    3    0    0  0.15673703531E+02 -0.25374981278E+01  0.33221620094E+02  0.54367083108E+02  0.39999997561E+02 0.  0.
         12    1    3    3    0    0 -0.15673703531E+02  0.25374981278E+01 -0.33221620094E+02  0.36820916892E+02  0.00000000000E+00 0. -1.
         11    1    4    4    0    0  0.66305481984E+01  0.11449771194E+02 -0.15089795145E+01  0.13316848323E+02  0.51100000000E-03 0. -1.
        -11    1    4    4    0    0 -0.38167218042E+01 -0.28980387534E+01  0.60287470539E+01  0.77014144966E+01  0.51100000000E-03 0.  1.
        -12    1    4    4    0    0  0.12859877137E+02 -0.11089230569E+02  0.28701852554E+02  0.33348820288E+02  0.00000000000E+00 0.  1.
</event>
<event>
 8    1  0.1253488E-006  0.9118800E+02  0.7816164E-02  0.1184000E+00
        -11   -1    0    0    0    0  0.00000000000E+00  0.00000000000E+00  0.45593999997E+02  0.45594000000E+02  0.51100000000E-03 0. -1.
         11   -1    0    0    0    0 -0.00000000000E+00 -0.00000000000E+00 -0.45593999997E+02  0.45594000000E+02  0.51100000000E-03 0.  1.
         23    2    1    2    0    0  0.00000000000E+00 -0.35527136788E-14 -0.71054273576E-14  0.91188000000E+02  0.91188000000E+02 0.  0.
    9900012    2    3    3    0    0  0.41622823613E+01 -0.69149462908E+01 -0.35925464432E+02  0.54367081064E+02  0.39999992901E+02 0.  0.
         12    1    3    3    0    0 -0.41622823613E+01  0.69149462908E+01  0.35925464432E+02  0.36820918936E+02  0.00000000000E+00 0. -1.
         11    1    4    4    0    0  0.48559825272E+01  0.75733985383E+01  0.29225705370E+00  0.90012413684E+01  0.51100000000E-03 0. -1.
        -11    1    4    4    0    0  0.41656379185E+01 -0.18105078533E+02 -0.16879501833E+02  0.25101075481E+02  0.51100000000E-03 0.  1.
         12    1    4    4    0    0 -0.48593380844E+01  0.36167337035E+01 -0.19338219653E+02  0.20264764214E+02  0.00000000000E+00 0. -1.
</event>
<event>
 8    1  0.1253488E-006  0.9118800E+02  0.7816164E-02  0.1184000E+00
        -11   -1    0    0    0    0  0.00000000000E+00  0.00000000000E+00  0.45593999997E+02  0.45594000000E+02  0.51100000000E-03 0.  1.
         11   -1    0    0    0    0 -0.00000000000E+00 -0.00000000000E+00 -0.45593999997E+02  0.45594000000E+02  0.51100000000E-03 0. -1.
         23    2    1    2    0    0  0.00000000000E+00 -0.35527136788E-14  0.00000000000E+00  0.91188000000E+02  0.91188000000E+02 0.  0.
    9900012    2    3    3    0    0  0.77915986214E+01 -0.27100902389E+02 -0.23677259762E+02  0.54367074574E+02  0.39999978107E+02 0.  0.
        -12    1    3    3    0    0 -0.77915986214E+01  0.27100902389E+02  0.23677259762E+02  0.36820925426E+02  0.00000000000E+00 0.  1.
         11    1    4    4    0    0 -0.82756675811E+01 -0.26789500033E+02 -0.19934307485E+02  0.34402624916E+02  0.51100000000E-03 0. -1.
        -11    1    4    4    0    0  0.50860045544E+01  0.27798656373E+01 -0.59922010130E+01  0.83367600740E+01  0.51100000000E-03 0.  1.
        -12    1    4    4    0    0  0.10981261648E+02 -0.30912679932E+01  0.22492487362E+01  0.11627689584E+02  0.00000000000E+00 0.  1.
</event>
<event>
 8    1  0.1253488E-006  0.9118800E+02  0.7816164E-02  0.1184000E+00
        -11   -1    0    0    0    0  0.00000000000E+00  0.00000000000E+00  0.45593999997E+02  0.45594000000E+02  0.51100000000E-03 0. -1.
         11   -1    0    0    0    0 -0.00000000000E+00 -0.00000000000E+00 -0.45593999997E+02  0.45594000000E+02  0.51100000000E-03 0.  1.
         23    2    1    2    0    0  0.33306690739E-15  0.00000000000E+00 -0.35527136788E-14  0.91188000000E+02  0.91188000000E+02 0.  0.
    9900012    2    3    3    0    0 -0.95980398809E+00  0.29574845513E+02  0.21913165313E+02  0.54367088484E+02  0.40000009816E+02 0.  0.
        -12    1    3    3    0    0  0.95980398809E+00 -0.29574845513E+02 -0.21913165313E+02  0.36820911516E+02  0.00000000000E+00 0.  1.
         11    1    4    4    0    0 -0.89195239039E+01  0.53220636377E+01  0.12604052640E+02  0.16332311877E+02  0.51100000000E-03 0. -1.
        -11    1    4    4    0    0 -0.53982544773E+01  0.18042516192E+02  0.12956127523E+02  0.22859019721E+02  0.51100000000E-03 0.  1.
         12    1    4    4    0    0  0.13357974393E+02  0.62102656833E+01 -0.36470148496E+01  0.15175756886E+02  0.00000000000E+00 0. -1.
</event>
<event>
 8    1  0.1253488E-006  0.9118800E+02  0.7816164E-02  0.1184000E+00
        -11   -1    0    0    0    0  0.00000000000E+00  0.00000000000E+00  0.45593999997E+02  0.45594000000E+02  0.51100000000E-03 0.  1.
         11   -1    0    0    0    0 -0.00000000000E+00 -0.00000000000E+00 -0.45593999997E+02  0.45594000000E+02  0.51100000000E-03 0. -1.
         23    2    1    2    0    0  0.00000000000E+00 -0.17763568394E-14  0.00000000000E+00  0.91188000000E+02  0.91188000000E+02 0.  0.
    9900012    2    3    3    0    0  0.21213942706E+02 -0.15168599923E+02 -0.25993495442E+02  0.54367087544E+02  0.40000007674E+02 0.  0.
        -12    1    3    3    0    0 -0.21213942706E+02  0.15168599923E+02  0.25993495442E+02  0.36820912456E+02  0.00000000000E+00 0.  1.
         11    1    4    4    0    0  0.38229558045E+01  0.51213685064E+01 -0.78214998210E+01  0.10100458711E+02  0.51100000000E-03 0. -1.
        -11    1    4    4    0    0 -0.57977467145E+01  0.88885901104E+00  0.28036075892E+01  0.65010886075E+01  0.51100000000E-03 0.  1.
         12    1    4    4    0    0  0.23188733616E+02 -0.21178827440E+02 -0.20975603211E+02  0.37765540226E+02  0.00000000000E+00 0. -1.
</event>
<event>
 8    1  0.1253488E-006  0.9118800E+02  0.7816164E-02  0.1184000E+00
        -11   -1    0    0    0    0  0.00000000000E+00  0.00000000000E+00  0.45593999997E+02  0.45594000000E+02  0.51100000000E-03 0. -1.
         11   -1    0    0    0    0 -0.00000000000E+00 -0.00000000000E+00 -0.45593999997E+02  0.45594000000E+02  0.51100000000E-03 0.  1.
         23    2    1    2    0    0  0.44408920985E-15  0.00000000000E+00  0.17763568394E-14  0.91188000000E+02  0.91188000000E+02 0.  0.
    9900012    2    3    3    0    0  0.10174975860E+01 -0.34217996487E+02 -0.13559893797E+02  0.54367118632E+02  0.40000078546E+02 0.  0.
         12    1    3    3    0    0 -0.10174975860E+01  0.34217996487E+02  0.13559893797E+02  0.36820881368E+02  0.00000000000E+00 0. -1.
         11    1    4    4    0    0  0.40687315043E+01 -0.56092949691E+01  0.11827073381E+02  0.13707604864E+02  0.51100000000E-03 0. -1.
        -11    1    4    4    0    0 -0.21743118325E+01 -0.22038398697E+02 -0.10803076438E+02  0.24639908885E+02  0.51100000000E-03 0.  1.
         12    1    4    4    0    0 -0.87692208582E+00 -0.65703028211E+01 -0.14583890739E+02  0.16019604883E+02  0.00000000000E+00 0. -1.
</event>
<event>
 8    1  0.1253488E-006  0.9118800E+02  0.7816164E-02  0.1184000E+00
        -11   -1    0    0    0    0  0.00000000000E+00  0.00000000000E+00  0.45593999997E+02  0.45594000000E+02  0.51100000000E-03 0. -1.
         11   -1    0    0    0    0 -0.00000000000E+00 -0.00000000000E+00 -0.45593999997E+02  0.45594000000E+02  0.51100000000E-03 0.  1.
         23    2    1    2    0    0 -0.35527136788E-14 -0.35527136788E-14  0.17763568394E-14  0.91188000000E+02  0.91188000000E+02 0.  0.
    9900012    2    3    3    0    0  0.17234568166E+02  0.29135301612E+02 -0.14487370389E+02  0.54367081479E+02  0.39999993849E+02 0.  0.
         12    1    3    3    0    0 -0.17234568166E+02 -0.29135301612E+02  0.14487370389E+02  0.36820918521E+02  0.00000000000E+00 0. -1.
         11    1    4    4    0    0 -0.25041991814E+01 -0.33072756798E+01 -0.21816732895E+01  0.46870870021E+01  0.51100000000E-03 0. -1.
        -11    1    4    4    0    0 -0.78807877168E+01  0.80435261168E+01 -0.23087702362E+01  0.11495022736E+02  0.51100000000E-03 0.  1.
        -12    1    4    4    0    0  0.27619555064E+02  0.24399051175E+02 -0.99969268633E+01  0.38184971742E+02  0.00000000000E+00 0.  1.
</event>
<event>
 8    1  0.1253488E-006  0.9118800E+02  0.7816164E-02  0.1184000E+00
        -11   -1    0    0    0    0  0.00000000000E+00  0.00000000000E+00  0.45593999997E+02  0.45594000000E+02  0.51100000000E-03 0.  1.
         11   -1    0    0    0    0 -0.00000000000E+00 -0.00000000000E+00 -0.45593999997E+02  0.45594000000E+02  0.51100000000E-03 0. -1.
         23    2    1    2    0    0 -0.71054273576E-14  0.00000000000E+00  0.17763568394E-14  0.91188000000E+02  0.91188000000E+02 0.  0.
    9900012    2    3    3    0    0  0.33605234743E+02 -0.59575937192E+01 -0.13819274348E+02  0.54367121839E+02  0.40000085856E+02 0.  0.
         12    1    3    3    0    0 -0.33605234743E+02  0.59575937192E+01  0.13819274348E+02  0.36820878161E+02  0.00000000000E+00 0. -1.
         11    1    4    4    0    0  0.27368460965E+01  0.15837564037E+01 -0.91248306012E+01  0.96571809895E+01  0.51100000000E-03 0. -1.
        -11    1    4    4    0    0  0.36309152889E+02 -0.18485915789E+01 -0.55943512434E+01  0.36784081345E+02  0.51100000000E-03 0.  1.
         12    1    4    4    0    0 -0.54407642423E+01 -0.56927585440E+01  0.89990749624E+00  0.79258595043E+01  0.00000000000E+00 0. -1.
</event>
<event>
 8    1  0.1253488E-006  0.9118800E+02  0.7816164E-02  0.1184000E+00
        -11   -1    0    0    0    0  0.00000000000E+00  0.00000000000E+00  0.45593999997E+02  0.45594000000E+02  0.51100000000E-03 0.  1.
         11   -1    0    0    0    0 -0.00000000000E+00 -0.00000000000E+00 -0.45593999997E+02  0.45594000000E+02  0.51100000000E-03 0. -1.
         23    2    1    2    0    0  0.17763568394E-14 -0.17763568394E-14  0.71054273576E-14  0.91188000000E+02  0.91188000000E+02 0.  0.
    9900012    2    3    3    0    0  0.12960717329E+02 -0.11819382209E+02  0.32374405279E+02  0.54367080583E+02  0.39999991806E+02 0.  0.
         12    1    3    3    0    0 -0.12960717329E+02  0.11819382209E+02 -0.32374405279E+02  0.36820919417E+02  0.00000000000E+00 0. -1.
         11    1    4    4    0    0  0.23291240516E+02 -0.14723053135E+02  0.19815700096E+02  0.33939831305E+02  0.51100000000E-03 0.  1.
        -11    1    4    4    0    0 -0.77302764443E+01  0.20584895464E+01  0.44849073651E+00  0.80122217468E+01  0.51100000000E-03 0. -1.
        -12    1    4    4    0    0 -0.26002467431E+01  0.84518137916E+00  0.12110214446E+02  0.12415027532E+02  0.00000000000E+00 0.  1.
</event>
<event>
 8    1  0.1253488E-006  0.9118800E+02  0.7816164E-02  0.1184000E+00
        -11   -1    0    0    0    0  0.00000000000E+00  0.00000000000E+00  0.45593999997E+02  0.45594000000E+02  0.51100000000E-03 0.  1.
         11   -1    0    0    0    0 -0.00000000000E+00 -0.00000000000E+00 -0.45593999997E+02  0.45594000000E+02  0.51100000000E-03 0. -1.
         23    2    1    2    0    0  0.35527136788E-14 -0.35527136788E-14  0.17763568394E-14  0.91188000000E+02  0.91188000000E+02 0.  0.
    9900012    2    3    3    0    0 -0.29443616433E+02  0.17074908034E+02 -0.14046380358E+02  0.54367084284E+02  0.40000000241E+02 0.  0.
        -12    1    3    3    0    0  0.29443616433E+02 -0.17074908034E+02  0.14046380358E+02  0.36820915716E+02  0.00000000000E+00 0.  1.
         11    1    4    4    0    0 -0.67013612598E+01  0.13991445354E+01  0.90601561999E+01  0.11355715688E+02  0.51100000000E-03 0. -1.
        -11    1    4    4    0    0 -0.14103232646E+02  0.10549147167E+02  0.22024103032E+00  0.17613465967E+02  0.51100000000E-03 0.  1.
         12    1    4    4    0    0 -0.86390225273E+01  0.51266163322E+01 -0.23326777588E+02  0.25397902628E+02  0.00000000000E+00 0. -1.
</event>
<event>
 8    1  0.1253488E-006  0.9118800E+02  0.7816164E-02  0.1184000E+00
        -11   -1    0    0    0    0  0.00000000000E+00  0.00000000000E+00  0.45593999997E+02  0.45594000000E+02  0.51100000000E-03 0.  1.
         11   -1    0    0    0    0 -0.00000000000E+00 -0.00000000000E+00 -0.45593999997E+02  0.45594000000E+02  0.51100000000E-03 0. -1.
         23    2    1    2    0    0 -0.17763568394E-14  0.35527136788E-14  0.00000000000E+00  0.91188000000E+02  0.91188000000E+02 0.  0.
    9900012    2    3    3    0    0  0.14665354228E+02 -0.22419658287E+02  0.25259986057E+02  0.54367074048E+02  0.39999976907E+02 0.  0.
         12    1    3    3    0    0 -0.14665354228E+02  0.22419658287E+02 -0.25259986057E+02  0.36820925952E+02  0.00000000000E+00 0. -1.
         11    1    4    4    0    0  0.25981915465E+00  0.25088771965E+01  0.15712027291E+02  0.15913194922E+02  0.51100000000E-03 0. -1.
        -11    1    4    4    0    0  0.13228374893E+02 -0.29592269895E+02  0.78339203316E+01  0.33347603330E+02  0.51100000000E-03 0.  1.
         12    1    4    4    0    0  0.11771601808E+01  0.46637344109E+01  0.17140384352E+01  0.51062757959E+01  0.00000000000E+00 0. -1.
</event>
<event>
 8    1  0.1253488E-006  0.9118800E+02  0.7816164E-02  0.1184000E+00
        -11   -1    0    0    0    0  0.00000000000E+00  0.00000000000E+00  0.45593999997E+02  0.45594000000E+02  0.51100000000E-03 0.  1.
         11   -1    0    0    0    0 -0.00000000000E+00 -0.00000000000E+00 -0.45593999997E+02  0.45594000000E+02  0.51100000000E-03 0. -1.
         23    2    1    2    0    0  0.00000000000E+00  0.00000000000E+00  0.35527136788E-14  0.91188000000E+02  0.91188000000E+02 0.  0.
    9900012    2    3    3    0    0  0.21869671785E+02  0.14550217010E+02 -0.25802848462E+02  0.54367104468E+02  0.40000046256E+02 0.  0.
        -12    1    3    3    0    0 -0.21869671785E+02 -0.14550217010E+02  0.25802848462E+02  0.36820895532E+02  0.00000000000E+00 0.  1.
         11    1    4    4    0    0  0.41955205522E+01  0.14858842841E+02 -0.17239933978E+02  0.23143096748E+02  0.51100000000E-03 0. -1.
        -11    1    4    4    0    0  0.16973312622E+02  0.85851179870E+01 -0.23900655047E+00  0.19022479245E+02  0.51100000000E-03 0.  1.
         12    1    4    4    0    0  0.70083861017E+00 -0.88937438176E+01 -0.83239079335E+01  0.12201528475E+02  0.00000000000E+00 0. -1.
</event>
<event>
 8    1  0.1253488E-006  0.9118800E+02  0.7816164E-02  0.1184000E+00
        -11   -1    0    0    0    0  0.00000000000E+00  0.00000000000E+00  0.45593999997E+02  0.45594000000E+02  0.51100000000E-03 0.  1.
         11   -1    0    0    0    0 -0.00000000000E+00 -0.00000000000E+00 -0.45593999997E+02  0.45594000000E+02  0.51100000000E-03 0. -1.
         23    2    1    2    0    0 -0.17763568394E-14  0.00000000000E+00  0.00000000000E+00  0.91188000000E+02  0.91188000000E+02 0.  0.
    9900012    2    3    3    0    0  0.11845078416E+02 -0.33690675398E+02  0.89672207638E+01  0.54367101862E+02  0.40000040315E+02 0.  0.
         12    1    3    3    0    0 -0.11845078416E+02  0.33690675398E+02 -0.89672207638E+01  0.36820898138E+02  0.00000000000E+00 0. -1.
         11    1    4    4    0    0  0.11775616609E+02 -0.15052126007E+02  0.94202690806E+01  0.21306644824E+02  0.51100000000E-03 0. -1.
        -11    1    4    4    0    0 -0.94248103244E+01 -0.89421777004E+01 -0.10061740277E+02  0.16432535086E+02  0.51100000000E-03 0.  1.
        -12    1    4    4    0    0  0.94942721306E+01 -0.96963716908E+01  0.96086919604E+01  0.16627921952E+02  0.00000000000E+00 0.  1.
</event>
<event>
 8    1  0.1253488E-006  0.9118800E+02  0.7816164E-02  0.1184000E+00
        -11   -1    0    0    0    0  0.00000000000E+00  0.00000000000E+00  0.45593999997E+02  0.45594000000E+02  0.51100000000E-03 0.  1.
         11   -1    0    0    0    0 -0.00000000000E+00 -0.00000000000E+00 -0.45593999997E+02  0.45594000000E+02  0.51100000000E-03 0. -1.
         23    2    1    2    0    0  0.00000000000E+00  0.00000000000E+00  0.00000000000E+00  0.91188000000E+02  0.91188000000E+02 0.  0.
    9900012    2    3    3    0    0 -0.22921170775E+02  0.39248114534E+01 -0.28548118292E+02  0.54367091909E+02  0.40000017625E+02 0.  0.
        -12    1    3    3    0    0  0.22921170775E+02 -0.39248114534E+01  0.28548118292E+02  0.36820908091E+02  0.00000000000E+00 0.  1.
         11    1    4    4    0    0 -0.10659833213E+02  0.83333966750E+01 -0.20493909099E+02  0.24557643508E+02  0.51100000000E-03 0. -1.
        -11    1    4    4    0    0 -0.16919331541E+02 -0.11065623760E+02 -0.35703666840E+01  0.20529474604E+02  0.51100000000E-03 0.  1.
        -12    1    4    4    0    0  0.46579939791E+01  0.66570385387E+01 -0.44838425088E+01  0.92799737962E+01  0.00000000000E+00 0.  1.
</event>
<event>
 8    1  0.1253488E-006  0.9118800E+02  0.7816164E-02  0.1184000E+00
        -11   -1    0    0    0    0  0.00000000000E+00  0.00000000000E+00  0.45593999997E+02  0.45594000000E+02  0.51100000000E-03 0.  1.
         11   -1    0    0    0    0 -0.00000000000E+00 -0.00000000000E+00 -0.45593999997E+02  0.45594000000E+02  0.51100000000E-03 0. -1.
         23    2    1    2    0    0  0.00000000000E+00  0.35527136788E-14  0.00000000000E+00  0.91188000000E+02  0.91188000000E+02 0.  0.
    9900012    2    3    3    0    0 -0.17849503669E+02  0.30068368592E+02  0.11535478270E+02  0.54367097921E+02  0.40000031330E+02 0.  0.
         12    1    3    3    0    0  0.17849503669E+02 -0.30068368592E+02 -0.11535478270E+02  0.36820902079E+02  0.00000000000E+00 0. -1.
         11    1    4    4    0    0 -0.20541252446E+01  0.20598539310E+02  0.56196246729E+01  0.21449928530E+02  0.51100000000E-03 0. -1.
        -11    1    4    4    0    0 -0.82704699263E+01  0.58460613537E+00  0.15669742072E+02  0.17728035819E+02  0.51100000000E-03 0.  1.
         12    1    4    4    0    0 -0.75249084977E+01  0.88852231469E+01 -0.97538884751E+01  0.15189133571E+02  0.00000000000E+00 0. -1.
</event>
<event>
 8    1  0.1253488E-006  0.9118800E+02  0.7816164E-02  0.1184000E+00
        -11   -1    0    0    0    0  0.00000000000E+00  0.00000000000E+00  0.45593999997E+02  0.45594000000E+02  0.51100000000E-03 0.  1.
         11   -1    0    0    0    0 -0.00000000000E+00 -0.00000000000E+00 -0.45593999997E+02  0.45594000000E+02  0.51100000000E-03 0. -1.
         23    2    1    2    0    0  0.17763568394E-14  0.00000000000E+00  0.00000000000E+00  0.91188000000E+02  0.91188000000E+02 0.  0.
    9900012    2    3    3    0    0  0.10892739676E+02  0.34731450057E+02  0.55547318182E+01  0.54367075972E+02  0.39999981292E+02 0.  0.
         12    1    3    3    0    0 -0.10892739676E+02 -0.34731450057E+02 -0.55547318182E+01  0.36820924028E+02  0.00000000000E+00 0. -1.
         11    1    4    4    0    0 -0.75069987781E+01  0.46927721026E+01  0.59717970789E+00  0.88732048621E+01  0.51100000000E-03 0. -1.
        -11    1    4    4    0    0  0.15557327457E+02  0.33952791802E+02 -0.15569822839E+01  0.37379763280E+02  0.51100000000E-03 0.  1.
        -12    1    4    4    0    0  0.28424109974E+01 -0.39141138479E+01  0.65145343942E+01  0.81141078293E+01  0.00000000000E+00 0.  1.
</event>
<event>
 8    1  0.1253488E-006  0.9118800E+02  0.7816164E-02  0.1184000E+00
        -11   -1    0    0    0    0  0.00000000000E+00  0.00000000000E+00  0.45593999997E+02  0.45594000000E+02  0.51100000000E-03 0.  1.
         11   -1    0    0    0    0 -0.00000000000E+00 -0.00000000000E+00 -0.45593999997E+02  0.45594000000E+02  0.51100000000E-03 0. -1.
         23    2    1    2    0    0  0.00000000000E+00  0.00000000000E+00  0.00000000000E+00  0.91188000000E+02  0.91188000000E+02 0.  0.
    9900012    2    3    3    0    0  0.11846830196E+02 -0.30417983147E+02 -0.17034613819E+02  0.54367093542E+02  0.40000021347E+02 0.  0.
        -12    1    3    3    0    0 -0.11846830196E+02  0.30417983147E+02  0.17034613819E+02  0.36820906458E+02  0.00000000000E+00 0.  1.
         11    1    4    4    0    0  0.20665192647E+01 -0.82640858595E+01  0.20578331769E+01  0.87635777288E+01  0.51100000000E-03 0. -1.
        -11    1    4    4    0    0 -0.90114860738E+01 -0.49589376763E+01  0.41786210038E+01  0.11102198786E+02  0.51100000000E-03 0.  1.
         12    1    4    4    0    0  0.18791797005E+02 -0.17194959611E+02 -0.23271068000E+02  0.34501317027E+02  0.00000000000E+00 0. -1.
</event>
<event>
 8    1  0.1253488E-006  0.9118800E+02  0.7816164E-02  0.1184000E+00
        -11   -1    0    0    0    0  0.00000000000E+00  0.00000000000E+00  0.45593999997E+02  0.45594000000E+02  0.51100000000E-03 0.  1.
         11   -1    0    0    0    0 -0.00000000000E+00 -0.00000000000E+00 -0.45593999997E+02  0.45594000000E+02  0.51100000000E-03 0. -1.
         23    2    1    2    0    0 -0.22204460493E-15 -0.35527136788E-14  0.00000000000E+00  0.91188000000E+02  0.91188000000E+02 0.  0.
    9900012    2    3    3    0    0 -0.15307559997E+01 -0.29833391499E+02 -0.21526857826E+02  0.54367081080E+02  0.39999992938E+02 0.  0.
        -12    1    3    3    0    0  0.15307559997E+01  0.29833391499E+02  0.21526857826E+02  0.36820918920E+02  0.00000000000E+00 0.  1.
         11    1    4    4    0    0  0.50554429610E+00 -0.10808070086E+01 -0.18206982206E+02  0.18246038478E+02  0.51100000000E-03 0. -1.
        -11    1    4    4    0    0 -0.32276987598E+01  0.24441095956E+01 -0.27538649407E+01  0.48964766283E+01  0.51100000000E-03 0.  1.
        -12    1    4    4    0    0  0.11913984639E+01 -0.31196694086E+02 -0.56601067985E+00  0.31224565974E+02  0.00000000000E+00 0.  1.
</event>
<event>
 8    1  0.1253488E-006  0.9118800E+02  0.7816164E-02  0.1184000E+00
        -11   -1    0    0    0    0  0.00000000000E+00  0.00000000000E+00  0.45593999997E+02  0.45594000000E+02  0.51100000000E-03 0.  1.
         11   -1    0    0    0    0 -0.00000000000E+00 -0.00000000000E+00 -0.45593999997E+02  0.45594000000E+02  0.51100000000E-03 0. -1.
         23    2    1    2    0    0  0.00000000000E+00 -0.17763568394E-14 -0.35527136788E-14  0.91188000000E+02  0.91188000000E+02 0.  0.
    9900012    2    3    3    0    0 -0.26437152617E+02 -0.53604577816E+01  0.25062369424E+02  0.54367083291E+02  0.39999997978E+02 0.  0.
         12    1    3    3    0    0  0.26437152617E+02  0.53604577816E+01 -0.25062369424E+02  0.36820916709E+02  0.00000000000E+00 0. -1.
         11    1    4    4    0    0 -0.19821675037E+02  0.36412172593E+01  0.85599540145E+01  0.21895891793E+02  0.51100000000E-03 0.  1.
        -11    1    4    4    0    0 -0.66399174519E+01  0.77434186471E+01  0.21672196151E+01  0.10428129134E+02  0.51100000000E-03 0. -1.
        -12    1    4    4    0    0  0.24439871808E-01 -0.16745093688E+02  0.14335195794E+02  0.22043062364E+02  0.00000000000E+00 0.  1.
</event>
<event>
 8    1  0.1253488E-006  0.9118800E+02  0.7816164E-02  0.1184000E+00
        -11   -1    0    0    0    0  0.00000000000E+00  0.00000000000E+00  0.45593999997E+02  0.45594000000E+02  0.51100000000E-03 0. -1.
         11   -1    0    0    0    0 -0.00000000000E+00 -0.00000000000E+00 -0.45593999997E+02  0.45594000000E+02  0.51100000000E-03 0.  1.
         23    2    1    2    0    0  0.71054273576E-14  0.35527136788E-14  0.00000000000E+00  0.91188000000E+02  0.91188000000E+02 0.  0.
    9900012    2    3    3    0    0 -0.34241456480E+02 -0.12406613768E+02 -0.54201625976E+01  0.54367087876E+02  0.40000008431E+02 0.  0.
         12    1    3    3    0    0  0.34241456480E+02  0.12406613768E+02  0.54201625976E+01  0.36820912124E+02  0.00000000000E+00 0. -1.
         11    1    4    4    0    0 -0.17076818792E+02 -0.17144223087E+02  0.82090330363E+01  0.25552501815E+02  0.51100000000E-03 0.  1.
        -11    1    4    4    0    0 -0.17190924635E+02  0.55334648337E+01 -0.31827768752E+01  0.18337862247E+02  0.51100000000E-03 0. -1.
        -12    1    4    4    0    0  0.26286947741E-01 -0.79585551414E+00 -0.10446418759E+02  0.10476723814E+02  0.00000000000E+00 0.  1.
</event>
<event>
 8    1  0.1253488E-006  0.9118800E+02  0.7816164E-02  0.1184000E+00
        -11   -1    0    0    0    0  0.00000000000E+00  0.00000000000E+00  0.45593999997E+02  0.45594000000E+02  0.51100000000E-03 0.  1.
         11   -1    0    0    0    0 -0.00000000000E+00 -0.00000000000E+00 -0.45593999997E+02  0.45594000000E+02  0.51100000000E-03 0. -1.
         23    2    1    2    0    0  0.00000000000E+00  0.00000000000E+00  0.00000000000E+00  0.91188000000E+02  0.91188000000E+02 0.  0.
    9900012    2    3    3    0    0 -0.21595242547E+02 -0.29699754348E+02 -0.27111188160E+01  0.54367081024E+02  0.39999992811E+02 0.  0.
        -12    1    3    3    0    0  0.21595242547E+02  0.29699754348E+02  0.27111188160E+01  0.36820918976E+02  0.00000000000E+00 0.  1.
         11    1    4    4    0    0 -0.73557585375E+01  0.70513071983E+01  0.57792007937E+00  0.10205983968E+02  0.51100000000E-03 0. -1.
        -11    1    4    4    0    0 -0.15905160625E+02 -0.36342752811E+02 -0.68040437787E+01  0.40250028924E+02  0.51100000000E-03 0.  1.
        -12    1    4    4    0    0  0.16656766157E+01 -0.40830873525E+00  0.35150048833E+01  0.39110681330E+01  0.00000000000E+00 0.  1.
</event>
<event>
 8    1  0.1253488E-006  0.9118800E+02  0.7816164E-02  0.1184000E+00
        -11   -1    0    0    0    0  0.00000000000E+00  0.00000000000E+00  0.45593999997E+02  0.45594000000E+02  0.51100000000E-03 0.  1.
         11   -1    0    0    0    0 -0.00000000000E+00 -0.00000000000E+00 -0.45593999997E+02  0.45594000000E+02  0.51100000000E-03 0. -1.
         23    2    1    2    0    0 -0.35527136788E-14  0.71054273576E-14  0.17763568394E-14  0.91188000000E+02  0.91188000000E+02 0.  0.
    9900012    2    3    3    0    0  0.18786296191E+02 -0.30276726015E+02 -0.92823386097E+01  0.54367260289E+02  0.40000401479E+02 0.  0.
        -12    1    3    3    0    0 -0.18786296191E+02  0.30276726015E+02  0.92823386097E+01  0.36820739711E+02  0.00000000000E+00 0.  1.
         11    1    4    4    0    0 -0.85020040659E+01 -0.19295563436E+02 -0.23033586349E+01  0.21211042000E+02  0.51100000000E-03 0. -1.
        -11    1    4    4    0    0  0.14582627161E+02 -0.12554618919E+02 -0.66170072858E+01  0.20348372338E+02  0.51100000000E-03 0.  1.
        -12    1    4    4    0    0  0.12705673096E+02  0.15734563404E+01 -0.36197268900E+00  0.12807845951E+02  0.00000000000E+00 0.  1.
</event>
<event>
 8    1  0.1253488E-006  0.9118800E+02  0.7816164E-02  0.1184000E+00
        -11   -1    0    0    0    0  0.00000000000E+00  0.00000000000E+00  0.45593999997E+02  0.45594000000E+02  0.51100000000E-03 0.  1.
         11   -1    0    0    0    0 -0.00000000000E+00 -0.00000000000E+00 -0.45593999997E+02  0.45594000000E+02  0.51100000000E-03 0. -1.
         23    2    1    2    0    0  0.88817841970E-15  0.35527136788E-14 -0.35527136788E-14  0.91188000000E+02  0.91188000000E+02 0.  0.
    9900012    2    3    3    0    0 -0.74337245730E+01  0.30363126498E+02  0.19457657350E+02  0.54367080113E+02  0.39999990734E+02 0.  0.
         12    1    3    3    0    0  0.74337245730E+01 -0.30363126498E+02 -0.19457657350E+02  0.36820919887E+02  0.00000000000E+00 0. -1.
         11    1    4    4    0    0 -0.12586478661E+01 -0.59386520449E+00 -0.35733051984E+01  0.38347595275E+01  0.51100000000E-03 0. -1.
        -11    1    4    4    0    0 -0.14866127254E+02  0.95410701249E+01  0.20835875787E+02  0.27316066311E+02  0.51100000000E-03 0.  1.
         12    1    4    4    0    0  0.86910505468E+01  0.21415921578E+02  0.21950867614E+01  0.23216254274E+02  0.00000000000E+00 0. -1.
</event>
<event>
 8    1  0.1253488E-006  0.9118800E+02  0.7816164E-02  0.1184000E+00
        -11   -1    0    0    0    0  0.00000000000E+00  0.00000000000E+00  0.45593999997E+02  0.45594000000E+02  0.51100000000E-03 0.  1.
         11   -1    0    0    0    0 -0.00000000000E+00 -0.00000000000E+00 -0.45593999997E+02  0.45594000000E+02  0.51100000000E-03 0. -1.
         23    2    1    2    0    0  0.35527136788E-14  0.00000000000E+00 -0.35527136788E-14  0.91188000000E+02  0.91188000000E+02 0.  0.
    9900012    2    3    3    0    0  0.10532545512E+02  0.25436200768E+02 -0.24450882970E+02  0.54367075209E+02  0.39999979553E+02 0.  0.
        -12    1    3    3    0    0 -0.10532545512E+02 -0.25436200768E+02  0.24450882970E+02  0.36820924791E+02  0.00000000000E+00 0.  1.
         11    1    4    4    0    0  0.75315835443E+01  0.12625129919E+02 -0.13670719909E+02  0.20075040206E+02  0.51100000000E-03 0. -1.
        -11    1    4    4    0    0 -0.58175415388E+01  0.33318132054E+01 -0.18182028335E+02  0.19378620267E+02  0.51100000000E-03 0.  1.
        -12    1    4    4    0    0  0.88185035066E+01  0.94792576429E+01  0.74018652742E+01  0.14913414736E+02  0.00000000000E+00 0.  1.
</event>
<event>
 8    1  0.1253488E-006  0.9118800E+02  0.7816164E-02  0.1184000E+00
        -11   -1    0    0    0    0  0.00000000000E+00  0.00000000000E+00  0.45593999997E+02  0.45594000000E+02  0.51100000000E-03 0.  1.
         11   -1    0    0    0    0 -0.00000000000E+00 -0.00000000000E+00 -0.45593999997E+02  0.45594000000E+02  0.51100000000E-03 0. -1.
         23    2    1    2    0    0  0.00000000000E+00  0.00000000000E+00  0.35527136788E-14  0.91188000000E+02  0.91188000000E+02 0.  0.
    9900012    2    3    3    0    0 -0.10901173063E+02 -0.23818331395E+02 -0.25877224850E+02  0.54367092210E+02  0.40000018310E+02 0.  0.
        -12    1    3    3    0    0  0.10901173063E+02  0.23818331395E+02  0.25877224850E+02  0.36820907790E+02  0.00000000000E+00 0.  1.
         11    1    4    4    0    0  0.72917358134E+01 -0.92915971595E+01 -0.92619791539E+01  0.15009578510E+02  0.51100000000E-03 0. -1.
        -11    1    4    4    0    0 -0.44645383333E+01 -0.14385698388E+02  0.30556302258E+01  0.15369362283E+02  0.51100000000E-03 0.  1.
         12    1    4    4    0    0 -0.13728370543E+02 -0.14103584760E+00 -0.19670875922E+02  0.23988151417E+02  0.00000000000E+00 0. -1.
</event>
<event>
 8    1  0.1253488E-006  0.9118800E+02  0.7816164E-02  0.1184000E+00
        -11   -1    0    0    0    0  0.00000000000E+00  0.00000000000E+00  0.45593999997E+02  0.45594000000E+02  0.51100000000E-03 0.  1.
         11   -1    0    0    0    0 -0.00000000000E+00 -0.00000000000E+00 -0.45593999997E+02  0.45594000000E+02  0.51100000000E-03 0. -1.
         23    2    1    2    0    0 -0.17763568394E-14 -0.35527136788E-14  0.35527136788E-14  0.91188000000E+02  0.91188000000E+02 0.  0.
    9900012    2    3    3    0    0 -0.15093244871E+02  0.13448428695E+02 -0.30775202397E+02  0.54367090754E+02  0.40000014992E+02 0.  0.
        -12    1    3    3    0    0  0.15093244871E+02 -0.13448428695E+02  0.30775202397E+02  0.36820909246E+02  0.00000000000E+00 0.  1.
         11    1    4    4    0    0 -0.38448467294E+00  0.19580368864E+02 -0.13237892541E+02  0.23638537867E+02  0.51100000000E-03 0. -1.
        -11    1    4    4    0    0 -0.11366031914E+02  0.22234490743E+01 -0.18343096656E+02  0.21693307780E+02  0.51100000000E-03 0.  1.
        -12    1    4    4    0    0 -0.33427282847E+01 -0.83553892424E+01  0.80578680058E+00  0.90352451071E+01  0.00000000000E+00 0.  1.
</event>
<event>
 8    1  0.1253488E-006  0.9118800E+02  0.7816164E-02  0.1184000E+00
        -11   -1    0    0    0    0  0.00000000000E+00  0.00000000000E+00  0.45593999997E+02  0.45594000000E+02  0.51100000000E-03 0. -1.
         11   -1    0    0    0    0 -0.00000000000E+00 -0.00000000000E+00 -0.45593999997E+02  0.45594000000E+02  0.51100000000E-03 0.  1.
         23    2    1    2    0    0  0.71054273576E-14 -0.88817841970E-15 -0.71054273576E-14  0.91188000000E+02  0.91188000000E+02 0.  0.
    9900012    2    3    3    0    0 -0.18541680072E+02  0.59696203930E+01  0.31246294879E+02  0.54367337171E+02  0.40000576744E+02 0.  0.
        -12    1    3    3    0    0  0.18541680072E+02 -0.59696203930E+01 -0.31246294879E+02  0.36820662829E+02  0.00000000000E+00 0.  1.
         11    1    4    4    0    0 -0.12797069115E+02  0.27017596002E+01  0.24320942418E+02  0.27614719322E+02  0.51100000000E-03 0. -1.
        -11    1    4    4    0    0  0.97747035257E+01 -0.53306746587E+00  0.16569943763E+01  0.99284752386E+01  0.51100000000E-03 0.  1.
        -12    1    4    4    0    0 -0.15519314483E+02  0.38009282586E+01  0.52683580843E+01  0.16824142610E+02  0.00000000000E+00 0.  1.
</event>
<event>
 8    1  0.1253488E-006  0.9118800E+02  0.7816164E-02  0.1184000E+00
        -11   -1    0    0    0    0  0.00000000000E+00  0.00000000000E+00  0.45593999997E+02  0.45594000000E+02  0.51100000000E-03 0.  1.
         11   -1    0    0    0    0 -0.00000000000E+00 -0.00000000000E+00 -0.45593999997E+02  0.45594000000E+02  0.51100000000E-03 0. -1.
         23    2    1    2    0    0  0.00000000000E+00 -0.17763568394E-14  0.17763568394E-14  0.91188000000E+02  0.91188000000E+02 0.  0.
    9900012    2    3    3    0    0 -0.32502594466E+02  0.13495658960E+02  0.10827189520E+02  0.54367088948E+02  0.40000010875E+02 0.  0.
         12    1    3    3    0    0  0.32502594466E+02 -0.13495658960E+02 -0.10827189520E+02  0.36820911052E+02  0.00000000000E+00 0. -1.
         11    1    4    4    0    0 -0.56721075003E+01 -0.27256888815E+01  0.97708111218E+01  0.11622002134E+02  0.51100000000E-03 0. -1.
        -11    1    4    4    0    0 -0.31211712804E+02  0.86709444690E+01  0.56467812808E+01  0.32882251037E+02  0.51100000000E-03 0.  1.
         12    1    4    4    0    0  0.43812258385E+01  0.75504033726E+01 -0.45904028829E+01  0.98628357770E+01  0.00000000000E+00 0. -1.
</event>
<event>
 8    1  0.1253488E-006  0.9118800E+02  0.7816164E-02  0.1184000E+00
        -11   -1    0    0    0    0  0.00000000000E+00  0.00000000000E+00  0.45593999997E+02  0.45594000000E+02  0.51100000000E-03 0. -1.
         11   -1    0    0    0    0 -0.00000000000E+00 -0.00000000000E+00 -0.45593999997E+02  0.45594000000E+02  0.51100000000E-03 0.  1.
         23    2    1    2    0    0  0.71054273576E-14  0.35527136788E-14  0.17763568394E-14  0.91188000000E+02  0.91188000000E+02 0.  0.
    9900012    2    3    3    0    0  0.33470376095E+02  0.13865668587E+02  0.65770753593E+01  0.54367071691E+02  0.39999971533E+02 0.  0.
        -12    1    3    3    0    0 -0.33470376095E+02 -0.13865668587E+02 -0.65770753593E+01  0.36820928309E+02  0.00000000000E+00 0.  1.
         11    1    4    4    0    0  0.20557124129E+01  0.27714554742E+01 -0.55545518254E+01  0.65391104297E+01  0.51100000000E-03 0. -1.
        -11    1    4    4    0    0 -0.41495645688E+01  0.62463721248E+01 -0.39740892209E+01  0.84870157434E+01  0.51100000000E-03 0.  1.
         12    1    4    4    0    0  0.35564228250E+02  0.48478409878E+01  0.16105716405E+02  0.39340945518E+02  0.00000000000E+00 0. -1.
</event>
<event>
 8    1  0.1253488E-006  0.9118800E+02  0.7816164E-02  0.1184000E+00
        -11   -1    0    0    0    0  0.00000000000E+00  0.00000000000E+00  0.45593999997E+02  0.45594000000E+02  0.51100000000E-03 0.  1.
         11   -1    0    0    0    0 -0.00000000000E+00 -0.00000000000E+00 -0.45593999997E+02  0.45594000000E+02  0.51100000000E-03 0. -1.
         23    2    1    2    0    0  0.00000000000E+00  0.00000000000E+00  0.00000000000E+00  0.91188000000E+02  0.91188000000E+02 0.  0.
    9900012    2    3    3    0    0 -0.33237629360E+02 -0.68990556308E+01 -0.14263365529E+02  0.54367074288E+02  0.39999977454E+02 0.  0.
        -12    1    3    3    0    0  0.33237629360E+02  0.68990556308E+01  0.14263365529E+02  0.36820925712E+02  0.00000000000E+00 0.  1.
         11    1    4    4    0    0 -0.11316181676E+02 -0.33623539987E+01 -0.10813437534E+02  0.16009116893E+02  0.51100000000E-03 0. -1.
        -11    1    4    4    0    0 -0.25033601579E+01 -0.13807339968E+02  0.48915050695E+01  0.14860560931E+02  0.51100000000E-03 0.  1.
         12    1    4    4    0    0 -0.19418087527E+02  0.10270638336E+02 -0.83414330637E+01  0.23497396464E+02  0.00000000000E+00 0. -1.
</event>
<event>
 8    1  0.1253488E-006  0.9118800E+02  0.7816164E-02  0.1184000E+00
        -11   -1    0    0    0    0  0.00000000000E+00  0.00000000000E+00  0.45593999997E+02  0.45594000000E+02  0.51100000000E-03 0.  1.
         11   -1    0    0    0    0 -0.00000000000E+00 -0.00000000000E+00 -0.45593999997E+02  0.45594000000E+02  0.51100000000E-03 0. -1.
         23    2    1    2    0    0  0.88817841970E-15  0.00000000000E+00  0.00000000000E+00  0.91188000000E+02  0.91188000000E+02 0.  0.
    9900012    2    3    3    0    0  0.39075803938E+01 -0.99452002642E+01  0.35236395810E+02  0.54367084985E+02  0.40000001841E+02 0.  0.
         12    1    3    3    0    0 -0.39075803938E+01  0.99452002642E+01 -0.35236395810E+02  0.36820915015E+02  0.00000000000E+00 0. -1.
         11    1    4    4    0    0 -0.73129078564E+01 -0.50437118304E+01  0.59847357161E+01  0.10711429046E+02  0.51100000000E-03 0. -1.
        -11    1    4    4    0    0 -0.79225664370E+00 -0.15397716019E+02  0.19866018140E+02  0.25147087429E+02  0.51100000000E-03 0.  1.
        -12    1    4    4    0    0  0.12012744894E+02  0.10496227585E+02  0.93856419544E+01  0.18508568510E+02  0.00000000000E+00 0.  1.
</event>
<event>
 8    1  0.1253488E-006  0.9118800E+02  0.7816164E-02  0.1184000E+00
        -11   -1    0    0    0    0  0.00000000000E+00  0.00000000000E+00  0.45593999997E+02  0.45594000000E+02  0.51100000000E-03 0.  1.
         11   -1    0    0    0    0 -0.00000000000E+00 -0.00000000000E+00 -0.45593999997E+02  0.45594000000E+02  0.51100000000E-03 0. -1.
         23    2    1    2    0    0  0.00000000000E+00  0.22204460493E-14  0.00000000000E+00  0.91188000000E+02  0.91188000000E+02 0.  0.
    9900012    2    3    3    0    0  0.34716376534E+02 -0.24542448147E+01  0.12022076897E+02  0.54367075919E+02  0.39999981172E+02 0.  0.
        -12    1    3    3    0    0 -0.34716376534E+02  0.24542448147E+01 -0.12022076897E+02  0.36820924081E+02  0.00000000000E+00 0.  1.
         11    1    4    4    0    0  0.27429044771E+02  0.11135767391E+02  0.18617823133E+02  0.34971147406E+02  0.51100000000E-03 0. -1.
        -11    1    4    4    0    0 -0.76143383542E+00 -0.53462374063E+01 -0.56812820757E+01  0.78383035266E+01  0.51100000000E-03 0.  1.
         12    1    4    4    0    0  0.80487655991E+01 -0.82437747996E+01 -0.91446416041E+00  0.11557624986E+02  0.00000000000E+00 0. -1.
</event>
<event>
 8    1  0.1253488E-006  0.9118800E+02  0.7816164E-02  0.1184000E+00
        -11   -1    0    0    0    0  0.00000000000E+00  0.00000000000E+00  0.45593999997E+02  0.45594000000E+02  0.51100000000E-03 0.  1.
         11   -1    0    0    0    0 -0.00000000000E+00 -0.00000000000E+00 -0.45593999997E+02  0.45594000000E+02  0.51100000000E-03 0. -1.
         23    2    1    2    0    0  0.35527136788E-14  0.17763568394E-14  0.00000000000E+00  0.91188000000E+02  0.91188000000E+02 0.  0.
    9900012    2    3    3    0    0  0.26567729650E+02 -0.76482658016E+01 -0.24319498955E+02  0.54367105688E+02  0.40000049036E+02 0.  0.
        -12    1    3    3    0    0 -0.26567729650E+02  0.76482658016E+01  0.24319498955E+02  0.36820894312E+02  0.00000000000E+00 0.  1.
         11    1    4    4    0    0  0.10919780099E+02 -0.20819136954E+02 -0.17015608150E+02  0.29020837030E+02  0.51100000000E-03 0. -1.
        -11    1    4    4    0    0  0.21230246165E+01 -0.14905361462E+01 -0.45125024865E+01  0.52049601802E+01  0.51100000000E-03 0.  1.
        -12    1    4    4    0    0  0.13524924934E+02  0.14661407299E+02 -0.27913883189E+01  0.20141308478E+02  0.00000000000E+00 0.  1.
</event>
<event>
 8    1  0.1253488E-006  0.9118800E+02  0.7816164E-02  0.1184000E+00
        -11   -1    0    0    0    0  0.00000000000E+00  0.00000000000E+00  0.45593999997E+02  0.45594000000E+02  0.51100000000E-03 0.  1.
         11   -1    0    0    0    0 -0.00000000000E+00 -0.00000000000E+00 -0.45593999997E+02  0.45594000000E+02  0.51100000000E-03 0. -1.
         23    2    1    2    0    0  0.55511151231E-15 -0.35527136788E-14  0.00000000000E+00  0.91188000000E+02  0.91188000000E+02 0.  0.
    9900012    2    3    3    0    0  0.90549820267E+00  0.27079044747E+02 -0.24933637792E+02  0.54367070015E+02  0.39999967713E+02 0.  0.
        -12    1    3    3    0    0 -0.90549820267E+00 -0.27079044747E+02  0.24933637792E+02  0.36820929985E+02  0.00000000000E+00 0.  1.
         11    1    4    4    0    0  0.65067266021E+01  0.18374336920E+01 -0.18509839291E+02  0.19706034723E+02  0.51100000000E-03 0. -1.
        -11    1    4    4    0    0 -0.12172610133E+02  0.21820506754E+02 -0.93739703597E+01  0.26686668451E+02  0.51100000000E-03 0.  1.
        -12    1    4    4    0    0  0.65713817332E+01  0.34211043017E+01  0.29501718585E+01  0.79743668414E+01  0.00000000000E+00 0.  1.
</event>
<event>
 8    1  0.1253488E-006  0.9118800E+02  0.7816164E-02  0.1184000E+00
        -11   -1    0    0    0    0  0.00000000000E+00  0.00000000000E+00  0.45593999997E+02  0.45594000000E+02  0.51100000000E-03 0. -1.
         11   -1    0    0    0    0 -0.00000000000E+00 -0.00000000000E+00 -0.45593999997E+02  0.45594000000E+02  0.51100000000E-03 0.  1.
         23    2    1    2    0    0  0.35527136788E-14  0.00000000000E+00 -0.35527136788E-14  0.91188000000E+02  0.91188000000E+02 0.  0.
    9900012    2    3    3    0    0 -0.22696177534E+02 -0.16874002388E+02  0.23578208149E+02  0.54367077541E+02  0.39999984870E+02 0.  0.
        -12    1    3    3    0    0  0.22696177534E+02  0.16874002388E+02 -0.23578208149E+02  0.36820922459E+02  0.00000000000E+00 0.  1.
         11    1    4    4    0    0  0.84857748243E+01 -0.67865658756E+01  0.50994443369E+01  0.12002923959E+02  0.51100000000E-03 0. -1.
        -11    1    4    4    0    0 -0.17806262233E+02 -0.11182993691E+02  0.20142960347E+01  0.21122966444E+02  0.51100000000E-03 0.  1.
         12    1    4    4    0    0 -0.13375690125E+02  0.10955571789E+01  0.16464467777E+02  0.21241187138E+02  0.00000000000E+00 0. -1.
</event>
<event>
 8    1  0.1253488E-006  0.9118800E+02  0.7816164E-02  0.1184000E+00
        -11   -1    0    0    0    0  0.00000000000E+00  0.00000000000E+00  0.45593999997E+02  0.45594000000E+02  0.51100000000E-03 0.  1.
         11   -1    0    0    0    0 -0.00000000000E+00 -0.00000000000E+00 -0.45593999997E+02  0.45594000000E+02  0.51100000000E-03 0. -1.
         23    2    1    2    0    0  0.17763568394E-14  0.00000000000E+00 -0.35527136788E-14  0.91188000000E+02  0.91188000000E+02 0.  0.
    9900012    2    3    3    0    0 -0.13717527685E+02  0.34079643529E+02  0.24871520560E+01  0.54367101121E+02  0.40000038626E+02 0.  0.
         12    1    3    3    0    0  0.13717527685E+02 -0.34079643529E+02 -0.24871520560E+01  0.36820898879E+02  0.00000000000E+00 0. -1.
         11    1    4    4    0    0  0.48038965521E+00  0.11020184004E+02 -0.16650467854E+02  0.19972814266E+02  0.51100000000E-03 0. -1.
        -11    1    4    4    0    0 -0.10593648764E+02  0.13980801537E+02  0.71786899647E+01  0.18953147381E+02  0.51100000000E-03 0.  1.
        -12    1    4    4    0    0 -0.36042685762E+01  0.90786579883E+01  0.11958929945E+02  0.15441139474E+02  0.00000000000E+00 0.  1.
</event>
<event>
 8    1  0.1253488E-006  0.9118800E+02  0.7816164E-02  0.1184000E+00
        -11   -1    0    0    0    0  0.00000000000E+00  0.00000000000E+00  0.45593999997E+02  0.45594000000E+02  0.51100000000E-03 0. -1.
         11   -1    0    0    0    0 -0.00000000000E+00 -0.00000000000E+00 -0.45593999997E+02  0.45594000000E+02  0.51100000000E-03 0.  1.
         23    2    1    2    0    0  0.00000000000E+00  0.00000000000E+00  0.35527136788E-14  0.91188000000E+02  0.91188000000E+02 0.  0.
    9900012    2    3    3    0    0  0.32195425768E+02 -0.46378859877E+01 -0.17254745173E+02  0.54367059520E+02  0.39999943788E+02 0.  0.
        -12    1    3    3    0    0 -0.32195425768E+02  0.46378859877E+01  0.17254745173E+02  0.36820940480E+02  0.00000000000E+00 0.  1.
         11    1    4    4    0    0  0.27232968244E+02 -0.98451533758E+00 -0.18786405394E+02  0.33098834688E+02  0.51100000000E-03 0. -1.
        -11    1    4    4    0    0  0.37459162780E+00 -0.65606132016E+01 -0.79663498509E+01  0.10326891821E+02  0.51100000000E-03 0.  1.
         12    1    4    4    0    0  0.45878658964E+01  0.29072425514E+01  0.94980100718E+01  0.10941333011E+02  0.00000000000E+00 0. -1.
</event>
<event>
 8    1  0.1253488E-006  0.9118800E+02  0.7816164E-02  0.1184000E+00
        -11   -1    0    0    0    0  0.00000000000E+00  0.00000000000E+00  0.45593999997E+02  0.45594000000E+02  0.51100000000E-03 0.  1.
         11   -1    0    0    0    0 -0.00000000000E+00 -0.00000000000E+00 -0.45593999997E+02  0.45594000000E+02  0.51100000000E-03 0. -1.
         23    2    1    2    0    0  0.00000000000E+00  0.17763568394E-14  0.00000000000E+00  0.91188000000E+02  0.91188000000E+02 0.  0.
    9900012    2    3    3    0    0 -0.13519349463E+02  0.15842535416E+02 -0.30364804836E+02  0.54367080524E+02  0.39999991670E+02 0.  0.
        -12    1    3    3    0    0  0.13519349463E+02 -0.15842535416E+02  0.30364804836E+02  0.36820919476E+02  0.00000000000E+00 0.  1.
         11    1    4    4    0    0 -0.54473649545E+00  0.18793400928E+02 -0.23753377339E+02  0.30293754992E+02  0.51100000000E-03 0. -1.
        -11    1    4    4    0    0 -0.10824494142E+02  0.32000365202E+01 -0.11357204199E+02  0.16012370051E+02  0.51100000000E-03 0.  1.
        -12    1    4    4    0    0 -0.21501188258E+01 -0.61509020315E+01  0.47457767017E+01  0.80609554811E+01  0.00000000000E+00 0.  1.
</event>
<event>
 8    1  0.1253488E-006  0.9118800E+02  0.7816164E-02  0.1184000E+00
        -11   -1    0    0    0    0  0.00000000000E+00  0.00000000000E+00  0.45593999997E+02  0.45594000000E+02  0.51100000000E-03 0.  1.
         11   -1    0    0    0    0 -0.00000000000E+00 -0.00000000000E+00 -0.45593999997E+02  0.45594000000E+02  0.51100000000E-03 0. -1.
         23    2    1    2    0    0  0.00000000000E+00  0.00000000000E+00 -0.88817841970E-15  0.91188000000E+02  0.91188000000E+02 0.  0.
    9900012    2    3    3    0    0 -0.45866412879E+01 -0.36437652738E+02 -0.26501135763E+01  0.54367314002E+02  0.40000523928E+02 0.  0.
        -12    1    3    3    0    0  0.45866412879E+01  0.36437652738E+02  0.26501135763E+01  0.36820685998E+02  0.00000000000E+00 0.  1.
         11    1    4    4    0    0 -0.25159922131E+01 -0.19943234674E+01 -0.14660237095E+02  0.15007667868E+02  0.51100000000E-03 0. -1.
        -11    1    4    4    0    0 -0.22397218636E+01 -0.10261718460E+02  0.10922164270E+02  0.15152982954E+02  0.51100000000E-03 0.  1.
         12    1    4    4    0    0  0.16907278887E+00 -0.24181610810E+02  0.10879592481E+01  0.24206663180E+02  0.00000000000E+00 0. -1.
</event>
<event>
 8    1  0.1253488E-006  0.9118800E+02  0.7816164E-02  0.1184000E+00
        -11   -1    0    0    0    0  0.00000000000E+00  0.00000000000E+00  0.45593999997E+02  0.45594000000E+02  0.51100000000E-03 0.  1.
         11   -1    0    0    0    0 -0.00000000000E+00 -0.00000000000E+00 -0.45593999997E+02  0.45594000000E+02  0.51100000000E-03 0. -1.
         23    2    1    2    0    0 -0.35527136788E-14  0.35527136788E-14 -0.35527136788E-14  0.91188000000E+02  0.91188000000E+02 0.  0.
    9900012    2    3    3    0    0  0.29069836406E+02 -0.15632200773E+02  0.16320535864E+02  0.54367068717E+02  0.39999964754E+02 0.  0.
        -12    1    3    3    0    0 -0.29069836406E+02  0.15632200773E+02 -0.16320535864E+02  0.36820931283E+02  0.00000000000E+00 0.  1.
         11    1    4    4    0    0  0.27702344496E+01 -0.85025876089E+01  0.45018466369E+01  0.10011734033E+02  0.51100000000E-03 0. -1.
        -11    1    4    4    0    0  0.81408282894E+00 -0.82509180008E+01 -0.84013696846E+01  0.11803533011E+02  0.51100000000E-03 0.  1.
         12    1    4    4    0    0  0.25485519127E+02  0.11213048371E+01  0.20220058912E+02  0.32551801672E+02  0.00000000000E+00 0. -1.
</event>
<event>
 8    1  0.1253488E-006  0.9118800E+02  0.7816164E-02  0.1184000E+00
        -11   -1    0    0    0    0  0.00000000000E+00  0.00000000000E+00  0.45593999997E+02  0.45594000000E+02  0.51100000000E-03 0.  1.
         11   -1    0    0    0    0 -0.00000000000E+00 -0.00000000000E+00 -0.45593999997E+02  0.45594000000E+02  0.51100000000E-03 0. -1.
         23    2    1    2    0    0  0.00000000000E+00  0.35527136788E-14  0.35527136788E-14  0.91188000000E+02  0.91188000000E+02 0.  0.
    9900012    2    3    3    0    0 -0.81759573290E+01 -0.25064770952E+02 -0.25703914167E+02  0.54367078982E+02  0.39999988155E+02 0.  0.
        -12    1    3    3    0    0  0.81759573290E+01  0.25064770952E+02  0.25703914167E+02  0.36820921018E+02  0.00000000000E+00 0.  1.
         11    1    4    4    0    0 -0.11346678697E+02 -0.21112769880E+02 -0.86536919169E+01  0.25482985569E+02  0.51100000000E-03 0. -1.
        -11    1    4    4    0    0 -0.57087203633E+01 -0.56587712836E+00  0.31611755694E+01  0.65500180422E+01  0.51100000000E-03 0.  1.
        -12    1    4    4    0    0  0.88794417312E+01 -0.33861239432E+01 -0.20211397820E+02  0.22334075370E+02  0.00000000000E+00 0.  1.
</event>
<event>
 8    1  0.1253488E-006  0.9118800E+02  0.7816164E-02  0.1184000E+00
        -11   -1    0    0    0    0  0.00000000000E+00  0.00000000000E+00  0.45593999997E+02  0.45594000000E+02  0.51100000000E-03 0.  1.
         11   -1    0    0    0    0 -0.00000000000E+00 -0.00000000000E+00 -0.45593999997E+02  0.45594000000E+02  0.51100000000E-03 0. -1.
         23    2    1    2    0    0  0.00000000000E+00  0.35527136788E-14 -0.17763568394E-14  0.91188000000E+02  0.91188000000E+02 0.  0.
    9900012    2    3    3    0    0 -0.24882870948E+02  0.25388174577E+02 -0.95949671879E+01  0.54367081078E+02  0.39999992933E+02 0.  0.
        -12    1    3    3    0    0  0.24882870948E+02 -0.25388174577E+02  0.95949671879E+01  0.36820918922E+02  0.00000000000E+00 0.  1.
         11    1    4    4    0    0 -0.22718141191E+02  0.11153327432E+02 -0.35355568961E+01  0.25554076285E+02  0.51100000000E-03 0. -1.
        -11    1    4    4    0    0 -0.26344798715E+01 -0.22382205422E+01  0.69861877184E+01  0.77946734689E+01  0.51100000000E-03 0.  1.
         12    1    4    4    0    0  0.46975011423E+00  0.16473067687E+02 -0.13045598010E+02  0.21018331324E+02  0.00000000000E+00 0. -1.
</event>
<event>
 8    1  0.1253488E-006  0.9118800E+02  0.7816164E-02  0.1184000E+00
        -11   -1    0    0    0    0  0.00000000000E+00  0.00000000000E+00  0.45593999997E+02  0.45594000000E+02  0.51100000000E-03 0.  1.
         11   -1    0    0    0    0 -0.00000000000E+00 -0.00000000000E+00 -0.45593999997E+02  0.45594000000E+02  0.51100000000E-03 0. -1.
         23    2    1    2    0    0  0.00000000000E+00  0.00000000000E+00  0.66613381478E-15  0.91188000000E+02  0.91188000000E+02 0.  0.
    9900012    2    3    3    0    0  0.35550448699E+02 -0.94340298131E+01 -0.17161505383E+01  0.54367075325E+02  0.39999979819E+02 0.  0.
        -12    1    3    3    0    0 -0.35550448699E+02  0.94340298131E+01  0.17161505383E+01  0.36820924675E+02  0.00000000000E+00 0.  1.
         11    1    4    4    0    0 -0.33415320582E+01 -0.27201392949E+01 -0.42673735587E+01  0.60642783272E+01  0.51100000000E-03 0. -1.
        -11    1    4    4    0    0  0.24952801941E+01  0.34223681832E+01 -0.80202399707E+01  0.90699105110E+01  0.51100000000E-03 0.  1.
         12    1    4    4    0    0  0.36396700563E+02 -0.10136258701E+02  0.10571462991E+02  0.39232886487E+02  0.00000000000E+00 0. -1.
</event>
<event>
 8    1  0.1253488E-006  0.9118800E+02  0.7816164E-02  0.1184000E+00
        -11   -1    0    0    0    0  0.00000000000E+00  0.00000000000E+00  0.45593999997E+02  0.45594000000E+02  0.51100000000E-03 0. -1.
         11   -1    0    0    0    0 -0.00000000000E+00 -0.00000000000E+00 -0.45593999997E+02  0.45594000000E+02  0.51100000000E-03 0.  1.
         23    2    1    2    0    0  0.88817841970E-15 -0.88817841970E-15  0.00000000000E+00  0.91188000000E+02  0.91188000000E+02 0.  0.
    9900012    2    3    3    0    0 -0.73732403008E+01  0.14135149139E+01  0.36047435946E+02  0.54367077480E+02  0.39999984731E+02 0.  0.
        -12    1    3    3    0    0  0.73732403008E+01 -0.14135149139E+01 -0.36047435946E+02  0.36820922520E+02  0.00000000000E+00 0.  1.
         11    1    4    4    0    0 -0.45879862136E+01  0.72503968666E+01  0.25111889991E+02  0.26537235942E+02  0.51100000000E-03 0. -1.
        -11    1    4    4    0    0 -0.13799626577E+02 -0.25402660056E+01  0.50395298193E+01  0.14909041086E+02  0.51100000000E-03 0.  1.
         12    1    4    4    0    0  0.11014372490E+02 -0.32966159471E+01  0.58960161352E+01  0.12920800452E+02  0.00000000000E+00 0. -1.
</event>
<event>
 8    1  0.1253488E-006  0.9118800E+02  0.7816164E-02  0.1184000E+00
        -11   -1    0    0    0    0  0.00000000000E+00  0.00000000000E+00  0.45593999997E+02  0.45594000000E+02  0.51100000000E-03 0.  1.
         11   -1    0    0    0    0 -0.00000000000E+00 -0.00000000000E+00 -0.45593999997E+02  0.45594000000E+02  0.51100000000E-03 0. -1.
         23    2    1    2    0    0  0.00000000000E+00  0.00000000000E+00  0.00000000000E+00  0.91188000000E+02  0.91188000000E+02 0.  0.
    9900012    2    3    3    0    0 -0.17725162289E+02 -0.24258696061E+02 -0.21286507940E+02  0.54367066646E+02  0.39999960033E+02 0.  0.
        -12    1    3    3    0    0  0.17725162289E+02  0.24258696061E+02  0.21286507940E+02  0.36820933354E+02  0.00000000000E+00 0.  1.
         11    1    4    4    0    0 -0.25759271732E+02 -0.17457996370E+02 -0.16109294647E+02  0.35040420827E+02  0.51100000000E-03 0. -1.
        -11    1    4    4    0    0  0.20579099971E+01  0.38326585409E+01  0.23987566128E+01  0.49677256965E+01  0.51100000000E-03 0.  1.
         12    1    4    4    0    0  0.59761994452E+01 -0.10633358231E+02 -0.75759699060E+01  0.14358920123E+02  0.00000000000E+00 0. -1.
</event>
<event>
 8    1  0.1253488E-006  0.9118800E+02  0.7816164E-02  0.1184000E+00
        -11   -1    0    0    0    0  0.00000000000E+00  0.00000000000E+00  0.45593999997E+02  0.45594000000E+02  0.51100000000E-03 0.  1.
         11   -1    0    0    0    0 -0.00000000000E+00 -0.00000000000E+00 -0.45593999997E+02  0.45594000000E+02  0.51100000000E-03 0. -1.
         23    2    1    2    0    0  0.17763568394E-14  0.00000000000E+00  0.00000000000E+00  0.91188000000E+02  0.91188000000E+02 0.  0.
    9900012    2    3    3    0    0  0.81537273181E+01  0.25534908665E+02  0.25244101693E+02  0.54367088822E+02  0.40000010587E+02 0.  0.
         12    1    3    3    0    0 -0.81537273181E+01 -0.25534908665E+02 -0.25244101693E+02  0.36820911178E+02  0.00000000000E+00 0. -1.
         11    1    4    4    0    0 -0.97820100793E+01 -0.53994269088E+01  0.91333983774E+01  0.14431233430E+02  0.51100000000E-03 0. -1.
        -11    1    4    4    0    0  0.83102338283E+01  0.90160797317E+01  0.80864609509E+01  0.14688108489E+02  0.51100000000E-03 0.  1.
         12    1    4    4    0    0  0.96255035691E+01  0.21918255843E+02  0.80242423644E+01  0.25247746903E+02  0.00000000000E+00 0. -1.
</event>
<event>
 8    1  0.1253488E-006  0.9118800E+02  0.7816164E-02  0.1184000E+00
        -11   -1    0    0    0    0  0.00000000000E+00  0.00000000000E+00  0.45593999997E+02  0.45594000000E+02  0.51100000000E-03 0. -1.
         11   -1    0    0    0    0 -0.00000000000E+00 -0.00000000000E+00 -0.45593999997E+02  0.45594000000E+02  0.51100000000E-03 0.  1.
         23    2    1    2    0    0  0.35527136788E-14  0.00000000000E+00  0.00000000000E+00  0.91188000000E+02  0.91188000000E+02 0.  0.
    9900012    2    3    3    0    0 -0.22367273520E+02  0.16476892259E+02  0.24165984233E+02  0.54367113303E+02  0.40000066396E+02 0.  0.
         12    1    3    3    0    0  0.22367273520E+02 -0.16476892259E+02 -0.24165984233E+02  0.36820886697E+02  0.00000000000E+00 0. -1.
         11    1    4    4    0    0 -0.11745938414E+02  0.53510819118E+01  0.14103027760E+02  0.19117963781E+02  0.51100000000E-03 0. -1.
        -11    1    4    4    0    0 -0.12523836405E+02 -0.54062998337E+01  0.12412342836E+02  0.18442906798E+02  0.51100000000E-03 0.  1.
         12    1    4    4    0    0  0.19025012991E+01  0.16532110181E+02 -0.23493863636E+01  0.16806242724E+02  0.00000000000E+00 0. -1.
</event>
<event>
 8    1  0.1253488E-006  0.9118800E+02  0.7816164E-02  0.1184000E+00
        -11   -1    0    0    0    0  0.00000000000E+00  0.00000000000E+00  0.45593999997E+02  0.45594000000E+02  0.51100000000E-03 0.  1.
         11   -1    0    0    0    0 -0.00000000000E+00 -0.00000000000E+00 -0.45593999997E+02  0.45594000000E+02  0.51100000000E-03 0. -1.
         23    2    1    2    0    0  0.00000000000E+00 -0.17763568394E-14  0.00000000000E+00  0.91188000000E+02  0.91188000000E+02 0.  0.
    9900012    2    3    3    0    0  0.21313020647E+02 -0.13204195839E+02  0.26966360826E+02  0.54367078596E+02  0.39999987276E+02 0.  0.
         12    1    3    3    0    0 -0.21313020647E+02  0.13204195839E+02 -0.26966360826E+02  0.36820921404E+02  0.00000000000E+00 0. -1.
         11    1    4    4    0    0  0.63979581446E+01 -0.43515534790E+01  0.96730512222E+00  0.77977923518E+01  0.51100000000E-03 0.  1.
        -11    1    4    4    0    0  0.92508285939E+01  0.86773186066E+01  0.25102789830E+02  0.28125144362E+02  0.51100000000E-03 0. -1.
        -12    1    4    4    0    0  0.56642339084E+01 -0.17529960967E+02  0.89626587358E+00  0.18444141882E+02  0.00000000000E+00 0.  1.
</event>
<event>
 8    1  0.1253488E-006  0.9118800E+02  0.7816164E-02  0.1184000E+00
        -11   -1    0    0    0    0  0.00000000000E+00  0.00000000000E+00  0.45593999997E+02  0.45594000000E+02  0.51100000000E-03 0.  1.
         11   -1    0    0    0    0 -0.00000000000E+00 -0.00000000000E+00 -0.45593999997E+02  0.45594000000E+02  0.51100000000E-03 0. -1.
         23    2    1    2    0    0  0.88817841970E-15  0.00000000000E+00  0.35527136788E-14  0.91188000000E+02  0.91188000000E+02 0.  0.
    9900012    2    3    3    0    0  0.71474898454E+01 -0.30068155957E+02 -0.20014988511E+02  0.54367076887E+02  0.39999983379E+02 0.  0.
        -12    1    3    3    0    0 -0.71474898454E+01  0.30068155957E+02  0.20014988511E+02  0.36820923113E+02  0.00000000000E+00 0.  1.
         11    1    4    4    0    0 -0.74423529132E+01 -0.74516564300E+01 -0.14727923188E+02  0.18106007902E+02  0.51100000000E-03 0. -1.
        -11    1    4    4    0    0  0.60909033440E+00 -0.95872833940E+01  0.83946562182E+01  0.12757634859E+02  0.51100000000E-03 0.  1.
         12    1    4    4    0    0  0.13980752424E+02 -0.13029216133E+02 -0.13681721541E+02  0.23503434126E+02  0.00000000000E+00 0. -1.
</event>
<event>
 8    1  0.1253488E-006  0.9118800E+02  0.7816164E-02  0.1184000E+00
        -11   -1    0    0    0    0  0.00000000000E+00  0.00000000000E+00  0.45593999997E+02  0.45594000000E+02  0.51100000000E-03 0. -1.
         11   -1    0    0    0    0 -0.00000000000E+00 -0.00000000000E+00 -0.45593999997E+02  0.45594000000E+02  0.51100000000E-03 0.  1.
         23    2    1    2    0    0 -0.17763568394E-14  0.00000000000E+00  0.00000000000E+00  0.91188000000E+02  0.91188000000E+02 0.  0.
    9900012    2    3    3    0    0  0.11796890295E+02 -0.78939860735E+01  0.33974945635E+02  0.54367101482E+02  0.40000039448E+02 0.  0.
        -12    1    3    3    0    0 -0.11796890295E+02  0.78939860735E+01 -0.33974945635E+02  0.36820898518E+02  0.00000000000E+00 0.  1.
         11    1    4    4    0    0 -0.51820372149E+01  0.94108748520E+01  0.23060240329E+01  0.10987985360E+02  0.51100000000E-03 0.  1.
        -11    1    4    4    0    0  0.14850598056E+02 -0.12238318510E+02  0.32550552269E+02  0.37813425603E+02  0.51100000000E-03 0. -1.
        -12    1    4    4    0    0  0.21283294543E+01 -0.50665424152E+01 -0.88163066649E+00  0.55656905181E+01  0.00000000000E+00 0.  1.
</event>
<event>
 8    1  0.1253488E-006  0.9118800E+02  0.7816164E-02  0.1184000E+00
        -11   -1    0    0    0    0  0.00000000000E+00  0.00000000000E+00  0.45593999997E+02  0.45594000000E+02  0.51100000000E-03 0. -1.
         11   -1    0    0    0    0 -0.00000000000E+00 -0.00000000000E+00 -0.45593999997E+02  0.45594000000E+02  0.51100000000E-03 0.  1.
         23    2    1    2    0    0  0.00000000000E+00  0.44408920985E-15 -0.35527136788E-14  0.91188000000E+02  0.91188000000E+02 0.  0.
    9900012    2    3    3    0    0 -0.31889117081E+02 -0.28150872258E+01  0.18191742446E+02  0.54367082066E+02  0.39999995186E+02 0.  0.
        -12    1    3    3    0    0  0.31889117081E+02  0.28150872258E+01 -0.18191742446E+02  0.36820917934E+02  0.00000000000E+00 0.  1.
         11    1    4    4    0    0 -0.30382921715E+02 -0.77747528339E+01  0.77126502093E+01  0.32296341699E+02  0.51100000000E-03 0. -1.
        -11    1    4    4    0    0 -0.84870618425E+00  0.15710911165E+01 -0.54691237966E+01  0.57532551523E+01  0.51100000000E-03 0.  1.
        -12    1    4    4    0    0 -0.65748918124E+00  0.33885744916E+01  0.15948216033E+02  0.16317485215E+02  0.00000000000E+00 0.  1.
</event>
<event>
 8    1  0.1253488E-006  0.9118800E+02  0.7816164E-02  0.1184000E+00
        -11   -1    0    0    0    0  0.00000000000E+00  0.00000000000E+00  0.45593999997E+02  0.45594000000E+02  0.51100000000E-03 0. -1.
         11   -1    0    0    0    0 -0.00000000000E+00 -0.00000000000E+00 -0.45593999997E+02  0.45594000000E+02  0.51100000000E-03 0.  1.
         23    2    1    2    0    0 -0.88817841970E-15 -0.71054273576E-14 -0.35527136788E-14  0.91188000000E+02  0.91188000000E+02 0.  0.
    9900012    2    3    3    0    0  0.42887332155E+01  0.20452474566E+02  0.30316386140E+02  0.54367079085E+02  0.39999988389E+02 0.  0.
        -12    1    3    3    0    0 -0.42887332155E+01 -0.20452474566E+02 -0.30316386140E+02  0.36820920915E+02  0.00000000000E+00 0.  1.
         11    1    4    4    0    0  0.11797031221E+02  0.39100965871E+01 -0.16991778704E+01  0.12543763656E+02  0.51100000000E-03 0. -1.
        -11    1    4    4    0    0 -0.62765688370E+01 -0.28431667480E+01  0.48449252094E+01  0.84233137226E+01  0.51100000000E-03 0.  1.
         12    1    4    4    0    0 -0.12317291689E+01  0.19385544727E+02  0.27170638801E+02  0.33400001706E+02  0.00000000000E+00 0. -1.
</event>
<event>
 8    1  0.1253488E-006  0.9118800E+02  0.7816164E-02  0.1184000E+00
        -11   -1    0    0    0    0  0.00000000000E+00  0.00000000000E+00  0.45593999997E+02  0.45594000000E+02  0.51100000000E-03 0. -1.
         11   -1    0    0    0    0 -0.00000000000E+00 -0.00000000000E+00 -0.45593999997E+02  0.45594000000E+02  0.51100000000E-03 0.  1.
         23    2    1    2    0    0  0.00000000000E+00  0.00000000000E+00  0.00000000000E+00  0.91188000000E+02  0.91188000000E+02 0.  0.
    9900012    2    3    3    0    0  0.28472838676E+02  0.22133333533E+02 -0.74292025046E+01  0.54367081416E+02  0.39999993703E+02 0.  0.
        -12    1    3    3    0    0 -0.28472838676E+02 -0.22133333533E+02  0.74292025046E+01  0.36820918584E+02  0.00000000000E+00 0.  1.
         11    1    4    4    0    0  0.22715275283E+02  0.22481389533E+02  0.62983598754E+01  0.32574007182E+02  0.51100000000E-03 0. -1.
        -11    1    4    4    0    0 -0.47683792014E+01 -0.34683602527E+01 -0.56155080673E+01  0.81425361016E+01  0.51100000000E-03 0.  1.
         12    1    4    4    0    0  0.10525942594E+02  0.31203042535E+01 -0.81120543127E+01  0.13650538132E+02  0.00000000000E+00 0. -1.
</event>
<event>
 8    1  0.1253488E-006  0.9118800E+02  0.7816164E-02  0.1184000E+00
        -11   -1    0    0    0    0  0.00000000000E+00  0.00000000000E+00  0.45593999997E+02  0.45594000000E+02  0.51100000000E-03 0. -1.
         11   -1    0    0    0    0 -0.00000000000E+00 -0.00000000000E+00 -0.45593999997E+02  0.45594000000E+02  0.51100000000E-03 0.  1.
         23    2    1    2    0    0  0.35527136788E-14  0.00000000000E+00 -0.44408920985E-15  0.91188000000E+02  0.91188000000E+02 0.  0.
    9900012    2    3    3    0    0 -0.21127616927E+02  0.30135563831E+02  0.11186262584E+01  0.54367085710E+02  0.40000003493E+02 0.  0.
        -12    1    3    3    0    0  0.21127616927E+02 -0.30135563831E+02 -0.11186262584E+01  0.36820914290E+02  0.00000000000E+00 0.  1.
         11    1    4    4    0    0  0.12605043817E+01  0.16464316002E+02 -0.18679894251E+00  0.16513554034E+02  0.51100000000E-03 0. -1.
        -11    1    4    4    0    0 -0.26625902500E+02  0.17024128923E+02 -0.17393945100E+01  0.31650989606E+02  0.51100000000E-03 0.  1.
        -12    1    4    4    0    0  0.42377811909E+01 -0.33528810944E+01  0.30448197109E+01  0.62025420697E+01  0.00000000000E+00 0.  1.
</event>
<event>
 8    1  0.1253488E-006  0.9118800E+02  0.7816164E-02  0.1184000E+00
        -11   -1    0    0    0    0  0.00000000000E+00  0.00000000000E+00  0.45593999997E+02  0.45594000000E+02  0.51100000000E-03 0. -1.
         11   -1    0    0    0    0 -0.00000000000E+00 -0.00000000000E+00 -0.45593999997E+02  0.45594000000E+02  0.51100000000E-03 0.  1.
         23    2    1    2    0    0 -0.35527136788E-14 -0.17763568394E-14 -0.35527136788E-14  0.91188000000E+02  0.91188000000E+02 0.  0.
    9900012    2    3    3    0    0  0.23256485173E+02  0.62096448416E+01  0.27863168591E+02  0.54367082635E+02  0.39999996483E+02 0.  0.
        -12    1    3    3    0    0 -0.23256485173E+02 -0.62096448416E+01 -0.27863168591E+02  0.36820917365E+02  0.00000000000E+00 0.  1.
         11    1    4    4    0    0  0.14451757194E+02 -0.67652429512E+01  0.13794902806E+02  0.21093153910E+02  0.51100000000E-03 0. -1.
        -11    1    4    4    0    0 -0.48491697061E+01 -0.47449090487E+01  0.71545776278E+01  0.98598473625E+01  0.51100000000E-03 0.  1.
        -12    1    4    4    0    0  0.13653897685E+02  0.17719796842E+02  0.69136881569E+01  0.23414081362E+02  0.00000000000E+00 0.  1.
</event>
<event>
 8    1  0.1253488E-006  0.9118800E+02  0.7816164E-02  0.1184000E+00
        -11   -1    0    0    0    0  0.00000000000E+00  0.00000000000E+00  0.45593999997E+02  0.45594000000E+02  0.51100000000E-03 0.  1.
         11   -1    0    0    0    0 -0.00000000000E+00 -0.00000000000E+00 -0.45593999997E+02  0.45594000000E+02  0.51100000000E-03 0. -1.
         23    2    1    2    0    0  0.00000000000E+00 -0.35527136788E-14  0.00000000000E+00  0.91188000000E+02  0.91188000000E+02 0.  0.
    9900012    2    3    3    0    0  0.24903691918E+02  0.20408679882E+01 -0.27044772494E+02  0.54367099243E+02  0.40000034345E+02 0.  0.
        -12    1    3    3    0    0 -0.24903691918E+02 -0.20408679882E+01  0.27044772494E+02  0.36820900757E+02  0.00000000000E+00 0.  1.
         11    1    4    4    0    0  0.54760906905E+01  0.53380838602E+01 -0.17533926468E+02  0.19129069141E+02  0.51100000000E-03 0. -1.
        -11    1    4    4    0    0  0.95643188919E+01 -0.15252294587E+02 -0.23180340761E+01  0.18151638170E+02  0.51100000000E-03 0.  1.
        -12    1    4    4    0    0  0.98632823360E+01  0.11955078715E+02 -0.71928119492E+01  0.17086391932E+02  0.00000000000E+00 0.  1.
</event>
<event>
 8    1  0.1253488E-006  0.9118800E+02  0.7816164E-02  0.1184000E+00
        -11   -1    0    0    0    0  0.00000000000E+00  0.00000000000E+00  0.45593999997E+02  0.45594000000E+02  0.51100000000E-03 0. -1.
         11   -1    0    0    0    0 -0.00000000000E+00 -0.00000000000E+00 -0.45593999997E+02  0.45594000000E+02  0.51100000000E-03 0.  1.
         23    2    1    2    0    0  0.00000000000E+00  0.00000000000E+00 -0.35527136788E-14  0.91188000000E+02  0.91188000000E+02 0.  0.
    9900012    2    3    3    0    0 -0.20924814563E+02 -0.22333622033E+02 -0.20472876078E+02  0.54367120156E+02  0.40000082019E+02 0.  0.
         12    1    3    3    0    0  0.20924814563E+02  0.22333622033E+02  0.20472876078E+02  0.36820879844E+02  0.00000000000E+00 0. -1.
         11    1    4    4    0    0  0.76100925805E+01 -0.51114280393E+01 -0.56200570085E+01  0.10752918056E+02  0.51100000000E-03 0. -1.
        -11    1    4    4    0    0 -0.81970303965E+01 -0.92847132550E+01 -0.17694161677E+02  0.21598161155E+02  0.51100000000E-03 0.  1.
         12    1    4    4    0    0 -0.20337876747E+02 -0.79374807386E+01  0.28413426081E+01  0.22016040944E+02  0.00000000000E+00 0. -1.
</event>
<event>
 8    1  0.1253488E-006  0.9118800E+02  0.7816164E-02  0.1184000E+00
        -11   -1    0    0    0    0  0.00000000000E+00  0.00000000000E+00  0.45593999997E+02  0.45594000000E+02  0.51100000000E-03 0. -1.
         11   -1    0    0    0    0 -0.00000000000E+00 -0.00000000000E+00 -0.45593999997E+02  0.45594000000E+02  0.51100000000E-03 0.  1.
         23    2    1    2    0    0  0.00000000000E+00  0.00000000000E+00  0.17763568394E-14  0.91188000000E+02  0.91188000000E+02 0.  0.
    9900012    2    3    3    0    0  0.34670649696E+02  0.49027752357E+01 -0.11388124155E+02  0.54367074874E+02  0.39999978790E+02 0.  0.
         12    1    3    3    0    0 -0.34670649696E+02 -0.49027752357E+01  0.11388124155E+02  0.36820925126E+02  0.00000000000E+00 0. -1.
         11    1    4    4    0    0  0.12808471436E+02 -0.52599874741E+01  0.76699779548E+01  0.15828865116E+02  0.51100000000E-03 0. -1.
        -11    1    4    4    0    0  0.60606885449E+01  0.49067714426E+01 -0.20392035644E+02  0.21832165939E+02  0.51100000000E-03 0.  1.
        -12    1    4    4    0    0  0.15801489715E+02  0.52559912671E+01  0.13339335346E+01  0.16706043819E+02  0.00000000000E+00 0.  1.
</event>
<event>
 8    1  0.1253488E-006  0.9118800E+02  0.7816164E-02  0.1184000E+00
        -11   -1    0    0    0    0  0.00000000000E+00  0.00000000000E+00  0.45593999997E+02  0.45594000000E+02  0.51100000000E-03 0. -1.
         11   -1    0    0    0    0 -0.00000000000E+00 -0.00000000000E+00 -0.45593999997E+02  0.45594000000E+02  0.51100000000E-03 0.  1.
         23    2    1    2    0    0  0.00000000000E+00 -0.17763568394E-14 -0.71054273576E-14  0.91188000000E+02  0.91188000000E+02 0.  0.
    9900012    2    3    3    0    0  0.27353410776E+02  0.81829764630E+01  0.23251081535E+02  0.54367041601E+02  0.39999902938E+02 0.  0.
        -12    1    3    3    0    0 -0.27353410776E+02 -0.81829764630E+01 -0.23251081535E+02  0.36820958399E+02  0.00000000000E+00 0.  1.
         11    1    4    4    0    0  0.24315421751E+02 -0.85675673944E+01  0.10505011125E+02  0.27838789574E+02  0.51100000000E-03 0. -1.
        -11    1    4    4    0    0  0.14775901443E+01  0.18841495258E+00 -0.31716854475E+01  0.35040493244E+01  0.51100000000E-03 0.  1.
        -12    1    4    4    0    0  0.15603988807E+01  0.16562128905E+02  0.15917755858E+02  0.23024202703E+02  0.00000000000E+00 0.  1.
</event>
<event>
 8    1  0.1253488E-006  0.9118800E+02  0.7816164E-02  0.1184000E+00
        -11   -1    0    0    0    0  0.00000000000E+00  0.00000000000E+00  0.45593999997E+02  0.45594000000E+02  0.51100000000E-03 0.  1.
         11   -1    0    0    0    0 -0.00000000000E+00 -0.00000000000E+00 -0.45593999997E+02  0.45594000000E+02  0.51100000000E-03 0. -1.
         23    2    1    2    0    0 -0.35527136788E-14  0.00000000000E+00 -0.17763568394E-14  0.91188000000E+02  0.91188000000E+02 0.  0.
    9900012    2    3    3    0    0 -0.23552136213E+02 -0.24257404485E+02 -0.14582754426E+02  0.54367061403E+02  0.39999948080E+02 0.  0.
        -12    1    3    3    0    0  0.23552136213E+02  0.24257404485E+02  0.14582754426E+02  0.36820938597E+02  0.00000000000E+00 0.  1.
         11    1    4    4    0    0 -0.73250338098E+00 -0.17324784278E+02  0.84491873457E+01  0.19289206271E+02  0.51100000000E-03 0. -1.
        -11    1    4    4    0    0  0.13227171968E+01 -0.17064161683E+00 -0.71815501675E+00  0.15147429595E+01  0.51100000000E-03 0.  1.
         12    1    4    4    0    0 -0.24142350028E+02 -0.67619785903E+01 -0.22313786755E+02  0.33563112173E+02  0.00000000000E+00 0. -1.
</event>
<event>
 8    1  0.1253488E-006  0.9118800E+02  0.7816164E-02  0.1184000E+00
        -11   -1    0    0    0    0  0.00000000000E+00  0.00000000000E+00  0.45593999997E+02  0.45594000000E+02  0.51100000000E-03 0.  1.
         11   -1    0    0    0    0 -0.00000000000E+00 -0.00000000000E+00 -0.45593999997E+02  0.45594000000E+02  0.51100000000E-03 0. -1.
         23    2    1    2    0    0 -0.88817841970E-15  0.00000000000E+00  0.71054273576E-14  0.91188000000E+02  0.91188000000E+02 0.  0.
    9900012    2    3    3    0    0  0.52006835453E+01 -0.19707075130E+02  0.30665359833E+02  0.54367079137E+02  0.39999988508E+02 0.  0.
         12    1    3    3    0    0 -0.52006835453E+01  0.19707075130E+02 -0.30665359833E+02  0.36820920863E+02  0.00000000000E+00 0. -1.
         11    1    4    4    0    0  0.19179370937E+02 -0.58614164426E+01  0.88439104035E+01  0.21918467641E+02  0.51100000000E-03 0. -1.
        -11    1    4    4    0    0 -0.54869688055E+01 -0.12752859465E+02  0.18797510573E+02  0.23368539860E+02  0.51100000000E-03 0.  1.
        -12    1    4    4    0    0 -0.84917185863E+01 -0.10927992228E+01  0.30239388567E+01  0.90800716352E+01  0.00000000000E+00 0.  1.
</event>
<event>
 8    1  0.1253488E-006  0.9118800E+02  0.7816164E-02  0.1184000E+00
        -11   -1    0    0    0    0  0.00000000000E+00  0.00000000000E+00  0.45593999997E+02  0.45594000000E+02  0.51100000000E-03 0. -1.
         11   -1    0    0    0    0 -0.00000000000E+00 -0.00000000000E+00 -0.45593999997E+02  0.45594000000E+02  0.51100000000E-03 0.  1.
         23    2    1    2    0    0  0.35527136788E-14  0.00000000000E+00 -0.88817841970E-15  0.91188000000E+02  0.91188000000E+02 0.  0.
    9900012    2    3    3    0    0  0.21662807909E+02 -0.28952550766E+02  0.69464046753E+01  0.54367082300E+02  0.39999995719E+02 0.  0.
        -12    1    3    3    0    0 -0.21662807909E+02  0.28952550766E+02 -0.69464046753E+01  0.36820917700E+02  0.00000000000E+00 0.  1.
         11    1    4    4    0    0  0.65185534585E+01 -0.30764148334E+02  0.85954517808E+01  0.32600707868E+02  0.51100000000E-03 0. -1.
        -11    1    4    4    0    0  0.17245213398E+02  0.54181350879E+00  0.19991278427E+01  0.17369152524E+02  0.51100000000E-03 0.  1.
         12    1    4    4    0    0 -0.21009589467E+01  0.12697840595E+01 -0.36481749481E+01  0.43972219077E+01  0.00000000000E+00 0. -1.
</event>
<event>
 8    1  0.1253488E-006  0.9118800E+02  0.7816164E-02  0.1184000E+00
        -11   -1    0    0    0    0  0.00000000000E+00  0.00000000000E+00  0.45593999997E+02  0.45594000000E+02  0.51100000000E-03 0.  1.
         11   -1    0    0    0    0 -0.00000000000E+00 -0.00000000000E+00 -0.45593999997E+02  0.45594000000E+02  0.51100000000E-03 0. -1.
         23    2    1    2    0    0  0.00000000000E+00  0.00000000000E+00  0.17763568394E-14  0.91188000000E+02  0.91188000000E+02 0.  0.
    9900012    2    3    3    0    0 -0.32910792917E+02 -0.13069352972E+02  0.10092115734E+02  0.54367094559E+02  0.40000023666E+02 0.  0.
         12    1    3    3    0    0  0.32910792917E+02  0.13069352972E+02 -0.10092115734E+02  0.36820905441E+02  0.00000000000E+00 0. -1.
         11    1    4    4    0    0 -0.18949609804E+02 -0.14683677691E+02  0.22038003789E+02  0.32563349237E+02  0.51100000000E-03 0. -1.
        -11    1    4    4    0    0 -0.70935119145E+01  0.25887422993E+01  0.48696717720E+00  0.75668114332E+01  0.51100000000E-03 0.  1.
         12    1    4    4    0    0 -0.68676711978E+01 -0.97441758051E+00 -0.12432855233E+02  0.14236933888E+02  0.00000000000E+00 0. -1.
</event>
<event>
 8    1  0.1253488E-006  0.9118800E+02  0.7816164E-02  0.1184000E+00
        -11   -1    0    0    0    0  0.00000000000E+00  0.00000000000E+00  0.45593999997E+02  0.45594000000E+02  0.51100000000E-03 0. -1.
         11   -1    0    0    0    0 -0.00000000000E+00 -0.00000000000E+00 -0.45593999997E+02  0.45594000000E+02  0.51100000000E-03 0.  1.
         23    2    1    2    0    0  0.00000000000E+00 -0.88817841970E-15  0.00000000000E+00  0.91188000000E+02  0.91188000000E+02 0.  0.
    9900012    2    3    3    0    0 -0.32595930613E+02  0.49179580236E+01 -0.16404239356E+02  0.54367081048E+02  0.39999992865E+02 0.  0.
         12    1    3    3    0    0  0.32595930613E+02 -0.49179580236E+01  0.16404239356E+02  0.36820918952E+02  0.00000000000E+00 0. -1.
         11    1    4    4    0    0  0.15673334610E+01  0.59537294326E+01  0.62291064237E+00  0.61880082630E+01  0.51100000000E-03 0. -1.
        -11    1    4    4    0    0 -0.23347509132E+02  0.40661401910E+01 -0.24492811818E+02  0.34081336678E+02  0.51100000000E-03 0.  1.
        -12    1    4    4    0    0 -0.10815754941E+02 -0.51019116000E+01  0.74656618197E+01  0.14097736107E+02  0.00000000000E+00 0.  1.
</event>
<event>
 8    1  0.1253488E-006  0.9118800E+02  0.7816164E-02  0.1184000E+00
        -11   -1    0    0    0    0  0.00000000000E+00  0.00000000000E+00  0.45593999997E+02  0.45594000000E+02  0.51100000000E-03 0.  1.
         11   -1    0    0    0    0 -0.00000000000E+00 -0.00000000000E+00 -0.45593999997E+02  0.45594000000E+02  0.51100000000E-03 0. -1.
         23    2    1    2    0    0  0.00000000000E+00 -0.35527136788E-14 -0.35527136788E-14  0.91188000000E+02  0.91188000000E+02 0.  0.
    9900012    2    3    3    0    0 -0.11936823540E+02 -0.29448321747E+02  0.18603461294E+02  0.54367079560E+02  0.39999989473E+02 0.  0.
        -12    1    3    3    0    0  0.11936823540E+02  0.29448321747E+02 -0.18603461294E+02  0.36820920440E+02  0.00000000000E+00 0.  1.
         11    1    4    4    0    0 -0.22748411377E+01  0.59986900333E+01 -0.25363714361E+01  0.68987219571E+01  0.51100000000E-03 0.  1.
        -11    1    4    4    0    0 -0.45202682608E+01 -0.22977084431E+02  0.12688385460E+01  0.23451848235E+02  0.51100000000E-03 0. -1.
         12    1    4    4    0    0 -0.51417141412E+01 -0.12469927349E+02  0.19870994184E+02  0.24016509368E+02  0.00000000000E+00 0. -1.
</event>
<event>
 8    1  0.1253488E-006  0.9118800E+02  0.7816164E-02  0.1184000E+00
        -11   -1    0    0    0    0  0.00000000000E+00  0.00000000000E+00  0.45593999997E+02  0.45594000000E+02  0.51100000000E-03 0. -1.
         11   -1    0    0    0    0 -0.00000000000E+00 -0.00000000000E+00 -0.45593999997E+02  0.45594000000E+02  0.51100000000E-03 0.  1.
         23    2    1    2    0    0  0.38857805862E-15  0.00000000000E+00  0.00000000000E+00  0.91188000000E+02  0.91188000000E+02 0.  0.
    9900012    2    3    3    0    0 -0.31941350350E+00  0.23051306825E+02 -0.28710933692E+02  0.54367048290E+02  0.39999918186E+02 0.  0.
         12    1    3    3    0    0  0.31941350350E+00 -0.23051306825E+02  0.28710933692E+02  0.36820951710E+02  0.00000000000E+00 0. -1.
         11    1    4    4    0    0 -0.15605184032E+02  0.11113882640E+02 -0.54927499410E+01  0.19930139442E+02  0.51100000000E-03 0. -1.
        -11    1    4    4    0    0 -0.15827833741E+01  0.24666355520E+01 -0.11392272392E+02  0.11763220846E+02  0.51100000000E-03 0.  1.
         12    1    4    4    0    0  0.16868553903E+02  0.94707886331E+01 -0.11825911359E+02  0.22673688001E+02  0.00000000000E+00 0. -1.
</event>
<event>
 8    1  0.1253488E-006  0.9118800E+02  0.7816164E-02  0.1184000E+00
        -11   -1    0    0    0    0  0.00000000000E+00  0.00000000000E+00  0.45593999997E+02  0.45594000000E+02  0.51100000000E-03 0.  1.
         11   -1    0    0    0    0 -0.00000000000E+00 -0.00000000000E+00 -0.45593999997E+02  0.45594000000E+02  0.51100000000E-03 0. -1.
         23    2    1    2    0    0  0.00000000000E+00 -0.26645352591E-14  0.00000000000E+00  0.91188000000E+02  0.91188000000E+02 0.  0.
    9900012    2    3    3    0    0 -0.26790368233E+02  0.75680475304E+01 -0.24099400124E+02  0.54367078504E+02  0.39999987066E+02 0.  0.
        -12    1    3    3    0    0  0.26790368233E+02 -0.75680475304E+01  0.24099400124E+02  0.36820921496E+02  0.00000000000E+00 0.  1.
         11    1    4    4    0    0 -0.14583839375E+02  0.23539959313E+02 -0.15215886500E+02  0.31596538696E+02  0.51100000000E-03 0. -1.
        -11    1    4    4    0    0 -0.47258986097E+01 -0.31380828389E+01 -0.45498831787E+00  0.56911067644E+01  0.51100000000E-03 0.  1.
         12    1    4    4    0    0 -0.74806302486E+01 -0.12833828943E+02 -0.84285253053E+01  0.17079433043E+02  0.00000000000E+00 0. -1.
</event>
<event>
 8    1  0.1253488E-006  0.9118800E+02  0.7816164E-02  0.1184000E+00
        -11   -1    0    0    0    0  0.00000000000E+00  0.00000000000E+00  0.45593999997E+02  0.45594000000E+02  0.51100000000E-03 0.  1.
         11   -1    0    0    0    0 -0.00000000000E+00 -0.00000000000E+00 -0.45593999997E+02  0.45594000000E+02  0.51100000000E-03 0. -1.
         23    2    1    2    0    0 -0.35527136788E-14  0.71054273576E-14  0.66613381478E-15  0.91188000000E+02  0.91188000000E+02 0.  0.
    9900012    2    3    3    0    0 -0.30886501585E+02  0.20009805289E+02 -0.11883057581E+01  0.54367077165E+02  0.39999984013E+02 0.  0.
         12    1    3    3    0    0  0.30886501585E+02 -0.20009805289E+02  0.11883057581E+01  0.36820922835E+02  0.00000000000E+00 0. -1.
         11    1    4    4    0    0  0.42792796819E+01  0.63317874261E+01  0.13085858376E+01  0.77534614051E+01  0.51100000000E-03 0. -1.
        -11    1    4    4    0    0 -0.24911724366E+02  0.13739878818E+02  0.10262882427E+02  0.30244090940E+02  0.51100000000E-03 0.  1.
         12    1    4    4    0    0 -0.10254056901E+02 -0.61860954798E-01 -0.12759774023E+02  0.16369524820E+02  0.00000000000E+00 0. -1.
</event>
<event>
 8    1  0.1253488E-006  0.9118800E+02  0.7816164E-02  0.1184000E+00
        -11   -1    0    0    0    0  0.00000000000E+00  0.00000000000E+00  0.45593999997E+02  0.45594000000E+02  0.51100000000E-03 0.  1.
         11   -1    0    0    0    0 -0.00000000000E+00 -0.00000000000E+00 -0.45593999997E+02  0.45594000000E+02  0.51100000000E-03 0. -1.
         23    2    1    2    0    0 -0.17763568394E-14  0.00000000000E+00  0.17763568394E-14  0.91188000000E+02  0.91188000000E+02 0.  0.
    9900012    2    3    3    0    0 -0.10755887830E+02  0.32699610923E+02  0.13070061611E+02  0.54367079478E+02  0.39999989286E+02 0.  0.
        -12    1    3    3    0    0  0.10755887830E+02 -0.32699610923E+02 -0.13070061611E+02  0.36820920522E+02  0.00000000000E+00 0.  1.
         11    1    4    4    0    0 -0.78220946318E+01  0.20745583515E+02 -0.94120256654E+01  0.24086316181E+02  0.51100000000E-03 0. -1.
        -11    1    4    4    0    0  0.40227340099E+00 -0.30864130743E+01  0.99371856307E+01  0.10413233315E+02  0.51100000000E-03 0.  1.
         12    1    4    4    0    0 -0.33360665996E+01  0.15040440483E+02  0.12544901646E+02  0.19867529982E+02  0.00000000000E+00 0. -1.
</event>
<event>
 8    1  0.1253488E-006  0.9118800E+02  0.7816164E-02  0.1184000E+00
        -11   -1    0    0    0    0  0.00000000000E+00  0.00000000000E+00  0.45593999997E+02  0.45594000000E+02  0.51100000000E-03 0.  1.
         11   -1    0    0    0    0 -0.00000000000E+00 -0.00000000000E+00 -0.45593999997E+02  0.45594000000E+02  0.51100000000E-03 0. -1.
         23    2    1    2    0    0  0.11102230246E-15 -0.22204460493E-15  0.00000000000E+00  0.91188000000E+02  0.91188000000E+02 0.  0.
    9900012    2    3    3    0    0 -0.35059567904E+00 -0.12996082144E+01 -0.36796170451E+02  0.54367217028E+02  0.40000302857E+02 0.  0.
        -12    1    3    3    0    0  0.35059567904E+00  0.12996082144E+01  0.36796170451E+02  0.36820782972E+02  0.00000000000E+00 0.  1.
         11    1    4    4    0    0  0.73419757977E+00  0.14988935736E+01 -0.35568039448E+00  0.17065277130E+01  0.51100000000E-03 0. -1.
        -11    1    4    4    0    0 -0.22789650382E+01  0.10215687653E+02  0.31809978123E+01  0.10939501964E+02  0.51100000000E-03 0.  1.
         12    1    4    4    0    0  0.11941717794E+01 -0.13014189441E+02 -0.39621487869E+02  0.41721187351E+02  0.00000000000E+00 0. -1.
</event>
<event>
 8    1  0.1253488E-006  0.9118800E+02  0.7816164E-02  0.1184000E+00
        -11   -1    0    0    0    0  0.00000000000E+00  0.00000000000E+00  0.45593999997E+02  0.45594000000E+02  0.51100000000E-03 0. -1.
         11   -1    0    0    0    0 -0.00000000000E+00 -0.00000000000E+00 -0.45593999997E+02  0.45594000000E+02  0.51100000000E-03 0.  1.
         23    2    1    2    0    0  0.17763568394E-14  0.00000000000E+00  0.35527136788E-14  0.91188000000E+02  0.91188000000E+02 0.  0.
    9900012    2    3    3    0    0  0.74263437947E+01  0.31200078047E+02  0.18088447505E+02  0.54366981744E+02  0.39999766481E+02 0.  0.
        -12    1    3    3    0    0 -0.74263437947E+01 -0.31200078047E+02 -0.18088447505E+02  0.36821018256E+02  0.00000000000E+00 0.  1.
         11    1    4    4    0    0  0.43671942132E+01  0.50456710718E+01  0.15952699509E+02  0.17292189097E+02  0.51100000000E-03 0. -1.
        -11    1    4    4    0    0 -0.44769871365E+01  0.11479100096E+01  0.89589117588E+01  0.10080833863E+02  0.51100000000E-03 0.  1.
        -12    1    4    4    0    0  0.75361367179E+01  0.25006496965E+02 -0.68231637632E+01  0.26993958784E+02  0.00000000000E+00 0.  1.
</event>
<event>
 8    1  0.1253488E-006  0.9118800E+02  0.7816164E-02  0.1184000E+00
        -11   -1    0    0    0    0  0.00000000000E+00  0.00000000000E+00  0.45593999997E+02  0.45594000000E+02  0.51100000000E-03 0.  1.
         11   -1    0    0    0    0 -0.00000000000E+00 -0.00000000000E+00 -0.45593999997E+02  0.45594000000E+02  0.51100000000E-03 0. -1.
         23    2    1    2    0    0  0.17763568394E-14  0.00000000000E+00  0.00000000000E+00  0.91188000000E+02  0.91188000000E+02 0.  0.
    9900012    2    3    3    0    0  0.83771717436E+01 -0.88581766656E+01 -0.34743856105E+02  0.54367084241E+02  0.40000000145E+02 0.  0.
        -12    1    3    3    0    0 -0.83771717436E+01  0.88581766656E+01  0.34743856105E+02  0.36820915759E+02  0.00000000000E+00 0.  1.
         11    1    4    4    0    0 -0.43284935267E+01 -0.16774755780E+01 -0.10032513823E+02  0.11054461289E+02  0.51100000000E-03 0. -1.
        -11    1    4    4    0    0 -0.90019968585E+01  0.53114994451E+01 -0.85690421371E+01  0.13515785482E+02  0.51100000000E-03 0.  1.
         12    1    4    4    0    0  0.21707662129E+02 -0.12492200533E+02 -0.16142300145E+02  0.29796837470E+02  0.00000000000E+00 0. -1.
</event>
<event>
 8    1  0.1253488E-006  0.9118800E+02  0.7816164E-02  0.1184000E+00
        -11   -1    0    0    0    0  0.00000000000E+00  0.00000000000E+00  0.45593999997E+02  0.45594000000E+02  0.51100000000E-03 0.  1.
         11   -1    0    0    0    0 -0.00000000000E+00 -0.00000000000E+00 -0.45593999997E+02  0.45594000000E+02  0.51100000000E-03 0. -1.
         23    2    1    2    0    0 -0.17763568394E-14 -0.44408920985E-15  0.00000000000E+00  0.91188000000E+02  0.91188000000E+02 0.  0.
    9900012    2    3    3    0    0 -0.15635935138E+02  0.22103046751E+01 -0.33262773250E+02  0.54367082050E+02  0.39999995150E+02 0.  0.
        -12    1    3    3    0    0  0.15635935138E+02 -0.22103046751E+01  0.33262773250E+02  0.36820917950E+02  0.00000000000E+00 0.  1.
         11    1    4    4    0    0  0.29225405439E+00  0.41333967933E+01 -0.33833942776E+01  0.53495549892E+01  0.51100000000E-03 0. -1.
        -11    1    4    4    0    0 -0.16355098156E+02 -0.97459263223E+01 -0.34869712333E+02  0.39728694341E+02  0.51100000000E-03 0.  1.
        -12    1    4    4    0    0  0.42690896389E+00  0.78228342041E+01  0.49903333612E+01  0.92888327202E+01  0.00000000000E+00 0.  1.
</event>
<event>
 8    1  0.1253488E-006  0.9118800E+02  0.7816164E-02  0.1184000E+00
        -11   -1    0    0    0    0  0.00000000000E+00  0.00000000000E+00  0.45593999997E+02  0.45594000000E+02  0.51100000000E-03 0.  1.
         11   -1    0    0    0    0 -0.00000000000E+00 -0.00000000000E+00 -0.45593999997E+02  0.45594000000E+02  0.51100000000E-03 0. -1.
         23    2    1    2    0    0  0.17763568394E-14  0.00000000000E+00 -0.71054273576E-14  0.91188000000E+02  0.91188000000E+02 0.  0.
    9900012    2    3    3    0    0  0.12470766881E+02 -0.19592441545E+02 -0.28572647118E+02  0.54367082634E+02  0.39999996481E+02 0.  0.
        -12    1    3    3    0    0 -0.12470766881E+02  0.19592441545E+02  0.28572647118E+02  0.36820917366E+02  0.00000000000E+00 0.  1.
         11    1    4    4    0    0 -0.29187552431E+01 -0.46117370830E+00  0.31682252506E+01  0.43323740441E+01  0.51100000000E-03 0. -1.
        -11    1    4    4    0    0  0.25897053394E+01 -0.15260135014E+01  0.58612307385E+01  0.65870567770E+01  0.51100000000E-03 0.  1.
         12    1    4    4    0    0  0.12799816785E+02 -0.17605254335E+02 -0.37602103108E+02  0.43447651813E+02  0.00000000000E+00 0. -1.
</event>
<event>
 8    1  0.1253488E-006  0.9118800E+02  0.7816164E-02  0.1184000E+00
        -11   -1    0    0    0    0  0.00000000000E+00  0.00000000000E+00  0.45593999997E+02  0.45594000000E+02  0.51100000000E-03 0.  1.
         11   -1    0    0    0    0 -0.00000000000E+00 -0.00000000000E+00 -0.45593999997E+02  0.45594000000E+02  0.51100000000E-03 0. -1.
         23    2    1    2    0    0  0.00000000000E+00  0.44408920985E-15  0.17763568394E-14  0.91188000000E+02  0.91188000000E+02 0.  0.
    9900012    2    3    3    0    0  0.35904324531E+02  0.29213216186E+01  0.76240182809E+01  0.54367078029E+02  0.39999985983E+02 0.  0.
         12    1    3    3    0    0 -0.35904324531E+02 -0.29213216186E+01 -0.76240182809E+01  0.36820921971E+02  0.00000000000E+00 0. -1.
         11    1    4    4    0    0 -0.30002610853E+01  0.13096222375E+01  0.11321781819E+02  0.11785559843E+02  0.51100000000E-03 0. -1.
        -11    1    4    4    0    0  0.93255204471E+00 -0.34809223600E+01 -0.22372701062E+01  0.42416802781E+01  0.51100000000E-03 0.  1.
        -12    1    4    4    0    0  0.37972033572E+02  0.50926217411E+01 -0.14604934320E+01  0.38339837908E+02  0.00000000000E+00 0.  1.
</event>
<event>
 8    1  0.1253488E-006  0.9118800E+02  0.7816164E-02  0.1184000E+00
        -11   -1    0    0    0    0  0.00000000000E+00  0.00000000000E+00  0.45593999997E+02  0.45594000000E+02  0.51100000000E-03 0. -1.
         11   -1    0    0    0    0 -0.00000000000E+00 -0.00000000000E+00 -0.45593999997E+02  0.45594000000E+02  0.51100000000E-03 0.  1.
         23    2    1    2    0    0 -0.17763568394E-14  0.00000000000E+00  0.35527136788E-14  0.91188000000E+02  0.91188000000E+02 0.  0.
    9900012    2    3    3    0    0 -0.95669578201E+01 -0.26113228536E+02  0.24132017132E+02  0.54367059798E+02  0.39999944421E+02 0.  0.
        -12    1    3    3    0    0  0.95669578201E+01  0.26113228536E+02 -0.24132017132E+02  0.36820940202E+02  0.00000000000E+00 0.  1.
         11    1    4    4    0    0 -0.88179476809E+01 -0.89161366351E+01  0.88877002685E+01  0.15370260574E+02  0.51100000000E-03 0. -1.
        -11    1    4    4    0    0  0.57699476863E+01 -0.15766422285E+02 -0.51315128159E+01  0.17555762359E+02  0.51100000000E-03 0.  1.
        -12    1    4    4    0    0 -0.65189578254E+01 -0.14306696159E+01  0.20375829680E+02  0.21441036864E+02  0.00000000000E+00 0.  1.
</event>
<event>
 8    1  0.1253488E-006  0.9118800E+02  0.7816164E-02  0.1184000E+00
        -11   -1    0    0    0    0  0.00000000000E+00  0.00000000000E+00  0.45593999997E+02  0.45594000000E+02  0.51100000000E-03 0.  1.
         11   -1    0    0    0    0 -0.00000000000E+00 -0.00000000000E+00 -0.45593999997E+02  0.45594000000E+02  0.51100000000E-03 0. -1.
         23    2    1    2    0    0  0.17763568394E-14  0.00000000000E+00  0.00000000000E+00  0.91188000000E+02  0.91188000000E+02 0.  0.
    9900012    2    3    3    0    0 -0.10912851115E+02  0.24429506353E+02 -0.25296010889E+02  0.54367091985E+02  0.40000017799E+02 0.  0.
        -12    1    3    3    0    0  0.10912851115E+02 -0.24429506353E+02  0.25296010889E+02  0.36820908015E+02  0.00000000000E+00 0.  1.
         11    1    4    4    0    0 -0.63849785330E+01  0.57477920339E+01  0.52298683697E+01  0.10057663126E+02  0.51100000000E-03 0. -1.
        -11    1    4    4    0    0  0.90842452905E+01  0.78911195563E+01 -0.41519058498E+01  0.12729163476E+02  0.51100000000E-03 0.  1.
         12    1    4    4    0    0 -0.13612117872E+02  0.10790594763E+02 -0.26373973409E+02  0.31580265383E+02  0.00000000000E+00 0. -1.
</event>
<event>
 8    1  0.1253488E-006  0.9118800E+02  0.7816164E-02  0.1184000E+00
        -11   -1    0    0    0    0  0.00000000000E+00  0.00000000000E+00  0.45593999997E+02  0.45594000000E+02  0.51100000000E-03 0. -1.
         11   -1    0    0    0    0 -0.00000000000E+00 -0.00000000000E+00 -0.45593999997E+02  0.45594000000E+02  0.51100000000E-03 0.  1.
         23    2    1    2    0    0  0.35527136788E-14  0.35527136788E-14  0.17763568394E-14  0.91188000000E+02  0.91188000000E+02 0.  0.
    9900012    2    3    3    0    0  0.13751254857E+02  0.30950004754E+02  0.14449256637E+02  0.54367070873E+02  0.39999969669E+02 0.  0.
        -12    1    3    3    0    0 -0.13751254857E+02 -0.30950004754E+02 -0.14449256637E+02  0.36820929127E+02  0.00000000000E+00 0.  1.
         11    1    4    4    0    0 -0.14105082256E+00  0.16012593267E+02  0.17312634176E+02  0.23582839966E+02  0.51100000000E-03 0. -1.
        -11    1    4    4    0    0  0.58573039561E+01 -0.58966869864E+01 -0.43490581901E+00  0.83227441618E+01  0.51100000000E-03 0.  1.
        -12    1    4    4    0    0  0.80350017230E+01  0.20834098474E+02 -0.24284717206E+01  0.22461486745E+02  0.00000000000E+00 0.  1.
</event>
<event>
 8    1  0.1253488E-006  0.9118800E+02  0.7816164E-02  0.1184000E+00
        -11   -1    0    0    0    0  0.00000000000E+00  0.00000000000E+00  0.45593999997E+02  0.45594000000E+02  0.51100000000E-03 0. -1.
         11   -1    0    0    0    0 -0.00000000000E+00 -0.00000000000E+00 -0.45593999997E+02  0.45594000000E+02  0.51100000000E-03 0.  1.
         23    2    1    2    0    0  0.00000000000E+00  0.00000000000E+00  0.00000000000E+00  0.91188000000E+02  0.91188000000E+02 0.  0.
    9900012    2    3    3    0    0  0.35587019091E+02  0.40295915468E+01  0.85502064486E+01  0.54367087923E+02  0.40000008539E+02 0.  0.
         12    1    3    3    0    0 -0.35587019091E+02 -0.40295915468E+01 -0.85502064486E+01  0.36820912077E+02  0.00000000000E+00 0. -1.
         11    1    4    4    0    0  0.15827485209E+02  0.62854639728E+01 -0.38379200332E+01  0.17456974991E+02  0.51100000000E-03 0. -1.
        -11    1    4    4    0    0 -0.38639259357E+01  0.21735514556E+01 -0.54159332237E+01  0.69990415424E+01  0.51100000000E-03 0.  1.
         12    1    4    4    0    0  0.23623459818E+02 -0.44294238816E+01  0.17804059706E+02  0.29911071390E+02  0.00000000000E+00 0. -1.
</event>
<event>
 8    1  0.1253488E-006  0.9118800E+02  0.7816164E-02  0.1184000E+00
        -11   -1    0    0    0    0  0.00000000000E+00  0.00000000000E+00  0.45593999997E+02  0.45594000000E+02  0.51100000000E-03 0.  1.
         11   -1    0    0    0    0 -0.00000000000E+00 -0.00000000000E+00 -0.45593999997E+02  0.45594000000E+02  0.51100000000E-03 0. -1.
         23    2    1    2    0    0  0.00000000000E+00  0.00000000000E+00 -0.17763568394E-14  0.91188000000E+02  0.91188000000E+02 0.  0.
    9900012    2    3    3    0    0  0.12677147216E+02 -0.33691317108E+02  0.77437556311E+01  0.54367073052E+02  0.39999974637E+02 0.  0.
        -12    1    3    3    0    0 -0.12677147216E+02  0.33691317108E+02 -0.77437556311E+01  0.36820926948E+02  0.00000000000E+00 0.  1.
         11    1    4    4    0    0 -0.11668445178E+02 -0.14101129297E+02 -0.37101335037E+01  0.18675105119E+02  0.51100000000E-03 0. -1.
        -11    1    4    4    0    0  0.96198441477E+00  0.18136908593E+01  0.11813249494E+01  0.23686319775E+01  0.51100000000E-03 0.  1.
         12    1    4    4    0    0  0.23383607980E+02 -0.21403878670E+02  0.10272564185E+02  0.33323335956E+02  0.00000000000E+00 0. -1.
</event>
<event>
 8    1  0.1253488E-006  0.9118800E+02  0.7816164E-02  0.1184000E+00
        -11   -1    0    0    0    0  0.00000000000E+00  0.00000000000E+00  0.45593999997E+02  0.45594000000E+02  0.51100000000E-03 0. -1.
         11   -1    0    0    0    0 -0.00000000000E+00 -0.00000000000E+00 -0.45593999997E+02  0.45594000000E+02  0.51100000000E-03 0.  1.
         23    2    1    2    0    0 -0.17763568394E-14  0.00000000000E+00  0.00000000000E+00  0.91188000000E+02  0.91188000000E+02 0.  0.
    9900012    2    3    3    0    0 -0.78773698048E+01  0.35407681600E+02  0.63264755410E+01  0.54367066224E+02  0.39999959072E+02 0.  0.
        -12    1    3    3    0    0  0.78773698048E+01 -0.35407681600E+02 -0.63264755410E+01  0.36820933776E+02  0.00000000000E+00 0.  1.
         11    1    4    4    0    0 -0.15010720232E+02  0.20354161043E+02 -0.45779348749E+01  0.25701577415E+02  0.51100000000E-03 0. -1.
        -11    1    4    4    0    0 -0.30039611314E+01  0.15223228598E+02  0.29871212805E+01  0.15801688683E+02  0.51100000000E-03 0.  1.
        -12    1    4    4    0    0  0.10137311558E+02 -0.16970804074E+00  0.79172891353E+01  0.12863800127E+02  0.00000000000E+00 0.  1.
</event>
<event>
 8    1  0.1253488E-006  0.9118800E+02  0.7816164E-02  0.1184000E+00
        -11   -1    0    0    0    0  0.00000000000E+00  0.00000000000E+00  0.45593999997E+02  0.45594000000E+02  0.51100000000E-03 0. -1.
         11   -1    0    0    0    0 -0.00000000000E+00 -0.00000000000E+00 -0.45593999997E+02  0.45594000000E+02  0.51100000000E-03 0.  1.
         23    2    1    2    0    0  0.00000000000E+00  0.00000000000E+00  0.88817841970E-15  0.91188000000E+02  0.91188000000E+02 0.  0.
    9900012    2    3    3    0    0 -0.23427942346E+02  0.27940581713E+02 -0.51220172336E+01  0.54367086790E+02  0.40000005956E+02 0.  0.
         12    1    3    3    0    0  0.23427942346E+02 -0.27940581713E+02  0.51220172336E+01  0.36820913210E+02  0.00000000000E+00 0. -1.
         11    1    4    4    0    0  0.80656244046E+00  0.19832188925E+02  0.42824467096E+00  0.19853202621E+02  0.51100000000E-03 0. -1.
        -11    1    4    4    0    0  0.39338912589E+01  0.39265137963E+01 -0.14400362071E+01  0.57416648778E+01  0.51100000000E-03 0.  1.
         12    1    4    4    0    0 -0.28168396046E+02  0.41818789913E+01 -0.41102256974E+01  0.28772219292E+02  0.00000000000E+00 0. -1.
</event>
<event>
 8    1  0.1253488E-006  0.9118800E+02  0.7816164E-02  0.1184000E+00
        -11   -1    0    0    0    0  0.00000000000E+00  0.00000000000E+00  0.45593999997E+02  0.45594000000E+02  0.51100000000E-03 0. -1.
         11   -1    0    0    0    0 -0.00000000000E+00 -0.00000000000E+00 -0.45593999997E+02  0.45594000000E+02  0.51100000000E-03 0.  1.
         23    2    1    2    0    0  0.00000000000E+00  0.00000000000E+00  0.00000000000E+00  0.91188000000E+02  0.91188000000E+02 0.  0.
    9900012    2    3    3    0    0 -0.10531084074E+02  0.25564507444E+02  0.24317286900E+02  0.54367106274E+02  0.40000050372E+02 0.  0.
        -12    1    3    3    0    0  0.10531084074E+02 -0.25564507444E+02 -0.24317286900E+02  0.36820893726E+02  0.00000000000E+00 0.  1.
         11    1    4    4    0    0 -0.13204868913E+02  0.12239706013E+02  0.23455445272E+02  0.29569188008E+02  0.51100000000E-03 0. -1.
        -11    1    4    4    0    0  0.44218878448E+01  0.16524523404E+02 -0.50643969484E+01  0.17839873389E+02  0.51100000000E-03 0.  1.
         12    1    4    4    0    0 -0.17481030054E+01 -0.31997219735E+01  0.59262385770E+01  0.69580448761E+01  0.00000000000E+00 0. -1.
</event>
<event>
 8    1  0.1253488E-006  0.9118800E+02  0.7816164E-02  0.1184000E+00
        -11   -1    0    0    0    0  0.00000000000E+00  0.00000000000E+00  0.45593999997E+02  0.45594000000E+02  0.51100000000E-03 0.  1.
         11   -1    0    0    0    0 -0.00000000000E+00 -0.00000000000E+00 -0.45593999997E+02  0.45594000000E+02  0.51100000000E-03 0. -1.
         23    2    1    2    0    0  0.00000000000E+00  0.00000000000E+00 -0.17763568394E-14  0.91188000000E+02  0.91188000000E+02 0.  0.
    9900012    2    3    3    0    0 -0.22881264060E+02  0.28422680998E+02 -0.49374718553E+01  0.54367086535E+02  0.40000005373E+02 0.  0.
         12    1    3    3    0    0  0.22881264060E+02 -0.28422680998E+02  0.49374718553E+01  0.36820913465E+02  0.00000000000E+00 0. -1.
         11    1    4    4    0    0 -0.54569114984E+01  0.17966958602E+02  0.96167758402E+01  0.21096726341E+02  0.51100000000E-03 0. -1.
        -11    1    4    4    0    0 -0.21535212288E+02  0.60012037133E+01 -0.66783293345E+01  0.23331950139E+02  0.51100000000E-03 0.  1.
         12    1    4    4    0    0  0.41108597268E+01  0.44545186831E+01 -0.78759183610E+01  0.99384100550E+01  0.00000000000E+00 0. -1.
</event>
<event>
 8    1  0.1253488E-006  0.9118800E+02  0.7816164E-02  0.1184000E+00
        -11   -1    0    0    0    0  0.00000000000E+00  0.00000000000E+00  0.45593999997E+02  0.45594000000E+02  0.51100000000E-03 0. -1.
         11   -1    0    0    0    0 -0.00000000000E+00 -0.00000000000E+00 -0.45593999997E+02  0.45594000000E+02  0.51100000000E-03 0.  1.
         23    2    1    2    0    0  0.35527136788E-14  0.00000000000E+00  0.00000000000E+00  0.91188000000E+02  0.91188000000E+02 0.  0.
    9900012    2    3    3    0    0 -0.30899513690E+02 -0.80184838276E+01 -0.18349489071E+02  0.54367085042E+02  0.40000001970E+02 0.  0.
         12    1    3    3    0    0  0.30899513690E+02  0.80184838276E+01  0.18349489071E+02  0.36820914958E+02  0.00000000000E+00 0. -1.
         11    1    4    4    0    0 -0.10756186268E+02  0.64530712836E+01 -0.14533646509E+02  0.19198035138E+02  0.51100000000E-03 0. -1.
        -11    1    4    4    0    0 -0.16614720429E+02 -0.56425240657E+01 -0.13086574770E+02  0.21889391317E+02  0.51100000000E-03 0.  1.
         12    1    4    4    0    0 -0.35286069929E+01 -0.88290310456E+01  0.92707322082E+01  0.13279658587E+02  0.00000000000E+00 0. -1.
</event>
<event>
 8    1  0.1253488E-006  0.9118800E+02  0.7816164E-02  0.1184000E+00
        -11   -1    0    0    0    0  0.00000000000E+00  0.00000000000E+00  0.45593999997E+02  0.45594000000E+02  0.51100000000E-03 0. -1.
         11   -1    0    0    0    0 -0.00000000000E+00 -0.00000000000E+00 -0.45593999997E+02  0.45594000000E+02  0.51100000000E-03 0.  1.
         23    2    1    2    0    0 -0.35527136788E-14  0.17763568394E-14  0.35527136788E-14  0.91188000000E+02  0.91188000000E+02 0.  0.
    9900012    2    3    3    0    0  0.27376719227E+02  0.11377099816E+02  0.21837082041E+02  0.54367064272E+02  0.39999954621E+02 0.  0.
        -12    1    3    3    0    0 -0.27376719227E+02 -0.11377099816E+02 -0.21837082041E+02  0.36820935728E+02  0.00000000000E+00 0.  1.
         11    1    4    4    0    0  0.15209859089E+02  0.20161101651E+01  0.20920848137E+02  0.25943908741E+02  0.51100000000E-03 0. -1.
        -11    1    4    4    0    0  0.81553582897E+01  0.65155030301E+00 -0.10630370069E+02  0.13414140103E+02  0.51100000000E-03 0.  1.
        -12    1    4    4    0    0  0.40115018476E+01  0.87094393480E+01  0.11546603973E+02  0.15009015428E+02  0.00000000000E+00 0.  1.
</event>
<event>
 8    1  0.1253488E-006  0.9118800E+02  0.7816164E-02  0.1184000E+00
        -11   -1    0    0    0    0  0.00000000000E+00  0.00000000000E+00  0.45593999997E+02  0.45594000000E+02  0.51100000000E-03 0.  1.
         11   -1    0    0    0    0 -0.00000000000E+00 -0.00000000000E+00 -0.45593999997E+02  0.45594000000E+02  0.51100000000E-03 0. -1.
         23    2    1    2    0    0 -0.17763568394E-14  0.00000000000E+00  0.00000000000E+00  0.91188000000E+02  0.91188000000E+02 0.  0.
    9900012    2    3    3    0    0 -0.12629414674E+02  0.47942156366E+01 -0.34253424932E+02  0.54367031271E+02  0.39999879387E+02 0.  0.
        -12    1    3    3    0    0  0.12629414674E+02 -0.47942156366E+01  0.34253424932E+02  0.36820968729E+02  0.00000000000E+00 0.  1.
         11    1    4    4    0    0 -0.10528622305E+02 -0.86288049246E+01 -0.26387871470E+02  0.29692219908E+02  0.51100000000E-03 0. -1.
        -11    1    4    4    0    0 -0.13056724415E+01  0.90952159991E+01  0.54279737243E+01  0.10671955473E+02  0.51100000000E-03 0.  1.
         12    1    4    4    0    0 -0.79511992798E+00  0.43278045621E+01 -0.13293527186E+02  0.14002855890E+02  0.00000000000E+00 0. -1.
</event>
<event>
 8    1  0.1253488E-006  0.9118800E+02  0.7816164E-02  0.1184000E+00
        -11   -1    0    0    0    0  0.00000000000E+00  0.00000000000E+00  0.45593999997E+02  0.45594000000E+02  0.51100000000E-03 0.  1.
         11   -1    0    0    0    0 -0.00000000000E+00 -0.00000000000E+00 -0.45593999997E+02  0.45594000000E+02  0.51100000000E-03 0. -1.
         23    2    1    2    0    0 -0.35527136788E-14  0.11102230246E-15  0.71054273576E-14  0.91188000000E+02  0.91188000000E+02 0.  0.
    9900012    2    3    3    0    0 -0.23202135290E+02 -0.88676793946E+00  0.28577114957E+02  0.54367123603E+02  0.40000089877E+02 0.  0.
         12    1    3    3    0    0  0.23202135290E+02  0.88676793946E+00 -0.28577114957E+02  0.36820876397E+02  0.00000000000E+00 0. -1.
         11    1    4    4    0    0 -0.71715944639E+01  0.46979977851E+00 -0.75005112573E+01  0.10387980957E+02  0.51100000000E-03 0. -1.
        -11    1    4    4    0    0 -0.11543490996E+02  0.51992161785E+01  0.84235405217E+01  0.15206579774E+02  0.51100000000E-03 0.  1.
        -12    1    4    4    0    0 -0.44870498302E+01 -0.65557838965E+01  0.27654085693E+02  0.28772562872E+02  0.00000000000E+00 0.  1.
</event>
<event>
 8    1  0.1253488E-006  0.9118800E+02  0.7816164E-02  0.1184000E+00
        -11   -1    0    0    0    0  0.00000000000E+00  0.00000000000E+00  0.45593999997E+02  0.45594000000E+02  0.51100000000E-03 0. -1.
         11   -1    0    0    0    0 -0.00000000000E+00 -0.00000000000E+00 -0.45593999997E+02  0.45594000000E+02  0.51100000000E-03 0.  1.
         23    2    1    2    0    0 -0.88817841970E-15  0.88817841970E-15  0.00000000000E+00  0.91188000000E+02  0.91188000000E+02 0.  0.
    9900012    2    3    3    0    0  0.59290038526E+01  0.62618496915E+01 -0.35796845125E+02  0.54367109609E+02  0.40000057976E+02 0.  0.
         12    1    3    3    0    0 -0.59290038526E+01 -0.62618496915E+01  0.35796845125E+02  0.36820890391E+02  0.00000000000E+00 0. -1.
         11    1    4    4    0    0 -0.78598783425E+01  0.47265667286E+01 -0.12360858590E+02  0.15391846736E+02  0.51100000000E-03 0. -1.
        -11    1    4    4    0    0 -0.61410671449E+01  0.34757085323E+01 -0.16223630302E+02  0.17691790071E+02  0.51100000000E-03 0.  1.
        -12    1    4    4    0    0  0.19929949340E+02 -0.19404255694E+01 -0.72123562327E+01  0.21283472802E+02  0.00000000000E+00 0.  1.
</event>
<event>
 8    1  0.1253488E-006  0.9118800E+02  0.7816164E-02  0.1184000E+00
        -11   -1    0    0    0    0  0.00000000000E+00  0.00000000000E+00  0.45593999997E+02  0.45594000000E+02  0.51100000000E-03 0.  1.
         11   -1    0    0    0    0 -0.00000000000E+00 -0.00000000000E+00 -0.45593999997E+02  0.45594000000E+02  0.51100000000E-03 0. -1.
         23    2    1    2    0    0 -0.88817841970E-15  0.35527136788E-14  0.35527136788E-14  0.91188000000E+02  0.91188000000E+02 0.  0.
    9900012    2    3    3    0    0  0.49362579876E+01 -0.24475221490E+02 -0.27062471000E+02  0.54367075969E+02  0.39999981286E+02 0.  0.
        -12    1    3    3    0    0 -0.49362579876E+01  0.24475221490E+02  0.27062471000E+02  0.36820924031E+02  0.00000000000E+00 0.  1.
         11    1    4    4    0    0  0.14672317319E+02 -0.18885115641E+02 -0.26729910200E+02  0.35866594316E+02  0.51100000000E-03 0. -1.
        -11    1    4    4    0    0  0.18832241777E+01  0.20981363988E+01  0.30599999783E+01  0.41608063857E+01  0.51100000000E-03 0.  1.
        -12    1    4    4    0    0 -0.11619283509E+02 -0.76882422480E+01 -0.33925607778E+01  0.14339675267E+02  0.00000000000E+00 0.  1.
</event>
<event>
 8    1  0.1253488E-006  0.9118800E+02  0.7816164E-02  0.1184000E+00
        -11   -1    0    0    0    0  0.00000000000E+00  0.00000000000E+00  0.45593999997E+02  0.45594000000E+02  0.51100000000E-03 0.  1.
         11   -1    0    0    0    0 -0.00000000000E+00 -0.00000000000E+00 -0.45593999997E+02  0.45594000000E+02  0.51100000000E-03 0. -1.
         23    2    1    2    0    0  0.71054273576E-14  0.66613381478E-15 -0.35527136788E-14  0.91188000000E+02  0.91188000000E+02 0.  0.
    9900012    2    3    3    0    0  0.18899496597E+02 -0.11929757537E+01  0.31577928022E+02  0.54367086093E+02  0.40000004366E+02 0.  0.
         12    1    3    3    0    0 -0.18899496597E+02  0.11929757537E+01 -0.31577928022E+02  0.36820913907E+02  0.00000000000E+00 0. -1.
         11    1    4    4    0    0  0.33195757127E+01 -0.74181892284E+01  0.71667720393E+01  0.10835669618E+02  0.51100000000E-03 0. -1.
        -11    1    4    4    0    0 -0.70677152712E+01  0.80605211686E+01  0.78009602883E+00  0.10748634831E+02  0.51100000000E-03 0.  1.
        -12    1    4    4    0    0  0.22647636155E+02 -0.18353076938E+01  0.23631059954E+02  0.32782781644E+02  0.00000000000E+00 0.  1.
</event>
<event>
 8    1  0.1253488E-006  0.9118800E+02  0.7816164E-02  0.1184000E+00
        -11   -1    0    0    0    0  0.00000000000E+00  0.00000000000E+00  0.45593999997E+02  0.45594000000E+02  0.51100000000E-03 0.  1.
         11   -1    0    0    0    0 -0.00000000000E+00 -0.00000000000E+00 -0.45593999997E+02  0.45594000000E+02  0.51100000000E-03 0. -1.
         23    2    1    2    0    0  0.00000000000E+00  0.00000000000E+00 -0.35527136788E-14  0.91188000000E+02  0.91188000000E+02 0.  0.
    9900012    2    3    3    0    0  0.12703878618E+02  0.29561701505E+02 -0.17902482891E+02  0.54367060014E+02  0.39999944913E+02 0.  0.
         12    1    3    3    0    0 -0.12703878618E+02 -0.29561701505E+02  0.17902482891E+02  0.36820939986E+02  0.00000000000E+00 0. -1.
         11    1    4    4    0    0  0.22538880215E+01  0.15535183434E+02 -0.15997123854E+02  0.22412717537E+02  0.51100000000E-03 0. -1.
        -11    1    4    4    0    0 -0.76469163279E+01  0.51546977763E+01  0.51962091067E+01  0.10585217420E+02  0.51100000000E-03 0.  1.
        -12    1    4    4    0    0  0.18096906925E+02  0.88718202947E+01 -0.71015681439E+01  0.21369125056E+02  0.00000000000E+00 0.  1.
</event>
<event>
 8    1  0.1253488E-006  0.9118800E+02  0.7816164E-02  0.1184000E+00
        -11   -1    0    0    0    0  0.00000000000E+00  0.00000000000E+00  0.45593999997E+02  0.45594000000E+02  0.51100000000E-03 0. -1.
         11   -1    0    0    0    0 -0.00000000000E+00 -0.00000000000E+00 -0.45593999997E+02  0.45594000000E+02  0.51100000000E-03 0.  1.
         23    2    1    2    0    0 -0.17763568394E-14  0.17763568394E-14 -0.14210854715E-13  0.91188000000E+02  0.91188000000E+02 0.  0.
    9900012    2    3    3    0    0 -0.10804232853E+02 -0.13919222403E+02 -0.32331156486E+02  0.54367083668E+02  0.39999998837E+02 0.  0.
         12    1    3    3    0    0  0.10804232853E+02  0.13919222403E+02  0.32331156486E+02  0.36820916332E+02  0.00000000000E+00 0. -1.
         11    1    4    4    0    0  0.31642805683E+01  0.24626216747E+01  0.77579660701E+01  0.87328812447E+01  0.51100000000E-03 0. -1.
        -11    1    4    4    0    0 -0.10565181190E+02 -0.98926751948E+01 -0.26837662700E+02  0.30491772916E+02  0.51100000000E-03 0.  1.
         12    1    4    4    0    0 -0.34033322304E+01 -0.64891688828E+01 -0.13251459856E+02  0.15142429507E+02  0.00000000000E+00 0. -1.
</event>
<event>
 8    1  0.1253488E-006  0.9118800E+02  0.7816164E-02  0.1184000E+00
        -11   -1    0    0    0    0  0.00000000000E+00  0.00000000000E+00  0.45593999997E+02  0.45594000000E+02  0.51100000000E-03 0. -1.
         11   -1    0    0    0    0 -0.00000000000E+00 -0.00000000000E+00 -0.45593999997E+02  0.45594000000E+02  0.51100000000E-03 0.  1.
         23    2    1    2    0    0  0.00000000000E+00 -0.17763568394E-14  0.00000000000E+00  0.91188000000E+02  0.91188000000E+02 0.  0.
    9900012    2    3    3    0    0 -0.29567895754E+01  0.14667847821E+02  0.33643603672E+02  0.54367076162E+02  0.39999981726E+02 0.  0.
        -12    1    3    3    0    0  0.29567895754E+01 -0.14667847821E+02 -0.33643603672E+02  0.36820923838E+02  0.00000000000E+00 0.  1.
         11    1    4    4    0    0  0.26902425495E+00  0.56657100568E+01  0.11107683515E+02  0.12472099976E+02  0.51100000000E-03 0. -1.
        -11    1    4    4    0    0  0.81744788376E+01  0.51398272824E+01 -0.56912861074E+01  0.11208508669E+02  0.51100000000E-03 0.  1.
        -12    1    4    4    0    0 -0.11400292668E+02  0.38623104815E+01  0.28227206264E+02  0.30686467517E+02  0.00000000000E+00 0.  1.
</event>
<event>
 8    1  0.1253488E-006  0.9118800E+02  0.7816164E-02  0.1184000E+00
        -11   -1    0    0    0    0  0.00000000000E+00  0.00000000000E+00  0.45593999997E+02  0.45594000000E+02  0.51100000000E-03 0.  1.
         11   -1    0    0    0    0 -0.00000000000E+00 -0.00000000000E+00 -0.45593999997E+02  0.45594000000E+02  0.51100000000E-03 0. -1.
         23    2    1    2    0    0  0.00000000000E+00  0.00000000000E+00  0.00000000000E+00  0.91188000000E+02  0.91188000000E+02 0.  0.
    9900012    2    3    3    0    0  0.25655049495E+02 -0.13825722553E+02  0.22504377523E+02  0.54367093216E+02  0.40000020604E+02 0.  0.
        -12    1    3    3    0    0 -0.25655049495E+02  0.13825722553E+02 -0.22504377523E+02  0.36820906784E+02  0.00000000000E+00 0.  1.
         11    1    4    4    0    0  0.13268908610E+02 -0.12492404954E+02 -0.25727819953E+01  0.18404980975E+02  0.51100000000E-03 0. -1.
        -11    1    4    4    0    0  0.12845790469E+01  0.96392975938E+01  0.64951607951E+01  0.11694157321E+02  0.51100000000E-03 0.  1.
         12    1    4    4    0    0  0.11101561838E+02 -0.10972615193E+02  0.18581998724E+02  0.24267954920E+02  0.00000000000E+00 0. -1.
</event>
<event>
 8    1  0.1253488E-006  0.9118800E+02  0.7816164E-02  0.1184000E+00
        -11   -1    0    0    0    0  0.00000000000E+00  0.00000000000E+00  0.45593999997E+02  0.45594000000E+02  0.51100000000E-03 0.  1.
         11   -1    0    0    0    0 -0.00000000000E+00 -0.00000000000E+00 -0.45593999997E+02  0.45594000000E+02  0.51100000000E-03 0. -1.
         23    2    1    2    0    0 -0.88817841970E-15 -0.35527136788E-14  0.00000000000E+00  0.91188000000E+02  0.91188000000E+02 0.  0.
    9900012    2    3    3    0    0 -0.36570770069E+01 -0.16185672078E+02 -0.32869887496E+02  0.54367086149E+02  0.40000004493E+02 0.  0.
        -12    1    3    3    0    0  0.36570770069E+01  0.16185672078E+02  0.32869887496E+02  0.36820913851E+02  0.00000000000E+00 0.  1.
         11    1    4    4    0    0  0.41513766717E+01 -0.12939479370E+02 -0.15061796507E+02  0.20285999333E+02  0.51100000000E-03 0. -1.
        -11    1    4    4    0    0 -0.78726278648E+01 -0.13995620060E+02 -0.39391982822E+01  0.16533993278E+02  0.51100000000E-03 0.  1.
        -12    1    4    4    0    0  0.64174186119E-01  0.10749427352E+02 -0.13868892707E+02  0.17547093538E+02  0.00000000000E+00 0.  1.
</event>
<event>
 8    1  0.1253488E-006  0.9118800E+02  0.7816164E-02  0.1184000E+00
        -11   -1    0    0    0    0  0.00000000000E+00  0.00000000000E+00  0.45593999997E+02  0.45594000000E+02  0.51100000000E-03 0.  1.
         11   -1    0    0    0    0 -0.00000000000E+00 -0.00000000000E+00 -0.45593999997E+02  0.45594000000E+02  0.51100000000E-03 0. -1.
         23    2    1    2    0    0 -0.17763568394E-14  0.88817841970E-15 -0.71054273576E-14  0.91188000000E+02  0.91188000000E+02 0.  0.
    9900012    2    3    3    0    0  0.10737587478E+02 -0.24418657860E+01  0.35135741099E+02  0.54367098382E+02  0.40000032381E+02 0.  0.
         12    1    3    3    0    0 -0.10737587478E+02  0.24418657860E+01 -0.35135741099E+02  0.36820901618E+02  0.00000000000E+00 0. -1.
         11    1    4    4    0    0 -0.58858478245E+01 -0.15109982611E+02  0.12069144725E+02  0.20214327438E+02  0.51100000000E-03 0. -1.
        -11    1    4    4    0    0  0.15748415189E+02  0.80265697965E+01  0.23504531618E+02  0.29409206220E+02  0.51100000000E-03 0.  1.
         12    1    4    4    0    0  0.87502011311E+00  0.46415470282E+01 -0.43793524320E+00  0.47435647240E+01  0.00000000000E+00 0. -1.
</event>
<event>
 8    1  0.1253488E-006  0.9118800E+02  0.7816164E-02  0.1184000E+00
        -11   -1    0    0    0    0  0.00000000000E+00  0.00000000000E+00  0.45593999997E+02  0.45594000000E+02  0.51100000000E-03 0.  1.
         11   -1    0    0    0    0 -0.00000000000E+00 -0.00000000000E+00 -0.45593999997E+02  0.45594000000E+02  0.51100000000E-03 0. -1.
         23    2    1    2    0    0  0.35527136788E-14  0.44408920985E-14  0.35527136788E-14  0.91188000000E+02  0.91188000000E+02 0.  0.
    9900012    2    3    3    0    0 -0.31201252467E+02 -0.71807502158E+01 -0.18185111738E+02  0.54367087218E+02  0.40000006930E+02 0.  0.
        -12    1    3    3    0    0  0.31201252467E+02  0.71807502158E+01  0.18185111738E+02  0.36820912782E+02  0.00000000000E+00 0.  1.
         11    1    4    4    0    0 -0.80513667692E+01  0.92968736577E+01  0.72783142720E+01  0.14290914091E+02  0.51100000000E-03 0. -1.
        -11    1    4    4    0    0 -0.28148091381E+01 -0.34112306834E+01  0.67599370210E+00  0.44739929600E+01  0.51100000000E-03 0.  1.
         12    1    4    4    0    0 -0.20335076560E+02 -0.13066393190E+02 -0.26139419713E+02  0.35602180166E+02  0.00000000000E+00 0. -1.
</event>
<event>
 8    1  0.1253488E-006  0.9118800E+02  0.7816164E-02  0.1184000E+00
        -11   -1    0    0    0    0  0.00000000000E+00  0.00000000000E+00  0.45593999997E+02  0.45594000000E+02  0.51100000000E-03 0. -1.
         11   -1    0    0    0    0 -0.00000000000E+00 -0.00000000000E+00 -0.45593999997E+02  0.45594000000E+02  0.51100000000E-03 0.  1.
         23    2    1    2    0    0  0.17763568394E-14  0.00000000000E+00  0.35527136788E-14  0.91188000000E+02  0.91188000000E+02 0.  0.
    9900012    2    3    3    0    0 -0.57043440918E+01  0.28347738931E+02  0.22795620564E+02  0.54367161323E+02  0.40000175867E+02 0.  0.
        -12    1    3    3    0    0  0.57043440918E+01 -0.28347738931E+02 -0.22795620564E+02  0.36820838677E+02  0.00000000000E+00 0.  1.
         11    1    4    4    0    0 -0.86666906635E+01 -0.13372768686E+01  0.31037405787E+01  0.93023138154E+01  0.51100000000E-03 0. -1.
        -11    1    4    4    0    0  0.77274230229E+00  0.13356748220E+01 -0.63335006311E+01  0.65187720011E+01  0.51100000000E-03 0.  1.
         12    1    4    4    0    0  0.21896042694E+01  0.28349340978E+02  0.26025380616E+02  0.38546075506E+02  0.00000000000E+00 0. -1.
</event>
<event>
 8    1  0.1253488E-006  0.9118800E+02  0.7816164E-02  0.1184000E+00
        -11   -1    0    0    0    0  0.00000000000E+00  0.00000000000E+00  0.45593999997E+02  0.45594000000E+02  0.51100000000E-03 0.  1.
         11   -1    0    0    0    0 -0.00000000000E+00 -0.00000000000E+00 -0.45593999997E+02  0.45594000000E+02  0.51100000000E-03 0. -1.
         23    2    1    2    0    0  0.00000000000E+00  0.88817841970E-15  0.00000000000E+00  0.91188000000E+02  0.91188000000E+02 0.  0.
    9900012    2    3    3    0    0  0.35378853860E+02 -0.66975176643E+01 -0.76980969407E+01  0.54367071985E+02  0.39999972205E+02 0.  0.
         12    1    3    3    0    0 -0.35378853860E+02  0.66975176643E+01  0.76980969407E+01  0.36820928015E+02  0.00000000000E+00 0. -1.
         11    1    4    4    0    0  0.31709003543E+02 -0.36228583278E+01 -0.14289798741E+00  0.31915614176E+02  0.51100000000E-03 0.  1.
        -11    1    4    4    0    0  0.20595885870E+01  0.85582657960E+01 -0.64678840432E+00  0.88263329919E+01  0.51100000000E-03 0. -1.
        -12    1    4    4    0    0  0.16102617308E+01 -0.11632925133E+02 -0.69084105490E+01  0.13625124818E+02  0.00000000000E+00 0.  1.
</event>
<event>
 8    1  0.1253488E-006  0.9118800E+02  0.7816164E-02  0.1184000E+00
        -11   -1    0    0    0    0  0.00000000000E+00  0.00000000000E+00  0.45593999997E+02  0.45594000000E+02  0.51100000000E-03 0.  1.
         11   -1    0    0    0    0 -0.00000000000E+00 -0.00000000000E+00 -0.45593999997E+02  0.45594000000E+02  0.51100000000E-03 0. -1.
         23    2    1    2    0    0  0.00000000000E+00  0.71054273576E-14 -0.88817841970E-15  0.91188000000E+02  0.91188000000E+02 0.  0.
    9900012    2    3    3    0    0  0.91087034642E+01  0.34919005432E+02  0.73125331342E+01  0.54367101586E+02  0.40000039687E+02 0.  0.
         12    1    3    3    0    0 -0.91087034642E+01 -0.34919005432E+02 -0.73125331342E+01  0.36820898414E+02  0.00000000000E+00 0. -1.
         11    1    4    4    0    0  0.10508477468E+02  0.25403384727E+02  0.45989597694E+00  0.27494936967E+02  0.51100000000E-03 0. -1.
        -11    1    4    4    0    0  0.42485095833E+01  0.43900608936E+01  0.14706059254E+02  0.15924529738E+02  0.51100000000E-03 0.  1.
        -12    1    4    4    0    0 -0.56482835875E+01  0.51255598116E+01 -0.78534220966E+01  0.10947634881E+02  0.00000000000E+00 0.  1.
</event>
<event>
 8    1  0.1253488E-006  0.9118800E+02  0.7816164E-02  0.1184000E+00
        -11   -1    0    0    0    0  0.00000000000E+00  0.00000000000E+00  0.45593999997E+02  0.45594000000E+02  0.51100000000E-03 0.  1.
         11   -1    0    0    0    0 -0.00000000000E+00 -0.00000000000E+00 -0.45593999997E+02  0.45594000000E+02  0.51100000000E-03 0. -1.
         23    2    1    2    0    0  0.00000000000E+00 -0.35527136788E-14 -0.17763568394E-14  0.91188000000E+02  0.91188000000E+02 0.  0.
    9900012    2    3    3    0    0  0.32706754930E+02  0.88218866775E+01  0.14429944909E+02  0.54367070996E+02  0.39999969950E+02 0.  0.
         12    1    3    3    0    0 -0.32706754930E+02 -0.88218866775E+01 -0.14429944909E+02  0.36820929004E+02  0.00000000000E+00 0. -1.
         11    1    4    4    0    0 -0.37113186580E+01  0.48400288253E+01 -0.39960134953E+00  0.61122374554E+01  0.51100000000E-03 0. -1.
        -11    1    4    4    0    0 -0.20961660581E+01 -0.49564235859E+01  0.53672816980E+01  0.76005105087E+01  0.51100000000E-03 0.  1.
        -12    1    4    4    0    0  0.38514239646E+02  0.89382814382E+01  0.94622645605E+01  0.40654323032E+02  0.00000000000E+00 0.  1.
</event>
<event>
 8    1  0.1253488E-006  0.9118800E+02  0.7816164E-02  0.1184000E+00
        -11   -1    0    0    0    0  0.00000000000E+00  0.00000000000E+00  0.45593999997E+02  0.45594000000E+02  0.51100000000E-03 0.  1.
         11   -1    0    0    0    0 -0.00000000000E+00 -0.00000000000E+00 -0.45593999997E+02  0.45594000000E+02  0.51100000000E-03 0. -1.
         23    2    1    2    0    0  0.88817841970E-15  0.00000000000E+00  0.00000000000E+00  0.91188000000E+02  0.91188000000E+02 0.  0.
    9900012    2    3    3    0    0  0.45595316953E+01  0.17560886092E+02 -0.32040690856E+02  0.54367083117E+02  0.39999997581E+02 0.  0.
        -12    1    3    3    0    0 -0.45595316953E+01 -0.17560886092E+02  0.32040690856E+02  0.36820916883E+02  0.00000000000E+00 0.  1.
         11    1    4    4    0    0  0.13499908448E+02  0.21019111890E+02 -0.79171165540E+01  0.26205559096E+02  0.51100000000E-03 0. -1.
        -11    1    4    4    0    0 -0.50558428389E+01  0.35574177214E+01 -0.13526071038E+02  0.14871831281E+02  0.51100000000E-03 0.  1.
         12    1    4    4    0    0 -0.38845339133E+01 -0.70156435188E+01 -0.10597503264E+02  0.13289692740E+02  0.00000000000E+00 0. -1.
</event>
<event>
 8    1  0.1253488E-006  0.9118800E+02  0.7816164E-02  0.1184000E+00
        -11   -1    0    0    0    0  0.00000000000E+00  0.00000000000E+00  0.45593999997E+02  0.45594000000E+02  0.51100000000E-03 0. -1.
         11   -1    0    0    0    0 -0.00000000000E+00 -0.00000000000E+00 -0.45593999997E+02  0.45594000000E+02  0.51100000000E-03 0.  1.
         23    2    1    2    0    0  0.00000000000E+00  0.00000000000E+00  0.00000000000E+00  0.91188000000E+02  0.91188000000E+02 0.  0.
    9900012    2    3    3    0    0  0.28366894656E+02 -0.12148350728E+02  0.20087804961E+02  0.54367040670E+02  0.39999900814E+02 0.  0.
        -12    1    3    3    0    0 -0.28366894656E+02  0.12148350728E+02 -0.20087804961E+02  0.36820959330E+02  0.00000000000E+00 0.  1.
         11    1    4    4    0    0  0.40311442602E+01  0.54149029723E+01  0.15428922839E+02  0.16841109182E+02  0.51100000000E-03 0. -1.
        -11    1    4    4    0    0 -0.16273078707E+01  0.30895769274E+01 -0.14704003289E+01  0.37888908515E+01  0.51100000000E-03 0.  1.
         12    1    4    4    0    0  0.25963058267E+02 -0.20652830628E+02  0.61292824507E+01  0.33737040636E+02  0.00000000000E+00 0. -1.
</event>
<event>
 8    1  0.1253488E-006  0.9118800E+02  0.7816164E-02  0.1184000E+00
        -11   -1    0    0    0    0  0.00000000000E+00  0.00000000000E+00  0.45593999997E+02  0.45594000000E+02  0.51100000000E-03 0. -1.
         11   -1    0    0    0    0 -0.00000000000E+00 -0.00000000000E+00 -0.45593999997E+02  0.45594000000E+02  0.51100000000E-03 0.  1.
         23    2    1    2    0    0  0.00000000000E+00  0.00000000000E+00  0.00000000000E+00  0.91188000000E+02  0.91188000000E+02 0.  0.
    9900012    2    3    3    0    0  0.16264941996E+02  0.81607685809E+01 -0.32009797719E+02  0.54367168505E+02  0.40000192240E+02 0.  0.
         12    1    3    3    0    0 -0.16264941996E+02 -0.81607685809E+01  0.32009797719E+02  0.36820831495E+02  0.00000000000E+00 0. -1.
         11    1    4    4    0    0 -0.28316754755E+01 -0.19404608471E+01 -0.12032783297E+02  0.12512859323E+02  0.51100000000E-03 0. -1.
        -11    1    4    4    0    0  0.39102451868E+01 -0.24689791466E+00 -0.22911954422E+02  0.23244539826E+02  0.51100000000E-03 0.  1.
        -12    1    4    4    0    0  0.15186372285E+02  0.10348127343E+02  0.29349400003E+01  0.18609769356E+02  0.00000000000E+00 0.  1.
</event>
<event>
 8    1  0.1253488E-006  0.9118800E+02  0.7816164E-02  0.1184000E+00
        -11   -1    0    0    0    0  0.00000000000E+00  0.00000000000E+00  0.45593999997E+02  0.45594000000E+02  0.51100000000E-03 0.  1.
         11   -1    0    0    0    0 -0.00000000000E+00 -0.00000000000E+00 -0.45593999997E+02  0.45594000000E+02  0.51100000000E-03 0. -1.
         23    2    1    2    0    0  0.00000000000E+00  0.00000000000E+00  0.35527136788E-14  0.91188000000E+02  0.91188000000E+02 0.  0.
    9900012    2    3    3    0    0  0.11877366770E+02  0.19032266429E+02 -0.29197424178E+02  0.54366965448E+02  0.39999729332E+02 0.  0.
        -12    1    3    3    0    0 -0.11877366770E+02 -0.19032266429E+02  0.29197424178E+02  0.36821034552E+02  0.00000000000E+00 0.  1.
         11    1    4    4    0    0 -0.27509208628E+01  0.39431495958E+01 -0.44121917395E+01  0.65255980979E+01  0.51100000000E-03 0. -1.
        -11    1    4    4    0    0  0.63342587747E+01  0.12127108139E+02 -0.33046070399E+02  0.35766357868E+02  0.51100000000E-03 0.  1.
        -12    1    4    4    0    0  0.82940288585E+01  0.29620086938E+01  0.82608379603E+01  0.12075009483E+02  0.00000000000E+00 0.  1.
</event>
<event>
 8    1  0.1253488E-006  0.9118800E+02  0.7816164E-02  0.1184000E+00
        -11   -1    0    0    0    0  0.00000000000E+00  0.00000000000E+00  0.45593999997E+02  0.45594000000E+02  0.51100000000E-03 0.  1.
         11   -1    0    0    0    0 -0.00000000000E+00 -0.00000000000E+00 -0.45593999997E+02  0.45594000000E+02  0.51100000000E-03 0. -1.
         23    2    1    2    0    0 -0.17763568394E-14  0.00000000000E+00 -0.35527136788E-14  0.91188000000E+02  0.91188000000E+02 0.  0.
    9900012    2    3    3    0    0  0.14693964969E+02  0.16444650403E+02  0.29486364118E+02  0.54367016821E+02  0.39999846446E+02 0.  0.
         12    1    3    3    0    0 -0.14693964969E+02 -0.16444650403E+02 -0.29486364118E+02  0.36820983179E+02  0.00000000000E+00 0. -1.
         11    1    4    4    0    0 -0.55500265270E+01 -0.14682369910E+01  0.56475674630E+01  0.80531691167E+01  0.51100000000E-03 0. -1.
        -11    1    4    4    0    0  0.97453445860E+01  0.44522282084E+01  0.26914082586E+02  0.28968291610E+02  0.51100000000E-03 0.  1.
        -12    1    4    4    0    0  0.10498646910E+02  0.13460659186E+02 -0.30752859308E+01  0.17345556094E+02  0.00000000000E+00 0.  1.
</event>
<event>
 8    1  0.1253488E-006  0.9118800E+02  0.7816164E-02  0.1184000E+00
        -11   -1    0    0    0    0  0.00000000000E+00  0.00000000000E+00  0.45593999997E+02  0.45594000000E+02  0.51100000000E-03 0.  1.
         11   -1    0    0    0    0 -0.00000000000E+00 -0.00000000000E+00 -0.45593999997E+02  0.45594000000E+02  0.51100000000E-03 0. -1.
         23    2    1    2    0    0  0.00000000000E+00 -0.17763568394E-14  0.00000000000E+00  0.91188000000E+02  0.91188000000E+02 0.  0.
    9900012    2    3    3    0    0 -0.11697075397E+02  0.61796741350E+01  0.34362301343E+02  0.54367113280E+02  0.40000066345E+02 0.  0.
         12    1    3    3    0    0  0.11697075397E+02 -0.61796741350E+01 -0.34362301343E+02  0.36820886720E+02  0.00000000000E+00 0. -1.
         11    1    4    4    0    0 -0.71878668519E+01 -0.11513676186E+02  0.51532578439E+01  0.14518479117E+02  0.51100000000E-03 0. -1.
        -11    1    4    4    0    0 -0.23420111557E+01 -0.43494989440E+01  0.58850083380E+01  0.76835200733E+01  0.51100000000E-03 0.  1.
        -12    1    4    4    0    0 -0.21671973897E+01  0.22042849265E+02  0.23324035161E+02  0.32165114090E+02  0.00000000000E+00 0.  1.
</event>
<event>
 8    1  0.1253488E-006  0.9118800E+02  0.7816164E-02  0.1184000E+00
        -11   -1    0    0    0    0  0.00000000000E+00  0.00000000000E+00  0.45593999997E+02  0.45594000000E+02  0.51100000000E-03 0. -1.
         11   -1    0    0    0    0 -0.00000000000E+00 -0.00000000000E+00 -0.45593999997E+02  0.45594000000E+02  0.51100000000E-03 0.  1.
         23    2    1    2    0    0  0.00000000000E+00  0.22204460493E-15  0.00000000000E+00  0.91188000000E+02  0.91188000000E+02 0.  0.
    9900012    2    3    3    0    0 -0.17239661987E+02 -0.72580862493E+00  0.32527499181E+02  0.54367204971E+02  0.40000275370E+02 0.  0.
        -12    1    3    3    0    0  0.17239661987E+02  0.72580862493E+00 -0.32527499181E+02  0.36820795029E+02  0.00000000000E+00 0.  1.
         11    1    4    4    0    0 -0.11482589668E+02  0.71997924810E+01 -0.32085265424E+01  0.13927724871E+02  0.51100000000E-03 0. -1.
        -11    1    4    4    0    0 -0.16614114155E+01 -0.18481027470E+01 -0.12167331446E+01  0.27669859887E+01  0.51100000000E-03 0.  1.
         12    1    4    4    0    0 -0.40956609041E+01 -0.60774983589E+01  0.36952758868E+02  0.37672494111E+02  0.00000000000E+00 0. -1.
</event>
<event>
 8    1  0.1253488E-006  0.9118800E+02  0.7816164E-02  0.1184000E+00
        -11   -1    0    0    0    0  0.00000000000E+00  0.00000000000E+00  0.45593999997E+02  0.45594000000E+02  0.51100000000E-03 0. -1.
         11   -1    0    0    0    0 -0.00000000000E+00 -0.00000000000E+00 -0.45593999997E+02  0.45594000000E+02  0.51100000000E-03 0.  1.
         23    2    1    2    0    0  0.91593399532E-15  0.00000000000E+00 -0.17763568394E-14  0.91188000000E+02  0.91188000000E+02 0.  0.
    9900012    2    3    3    0    0 -0.15169516288E+00  0.35646381052E+02 -0.92245953449E+01  0.54367073168E+02  0.39999974900E+02 0.  0.
         12    1    3    3    0    0  0.15169516288E+00 -0.35646381052E+02  0.92245953449E+01  0.36820926832E+02  0.00000000000E+00 0. -1.
         11    1    4    4    0    0 -0.30045182338E+01  0.50470982461E+01 -0.85080136202E+00  0.59349973666E+01  0.51100000000E-03 0. -1.
        -11    1    4    4    0    0 -0.92148693214E+01  0.29923838703E+02  0.34794275762E+01  0.31503275319E+02  0.51100000000E-03 0.  1.
         12    1    4    4    0    0  0.12067692392E+02  0.67544410284E+00 -0.11853221559E+02  0.16928800481E+02  0.00000000000E+00 0. -1.
</event>
<event>
 8    1  0.1253488E-006  0.9118800E+02  0.7816164E-02  0.1184000E+00
        -11   -1    0    0    0    0  0.00000000000E+00  0.00000000000E+00  0.45593999997E+02  0.45594000000E+02  0.51100000000E-03 0.  1.
         11   -1    0    0    0    0 -0.00000000000E+00 -0.00000000000E+00 -0.45593999997E+02  0.45594000000E+02  0.51100000000E-03 0. -1.
         23    2    1    2    0    0 -0.88817841970E-15  0.00000000000E+00  0.00000000000E+00  0.91188000000E+02  0.91188000000E+02 0.  0.
    9900012    2    3    3    0    0 -0.42199012925E+01 -0.78787791771E+01  0.35719715073E+02  0.54367071534E+02  0.39999971176E+02 0.  0.
         12    1    3    3    0    0  0.42199012925E+01  0.78787791771E+01 -0.35719715073E+02  0.36820928466E+02  0.00000000000E+00 0. -1.
         11    1    4    4    0    0 -0.13313500722E+02 -0.13525466141E+00  0.24351212600E+02  0.27753362871E+02  0.51100000000E-03 0. -1.
        -11    1    4    4    0    0 -0.20195183812E+01 -0.41064214947E+01  0.13913561573E+02  0.14646786265E+02  0.51100000000E-03 0.  1.
         12    1    4    4    0    0  0.11113117811E+02 -0.36371030209E+01 -0.25450591001E+01  0.11966922398E+02  0.00000000000E+00 0. -1.
</event>
<event>
 8    1  0.1253488E-006  0.9118800E+02  0.7816164E-02  0.1184000E+00
        -11   -1    0    0    0    0  0.00000000000E+00  0.00000000000E+00  0.45593999997E+02  0.45594000000E+02  0.51100000000E-03 0. -1.
         11   -1    0    0    0    0 -0.00000000000E+00 -0.00000000000E+00 -0.45593999997E+02  0.45594000000E+02  0.51100000000E-03 0.  1.
         23    2    1    2    0    0  0.44408920985E-15  0.00000000000E+00  0.17763568394E-14  0.91188000000E+02  0.91188000000E+02 0.  0.
    9900012    2    3    3    0    0 -0.31104097758E+01  0.34941206698E+02  0.11190059628E+02  0.54367081910E+02  0.39999994830E+02 0.  0.
        -12    1    3    3    0    0  0.31104097758E+01 -0.34941206698E+02 -0.11190059628E+02  0.36820918090E+02  0.00000000000E+00 0.  1.
         11    1    4    4    0    0  0.15355801764E+02  0.29353659824E+01 -0.54431240145E-01  0.15633936941E+02  0.51100000000E-03 0.  1.
        -11    1    4    4    0    0 -0.51585251898E+01  0.10555639373E+02  0.24446681489E+01  0.12000346134E+02  0.51100000000E-03 0. -1.
        -12    1    4    4    0    0 -0.13307686350E+02  0.21450201343E+02  0.87998227195E+01  0.26732798835E+02  0.00000000000E+00 0.  1.
</event>
<event>
 8    1  0.1253488E-006  0.9118800E+02  0.7816164E-02  0.1184000E+00
        -11   -1    0    0    0    0  0.00000000000E+00  0.00000000000E+00  0.45593999997E+02  0.45594000000E+02  0.51100000000E-03 0.  1.
         11   -1    0    0    0    0 -0.00000000000E+00 -0.00000000000E+00 -0.45593999997E+02  0.45594000000E+02  0.51100000000E-03 0. -1.
         23    2    1    2    0    0  0.00000000000E+00  0.00000000000E+00 -0.35527136788E-14  0.91188000000E+02  0.91188000000E+02 0.  0.
    9900012    2    3    3    0    0 -0.13423410116E+02 -0.16167577618E+02  0.30235784589E+02  0.54367066079E+02  0.39999958739E+02 0.  0.
         12    1    3    3    0    0  0.13423410116E+02  0.16167577618E+02 -0.30235784589E+02  0.36820933921E+02  0.00000000000E+00 0. -1.
         11    1    4    4    0    0 -0.12218512339E+02 -0.23651547700E+02  0.14546037083E+02  0.30336033812E+02  0.51100000000E-03 0. -1.
        -11    1    4    4    0    0 -0.72989596506E+01  0.41926404966E+00  0.11888164625E+02  0.13956326621E+02  0.51100000000E-03 0.  1.
         12    1    4    4    0    0  0.60940618740E+01  0.70647060324E+01  0.38015828799E+01  0.10074705645E+02  0.00000000000E+00 0. -1.
</event>
<event>
 8    1  0.1253488E-006  0.9118800E+02  0.7816164E-02  0.1184000E+00
        -11   -1    0    0    0    0  0.00000000000E+00  0.00000000000E+00  0.45593999997E+02  0.45594000000E+02  0.51100000000E-03 0. -1.
         11   -1    0    0    0    0 -0.00000000000E+00 -0.00000000000E+00 -0.45593999997E+02  0.45594000000E+02  0.51100000000E-03 0.  1.
         23    2    1    2    0    0  0.17763568394E-14  0.88817841970E-15  0.00000000000E+00  0.91188000000E+02  0.91188000000E+02 0.  0.
    9900012    2    3    3    0    0 -0.12838918003E+02 -0.56145880105E+01 -0.34050234361E+02  0.54367083743E+02  0.39999999008E+02 0.  0.
         12    1    3    3    0    0  0.12838918003E+02  0.56145880105E+01  0.34050234361E+02  0.36820916257E+02  0.00000000000E+00 0. -1.
         11    1    4    4    0    0 -0.16538831687E+01 -0.47733318617E+01  0.35268308849E+01  0.61610520976E+01  0.51100000000E-03 0. -1.
        -11    1    4    4    0    0  0.23648596923E+01 -0.11241761638E+02 -0.78263423174E+01  0.13900410081E+02  0.51100000000E-03 0.  1.
        -12    1    4    4    0    0 -0.13549894527E+02  0.10400505490E+02 -0.29750722928E+02  0.34305621564E+02  0.00000000000E+00 0.  1.
</event>
<event>
 8    1  0.1253488E-006  0.9118800E+02  0.7816164E-02  0.1184000E+00
        -11   -1    0    0    0    0  0.00000000000E+00  0.00000000000E+00  0.45593999997E+02  0.45594000000E+02  0.51100000000E-03 0.  1.
         11   -1    0    0    0    0 -0.00000000000E+00 -0.00000000000E+00 -0.45593999997E+02  0.45594000000E+02  0.51100000000E-03 0. -1.
         23    2    1    2    0    0  0.00000000000E+00  0.00000000000E+00  0.00000000000E+00  0.91188000000E+02  0.91188000000E+02 0.  0.
    9900012    2    3    3    0    0 -0.14671061393E+02  0.32587347527E+02  0.88658904625E+01  0.54367091878E+02  0.40000017554E+02 0.  0.
         12    1    3    3    0    0  0.14671061393E+02 -0.32587347527E+02 -0.88658904625E+01  0.36820908122E+02  0.00000000000E+00 0. -1.
         11    1    4    4    0    0  0.44367512377E+01  0.70637312350E+00  0.15518979929E+02  0.16156189613E+02  0.51100000000E-03 0. -1.
        -11    1    4    4    0    0 -0.64823667036E+01  0.10350549179E+02  0.57419909479E+00  0.12226391588E+02  0.51100000000E-03 0.  1.
         12    1    4    4    0    0 -0.12625445927E+02  0.21530425224E+02 -0.72272885609E+01  0.25984510677E+02  0.00000000000E+00 0. -1.
</event>
<event>
 8    1  0.1253488E-006  0.9118800E+02  0.7816164E-02  0.1184000E+00
        -11   -1    0    0    0    0  0.00000000000E+00  0.00000000000E+00  0.45593999997E+02  0.45594000000E+02  0.51100000000E-03 0.  1.
         11   -1    0    0    0    0 -0.00000000000E+00 -0.00000000000E+00 -0.45593999997E+02  0.45594000000E+02  0.51100000000E-03 0. -1.
         23    2    1    2    0    0  0.88817841970E-15  0.00000000000E+00 -0.44408920985E-15  0.91188000000E+02  0.91188000000E+02 0.  0.
    9900012    2    3    3    0    0 -0.65421217906E+01  0.36044026763E+02 -0.37156917376E+01  0.54367114787E+02  0.40000069779E+02 0.  0.
         12    1    3    3    0    0  0.65421217906E+01 -0.36044026763E+02  0.37156917376E+01  0.36820885213E+02  0.00000000000E+00 0. -1.
         11    1    4    4    0    0  0.31367891073E+01  0.47287136363E+01 -0.10674868423E+02  0.12089375280E+02  0.51100000000E-03 0. -1.
        -11    1    4    4    0    0  0.41842514110E+01  0.21156841151E+02  0.11582493588E+02  0.24480074455E+02  0.51100000000E-03 0.  1.
         12    1    4    4    0    0 -0.13863162309E+02  0.10158471976E+02 -0.46233169033E+01  0.17797665051E+02  0.00000000000E+00 0. -1.
</event>
<event>
 8    1  0.1253488E-006  0.9118800E+02  0.7816164E-02  0.1184000E+00
        -11   -1    0    0    0    0  0.00000000000E+00  0.00000000000E+00  0.45593999997E+02  0.45594000000E+02  0.51100000000E-03 0. -1.
         11   -1    0    0    0    0 -0.00000000000E+00 -0.00000000000E+00 -0.45593999997E+02  0.45594000000E+02  0.51100000000E-03 0.  1.
         23    2    1    2    0    0  0.00000000000E+00  0.00000000000E+00  0.00000000000E+00  0.91188000000E+02  0.91188000000E+02 0.  0.
    9900012    2    3    3    0    0 -0.67438797218E+01 -0.11864542523E+02 -0.34198450448E+02  0.54367064433E+02  0.39999954987E+02 0.  0.
         12    1    3    3    0    0  0.67438797218E+01  0.11864542523E+02  0.34198450448E+02  0.36820935567E+02  0.00000000000E+00 0. -1.
         11    1    4    4    0    0 -0.11000404679E+02 -0.10947215546E+02 -0.19487528927E+02  0.24912129882E+02  0.51100000000E-03 0. -1.
        -11    1    4    4    0    0  0.31201345444E+01 -0.20667729821E+01 -0.21833149941E+02  0.22151596483E+02  0.51100000000E-03 0.  1.
         12    1    4    4    0    0  0.11363904126E+01  0.11494460054E+01  0.71222284191E+01  0.73033380685E+01  0.00000000000E+00 0. -1.
</event>
<event>
 8    1  0.1253488E-006  0.9118800E+02  0.7816164E-02  0.1184000E+00
        -11   -1    0    0    0    0  0.00000000000E+00  0.00000000000E+00  0.45593999997E+02  0.45594000000E+02  0.51100000000E-03 0.  1.
         11   -1    0    0    0    0 -0.00000000000E+00 -0.00000000000E+00 -0.45593999997E+02  0.45594000000E+02  0.51100000000E-03 0. -1.
         23    2    1    2    0    0  0.00000000000E+00  0.00000000000E+00  0.00000000000E+00  0.91188000000E+02  0.91188000000E+02 0.  0.
    9900012    2    3    3    0    0 -0.43611045799E+01  0.32660576008E+02 -0.16433064502E+02  0.54367108278E+02  0.40000054941E+02 0.  0.
        -12    1    3    3    0    0  0.43611045799E+01 -0.32660576008E+02  0.16433064502E+02  0.36820891722E+02  0.00000000000E+00 0.  1.
         11    1    4    4    0    0 -0.38700135835E+01  0.33936497384E+02 -0.19504888882E+02  0.39333237222E+02  0.51100000000E-03 0. -1.
        -11    1    4    4    0    0 -0.51957887988E+01  0.20125203799E+01  0.63304785552E+01  0.84333515592E+01  0.51100000000E-03 0.  1.
         12    1    4    4    0    0  0.47046978025E+01 -0.32884417557E+01 -0.32586541750E+01  0.66005194966E+01  0.00000000000E+00 0. -1.
</event>
<event>
 8    1  0.1253488E-006  0.9118800E+02  0.7816164E-02  0.1184000E+00
        -11   -1    0    0    0    0  0.00000000000E+00  0.00000000000E+00  0.45593999997E+02  0.45594000000E+02  0.51100000000E-03 0.  1.
         11   -1    0    0    0    0 -0.00000000000E+00 -0.00000000000E+00 -0.45593999997E+02  0.45594000000E+02  0.51100000000E-03 0. -1.
         23    2    1    2    0    0  0.35527136788E-14  0.00000000000E+00  0.00000000000E+00  0.91188000000E+02  0.91188000000E+02 0.  0.
    9900012    2    3    3    0    0  0.17798534612E+02 -0.30088816801E+02  0.11560703073E+02  0.54367155545E+02  0.40000162695E+02 0.  0.
         12    1    3    3    0    0 -0.17798534612E+02  0.30088816801E+02 -0.11560703073E+02  0.36820844455E+02  0.00000000000E+00 0. -1.
         11    1    4    4    0    0 -0.29808692571E+01 -0.22088585277E+00 -0.35180427499E+01  0.46163835564E+01  0.51100000000E-03 0. -1.
        -11    1    4    4    0    0  0.12257258587E+02 -0.73743579322E+01 -0.80221677381E+01  0.16400509701E+02  0.51100000000E-03 0.  1.
         12    1    4    4    0    0  0.85221452822E+01 -0.22493573016E+02  0.23100913561E+02  0.33350262287E+02  0.00000000000E+00 0. -1.
</event>
<event>
 8    1  0.1253488E-006  0.9118800E+02  0.7816164E-02  0.1184000E+00
        -11   -1    0    0    0    0  0.00000000000E+00  0.00000000000E+00  0.45593999997E+02  0.45594000000E+02  0.51100000000E-03 0.  1.
         11   -1    0    0    0    0 -0.00000000000E+00 -0.00000000000E+00 -0.45593999997E+02  0.45594000000E+02  0.51100000000E-03 0. -1.
         23    2    1    2    0    0  0.00000000000E+00 -0.17763568394E-14  0.00000000000E+00  0.91188000000E+02  0.91188000000E+02 0.  0.
    9900012    2    3    3    0    0  0.33306167873E+02  0.14613815213E+02 -0.57372104106E+01  0.54367082075E+02  0.39999995208E+02 0.  0.
         12    1    3    3    0    0 -0.33306167873E+02 -0.14613815213E+02  0.57372104106E+01  0.36820917925E+02  0.00000000000E+00 0. -1.
         11    1    4    4    0    0  0.13161587525E+02  0.11467744728E+01  0.21364045479E+01  0.13383075227E+02  0.51100000000E-03 0. -1.
        -11    1    4    4    0    0  0.24103595551E+02  0.73330186797E+01 -0.16166697652E+02  0.29935240013E+02  0.51100000000E-03 0.  1.
         12    1    4    4    0    0 -0.39590152026E+01  0.61340220610E+01  0.82930826933E+01  0.11048766835E+02  0.00000000000E+00 0. -1.
</event>
<event>
 8    1  0.1253488E-006  0.9118800E+02  0.7816164E-02  0.1184000E+00
        -11   -1    0    0    0    0  0.00000000000E+00  0.00000000000E+00  0.45593999997E+02  0.45594000000E+02  0.51100000000E-03 0. -1.
         11   -1    0    0    0    0 -0.00000000000E+00 -0.00000000000E+00 -0.45593999997E+02  0.45594000000E+02  0.51100000000E-03 0.  1.
         23    2    1    2    0    0 -0.88817841970E-15  0.88817841970E-15  0.00000000000E+00  0.91188000000E+02  0.91188000000E+02 0.  0.
    9900012    2    3    3    0    0  0.30468412739E+01 -0.74561453224E+01 -0.35929137067E+02  0.54367078839E+02  0.39999987829E+02 0.  0.
         12    1    3    3    0    0 -0.30468412739E+01  0.74561453224E+01  0.35929137067E+02  0.36820921161E+02  0.00000000000E+00 0. -1.
         11    1    4    4    0    0 -0.12972480327E+02 -0.25661422691E+01 -0.87981017633E+01  0.15883227848E+02  0.51100000000E-03 0. -1.
        -11    1    4    4    0    0  0.18235216931E+02 -0.52490895763E+01 -0.10470438848E+02  0.21672705596E+02  0.51100000000E-03 0.  1.
         12    1    4    4    0    0 -0.22158953304E+01  0.35908652300E+00 -0.16660596455E+02  0.16811145395E+02  0.00000000000E+00 0. -1.
</event>
<event>
 8    1  0.1253488E-006  0.9118800E+02  0.7816164E-02  0.1184000E+00
        -11   -1    0    0    0    0  0.00000000000E+00  0.00000000000E+00  0.45593999997E+02  0.45594000000E+02  0.51100000000E-03 0.  1.
         11   -1    0    0    0    0 -0.00000000000E+00 -0.00000000000E+00 -0.45593999997E+02  0.45594000000E+02  0.51100000000E-03 0. -1.
         23    2    1    2    0    0  0.00000000000E+00  0.00000000000E+00  0.00000000000E+00  0.91188000000E+02  0.91188000000E+02 0.  0.
    9900012    2    3    3    0    0  0.33141719678E+02 -0.10034978582E+02 -0.12518210050E+02  0.54367082559E+02  0.39999996309E+02 0.  0.
         12    1    3    3    0    0 -0.33141719678E+02  0.10034978582E+02  0.12518210050E+02  0.36820917441E+02  0.00000000000E+00 0. -1.
         11    1    4    4    0    0  0.28792459223E+02 -0.15191152175E+02 -0.30705656029E+01  0.32698703123E+02  0.51100000000E-03 0. -1.
        -11    1    4    4    0    0  0.89702667794E+01 -0.31362763098E+01 -0.22777074561E+01  0.97718916645E+01  0.51100000000E-03 0.  1.
         12    1    4    4    0    0 -0.46210063245E+01  0.82924499025E+01 -0.71699369912E+01  0.11896487771E+02  0.00000000000E+00 0. -1.
</event>
<event>
 8    1  0.1253488E-006  0.9118800E+02  0.7816164E-02  0.1184000E+00
        -11   -1    0    0    0    0  0.00000000000E+00  0.00000000000E+00  0.45593999997E+02  0.45594000000E+02  0.51100000000E-03 0.  1.
         11   -1    0    0    0    0 -0.00000000000E+00 -0.00000000000E+00 -0.45593999997E+02  0.45594000000E+02  0.51100000000E-03 0. -1.
         23    2    1    2    0    0  0.00000000000E+00  0.88817841970E-15  0.00000000000E+00  0.91188000000E+02  0.91188000000E+02 0.  0.
    9900012    2    3    3    0    0 -0.20295847813E+02 -0.65771965319E+01 -0.30009967705E+02  0.54367094059E+02  0.40000022525E+02 0.  0.
        -12    1    3    3    0    0  0.20295847813E+02  0.65771965319E+01  0.30009967705E+02  0.36820905941E+02  0.00000000000E+00 0.  1.
         11    1    4    4    0    0  0.75488640910E+00 -0.51441778114E+01 -0.12562850906E+02  0.13596236317E+02  0.51100000000E-03 0. -1.
        -11    1    4    4    0    0 -0.42614037947E+01  0.12785201634E+02 -0.14201053366E+01  0.13551296711E+02  0.51100000000E-03 0.  1.
         12    1    4    4    0    0 -0.16789330427E+02 -0.14218220355E+02 -0.16027011463E+02  0.27219561030E+02  0.00000000000E+00 0. -1.
</event>
<event>
 8    1  0.1253488E-006  0.9118800E+02  0.7816164E-02  0.1184000E+00
        -11   -1    0    0    0    0  0.00000000000E+00  0.00000000000E+00  0.45593999997E+02  0.45594000000E+02  0.51100000000E-03 0.  1.
         11   -1    0    0    0    0 -0.00000000000E+00 -0.00000000000E+00 -0.45593999997E+02  0.45594000000E+02  0.51100000000E-03 0. -1.
         23    2    1    2    0    0 -0.35527136788E-14  0.35527136788E-14  0.00000000000E+00  0.91188000000E+02  0.91188000000E+02 0.  0.
    9900012    2    3    3    0    0 -0.28947039609E+02  0.20454542754E+02 -0.99730260740E+01  0.54367072928E+02  0.39999974353E+02 0.  0.
        -12    1    3    3    0    0  0.28947039609E+02 -0.20454542754E+02  0.99730260740E+01  0.36820927072E+02  0.00000000000E+00 0.  1.
         11    1    4    4    0    0 -0.16412935938E+02  0.15176411496E+02 -0.16980106043E+02  0.28071906482E+02  0.51100000000E-03 0. -1.
        -11    1    4    4    0    0 -0.72175830866E+01  0.12739541240E+02  0.86222193522E+01  0.16992118274E+02  0.51100000000E-03 0.  1.
        -12    1    4    4    0    0 -0.53165205846E+01 -0.74614099829E+01 -0.16151393830E+01  0.93030481718E+01  0.00000000000E+00 0.  1.
</event>
<event>
 8    1  0.1253488E-006  0.9118800E+02  0.7816164E-02  0.1184000E+00
        -11   -1    0    0    0    0  0.00000000000E+00  0.00000000000E+00  0.45593999997E+02  0.45594000000E+02  0.51100000000E-03 0.  1.
         11   -1    0    0    0    0 -0.00000000000E+00 -0.00000000000E+00 -0.45593999997E+02  0.45594000000E+02  0.51100000000E-03 0. -1.
         23    2    1    2    0    0 -0.17763568394E-14  0.00000000000E+00  0.00000000000E+00  0.91188000000E+02  0.91188000000E+02 0.  0.
    9900012    2    3    3    0    0 -0.11318900136E+02  0.27321312738E+02  0.21936411379E+02  0.54367112256E+02  0.40000064010E+02 0.  0.
         12    1    3    3    0    0  0.11318900136E+02 -0.27321312738E+02 -0.21936411379E+02  0.36820887744E+02  0.00000000000E+00 0. -1.
         11    1    4    4    0    0 -0.16939281587E+02 -0.19658294875E+01  0.10734824871E+02  0.20150439487E+02  0.51100000000E-03 0. -1.
        -11    1    4    4    0    0  0.36093155889E+01  0.10410321143E+02  0.10499926119E+02  0.15220065508E+02  0.51100000000E-03 0.  1.
         12    1    4    4    0    0  0.20110658625E+01  0.18876821083E+02  0.70166038943E+00  0.18996607261E+02  0.00000000000E+00 0. -1.
</event>
<event>
 8    1  0.1253488E-006  0.9118800E+02  0.7816164E-02  0.1184000E+00
        -11   -1    0    0    0    0  0.00000000000E+00  0.00000000000E+00  0.45593999997E+02  0.45594000000E+02  0.51100000000E-03 0.  1.
         11   -1    0    0    0    0 -0.00000000000E+00 -0.00000000000E+00 -0.45593999997E+02  0.45594000000E+02  0.51100000000E-03 0. -1.
         23    2    1    2    0    0  0.35527136788E-14  0.00000000000E+00 -0.88817841970E-15  0.91188000000E+02  0.91188000000E+02 0.  0.
    9900012    2    3    3    0    0  0.20674739689E+02 -0.29920610789E+02 -0.57525814805E+01  0.54367081965E+02  0.39999994956E+02 0.  0.
        -12    1    3    3    0    0 -0.20674739689E+02  0.29920610789E+02  0.57525814805E+01  0.36820918035E+02  0.00000000000E+00 0.  1.
         11    1    4    4    0    0 -0.73693206635E+00 -0.14857503237E+02 -0.41274467702E+01  0.15437755291E+02  0.51100000000E-03 0. -1.
        -11    1    4    4    0    0 -0.71905718903E+01 -0.39762454298E+01 -0.15226637757E+00  0.82181529031E+01  0.51100000000E-03 0.  1.
        -12    1    4    4    0    0  0.28602243646E+02 -0.11086862122E+02 -0.14728683327E+01  0.30711173772E+02  0.00000000000E+00 0.  1.
</event>
<event>
 8    1  0.1253488E-006  0.9118800E+02  0.7816164E-02  0.1184000E+00
        -11   -1    0    0    0    0  0.00000000000E+00  0.00000000000E+00  0.45593999997E+02  0.45594000000E+02  0.51100000000E-03 0.  1.
         11   -1    0    0    0    0 -0.00000000000E+00 -0.00000000000E+00 -0.45593999997E+02  0.45594000000E+02  0.51100000000E-03 0. -1.
         23    2    1    2    0    0  0.88817841970E-15  0.00000000000E+00  0.00000000000E+00  0.91188000000E+02  0.91188000000E+02 0.  0.
    9900012    2    3    3    0    0  0.70348791088E+01  0.24977720243E+02  0.26122839275E+02  0.54367098810E+02  0.40000033358E+02 0.  0.
        -12    1    3    3    0    0 -0.70348791088E+01 -0.24977720243E+02 -0.26122839275E+02  0.36820901190E+02  0.00000000000E+00 0.  1.
         11    1    4    4    0    0  0.73853827963E+01  0.19287763805E+02  0.13143619654E+02  0.24480940535E+02  0.51100000000E-03 0. -1.
        -11    1    4    4    0    0 -0.61148554162E+01 -0.83969171187E+01  0.99154774883E+01  0.14360235651E+02  0.51100000000E-03 0.  1.
         12    1    4    4    0    0  0.57643517288E+01  0.14086873557E+02  0.30637421333E+01  0.15525922624E+02  0.00000000000E+00 0. -1.
</event>
<event>
 8    1  0.1253488E-006  0.9118800E+02  0.7816164E-02  0.1184000E+00
        -11   -1    0    0    0    0  0.00000000000E+00  0.00000000000E+00  0.45593999997E+02  0.45594000000E+02  0.51100000000E-03 0.  1.
         11   -1    0    0    0    0 -0.00000000000E+00 -0.00000000000E+00 -0.45593999997E+02  0.45594000000E+02  0.51100000000E-03 0. -1.
         23    2    1    2    0    0  0.00000000000E+00  0.00000000000E+00  0.35527136788E-14  0.91188000000E+02  0.91188000000E+02 0.  0.
    9900012    2    3    3    0    0 -0.20532486636E+02 -0.93567058532E+01  0.29097208408E+02  0.54367102550E+02  0.40000041882E+02 0.  0.
         12    1    3    3    0    0  0.20532486636E+02  0.93567058532E+01 -0.29097208408E+02  0.36820897450E+02  0.00000000000E+00 0. -1.
         11    1    4    4    0    0 -0.24596295457E+00  0.80323893735E+01  0.10632677523E+02  0.13327925884E+02  0.51100000000E-03 0. -1.
        -11    1    4    4    0    0 -0.10471460674E+02 -0.22152326400E+02  0.17452226849E+02  0.30082507805E+02  0.51100000000E-03 0.  1.
        -12    1    4    4    0    0 -0.98150630077E+01  0.47632311729E+01  0.10123040364E+01  0.10956668860E+02  0.00000000000E+00 0.  1.
</event>
<event>
 8    1  0.1253488E-006  0.9118800E+02  0.7816164E-02  0.1184000E+00
        -11   -1    0    0    0    0  0.00000000000E+00  0.00000000000E+00  0.45593999997E+02  0.45594000000E+02  0.51100000000E-03 0. -1.
         11   -1    0    0    0    0 -0.00000000000E+00 -0.00000000000E+00 -0.45593999997E+02  0.45594000000E+02  0.51100000000E-03 0.  1.
         23    2    1    2    0    0  0.35527136788E-14  0.88817841970E-15  0.00000000000E+00  0.91188000000E+02  0.91188000000E+02 0.  0.
    9900012    2    3    3    0    0 -0.10143788737E+02 -0.49512384450E+01  0.35048093134E+02  0.54367081429E+02  0.39999993735E+02 0.  0.
        -12    1    3    3    0    0  0.10143788737E+02  0.49512384450E+01 -0.35048093134E+02  0.36820918571E+02  0.00000000000E+00 0.  1.
         11    1    4    4    0    0  0.25617702942E+01 -0.96524321305E+01  0.20209419994E+02  0.22542244117E+02  0.51100000000E-03 0. -1.
        -11    1    4    4    0    0  0.53447574762E+01 -0.54709790986E+00 -0.27902031986E+01  0.60540055131E+01  0.51100000000E-03 0.  1.
         12    1    4    4    0    0 -0.18050316507E+02  0.52482915954E+01  0.17628876338E+02  0.25770831799E+02  0.00000000000E+00 0. -1.
</event>
<event>
 8    1  0.1253488E-006  0.9118800E+02  0.7816164E-02  0.1184000E+00
        -11   -1    0    0    0    0  0.00000000000E+00  0.00000000000E+00  0.45593999997E+02  0.45594000000E+02  0.51100000000E-03 0.  1.
         11   -1    0    0    0    0 -0.00000000000E+00 -0.00000000000E+00 -0.45593999997E+02  0.45594000000E+02  0.51100000000E-03 0. -1.
         23    2    1    2    0    0 -0.35527136788E-14  0.88817841970E-15  0.00000000000E+00  0.91188000000E+02  0.91188000000E+02 0.  0.
    9900012    2    3    3    0    0  0.25647395971E+02 -0.53570538098E+01 -0.25870501721E+02  0.54367220474E+02  0.40000310712E+02 0.  0.
        -12    1    3    3    0    0 -0.25647395971E+02  0.53570538098E+01  0.25870501721E+02  0.36820779526E+02  0.00000000000E+00 0.  1.
         11    1    4    4    0    0  0.12216326545E+02  0.25679142678E+01 -0.25459320688E+02  0.28355067062E+02  0.51100000000E-03 0. -1.
        -11    1    4    4    0    0  0.17350645703E+02 -0.74626900715E+01 -0.54063079083E+01  0.19645987246E+02  0.51100000000E-03 0.  1.
        -12    1    4    4    0    0 -0.39195762769E+01 -0.46227800609E+00  0.49951268750E+01  0.63661661652E+01  0.00000000000E+00 0.  1.
</event>
<event>
 8    1  0.1253488E-006  0.9118800E+02  0.7816164E-02  0.1184000E+00
        -11   -1    0    0    0    0  0.00000000000E+00  0.00000000000E+00  0.45593999997E+02  0.45594000000E+02  0.51100000000E-03 0. -1.
         11   -1    0    0    0    0 -0.00000000000E+00 -0.00000000000E+00 -0.45593999997E+02  0.45594000000E+02  0.51100000000E-03 0.  1.
         23    2    1    2    0    0  0.00000000000E+00  0.00000000000E+00  0.35527136788E-14  0.91188000000E+02  0.91188000000E+02 0.  0.
    9900012    2    3    3    0    0  0.23210303826E+02  0.15114590203E+02 -0.24261331462E+02  0.54367065126E+02  0.39999956567E+02 0.  0.
         12    1    3    3    0    0 -0.23210303826E+02 -0.15114590203E+02  0.24261331462E+02  0.36820934874E+02  0.00000000000E+00 0. -1.
         11    1    4    4    0    0  0.20234290010E+01 -0.84537538927E+00  0.26609735708E+01  0.34481451646E+01  0.51100000000E-03 0. -1.
        -11    1    4    4    0    0 -0.87398881597E+01  0.59959048862E+01 -0.12045595945E+02  0.16044715715E+02  0.51100000000E-03 0.  1.
        -12    1    4    4    0    0  0.29926762985E+02  0.99640607059E+01 -0.14876709088E+02  0.34874204246E+02  0.00000000000E+00 0.  1.
</event>
<event>
 8    1  0.1253488E-006  0.9118800E+02  0.7816164E-02  0.1184000E+00
        -11   -1    0    0    0    0  0.00000000000E+00  0.00000000000E+00  0.45593999997E+02  0.45594000000E+02  0.51100000000E-03 0. -1.
         11   -1    0    0    0    0 -0.00000000000E+00 -0.00000000000E+00 -0.45593999997E+02  0.45594000000E+02  0.51100000000E-03 0.  1.
         23    2    1    2    0    0 -0.71054273576E-14  0.17763568394E-14  0.17763568394E-14  0.91188000000E+02  0.91188000000E+02 0.  0.
    9900012    2    3    3    0    0  0.32615321667E+02 -0.15069896922E+02  0.80571983802E+01  0.54367089549E+02  0.40000012245E+02 0.  0.
        -12    1    3    3    0    0 -0.32615321667E+02  0.15069896922E+02 -0.80571983802E+01  0.36820910451E+02  0.00000000000E+00 0.  1.
         11    1    4    4    0    0  0.20943218253E+02 -0.12702009869E+02  0.78911770716E+01  0.25733832232E+02  0.51100000000E-03 0. -1.
        -11    1    4    4    0    0  0.13167218193E+02 -0.34797547416E+00 -0.11016714876E+02  0.17171625689E+02  0.51100000000E-03 0.  1.
        -12    1    4    4    0    0 -0.14951147791E+01 -0.20199115793E+01  0.11182736185E+02  0.11461631628E+02  0.00000000000E+00 0.  1.
</event>
<event>
 8    1  0.1253488E-006  0.9118800E+02  0.7816164E-02  0.1184000E+00
        -11   -1    0    0    0    0  0.00000000000E+00  0.00000000000E+00  0.45593999997E+02  0.45594000000E+02  0.51100000000E-03 0. -1.
         11   -1    0    0    0    0 -0.00000000000E+00 -0.00000000000E+00 -0.45593999997E+02  0.45594000000E+02  0.51100000000E-03 0.  1.
         23    2    1    2    0    0  0.00000000000E+00  0.00000000000E+00 -0.88817841970E-15  0.91188000000E+02  0.91188000000E+02 0.  0.
    9900012    2    3    3    0    0  0.35854203994E+02  0.43909220858E+01  0.71397181015E+01  0.54367085897E+02  0.40000003919E+02 0.  0.
        -12    1    3    3    0    0 -0.35854203994E+02 -0.43909220858E+01 -0.71397181015E+01  0.36820914103E+02  0.00000000000E+00 0.  1.
         11    1    4    4    0    0  0.28203314801E+02  0.10778170506E+02  0.15533810836E+02  0.33954310545E+02  0.51100000000E-03 0. -1.
        -11    1    4    4    0    0  0.18780019408E+01 -0.25319701478E+01  0.46609105696E+01  0.56268865030E+01  0.51100000000E-03 0.  1.
        -12    1    4    4    0    0  0.57728872520E+01 -0.38552782726E+01 -0.13055003304E+02  0.14785888849E+02  0.00000000000E+00 0.  1.
</event>
<event>
 8    1  0.1253488E-006  0.9118800E+02  0.7816164E-02  0.1184000E+00
        -11   -1    0    0    0    0  0.00000000000E+00  0.00000000000E+00  0.45593999997E+02  0.45594000000E+02  0.51100000000E-03 0.  1.
         11   -1    0    0    0    0 -0.00000000000E+00 -0.00000000000E+00 -0.45593999997E+02  0.45594000000E+02  0.51100000000E-03 0. -1.
         23    2    1    2    0    0 -0.17208456882E-14 -0.73552275381E-15  0.00000000000E+00  0.91188000000E+02  0.91188000000E+02 0.  0.
    9900012    2    3    3    0    0  0.37867384334E+00  0.11307573185E+00  0.36818791540E+02  0.54367087594E+02  0.40000007787E+02 0.  0.
         12    1    3    3    0    0 -0.37867384334E+00 -0.11307573185E+00 -0.36818791540E+02  0.36820912406E+02  0.00000000000E+00 0. -1.
         11    1    4    4    0    0 -0.24336470614E+01 -0.29088019371E+01 -0.46201157128E+01  0.59773937623E+01  0.51100000000E-03 0. -1.
        -11    1    4    4    0    0 -0.71675054502E+01  0.90438628015E+01  0.11632855094E+02  0.16385600588E+02  0.51100000000E-03 0.  1.
        -12    1    4    4    0    0  0.99798263549E+01 -0.60219851325E+01  0.29806052159E+02  0.32004093243E+02  0.00000000000E+00 0.  1.
</event>
<event>
 8    1  0.1253488E-006  0.9118800E+02  0.7816164E-02  0.1184000E+00
        -11   -1    0    0    0    0  0.00000000000E+00  0.00000000000E+00  0.45593999997E+02  0.45594000000E+02  0.51100000000E-03 0.  1.
         11   -1    0    0    0    0 -0.00000000000E+00 -0.00000000000E+00 -0.45593999997E+02  0.45594000000E+02  0.51100000000E-03 0. -1.
         23    2    1    2    0    0 -0.35527136788E-14  0.00000000000E+00 -0.35527136788E-14  0.91188000000E+02  0.91188000000E+02 0.  0.
    9900012    2    3    3    0    0  0.18905710463E+02 -0.27099022390E+02  0.16247953503E+02  0.54367097028E+02  0.40000029295E+02 0.  0.
         12    1    3    3    0    0 -0.18905710463E+02  0.27099022390E+02 -0.16247953503E+02  0.36820902972E+02  0.00000000000E+00 0. -1.
         11    1    4    4    0    0 -0.35607512799E+01 -0.49133756416E+00 -0.60986807118E+01  0.70791432367E+01  0.51100000000E-03 0. -1.
        -11    1    4    4    0    0  0.10878215024E+02 -0.20976690182E+02  0.26858394500E+01  0.23781733051E+02  0.51100000000E-03 0.  1.
         12    1    4    4    0    0  0.11588246719E+02 -0.56309946443E+01  0.19660794765E+02  0.23506220741E+02  0.00000000000E+00 0. -1.
</event>
<event>
 8    1  0.1253488E-006  0.9118800E+02  0.7816164E-02  0.1184000E+00
        -11   -1    0    0    0    0  0.00000000000E+00  0.00000000000E+00  0.45593999997E+02  0.45594000000E+02  0.51100000000E-03 0. -1.
         11   -1    0    0    0    0 -0.00000000000E+00 -0.00000000000E+00 -0.45593999997E+02  0.45594000000E+02  0.51100000000E-03 0.  1.
         23    2    1    2    0    0 -0.17763568394E-14  0.00000000000E+00  0.00000000000E+00  0.91188000000E+02  0.91188000000E+02 0.  0.
    9900012    2    3    3    0    0 -0.12942958458E+02 -0.32975934461E+02 -0.10042798874E+02  0.54366943029E+02  0.39999678223E+02 0.  0.
         12    1    3    3    0    0  0.12942958458E+02  0.32975934461E+02  0.10042798874E+02  0.36821056971E+02  0.00000000000E+00 0. -1.
         11    1    4    4    0    0  0.76340706343E+01 -0.77635181123E+01  0.22143098192E+01  0.11111004283E+02  0.51100000000E-03 0. -1.
        -11    1    4    4    0    0 -0.25480055598E+02 -0.25574774370E+02 -0.85537582835E+01  0.37100796465E+02  0.51100000000E-03 0.  1.
        -12    1    4    4    0    0  0.49030265056E+01  0.36235802136E+00 -0.37033504095E+01  0.61551422815E+01  0.00000000000E+00 0.  1.
</event>
<event>
 8    1  0.1253488E-006  0.9118800E+02  0.7816164E-02  0.1184000E+00
        -11   -1    0    0    0    0  0.00000000000E+00  0.00000000000E+00  0.45593999997E+02  0.45594000000E+02  0.51100000000E-03 0.  1.
         11   -1    0    0    0    0 -0.00000000000E+00 -0.00000000000E+00 -0.45593999997E+02  0.45594000000E+02  0.51100000000E-03 0. -1.
         23    2    1    2    0    0  0.71054273576E-14 -0.22204460493E-15  0.17763568394E-14  0.91188000000E+02  0.91188000000E+02 0.  0.
    9900012    2    3    3    0    0  0.33900491730E+02  0.11547560665E+01 -0.14324894528E+02  0.54367090120E+02  0.40000013548E+02 0.  0.
        -12    1    3    3    0    0 -0.33900491730E+02 -0.11547560665E+01  0.14324894528E+02  0.36820909880E+02  0.00000000000E+00 0.  1.
         11    1    4    4    0    0  0.35248041203E+02  0.45590215546E+01 -0.19678019547E+01  0.35596085894E+02  0.51100000000E-03 0. -1.
        -11    1    4    4    0    0  0.42864342964E+01  0.30681232669E+01 -0.29602185780E+01  0.60456425340E+01  0.51100000000E-03 0.  1.
        -12    1    4    4    0    0 -0.56339837694E+01 -0.64723887551E+01 -0.93968739956E+01  0.12725361692E+02  0.00000000000E+00 0.  1.
</event>
<event>
 8    1  0.1253488E-006  0.9118800E+02  0.7816164E-02  0.1184000E+00
        -11   -1    0    0    0    0  0.00000000000E+00  0.00000000000E+00  0.45593999997E+02  0.45594000000E+02  0.51100000000E-03 0.  1.
         11   -1    0    0    0    0 -0.00000000000E+00 -0.00000000000E+00 -0.45593999997E+02  0.45594000000E+02  0.51100000000E-03 0. -1.
         23    2    1    2    0    0  0.00000000000E+00  0.00000000000E+00  0.71054273576E-14  0.91188000000E+02  0.91188000000E+02 0.  0.
    9900012    2    3    3    0    0  0.13342246349E+02  0.57751339628E+01 -0.33829159486E+02  0.54367085543E+02  0.40000003113E+02 0.  0.
        -12    1    3    3    0    0 -0.13342246349E+02 -0.57751339628E+01  0.33829159486E+02  0.36820914457E+02  0.00000000000E+00 0.  1.
         11    1    4    4    0    0  0.60400989880E+01  0.55517398674E+01 -0.30550220305E+02  0.31632587189E+02  0.51100000000E-03 0. -1.
        -11    1    4    4    0    0  0.14741645409E+02  0.97112609716E+00 -0.37519129002E+01  0.15242573468E+02  0.51100000000E-03 0.  1.
         12    1    4    4    0    0 -0.74394980483E+01 -0.74773200182E+00  0.47297371904E+00  0.74919248859E+01  0.00000000000E+00 0. -1.
</event>
<event>
 8    1  0.1253488E-006  0.9118800E+02  0.7816164E-02  0.1184000E+00
        -11   -1    0    0    0    0  0.00000000000E+00  0.00000000000E+00  0.45593999997E+02  0.45594000000E+02  0.51100000000E-03 0.  1.
         11   -1    0    0    0    0 -0.00000000000E+00 -0.00000000000E+00 -0.45593999997E+02  0.45594000000E+02  0.51100000000E-03 0. -1.
         23    2    1    2    0    0 -0.44408920985E-15 -0.35527136788E-14 -0.71054273576E-14  0.91188000000E+02  0.91188000000E+02 0.  0.
    9900012    2    3    3    0    0  0.34600884209E+01  0.12379141217E+02  0.34504662620E+02  0.54366985733E+02  0.39999775574E+02 0.  0.
         12    1    3    3    0    0 -0.34600884209E+01 -0.12379141217E+02 -0.34504662620E+02  0.36821014267E+02  0.00000000000E+00 0. -1.
         11    1    4    4    0    0  0.21681949516E+01 -0.88305204250E+00  0.94708297590E+00  0.25254339592E+01  0.51100000000E-03 0.  1.
        -11    1    4    4    0    0  0.15566792625E+02  0.18511253324E+02  0.18621456382E+02  0.30524583049E+02  0.51100000000E-03 0. -1.
        -12    1    4    4    0    0 -0.14274899156E+02 -0.52490600650E+01  0.14936123262E+02  0.21316968724E+02  0.00000000000E+00 0.  1.
</event>
<event>
 8    1  0.1253488E-006  0.9118800E+02  0.7816164E-02  0.1184000E+00
        -11   -1    0    0    0    0  0.00000000000E+00  0.00000000000E+00  0.45593999997E+02  0.45594000000E+02  0.51100000000E-03 0.  1.
         11   -1    0    0    0    0 -0.00000000000E+00 -0.00000000000E+00 -0.45593999997E+02  0.45594000000E+02  0.51100000000E-03 0. -1.
         23    2    1    2    0    0  0.00000000000E+00  0.00000000000E+00  0.00000000000E+00  0.91188000000E+02  0.91188000000E+02 0.  0.
    9900012    2    3    3    0    0  0.20567381151E+02  0.29447850532E+02  0.80985402843E+01  0.54367089866E+02  0.40000012967E+02 0.  0.
         12    1    3    3    0    0 -0.20567381151E+02 -0.29447850532E+02 -0.80985402843E+01  0.36820910134E+02  0.00000000000E+00 0. -1.
         11    1    4    4    0    0 -0.96951873865E+01  0.12508426047E+02  0.84537449336E+01  0.17942217931E+02  0.51100000000E-03 0. -1.
        -11    1    4    4    0    0  0.16427511758E+02  0.13007796218E+02  0.41337995897E+01  0.21357766839E+02  0.51100000000E-03 0.  1.
         12    1    4    4    0    0  0.13835056779E+02  0.39316282672E+01 -0.44890042389E+01  0.15067105096E+02  0.00000000000E+00 0. -1.
</event>
<event>
 8    1  0.1253488E-006  0.9118800E+02  0.7816164E-02  0.1184000E+00
        -11   -1    0    0    0    0  0.00000000000E+00  0.00000000000E+00  0.45593999997E+02  0.45594000000E+02  0.51100000000E-03 0. -1.
         11   -1    0    0    0    0 -0.00000000000E+00 -0.00000000000E+00 -0.45593999997E+02  0.45594000000E+02  0.51100000000E-03 0.  1.
         23    2    1    2    0    0  0.00000000000E+00  0.00000000000E+00  0.00000000000E+00  0.91188000000E+02  0.91188000000E+02 0.  0.
    9900012    2    3    3    0    0 -0.30983128951E+02  0.14433868205E+02  0.13692673434E+02  0.54367080176E+02  0.39999990876E+02 0.  0.
        -12    1    3    3    0    0  0.30983128951E+02 -0.14433868205E+02 -0.13692673434E+02  0.36820919824E+02  0.00000000000E+00 0.  1.
         11    1    4    4    0    0 -0.58823927998E+01  0.18729007966E+02  0.11677138007E+02  0.22841493750E+02  0.51100000000E-03 0. -1.
        -11    1    4    4    0    0 -0.50496270252E+01 -0.17858274053E+01 -0.74786813017E+01  0.91988361703E+01  0.51100000000E-03 0.  1.
        -12    1    4    4    0    0 -0.20051109126E+02 -0.25093123555E+01  0.94942167287E+01  0.22326750255E+02  0.00000000000E+00 0.  1.
</event>
<event>
 8    1  0.1253488E-006  0.9118800E+02  0.7816164E-02  0.1184000E+00
        -11   -1    0    0    0    0  0.00000000000E+00  0.00000000000E+00  0.45593999997E+02  0.45594000000E+02  0.51100000000E-03 0.  1.
         11   -1    0    0    0    0 -0.00000000000E+00 -0.00000000000E+00 -0.45593999997E+02  0.45594000000E+02  0.51100000000E-03 0. -1.
         23    2    1    2    0    0 -0.35527136788E-14 -0.88817841970E-15  0.71054273576E-14  0.91188000000E+02  0.91188000000E+02 0.  0.
    9900012    2    3    3    0    0 -0.25364681673E+02 -0.29829918517E+01  0.26523858567E+02  0.54367076736E+02  0.39999983035E+02 0.  0.
         12    1    3    3    0    0  0.25364681673E+02  0.29829918517E+01 -0.26523858567E+02  0.36820923264E+02  0.00000000000E+00 0. -1.
         11    1    4    4    0    0 -0.21024978439E+02 -0.89294209945E+01  0.35254047338E+01  0.23113042995E+02  0.51100000000E-03 0. -1.
        -11    1    4    4    0    0 -0.95405012100E+01  0.10625858747E+01  0.30565950267E+01  0.10074374695E+02  0.51100000000E-03 0.  1.
        -12    1    4    4    0    0  0.52007979767E+01  0.48838432681E+01  0.19941858806E+02  0.21179659046E+02  0.00000000000E+00 0.  1.
</event>
<event>
 8    1  0.1253488E-006  0.9118800E+02  0.7816164E-02  0.1184000E+00
        -11   -1    0    0    0    0  0.00000000000E+00  0.00000000000E+00  0.45593999997E+02  0.45594000000E+02  0.51100000000E-03 0. -1.
         11   -1    0    0    0    0 -0.00000000000E+00 -0.00000000000E+00 -0.45593999997E+02  0.45594000000E+02  0.51100000000E-03 0.  1.
         23    2    1    2    0    0  0.00000000000E+00  0.35527136788E-14  0.00000000000E+00  0.91188000000E+02  0.91188000000E+02 0.  0.
    9900012    2    3    3    0    0 -0.54300541310E+01  0.18892219389E+02  0.31134861423E+02  0.54367067949E+02  0.39999963003E+02 0.  0.
        -12    1    3    3    0    0  0.54300541310E+01 -0.18892219389E+02 -0.31134861423E+02  0.36820932051E+02  0.00000000000E+00 0.  1.
         11    1    4    4    0    0  0.22777419268E+00 -0.50338117583E+01  0.14242378819E+02  0.15107498026E+02  0.51100000000E-03 0. -1.
        -11    1    4    4    0    0 -0.69102158349E+01  0.40851160722E+00 -0.38112857447E+01  0.79021429946E+01  0.51100000000E-03 0.  1.
         12    1    4    4    0    0  0.12523875112E+01  0.23517519540E+02  0.20703768348E+02  0.31357426929E+02  0.00000000000E+00 0. -1.
</event>
<event>
 8    1  0.1253488E-006  0.9118800E+02  0.7816164E-02  0.1184000E+00
        -11   -1    0    0    0    0  0.00000000000E+00  0.00000000000E+00  0.45593999997E+02  0.45594000000E+02  0.51100000000E-03 0.  1.
         11   -1    0    0    0    0 -0.00000000000E+00 -0.00000000000E+00 -0.45593999997E+02  0.45594000000E+02  0.51100000000E-03 0. -1.
         23    2    1    2    0    0  0.17763568394E-14 -0.71054273576E-14 -0.17763568394E-14  0.91188000000E+02  0.91188000000E+02 0.  0.
    9900012    2    3    3    0    0 -0.11830724435E+02 -0.33810832415E+02 -0.85230233852E+01  0.54367077186E+02  0.39999984060E+02 0.  0.
        -12    1    3    3    0    0  0.11830724435E+02  0.33810832415E+02  0.85230233852E+01  0.36820922814E+02  0.00000000000E+00 0.  1.
         11    1    4    4    0    0 -0.22970293547E+02 -0.21536917871E+02  0.57015389368E+01  0.31999699429E+02  0.51100000000E-03 0. -1.
        -11    1    4    4    0    0  0.54110900915E+01 -0.57810519548E+01 -0.99346708167E+01  0.12704256853E+02  0.51100000000E-03 0.  1.
         12    1    4    4    0    0  0.57284790202E+01 -0.64928625891E+01 -0.42898915053E+01  0.96631209044E+01  0.00000000000E+00 0. -1.
</event>
<event>
 8    1  0.1253488E-006  0.9118800E+02  0.7816164E-02  0.1184000E+00
        -11   -1    0    0    0    0  0.00000000000E+00  0.00000000000E+00  0.45593999997E+02  0.45594000000E+02  0.51100000000E-03 0.  1.
         11   -1    0    0    0    0 -0.00000000000E+00 -0.00000000000E+00 -0.45593999997E+02  0.45594000000E+02  0.51100000000E-03 0. -1.
         23    2    1    2    0    0  0.00000000000E+00  0.00000000000E+00  0.71054273576E-14  0.91188000000E+02  0.91188000000E+02 0.  0.
    9900012    2    3    3    0    0 -0.47827901251E+01  0.85208194270E+01  0.35500698662E+02  0.54367094924E+02  0.40000024499E+02 0.  0.
         12    1    3    3    0    0  0.47827901251E+01 -0.85208194270E+01 -0.35500698662E+02  0.36820905076E+02  0.00000000000E+00 0. -1.
         11    1    4    4    0    0  0.25179670407E-02 -0.24452161978E+01 -0.10131997881E+01  0.26468212380E+01  0.51100000000E-03 0.  1.
        -11    1    4    4    0    0  0.77469332195E+01  0.57068709735E+01 -0.28832523902E+01  0.10044724746E+02  0.51100000000E-03 0. -1.
         12    1    4    4    0    0 -0.12532241312E+02  0.52591646513E+01  0.39397150841E+02  0.41675548940E+02  0.00000000000E+00 0. -1.
</event>
<event>
 8    1  0.1253488E-006  0.9118800E+02  0.7816164E-02  0.1184000E+00
        -11   -1    0    0    0    0  0.00000000000E+00  0.00000000000E+00  0.45593999997E+02  0.45594000000E+02  0.51100000000E-03 0.  1.
         11   -1    0    0    0    0 -0.00000000000E+00 -0.00000000000E+00 -0.45593999997E+02  0.45594000000E+02  0.51100000000E-03 0. -1.
         23    2    1    2    0    0  0.17763568394E-14  0.00000000000E+00  0.00000000000E+00  0.91188000000E+02  0.91188000000E+02 0.  0.
    9900012    2    3    3    0    0  0.15687480066E+02  0.79979962000E+01 -0.32337550012E+02  0.54367053314E+02  0.39999929640E+02 0.  0.
        -12    1    3    3    0    0 -0.15687480066E+02 -0.79979962000E+01  0.32337550012E+02  0.36820946686E+02  0.00000000000E+00 0.  1.
         11    1    4    4    0    0  0.10275635771E+02  0.11002611592E+01 -0.14631905610E+02  0.17913456594E+02  0.51100000000E-03 0. -1.
        -11    1    4    4    0    0  0.12738159941E+02  0.15206553993E+02 -0.69652049319E+01  0.21024130970E+02  0.51100000000E-03 0.  1.
         12    1    4    4    0    0 -0.73263156454E+01 -0.83088189526E+01 -0.10740439470E+02  0.15429465750E+02  0.00000000000E+00 0. -1.
</event>
<event>
 8    1  0.1253488E-006  0.9118800E+02  0.7816164E-02  0.1184000E+00
        -11   -1    0    0    0    0  0.00000000000E+00  0.00000000000E+00  0.45593999997E+02  0.45594000000E+02  0.51100000000E-03 0.  1.
         11   -1    0    0    0    0 -0.00000000000E+00 -0.00000000000E+00 -0.45593999997E+02  0.45594000000E+02  0.51100000000E-03 0. -1.
         23    2    1    2    0    0  0.00000000000E+00  0.35527136788E-14 -0.35527136788E-14  0.91188000000E+02  0.91188000000E+02 0.  0.
    9900012    2    3    3    0    0  0.95297767512E+01  0.25834508123E+02 -0.24444835381E+02  0.54366967536E+02  0.39999734091E+02 0.  0.
        -12    1    3    3    0    0 -0.95297767512E+01 -0.25834508123E+02  0.24444835381E+02  0.36821032464E+02  0.00000000000E+00 0.  1.
         11    1    4    4    0    0 -0.45456304279E+01  0.24883639720E+02 -0.15331544076E+02  0.29578954101E+02  0.51100000000E-03 0. -1.
        -11    1    4    4    0    0  0.73601442948E+01  0.36714209134E+01  0.44934768591E+01  0.93724271194E+01  0.51100000000E-03 0.  1.
        -12    1    4    4    0    0  0.67152628843E+01 -0.27205525104E+01 -0.13606768165E+02  0.15415586315E+02  0.00000000000E+00 0.  1.
</event>
<event>
 8    1  0.1253488E-006  0.9118800E+02  0.7816164E-02  0.1184000E+00
        -11   -1    0    0    0    0  0.00000000000E+00  0.00000000000E+00  0.45593999997E+02  0.45594000000E+02  0.51100000000E-03 0.  1.
         11   -1    0    0    0    0 -0.00000000000E+00 -0.00000000000E+00 -0.45593999997E+02  0.45594000000E+02  0.51100000000E-03 0. -1.
         23    2    1    2    0    0  0.00000000000E+00 -0.35527136788E-14  0.35527136788E-14  0.91188000000E+02  0.91188000000E+02 0.  0.
    9900012    2    3    3    0    0 -0.41691588469E+01  0.22393659560E+02 -0.28929602434E+02  0.54367085143E+02  0.40000002200E+02 0.  0.
        -12    1    3    3    0    0  0.41691588469E+01 -0.22393659560E+02  0.28929602434E+02  0.36820914857E+02  0.00000000000E+00 0.  1.
         11    1    4    4    0    0 -0.83632248544E+00  0.10453011496E+01 -0.92115854156E+01  0.93083508702E+01  0.51100000000E-03 0. -1.
        -11    1    4    4    0    0 -0.95772665885E+01  0.29633028233E+01 -0.23253846075E+02  0.25322846532E+02  0.51100000000E-03 0.  1.
        -12    1    4    4    0    0  0.62444302270E+01  0.18385055587E+02  0.35358290572E+01  0.19735887741E+02  0.00000000000E+00 0.  1.
</event>
<event>
 8    1  0.1253488E-006  0.9118800E+02  0.7816164E-02  0.1184000E+00
        -11   -1    0    0    0    0  0.00000000000E+00  0.00000000000E+00  0.45593999997E+02  0.45594000000E+02  0.51100000000E-03 0. -1.
         11   -1    0    0    0    0 -0.00000000000E+00 -0.00000000000E+00 -0.45593999997E+02  0.45594000000E+02  0.51100000000E-03 0.  1.
         23    2    1    2    0    0 -0.35527136788E-14  0.17763568394E-14  0.35527136788E-14  0.91188000000E+02  0.91188000000E+02 0.  0.
    9900012    2    3    3    0    0 -0.29124217630E+02  0.11403248641E+02  0.19430060008E+02  0.54367063509E+02  0.39999952882E+02 0.  0.
        -12    1    3    3    0    0  0.29124217630E+02 -0.11403248641E+02 -0.19430060008E+02  0.36820936491E+02  0.00000000000E+00 0.  1.
         11    1    4    4    0    0 -0.11833191279E+02 -0.47350083738E+01  0.87288007371E+01  0.15447869844E+02  0.51100000000E-03 0. -1.
        -11    1    4    4    0    0  0.62859785592E+00 -0.74431023061E+01  0.12696458423E+00  0.74706778454E+01  0.51100000000E-03 0.  1.
        -12    1    4    4    0    0 -0.17919624207E+02  0.23581359321E+02  0.10574294687E+02  0.31448515820E+02  0.00000000000E+00 0.  1.
</event>
<event>
 8    1  0.1253488E-006  0.9118800E+02  0.7816164E-02  0.1184000E+00
        -11   -1    0    0    0    0  0.00000000000E+00  0.00000000000E+00  0.45593999997E+02  0.45594000000E+02  0.51100000000E-03 0.  1.
         11   -1    0    0    0    0 -0.00000000000E+00 -0.00000000000E+00 -0.45593999997E+02  0.45594000000E+02  0.51100000000E-03 0. -1.
         23    2    1    2    0    0 -0.17763568394E-14  0.00000000000E+00  0.00000000000E+00  0.91188000000E+02  0.91188000000E+02 0.  0.
    9900012    2    3    3    0    0  0.11886693211E+02  0.11722257521E+02 -0.32818815878E+02  0.54367089195E+02  0.40000011438E+02 0.  0.
        -12    1    3    3    0    0 -0.11886693211E+02 -0.11722257521E+02  0.32818815878E+02  0.36820910805E+02  0.00000000000E+00 0.  1.
         11    1    4    4    0    0 -0.14216372689E+01 -0.53927521011E+01 -0.53775788549E+01  0.77473338866E+01  0.51100000000E-03 0. -1.
        -11    1    4    4    0    0  0.15648731864E+02  0.22509709324E+02 -0.11683585019E+02  0.29800603718E+02  0.51100000000E-03 0.  1.
        -12    1    4    4    0    0 -0.23404013840E+01 -0.53946997027E+01 -0.15757652005E+02  0.16819151590E+02  0.00000000000E+00 0.  1.
</event>
<event>
 8    1  0.1253488E-006  0.9118800E+02  0.7816164E-02  0.1184000E+00
        -11   -1    0    0    0    0  0.00000000000E+00  0.00000000000E+00  0.45593999997E+02  0.45594000000E+02  0.51100000000E-03 0. -1.
         11   -1    0    0    0    0 -0.00000000000E+00 -0.00000000000E+00 -0.45593999997E+02  0.45594000000E+02  0.51100000000E-03 0.  1.
         23    2    1    2    0    0  0.00000000000E+00  0.00000000000E+00  0.88817841970E-15  0.91188000000E+02  0.91188000000E+02 0.  0.
    9900012    2    3    3    0    0 -0.27465643961E+02 -0.24179352814E+02 -0.40959824589E+01  0.54367085114E+02  0.40000002135E+02 0.  0.
         12    1    3    3    0    0  0.27465643961E+02  0.24179352814E+02  0.40959824589E+01  0.36820914886E+02  0.00000000000E+00 0. -1.
         11    1    4    4    0    0  0.29374695260E+01 -0.82559015311E+01  0.33883303157E+01  0.93951806739E+01  0.51100000000E-03 0. -1.
        -11    1    4    4    0    0 -0.25062399431E+02 -0.15176064588E+02 -0.17116784239E+02  0.33932596490E+02  0.51100000000E-03 0.  1.
        -12    1    4    4    0    0 -0.53407140569E+01 -0.74738669472E+00  0.96324714644E+01  0.11039307950E+02  0.00000000000E+00 0.  1.
</event>
<event>
 8    1  0.1253488E-006  0.9118800E+02  0.7816164E-02  0.1184000E+00
        -11   -1    0    0    0    0  0.00000000000E+00  0.00000000000E+00  0.45593999997E+02  0.45594000000E+02  0.51100000000E-03 0.  1.
         11   -1    0    0    0    0 -0.00000000000E+00 -0.00000000000E+00 -0.45593999997E+02  0.45594000000E+02  0.51100000000E-03 0. -1.
         23    2    1    2    0    0  0.71054273576E-14  0.35527136788E-14 -0.35527136788E-14  0.91188000000E+02  0.91188000000E+02 0.  0.
    9900012    2    3    3    0    0 -0.22120845721E+02 -0.14197151748E+02  0.25785499592E+02  0.54367042348E+02  0.39999904641E+02 0.  0.
         12    1    3    3    0    0  0.22120845721E+02  0.14197151748E+02 -0.25785499592E+02  0.36820957652E+02  0.00000000000E+00 0. -1.
         11    1    4    4    0    0 -0.19818346898E+02  0.22590338183E+01 -0.10670819868E+01  0.19975203923E+02  0.51100000000E-03 0. -1.
        -11    1    4    4    0    0  0.13677365977E+00  0.19935398612E+01  0.38276188210E+00  0.20345552663E+01  0.51100000000E-03 0.  1.
        -12    1    4    4    0    0 -0.24392724828E+01 -0.18449725428E+02  0.26469819697E+02  0.32357283158E+02  0.00000000000E+00 0.  1.
</event>
<event>
 8    1  0.1253488E-006  0.9118800E+02  0.7816164E-02  0.1184000E+00
        -11   -1    0    0    0    0  0.00000000000E+00  0.00000000000E+00  0.45593999997E+02  0.45594000000E+02  0.51100000000E-03 0. -1.
         11   -1    0    0    0    0 -0.00000000000E+00 -0.00000000000E+00 -0.45593999997E+02  0.45594000000E+02  0.51100000000E-03 0.  1.
         23    2    1    2    0    0  0.00000000000E+00  0.00000000000E+00  0.00000000000E+00  0.91188000000E+02  0.91188000000E+02 0.  0.
    9900012    2    3    3    0    0  0.17544581584E+02  0.30550317435E+02 -0.10707435344E+02  0.54367035727E+02  0.39999889546E+02 0.  0.
         12    1    3    3    0    0 -0.17544581584E+02 -0.30550317435E+02  0.10707435344E+02  0.36820964273E+02  0.00000000000E+00 0. -1.
         11    1    4    4    0    0  0.13919811295E+01 -0.62382601378E+01  0.36859974755E+01  0.73783520289E+01  0.51100000000E-03 0. -1.
        -11    1    4    4    0    0  0.12545731198E+02  0.37915541548E+02 -0.15810421704E+02  0.42952917211E+02  0.51100000000E-03 0.  1.
        -12    1    4    4    0    0  0.36068692570E+01 -0.11269639752E+01  0.14169888847E+01  0.40357664870E+01  0.00000000000E+00 0.  1.
</event>
<event>
 8    1  0.1253488E-006  0.9118800E+02  0.7816164E-02  0.1184000E+00
        -11   -1    0    0    0    0  0.00000000000E+00  0.00000000000E+00  0.45593999997E+02  0.45594000000E+02  0.51100000000E-03 0.  1.
         11   -1    0    0    0    0 -0.00000000000E+00 -0.00000000000E+00 -0.45593999997E+02  0.45594000000E+02  0.51100000000E-03 0. -1.
         23    2    1    2    0    0  0.00000000000E+00  0.00000000000E+00  0.00000000000E+00  0.91188000000E+02  0.91188000000E+02 0.  0.
    9900012    2    3    3    0    0  0.30748271019E+02  0.96161691701E+01 -0.17828438377E+02  0.54367080740E+02  0.39999992163E+02 0.  0.
         12    1    3    3    0    0 -0.30748271019E+02 -0.96161691701E+01  0.17828438377E+02  0.36820919260E+02  0.00000000000E+00 0. -1.
         11    1    4    4    0    0  0.10541681187E+02 -0.12880122499E+02 -0.14142311737E+02  0.21841006830E+02  0.51100000000E-03 0. -1.
        -11    1    4    4    0    0  0.14178112129E+02  0.75016897422E+01 -0.46513721065E+00  0.16047135739E+02  0.51100000000E-03 0.  1.
         12    1    4    4    0    0  0.60284777036E+01  0.14994601926E+02 -0.32209894288E+01  0.16478938171E+02  0.00000000000E+00 0. -1.
</event>
<event>
 8    1  0.1253488E-006  0.9118800E+02  0.7816164E-02  0.1184000E+00
        -11   -1    0    0    0    0  0.00000000000E+00  0.00000000000E+00  0.45593999997E+02  0.45594000000E+02  0.51100000000E-03 0.  1.
         11   -1    0    0    0    0 -0.00000000000E+00 -0.00000000000E+00 -0.45593999997E+02  0.45594000000E+02  0.51100000000E-03 0. -1.
         23    2    1    2    0    0  0.00000000000E+00  0.00000000000E+00  0.00000000000E+00  0.91188000000E+02  0.91188000000E+02 0.  0.
    9900012    2    3    3    0    0 -0.35323891475E+02  0.92564376450E+01  0.47243712677E+01  0.54367100627E+02  0.40000037498E+02 0.  0.
         12    1    3    3    0    0  0.35323891475E+02 -0.92564376450E+01 -0.47243712677E+01  0.36820899373E+02  0.00000000000E+00 0. -1.
         11    1    4    4    0    0  0.10642056124E+01  0.83911642566E+01  0.66024776604E+01  0.10730185585E+02  0.51100000000E-03 0. -1.
        -11    1    4    4    0    0 -0.15923929488E+02  0.12205649704E+02  0.85302240987E+00  0.20081759448E+02  0.51100000000E-03 0.  1.
        -12    1    4    4    0    0 -0.20464167599E+02 -0.11340376316E+02 -0.27311288026E+01  0.23555155594E+02  0.00000000000E+00 0.  1.
</event>
<event>
 8    1  0.1253488E-006  0.9118800E+02  0.7816164E-02  0.1184000E+00
        -11   -1    0    0    0    0  0.00000000000E+00  0.00000000000E+00  0.45593999997E+02  0.45594000000E+02  0.51100000000E-03 0. -1.
         11   -1    0    0    0    0 -0.00000000000E+00 -0.00000000000E+00 -0.45593999997E+02  0.45594000000E+02  0.51100000000E-03 0.  1.
         23    2    1    2    0    0  0.00000000000E+00  0.00000000000E+00  0.00000000000E+00  0.91188000000E+02  0.91188000000E+02 0.  0.
    9900012    2    3    3    0    0 -0.11117685787E+02  0.75995489941E+01 -0.34269862517E+02  0.54367088019E+02  0.40000008757E+02 0.  0.
         12    1    3    3    0    0  0.11117685787E+02 -0.75995489941E+01  0.34269862517E+02  0.36820911981E+02  0.00000000000E+00 0. -1.
         11    1    4    4    0    0 -0.10432995716E+02 -0.10208105639E+02 -0.28358107547E+02  0.31894123036E+02  0.51100000000E-03 0. -1.
        -11    1    4    4    0    0 -0.33431185735E+01  0.80627690649E+01 -0.83528664444E+01  0.12081186402E+02  0.51100000000E-03 0.  1.
         12    1    4    4    0    0  0.26584285033E+01  0.97448855678E+01  0.24411114745E+01  0.10391778581E+02  0.00000000000E+00 0. -1.
</event>
<event>
 8    1  0.1253488E-006  0.9118800E+02  0.7816164E-02  0.1184000E+00
        -11   -1    0    0    0    0  0.00000000000E+00  0.00000000000E+00  0.45593999997E+02  0.45594000000E+02  0.51100000000E-03 0. -1.
         11   -1    0    0    0    0 -0.00000000000E+00 -0.00000000000E+00 -0.45593999997E+02  0.45594000000E+02  0.51100000000E-03 0.  1.
         23    2    1    2    0    0 -0.35527136788E-14 -0.71054273576E-14 -0.44408920985E-15  0.91188000000E+02  0.91188000000E+02 0.  0.
    9900012    2    3    3    0    0  0.30163352572E+02  0.21021187172E+02  0.20154042365E+01  0.54367081995E+02  0.39999995023E+02 0.  0.
        -12    1    3    3    0    0 -0.30163352572E+02 -0.21021187172E+02 -0.20154042365E+01  0.36820918005E+02  0.00000000000E+00 0.  1.
         11    1    4    4    0    0  0.21272245755E+02  0.19461357349E+02  0.14552285248E+02  0.32295849200E+02  0.51100000000E-03 0. -1.
        -11    1    4    4    0    0  0.12696180661E+02  0.12835371354E+01 -0.51569837394E+01  0.13763537064E+02  0.51100000000E-03 0.  1.
        -12    1    4    4    0    0 -0.38050738440E+01  0.27629268767E+00 -0.73798972722E+01  0.83076957308E+01  0.00000000000E+00 0.  1.
</event>
<event>
 8    1  0.1253488E-006  0.9118800E+02  0.7816164E-02  0.1184000E+00
        -11   -1    0    0    0    0  0.00000000000E+00  0.00000000000E+00  0.45593999997E+02  0.45594000000E+02  0.51100000000E-03 0.  1.
         11   -1    0    0    0    0 -0.00000000000E+00 -0.00000000000E+00 -0.45593999997E+02  0.45594000000E+02  0.51100000000E-03 0. -1.
         23    2    1    2    0    0  0.00000000000E+00 -0.44408920985E-15  0.00000000000E+00  0.91188000000E+02  0.91188000000E+02 0.  0.
    9900012    2    3    3    0    0 -0.12709621635E+02  0.27546179173E+01 -0.34447902574E+02  0.54367076685E+02  0.39999982919E+02 0.  0.
        -12    1    3    3    0    0  0.12709621635E+02 -0.27546179173E+01  0.34447902574E+02  0.36820923315E+02  0.00000000000E+00 0.  1.
         11    1    4    4    0    0 -0.24448994079E+02  0.79501752824E+01 -0.19475324935E+02  0.32252858479E+02  0.51100000000E-03 0. -1.
        -11    1    4    4    0    0  0.13060234719E+02 -0.63346312169E+01 -0.13062056881E+02  0.19527278709E+02  0.51100000000E-03 0.  1.
         12    1    4    4    0    0 -0.13208622758E+01  0.11390738519E+01 -0.19105207588E+01  0.25869394970E+01  0.00000000000E+00 0. -1.
</event>
<event>
 8    1  0.1253488E-006  0.9118800E+02  0.7816164E-02  0.1184000E+00
        -11   -1    0    0    0    0  0.00000000000E+00  0.00000000000E+00  0.45593999997E+02  0.45594000000E+02  0.51100000000E-03 0.  1.
         11   -1    0    0    0    0 -0.00000000000E+00 -0.00000000000E+00 -0.45593999997E+02  0.45594000000E+02  0.51100000000E-03 0. -1.
         23    2    1    2    0    0  0.00000000000E+00  0.00000000000E+00  0.00000000000E+00  0.91188000000E+02  0.91188000000E+02 0.  0.
    9900012    2    3    3    0    0  0.20152980389E+02  0.11833006608E+02 -0.28453788871E+02  0.54367071643E+02  0.39999971425E+02 0.  0.
        -12    1    3    3    0    0 -0.20152980389E+02 -0.11833006608E+02  0.28453788871E+02  0.36820928357E+02  0.00000000000E+00 0.  1.
         11    1    4    4    0    0  0.14091835900E+02  0.10968455457E+02 -0.19071867334E+02  0.26127054523E+02  0.51100000000E-03 0. -1.
        -11    1    4    4    0    0  0.72500235471E+01 -0.11737341552E+02 -0.32426373627E+01  0.14171899148E+02  0.51100000000E-03 0.  1.
        -12    1    4    4    0    0 -0.11888790585E+01  0.12601892703E+02 -0.61392841743E+01  0.14068117972E+02  0.00000000000E+00 0.  1.
</event>
<event>
 8    1  0.1253488E-006  0.9118800E+02  0.7816164E-02  0.1184000E+00
        -11   -1    0    0    0    0  0.00000000000E+00  0.00000000000E+00  0.45593999997E+02  0.45594000000E+02  0.51100000000E-03 0. -1.
         11   -1    0    0    0    0 -0.00000000000E+00 -0.00000000000E+00 -0.45593999997E+02  0.45594000000E+02  0.51100000000E-03 0.  1.
         23    2    1    2    0    0 -0.66613381478E-15  0.35527136788E-14 -0.35527136788E-14  0.91188000000E+02  0.91188000000E+02 0.  0.
    9900012    2    3    3    0    0 -0.15866606015E+01  0.18842719034E+02 -0.31594543937E+02  0.54367071725E+02  0.39999971610E+02 0.  0.
         12    1    3    3    0    0  0.15866606015E+01 -0.18842719034E+02  0.31594543937E+02  0.36820928275E+02  0.00000000000E+00 0. -1.
         11    1    4    4    0    0  0.61373918812E+01  0.19252916364E+02 -0.99904025383E+01  0.22542194009E+02  0.51100000000E-03 0. -1.
        -11    1    4    4    0    0 -0.17188686135E+01  0.10647050618E+02 -0.10102957954E+02  0.14777819726E+02  0.51100000000E-03 0.  1.
         12    1    4    4    0    0 -0.60051838692E+01 -0.11057247947E+02 -0.11501183444E+02  0.17047057989E+02  0.00000000000E+00 0. -1.
</event>
<event>
 8    1  0.1253488E-006  0.9118800E+02  0.7816164E-02  0.1184000E+00
        -11   -1    0    0    0    0  0.00000000000E+00  0.00000000000E+00  0.45593999997E+02  0.45594000000E+02  0.51100000000E-03 0.  1.
         11   -1    0    0    0    0 -0.00000000000E+00 -0.00000000000E+00 -0.45593999997E+02  0.45594000000E+02  0.51100000000E-03 0. -1.
         23    2    1    2    0    0  0.00000000000E+00  0.00000000000E+00  0.00000000000E+00  0.91188000000E+02  0.91188000000E+02 0.  0.
    9900012    2    3    3    0    0  0.95450976949E+01  0.25287847024E+02 -0.25003910518E+02  0.54367086943E+02  0.40000006305E+02 0.  0.
        -12    1    3    3    0    0 -0.95450976949E+01 -0.25287847024E+02  0.25003910518E+02  0.36820913057E+02  0.00000000000E+00 0.  1.
         11    1    4    4    0    0 -0.27109873143E+00  0.83610621373E+01 -0.69368458414E+01  0.10867413909E+02  0.51100000000E-03 0. -1.
        -11    1    4    4    0    0  0.15487809018E+02  0.17144206001E+02  0.14740218274E+01  0.23150999291E+02  0.51100000000E-03 0.  1.
        -12    1    4    4    0    0 -0.56716125913E+01 -0.21742111467E+00 -0.19541086504E+02  0.20348673743E+02  0.00000000000E+00 0.  1.
</event>
<event>
 8    1  0.1253488E-006  0.9118800E+02  0.7816164E-02  0.1184000E+00
        -11   -1    0    0    0    0  0.00000000000E+00  0.00000000000E+00  0.45593999997E+02  0.45594000000E+02  0.51100000000E-03 0.  1.
         11   -1    0    0    0    0 -0.00000000000E+00 -0.00000000000E+00 -0.45593999997E+02  0.45594000000E+02  0.51100000000E-03 0. -1.
         23    2    1    2    0    0  0.35527136788E-14  0.35527136788E-14  0.17763568394E-14  0.91188000000E+02  0.91188000000E+02 0.  0.
    9900012    2    3    3    0    0  0.26390819862E+02  0.22172786252E+02 -0.12948820293E+02  0.54367085153E+02  0.40000002224E+02 0.  0.
        -12    1    3    3    0    0 -0.26390819862E+02 -0.22172786252E+02  0.12948820293E+02  0.36820914847E+02  0.00000000000E+00 0.  1.
         11    1    4    4    0    0  0.92489752674E+01 -0.36377165809E+01  0.94360918927E+01  0.13704610753E+02  0.51100000000E-03 0. -1.
        -11    1    4    4    0    0  0.26975474438E+00  0.88485560423E+01 -0.16541419827E+01  0.90058812792E+01  0.51100000000E-03 0.  1.
         12    1    4    4    0    0  0.16872089850E+02  0.16961946790E+02 -0.20730770203E+02  0.31656593121E+02  0.00000000000E+00 0. -1.
</event>
<event>
 8    1  0.1253488E-006  0.9118800E+02  0.7816164E-02  0.1184000E+00
        -11   -1    0    0    0    0  0.00000000000E+00  0.00000000000E+00  0.45593999997E+02  0.45594000000E+02  0.51100000000E-03 0.  1.
         11   -1    0    0    0    0 -0.00000000000E+00 -0.00000000000E+00 -0.45593999997E+02  0.45594000000E+02  0.51100000000E-03 0. -1.
         23    2    1    2    0    0  0.72164496601E-15  0.00000000000E+00  0.17763568394E-14  0.91188000000E+02  0.91188000000E+02 0.  0.
    9900012    2    3    3    0    0 -0.47926734440E+00  0.35010709155E+02  0.11392989936E+02  0.54367086480E+02  0.40000005249E+02 0.  0.
         12    1    3    3    0    0  0.47926734440E+00 -0.35010709155E+02 -0.11392989936E+02  0.36820913520E+02  0.00000000000E+00 0. -1.
         11    1    4    4    0    0  0.91981918841E+00  0.25095282236E+01 -0.94221279116E+01  0.97938906410E+01  0.51100000000E-03 0. -1.
        -11    1    4    4    0    0 -0.70071272419E+01  0.21404476911E+02  0.22723965003E+02  0.31994219005E+02  0.51100000000E-03 0.  1.
         12    1    4    4    0    0  0.56080407091E+01  0.11096704021E+02 -0.19088471555E+01  0.12578976834E+02  0.00000000000E+00 0. -1.
</event>
<event>
 8    1  0.1253488E-006  0.9118800E+02  0.7816164E-02  0.1184000E+00
        -11   -1    0    0    0    0  0.00000000000E+00  0.00000000000E+00  0.45593999997E+02  0.45594000000E+02  0.51100000000E-03 0. -1.
         11   -1    0    0    0    0 -0.00000000000E+00 -0.00000000000E+00 -0.45593999997E+02  0.45594000000E+02  0.51100000000E-03 0.  1.
         23    2    1    2    0    0 -0.26645352591E-14  0.17763568394E-14  0.00000000000E+00  0.91188000000E+02  0.91188000000E+02 0.  0.
    9900012    2    3    3    0    0  0.43405507244E+01 -0.96939480321E+01  0.35255744308E+02  0.54367075028E+02  0.39999979142E+02 0.  0.
        -12    1    3    3    0    0 -0.43405507244E+01  0.96939480321E+01 -0.35255744308E+02  0.36820924972E+02  0.00000000000E+00 0.  1.
         11    1    4    4    0    0  0.73024351534E+01  0.85108687818E+01  0.89078391330E+01  0.14321663481E+02  0.51100000000E-03 0. -1.
        -11    1    4    4    0    0 -0.59194143175E+01  0.25447163746E+01  0.84235333082E-01  0.64437677753E+01  0.51100000000E-03 0.  1.
        -12    1    4    4    0    0  0.29575298886E+01 -0.20749533188E+02  0.26263669842E+02  0.33601643772E+02  0.00000000000E+00 0.  1.
</event>
<event>
 8    1  0.1253488E-006  0.9118800E+02  0.7816164E-02  0.1184000E+00
        -11   -1    0    0    0    0  0.00000000000E+00  0.00000000000E+00  0.45593999997E+02  0.45594000000E+02  0.51100000000E-03 0.  1.
         11   -1    0    0    0    0 -0.00000000000E+00 -0.00000000000E+00 -0.45593999997E+02  0.45594000000E+02  0.51100000000E-03 0. -1.
         23    2    1    2    0    0  0.17763568394E-14 -0.88817841970E-15  0.00000000000E+00  0.91188000000E+02  0.91188000000E+02 0.  0.
    9900012    2    3    3    0    0  0.12843739408E+02 -0.22527001638E+01  0.34434626480E+02  0.54367084737E+02  0.40000001274E+02 0.  0.
         12    1    3    3    0    0 -0.12843739408E+02  0.22527001638E+01 -0.34434626480E+02  0.36820915263E+02  0.00000000000E+00 0. -1.
         11    1    4    4    0    0  0.13421649661E+02 -0.15308229461E+02  0.25847696484E+02  0.32902674400E+02  0.51100000000E-03 0. -1.
        -11    1    4    4    0    0 -0.40553142920E+01 -0.17056262137E+01  0.10196211751E+01  0.45160117792E+01  0.51100000000E-03 0.  1.
        -12    1    4    4    0    0  0.34774040394E+01  0.14761155511E+02  0.75673088210E+01  0.16948398558E+02  0.00000000000E+00 0.  1.
</event>
<event>
 8    1  0.1253488E-006  0.9118800E+02  0.7816164E-02  0.1184000E+00
        -11   -1    0    0    0    0  0.00000000000E+00  0.00000000000E+00  0.45593999997E+02  0.45594000000E+02  0.51100000000E-03 0. -1.
         11   -1    0    0    0    0 -0.00000000000E+00 -0.00000000000E+00 -0.45593999997E+02  0.45594000000E+02  0.51100000000E-03 0.  1.
         23    2    1    2    0    0  0.00000000000E+00 -0.35527136788E-14  0.35527136788E-14  0.91188000000E+02  0.91188000000E+02 0.  0.
    9900012    2    3    3    0    0 -0.70476629042E+01 -0.26035024990E+02  0.25065655269E+02  0.54367093538E+02  0.40000021339E+02 0.  0.
        -12    1    3    3    0    0  0.70476629042E+01  0.26035024990E+02 -0.25065655269E+02  0.36820906462E+02  0.00000000000E+00 0.  1.
         11    1    4    4    0    0 -0.75769804990E+01  0.17585834483E+01  0.50997556127E+01  0.93011158899E+01  0.51100000000E-03 0. -1.
        -11    1    4    4    0    0 -0.99470142441E+01  0.69765941068E+00  0.61324325248E+01  0.11706261143E+02  0.51100000000E-03 0.  1.
        -12    1    4    4    0    0  0.10476331839E+02 -0.28491267849E+02  0.13833467131E+02  0.33359716505E+02  0.00000000000E+00 0.  1.
</event>
<event>
 8    1  0.1253488E-006  0.9118800E+02  0.7816164E-02  0.1184000E+00
        -11   -1    0    0    0    0  0.00000000000E+00  0.00000000000E+00  0.45593999997E+02  0.45594000000E+02  0.51100000000E-03 0.  1.
         11   -1    0    0    0    0 -0.00000000000E+00 -0.00000000000E+00 -0.45593999997E+02  0.45594000000E+02  0.51100000000E-03 0. -1.
         23    2    1    2    0    0 -0.35527136788E-14  0.35527136788E-14 -0.35527136788E-14  0.91188000000E+02  0.91188000000E+02 0.  0.
    9900012    2    3    3    0    0 -0.91441309958E+01  0.25893608080E+02 -0.24529223753E+02  0.54367124278E+02  0.40000091416E+02 0.  0.
        -12    1    3    3    0    0  0.91441309958E+01 -0.25893608080E+02  0.24529223753E+02  0.36820875722E+02  0.00000000000E+00 0.  1.
         11    1    4    4    0    0 -0.89686883023E+01  0.21380295306E+02 -0.24572391474E+02  0.33783972831E+02  0.51100000000E-03 0. -1.
        -11    1    4    4    0    0 -0.45868900633E+01 -0.11915290047E+01 -0.82985048574E+01  0.95563845126E+01  0.51100000000E-03 0.  1.
         12    1    4    4    0    0  0.44114473698E+01  0.57048417780E+01  0.83416725786E+01  0.11026766934E+02  0.00000000000E+00 0. -1.
</event>
<event>
 8    1  0.1253488E-006  0.9118800E+02  0.7816164E-02  0.1184000E+00
        -11   -1    0    0    0    0  0.00000000000E+00  0.00000000000E+00  0.45593999997E+02  0.45594000000E+02  0.51100000000E-03 0.  1.
         11   -1    0    0    0    0 -0.00000000000E+00 -0.00000000000E+00 -0.45593999997E+02  0.45594000000E+02  0.51100000000E-03 0. -1.
         23    2    1    2    0    0  0.00000000000E+00  0.35527136788E-14  0.00000000000E+00  0.91188000000E+02  0.91188000000E+02 0.  0.
    9900012    2    3    3    0    0  0.18321920353E+02  0.22007835616E+02  0.23146106044E+02  0.54367084491E+02  0.40000000714E+02 0.  0.
         12    1    3    3    0    0 -0.18321920353E+02 -0.22007835616E+02 -0.23146106044E+02  0.36820915509E+02  0.00000000000E+00 0. -1.
         11    1    4    4    0    0 -0.32949449165E+01 -0.25349851611E+01  0.12498480450E+02  0.13171743453E+02  0.51100000000E-03 0. -1.
        -11    1    4    4    0    0  0.10945094504E+02  0.14694974827E+02  0.17320918084E+02  0.25214114745E+02  0.51100000000E-03 0.  1.
         12    1    4    4    0    0  0.10671770766E+02  0.98478459509E+01 -0.66732924902E+01  0.15981226293E+02  0.00000000000E+00 0. -1.
</event>
<event>
 8    1  0.1253488E-006  0.9118800E+02  0.7816164E-02  0.1184000E+00
        -11   -1    0    0    0    0  0.00000000000E+00  0.00000000000E+00  0.45593999997E+02  0.45594000000E+02  0.51100000000E-03 0.  1.
         11   -1    0    0    0    0 -0.00000000000E+00 -0.00000000000E+00 -0.45593999997E+02  0.45594000000E+02  0.51100000000E-03 0. -1.
         23    2    1    2    0    0  0.88817841970E-15  0.44408920985E-15  0.00000000000E+00  0.91188000000E+02  0.91188000000E+02 0.  0.
    9900012    2    3    3    0    0  0.22271765129E+01 -0.34781311454E+01  0.36588674342E+02  0.54366962513E+02  0.39999722641E+02 0.  0.
         12    1    3    3    0    0 -0.22271765129E+01  0.34781311454E+01 -0.36588674342E+02  0.36821037487E+02  0.00000000000E+00 0. -1.
         11    1    4    4    0    0  0.14951940151E+02 -0.19112575159E-01  0.17265305965E+02  0.22839695048E+02  0.51100000000E-03 0. -1.
        -11    1    4    4    0    0 -0.59600976063E+01  0.52232473127E+01  0.18920779661E+02  0.20513434116E+02  0.51100000000E-03 0.  1.
         12    1    4    4    0    0 -0.67646660315E+01 -0.86822658829E+01  0.40258871539E+00  0.11013833350E+02  0.00000000000E+00 0. -1.
</event>
<event>
 8    1  0.1253488E-006  0.9118800E+02  0.7816164E-02  0.1184000E+00
        -11   -1    0    0    0    0  0.00000000000E+00  0.00000000000E+00  0.45593999997E+02  0.45594000000E+02  0.51100000000E-03 0.  1.
         11   -1    0    0    0    0 -0.00000000000E+00 -0.00000000000E+00 -0.45593999997E+02  0.45594000000E+02  0.51100000000E-03 0. -1.
         23    2    1    2    0    0  0.00000000000E+00  0.00000000000E+00  0.00000000000E+00  0.91188000000E+02  0.91188000000E+02 0.  0.
    9900012    2    3    3    0    0  0.20472780251E+02  0.19544535615E+02  0.23551105393E+02  0.54367106898E+02  0.40000051795E+02 0.  0.
         12    1    3    3    0    0 -0.20472780251E+02 -0.19544535615E+02 -0.23551105393E+02  0.36820893102E+02  0.00000000000E+00 0. -1.
         11    1    4    4    0    0  0.11080469652E+02  0.99739269174E+01  0.17216250258E+02  0.22774004897E+02  0.51100000000E-03 0. -1.
        -11    1    4    4    0    0 -0.23700343891E+01 -0.19523438406E+01  0.13347348388E+02  0.13696000100E+02  0.51100000000E-03 0.  1.
         12    1    4    4    0    0  0.11762344989E+02  0.11522952538E+02 -0.70124932532E+01  0.17897101901E+02  0.00000000000E+00 0. -1.
</event>
<event>
 8    1  0.1253488E-006  0.9118800E+02  0.7816164E-02  0.1184000E+00
        -11   -1    0    0    0    0  0.00000000000E+00  0.00000000000E+00  0.45593999997E+02  0.45594000000E+02  0.51100000000E-03 0. -1.
         11   -1    0    0    0    0 -0.00000000000E+00 -0.00000000000E+00 -0.45593999997E+02  0.45594000000E+02  0.51100000000E-03 0.  1.
         23    2    1    2    0    0  0.00000000000E+00  0.00000000000E+00  0.00000000000E+00  0.91188000000E+02  0.91188000000E+02 0.  0.
    9900012    2    3    3    0    0  0.29415413685E+01 -0.36286003050E+02 -0.55181483560E+01  0.54367127600E+02  0.40000098990E+02 0.  0.
         12    1    3    3    0    0 -0.29415413685E+01  0.36286003050E+02  0.55181483560E+01  0.36820872400E+02  0.00000000000E+00 0. -1.
         11    1    4    4    0    0 -0.22552246769E+00  0.56742066356E+01  0.15123039536E+01  0.58766099782E+01  0.51100000000E-03 0. -1.
        -11    1    4    4    0    0  0.10374508873E+01 -0.12972084331E+01 -0.75882975675E+01  0.77679671920E+01  0.51100000000E-03 0.  1.
        -12    1    4    4    0    0  0.21296129489E+01 -0.40663001253E+02  0.55784525788E+00  0.40722550430E+02  0.00000000000E+00 0.  1.
</event>
<event>
 8    1  0.1253488E-006  0.9118800E+02  0.7816164E-02  0.1184000E+00
        -11   -1    0    0    0    0  0.00000000000E+00  0.00000000000E+00  0.45593999997E+02  0.45594000000E+02  0.51100000000E-03 0.  1.
         11   -1    0    0    0    0 -0.00000000000E+00 -0.00000000000E+00 -0.45593999997E+02  0.45594000000E+02  0.51100000000E-03 0. -1.
         23    2    1    2    0    0  0.35527136788E-14  0.00000000000E+00  0.71054273576E-14  0.91188000000E+02  0.91188000000E+02 0.  0.
    9900012    2    3    3    0    0 -0.24510158222E+02  0.13267351363E+02 -0.24062483434E+02  0.54367169248E+02  0.40000193933E+02 0.  0.
        -12    1    3    3    0    0  0.24510158222E+02 -0.13267351363E+02  0.24062483434E+02  0.36820830752E+02  0.00000000000E+00 0.  1.
         11    1    4    4    0    0 -0.30117495761E+01 -0.51574304138E+01  0.34240991558E+01  0.68843430530E+01  0.51100000000E-03 0. -1.
        -11    1    4    4    0    0  0.18508165039E+01  0.96739765261E+01  0.67005684105E+00  0.98721993492E+01  0.51100000000E-03 0.  1.
         12    1    4    4    0    0 -0.23349225150E+02  0.87508052509E+01 -0.28156639431E+02  0.37610626845E+02  0.00000000000E+00 0. -1.
</event>
<event>
 8    1  0.1253488E-006  0.9118800E+02  0.7816164E-02  0.1184000E+00
        -11   -1    0    0    0    0  0.00000000000E+00  0.00000000000E+00  0.45593999997E+02  0.45594000000E+02  0.51100000000E-03 0.  1.
         11   -1    0    0    0    0 -0.00000000000E+00 -0.00000000000E+00 -0.45593999997E+02  0.45594000000E+02  0.51100000000E-03 0. -1.
         23    2    1    2    0    0 -0.35527136788E-14 -0.14210854715E-13 -0.17763568394E-14  0.91188000000E+02  0.91188000000E+02 0.  0.
    9900012    2    3    3    0    0  0.16641316172E+02  0.31994040696E+02  0.74317503461E+01  0.54367041876E+02  0.39999903564E+02 0.  0.
        -12    1    3    3    0    0 -0.16641316172E+02 -0.31994040696E+02 -0.74317503461E+01  0.36820958124E+02  0.00000000000E+00 0.  1.
         11    1    4    4    0    0  0.45621977446E+01 -0.37056444284E+01 -0.46503365441E+01  0.74947367615E+01  0.51100000000E-03 0.  1.
        -11    1    4    4    0    0  0.17658385619E+01  0.29890144868E+02  0.16560086710E+02  0.34216595654E+02  0.51100000000E-03 0. -1.
         12    1    4    4    0    0  0.10313279865E+02  0.58095402566E+01 -0.44779998193E+01  0.12655709461E+02  0.00000000000E+00 0. -1.
</event>
<event>
 8    1  0.1253488E-006  0.9118800E+02  0.7816164E-02  0.1184000E+00
        -11   -1    0    0    0    0  0.00000000000E+00  0.00000000000E+00  0.45593999997E+02  0.45594000000E+02  0.51100000000E-03 0. -1.
         11   -1    0    0    0    0 -0.00000000000E+00 -0.00000000000E+00 -0.45593999997E+02  0.45594000000E+02  0.51100000000E-03 0.  1.
         23    2    1    2    0    0  0.00000000000E+00 -0.35527136788E-14  0.00000000000E+00  0.91188000000E+02  0.91188000000E+02 0.  0.
    9900012    2    3    3    0    0  0.22555602349E+02  0.27262237436E+02 -0.10187998578E+02  0.54367080642E+02  0.39999991941E+02 0.  0.
         12    1    3    3    0    0 -0.22555602349E+02 -0.27262237436E+02  0.10187998578E+02  0.36820919358E+02  0.00000000000E+00 0. -1.
         11    1    4    4    0    0  0.10186202526E+02  0.68939351403E+01  0.47871189232E+01  0.13198544293E+02  0.51100000000E-03 0. -1.
        -11    1    4    4    0    0  0.84464870550E+01  0.20502717661E+02 -0.23176787585E+02  0.32075973221E+02  0.51100000000E-03 0.  1.
         12    1    4    4    0    0  0.39229127682E+01 -0.13441536543E+00  0.82016700841E+01  0.90925631285E+01  0.00000000000E+00 0. -1.
</event>
<event>
 8    1  0.1253488E-006  0.9118800E+02  0.7816164E-02  0.1184000E+00
        -11   -1    0    0    0    0  0.00000000000E+00  0.00000000000E+00  0.45593999997E+02  0.45594000000E+02  0.51100000000E-03 0. -1.
         11   -1    0    0    0    0 -0.00000000000E+00 -0.00000000000E+00 -0.45593999997E+02  0.45594000000E+02  0.51100000000E-03 0.  1.
         23    2    1    2    0    0  0.00000000000E+00  0.00000000000E+00  0.00000000000E+00  0.91188000000E+02  0.91188000000E+02 0.  0.
    9900012    2    3    3    0    0 -0.22258296681E+02  0.24809775587E+02 -0.15646842502E+02  0.54367076382E+02  0.39999982228E+02 0.  0.
        -12    1    3    3    0    0  0.22258296681E+02 -0.24809775587E+02  0.15646842502E+02  0.36820923618E+02  0.00000000000E+00 0.  1.
         11    1    4    4    0    0 -0.98900232010E+01  0.29330207482E+02 -0.30933636205E+01  0.31106953059E+02  0.51100000000E-03 0. -1.
        -11    1    4    4    0    0  0.23874769115E+01 -0.41869492593E+01 -0.32473668072E+01  0.58117107244E+01  0.51100000000E-03 0.  1.
         12    1    4    4    0    0 -0.14755750391E+02 -0.33348263617E+00 -0.93061120743E+01  0.17448412599E+02  0.00000000000E+00 0. -1.
</event>
<event>
 8    1  0.1253488E-006  0.9118800E+02  0.7816164E-02  0.1184000E+00
        -11   -1    0    0    0    0  0.00000000000E+00  0.00000000000E+00  0.45593999997E+02  0.45594000000E+02  0.51100000000E-03 0. -1.
         11   -1    0    0    0    0 -0.00000000000E+00 -0.00000000000E+00 -0.45593999997E+02  0.45594000000E+02  0.51100000000E-03 0.  1.
         23    2    1    2    0    0  0.00000000000E+00  0.35527136788E-14  0.00000000000E+00  0.91188000000E+02  0.91188000000E+02 0.  0.
    9900012    2    3    3    0    0 -0.17650019010E+02  0.24358856404E+02  0.21234475692E+02  0.54367081838E+02  0.39999994667E+02 0.  0.
        -12    1    3    3    0    0  0.17650019010E+02 -0.24358856404E+02 -0.21234475692E+02  0.36820918162E+02  0.00000000000E+00 0.  1.
         11    1    4    4    0    0 -0.12795624720E+02  0.41676009901E+01  0.47443033872E+01  0.14269033776E+02  0.51100000000E-03 0. -1.
        -11    1    4    4    0    0 -0.10184289908E+02 -0.40751018010E+01  0.14740482884E+01  0.11067928182E+02  0.51100000000E-03 0.  1.
        -12    1    4    4    0    0  0.53298956189E+01  0.24266357215E+02  0.15016124016E+02  0.29030119880E+02  0.00000000000E+00 0.  1.
</event>
<event>
 8    1  0.1253488E-006  0.9118800E+02  0.7816164E-02  0.1184000E+00
        -11   -1    0    0    0    0  0.00000000000E+00  0.00000000000E+00  0.45593999997E+02  0.45594000000E+02  0.51100000000E-03 0.  1.
         11   -1    0    0    0    0 -0.00000000000E+00 -0.00000000000E+00 -0.45593999997E+02  0.45594000000E+02  0.51100000000E-03 0. -1.
         23    2    1    2    0    0  0.71054273576E-14  0.00000000000E+00  0.69388939039E-17  0.91188000000E+02  0.91188000000E+02 0.  0.
    9900012    2    3    3    0    0 -0.33425303168E+02  0.15444317027E+02  0.44048599503E-01  0.54367085283E+02  0.40000002520E+02 0.  0.
        -12    1    3    3    0    0  0.33425303168E+02 -0.15444317027E+02 -0.44048599503E-01  0.36820914717E+02  0.00000000000E+00 0.  1.
         11    1    4    4    0    0 -0.18895951758E+01  0.13937034795E+01  0.16108980142E+00  0.23534930427E+01  0.51100000000E-03 0. -1.
        -11    1    4    4    0    0 -0.40021885199E+02  0.16323632919E+02 -0.37603287814E+00  0.43224457053E+02  0.51100000000E-03 0.  1.
         12    1    4    4    0    0  0.84861772070E+01 -0.22730193713E+01  0.25899167622E+00  0.87891351872E+01  0.00000000000E+00 0. -1.
</event>
<event>
 8    1  0.1253488E-006  0.9118800E+02  0.7816164E-02  0.1184000E+00
        -11   -1    0    0    0    0  0.00000000000E+00  0.00000000000E+00  0.45593999997E+02  0.45594000000E+02  0.51100000000E-03 0.  1.
         11   -1    0    0    0    0 -0.00000000000E+00 -0.00000000000E+00 -0.45593999997E+02  0.45594000000E+02  0.51100000000E-03 0. -1.
         23    2    1    2    0    0  0.00000000000E+00  0.38857805862E-15 -0.71054273576E-14  0.91188000000E+02  0.91188000000E+02 0.  0.
    9900012    2    3    3    0    0 -0.15330243146E+02  0.42855519274E+00  0.33475081856E+02  0.54367066827E+02  0.39999960446E+02 0.  0.
         12    1    3    3    0    0  0.15330243146E+02 -0.42855519274E+00 -0.33475081856E+02  0.36820933173E+02  0.00000000000E+00 0. -1.
         11    1    4    4    0    0 -0.36312281470E+01  0.13934702839E+02  0.64290858355E+01  0.15770063602E+02  0.51100000000E-03 0. -1.
        -11    1    4    4    0    0 -0.20940829311E+01 -0.44830433008E+01 -0.30010646520E+01  0.57869897068E+01  0.51100000000E-03 0.  1.
        -12    1    4    4    0    0 -0.96049320678E+01 -0.90231043453E+01  0.30047060672E+02  0.32810013519E+02  0.00000000000E+00 0.  1.
</event>
<event>
 8    1  0.1253488E-006  0.9118800E+02  0.7816164E-02  0.1184000E+00
        -11   -1    0    0    0    0  0.00000000000E+00  0.00000000000E+00  0.45593999997E+02  0.45594000000E+02  0.51100000000E-03 0. -1.
         11   -1    0    0    0    0 -0.00000000000E+00 -0.00000000000E+00 -0.45593999997E+02  0.45594000000E+02  0.51100000000E-03 0.  1.
         23    2    1    2    0    0  0.00000000000E+00 -0.88817841970E-15  0.00000000000E+00  0.91188000000E+02  0.91188000000E+02 0.  0.
    9900012    2    3    3    0    0 -0.24884345883E+01  0.70009257120E+01  0.36063666266E+02  0.54366901536E+02  0.39999583630E+02 0.  0.
        -12    1    3    3    0    0  0.24884345883E+01 -0.70009257120E+01 -0.36063666266E+02  0.36821098464E+02  0.00000000000E+00 0.  1.
         11    1    4    4    0    0 -0.53024631079E+01  0.14978387231E+02  0.25702791629E+02  0.30217572649E+02  0.51100000000E-03 0. -1.
        -11    1    4    4    0    0  0.94540883990E+01 -0.96915999588E+01  0.10739244733E+02  0.17281153749E+02  0.51100000000E-03 0.  1.
        -12    1    4    4    0    0 -0.66400598793E+01  0.17141384395E+01 -0.37837009520E+00  0.68681751375E+01  0.00000000000E+00 0.  1.
</event>
<event>
 8    1  0.1253488E-006  0.9118800E+02  0.7816164E-02  0.1184000E+00
        -11   -1    0    0    0    0  0.00000000000E+00  0.00000000000E+00  0.45593999997E+02  0.45594000000E+02  0.51100000000E-03 0.  1.
         11   -1    0    0    0    0 -0.00000000000E+00 -0.00000000000E+00 -0.45593999997E+02  0.45594000000E+02  0.51100000000E-03 0. -1.
         23    2    1    2    0    0  0.00000000000E+00  0.00000000000E+00  0.00000000000E+00  0.91188000000E+02  0.91188000000E+02 0.  0.
    9900012    2    3    3    0    0 -0.10025305494E+02 -0.29041744535E+02 -0.20294088239E+02  0.54367086196E+02  0.40000004601E+02 0.  0.
        -12    1    3    3    0    0  0.10025305494E+02  0.29041744535E+02  0.20294088239E+02  0.36820913804E+02  0.00000000000E+00 0.  1.
         11    1    4    4    0    0 -0.24420746135E+01 -0.27266244173E+02 -0.19764077913E+02  0.33764338817E+02  0.51100000000E-03 0. -1.
        -11    1    4    4    0    0 -0.10813537994E+02 -0.30467652555E+01 -0.70165800388E+01  0.13245670167E+02  0.51100000000E-03 0.  1.
        -12    1    4    4    0    0  0.32303071129E+01  0.12712648928E+01  0.64865697128E+01  0.73570772125E+01  0.00000000000E+00 0.  1.
</event>
<event>
 8    1  0.1253488E-006  0.9118800E+02  0.7816164E-02  0.1184000E+00
        -11   -1    0    0    0    0  0.00000000000E+00  0.00000000000E+00  0.45593999997E+02  0.45594000000E+02  0.51100000000E-03 0. -1.
         11   -1    0    0    0    0 -0.00000000000E+00 -0.00000000000E+00 -0.45593999997E+02  0.45594000000E+02  0.51100000000E-03 0.  1.
         23    2    1    2    0    0 -0.17763568394E-14  0.00000000000E+00  0.11102230246E-14  0.91188000000E+02  0.91188000000E+02 0.  0.
    9900012    2    3    3    0    0 -0.12682007412E+02  0.34563229193E+02 -0.56683296120E+00  0.54367198490E+02  0.40000260596E+02 0.  0.
         12    1    3    3    0    0  0.12682007412E+02 -0.34563229193E+02  0.56683296120E+00  0.36820801510E+02  0.00000000000E+00 0. -1.
         11    1    4    4    0    0  0.80804594159E+01  0.27962375537E+02  0.51231808948E+01  0.29553938025E+02  0.51100000000E-03 0. -1.
        -11    1    4    4    0    0 -0.17512218839E+02  0.91779704489E+01 -0.33578659416E+01  0.20054630741E+02  0.51100000000E-03 0.  1.
         12    1    4    4    0    0 -0.32502479895E+01 -0.25771167924E+01 -0.23321479144E+01  0.47586297239E+01  0.00000000000E+00 0. -1.
</event>
<event>
 8    1  0.1253488E-006  0.9118800E+02  0.7816164E-02  0.1184000E+00
        -11   -1    0    0    0    0  0.00000000000E+00  0.00000000000E+00  0.45593999997E+02  0.45594000000E+02  0.51100000000E-03 0.  1.
         11   -1    0    0    0    0 -0.00000000000E+00 -0.00000000000E+00 -0.45593999997E+02  0.45594000000E+02  0.51100000000E-03 0. -1.
         23    2    1    2    0    0 -0.35527136788E-14  0.00000000000E+00  0.00000000000E+00  0.91188000000E+02  0.91188000000E+02 0.  0.
    9900012    2    3    3    0    0 -0.24975245028E+02  0.23795354240E+02  0.12876255069E+02  0.54367086212E+02  0.40000004637E+02 0.  0.
         12    1    3    3    0    0  0.24975245028E+02 -0.23795354240E+02 -0.12876255069E+02  0.36820913788E+02  0.00000000000E+00 0. -1.
         11    1    4    4    0    0 -0.32980409463E+02  0.14085929705E+02  0.41878972743E+01  0.36106222564E+02  0.51100000000E-03 0. -1.
        -11    1    4    4    0    0  0.90694066042E+01  0.47882554453E+01  0.83312275068E+01  0.13213284164E+02  0.51100000000E-03 0.  1.
         12    1    4    4    0    0 -0.10642421692E+01  0.49211690901E+01  0.35713028789E+00  0.50475794844E+01  0.00000000000E+00 0. -1.
</event>
<event>
 8    1  0.1253488E-006  0.9118800E+02  0.7816164E-02  0.1184000E+00
        -11   -1    0    0    0    0  0.00000000000E+00  0.00000000000E+00  0.45593999997E+02  0.45594000000E+02  0.51100000000E-03 0.  1.
         11   -1    0    0    0    0 -0.00000000000E+00 -0.00000000000E+00 -0.45593999997E+02  0.45594000000E+02  0.51100000000E-03 0. -1.
         23    2    1    2    0    0 -0.35527136788E-14  0.35527136788E-14 -0.35527136788E-14  0.91188000000E+02  0.91188000000E+02 0.  0.
    9900012    2    3    3    0    0  0.16351376718E+02 -0.24023544772E+02  0.22611518073E+02  0.54367095971E+02  0.40000026885E+02 0.  0.
        -12    1    3    3    0    0 -0.16351376718E+02  0.24023544772E+02 -0.22611518073E+02  0.36820904029E+02  0.00000000000E+00 0.  1.
         11    1    4    4    0    0 -0.68978639817E+01 -0.14690672665E+02  0.35014776814E+01  0.16602913512E+02  0.51100000000E-03 0. -1.
        -11    1    4    4    0    0 -0.21304520519E+01 -0.42501912802E+01 -0.11534005569E+01  0.48921656727E+01  0.51100000000E-03 0.  1.
        -12    1    4    4    0    0  0.25379692751E+02 -0.50826808267E+01  0.20263440948E+02  0.32872016787E+02  0.00000000000E+00 0.  1.
</event>
<event>
 8    1  0.1253488E-006  0.9118800E+02  0.7816164E-02  0.1184000E+00
        -11   -1    0    0    0    0  0.00000000000E+00  0.00000000000E+00  0.45593999997E+02  0.45594000000E+02  0.51100000000E-03 0.  1.
         11   -1    0    0    0    0 -0.00000000000E+00 -0.00000000000E+00 -0.45593999997E+02  0.45594000000E+02  0.51100000000E-03 0. -1.
         23    2    1    2    0    0  0.35527136788E-14  0.00000000000E+00  0.00000000000E+00  0.91188000000E+02  0.91188000000E+02 0.  0.
    9900012    2    3    3    0    0  0.17855058912E+02 -0.31257232604E+02  0.77427588225E+01  0.54367244535E+02  0.40000365566E+02 0.  0.
         12    1    3    3    0    0 -0.17855058912E+02  0.31257232604E+02 -0.77427588225E+01  0.36820755465E+02  0.00000000000E+00 0. -1.
         11    1    4    4    0    0  0.62795866458E+01 -0.16043785438E+02 -0.39465593014E+01  0.17675168746E+02  0.51100000000E-03 0. -1.
        -11    1    4    4    0    0  0.19313801405E+02 -0.18099320438E+02  0.97573841243E+01  0.28210190893E+02  0.51100000000E-03 0.  1.
         12    1    4    4    0    0 -0.77383291388E+01  0.28858732727E+01  0.19319339996E+01  0.84818848957E+01  0.00000000000E+00 0. -1.
</event>
<event>
 8    1  0.1253488E-006  0.9118800E+02  0.7816164E-02  0.1184000E+00
        -11   -1    0    0    0    0  0.00000000000E+00  0.00000000000E+00  0.45593999997E+02  0.45594000000E+02  0.51100000000E-03 0. -1.
         11   -1    0    0    0    0 -0.00000000000E+00 -0.00000000000E+00 -0.45593999997E+02  0.45594000000E+02  0.51100000000E-03 0.  1.
         23    2    1    2    0    0  0.35527136788E-14 -0.11657341759E-14  0.00000000000E+00  0.91188000000E+02  0.91188000000E+02 0.  0.
    9900012    2    3    3    0    0  0.15372584859E+02 -0.23632016907E+00 -0.33457552444E+02  0.54367081652E+02  0.39999994242E+02 0.  0.
         12    1    3    3    0    0 -0.15372584859E+02  0.23632016907E+00  0.33457552444E+02  0.36820918348E+02  0.00000000000E+00 0. -1.
         11    1    4    4    0    0  0.11023474579E+02 -0.92340564459E+01 -0.71501715721E+00  0.14397778996E+02  0.51100000000E-03 0. -1.
        -11    1    4    4    0    0  0.12600905726E+02  0.63347446365E+01 -0.22433964959E+02  0.26498954673E+02  0.51100000000E-03 0.  1.
         12    1    4    4    0    0 -0.82517954461E+01  0.26629916403E+01 -0.10308570327E+02  0.13470347982E+02  0.00000000000E+00 0. -1.
</event>
<event>
 8    1  0.1253488E-006  0.9118800E+02  0.7816164E-02  0.1184000E+00
        -11   -1    0    0    0    0  0.00000000000E+00  0.00000000000E+00  0.45593999997E+02  0.45594000000E+02  0.51100000000E-03 0. -1.
         11   -1    0    0    0    0 -0.00000000000E+00 -0.00000000000E+00 -0.45593999997E+02  0.45594000000E+02  0.51100000000E-03 0.  1.
         23    2    1    2    0    0  0.35527136788E-14  0.00000000000E+00  0.00000000000E+00  0.91188000000E+02  0.91188000000E+02 0.  0.
    9900012    2    3    3    0    0  0.28720434285E+02  0.22714404421E+02  0.38696292538E+01  0.54367061061E+02  0.39999947302E+02 0.  0.
         12    1    3    3    0    0 -0.28720434285E+02 -0.22714404421E+02 -0.38696292538E+01  0.36820938939E+02  0.00000000000E+00 0. -1.
         11    1    4    4    0    0 -0.96956086677E+00  0.36622267396E+01  0.97640961684E+01  0.10473276814E+02  0.51100000000E-03 0. -1.
        -11    1    4    4    0    0  0.26439555194E+02  0.85848884698E+01  0.52198816087E+01  0.28284227993E+02  0.51100000000E-03 0.  1.
        -12    1    4    4    0    0  0.32504399578E+01  0.10467289212E+02 -0.11114348523E+02  0.15609556254E+02  0.00000000000E+00 0.  1.
</event>
<event>
 8    1  0.1253488E-006  0.9118800E+02  0.7816164E-02  0.1184000E+00
        -11   -1    0    0    0    0  0.00000000000E+00  0.00000000000E+00  0.45593999997E+02  0.45594000000E+02  0.51100000000E-03 0. -1.
         11   -1    0    0    0    0 -0.00000000000E+00 -0.00000000000E+00 -0.45593999997E+02  0.45594000000E+02  0.51100000000E-03 0.  1.
         23    2    1    2    0    0  0.00000000000E+00  0.88817841970E-15  0.00000000000E+00  0.91188000000E+02  0.91188000000E+02 0.  0.
    9900012    2    3    3    0    0 -0.20712010294E+02  0.65082028646E+01 -0.29739473021E+02  0.54367077544E+02  0.39999984877E+02 0.  0.
         12    1    3    3    0    0  0.20712010294E+02 -0.65082028646E+01  0.29739473021E+02  0.36820922456E+02  0.00000000000E+00 0. -1.
         11    1    4    4    0    0 -0.22418394612E+02 -0.10145011366E+02 -0.76194676099E+01  0.25759696417E+02  0.51100000000E-03 0. -1.
        -11    1    4    4    0    0  0.34638478845E+01  0.14952972633E+02 -0.20732501332E+02  0.25795857118E+02  0.51100000000E-03 0.  1.
         12    1    4    4    0    0 -0.17574635667E+01  0.17002415976E+01 -0.13875040797E+01  0.28115240084E+01  0.00000000000E+00 0. -1.
</event>
<event>
 8    1  0.1253488E-006  0.9118800E+02  0.7816164E-02  0.1184000E+00
        -11   -1    0    0    0    0  0.00000000000E+00  0.00000000000E+00  0.45593999997E+02  0.45594000000E+02  0.51100000000E-03 0.  1.
         11   -1    0    0    0    0 -0.00000000000E+00 -0.00000000000E+00 -0.45593999997E+02  0.45594000000E+02  0.51100000000E-03 0. -1.
         23    2    1    2    0    0  0.71054273576E-14 -0.17763568394E-14  0.00000000000E+00  0.91188000000E+02  0.91188000000E+02 0.  0.
    9900012    2    3    3    0    0 -0.33744355278E+02  0.12880759129E+02  0.71549039704E+01  0.54366971773E+02  0.39999743750E+02 0.  0.
        -12    1    3    3    0    0  0.33744355278E+02 -0.12880759129E+02 -0.71549039704E+01  0.36821028227E+02  0.00000000000E+00 0.  1.
         11    1    4    4    0    0  0.64140749697E+00  0.56911665374E+01  0.76734024441E+01  0.95750658204E+01  0.51100000000E-03 0. -1.
        -11    1    4    4    0    0  0.46331218951E+00  0.84210675726E+01  0.45041871474E+01  0.95612101414E+01  0.51100000000E-03 0.  1.
         12    1    4    4    0    0 -0.34849074964E+02 -0.12314749807E+01 -0.50226856211E+01  0.35230695811E+02  0.00000000000E+00 0. -1.
</event>
<event>
 8    1  0.1253488E-006  0.9118800E+02  0.7816164E-02  0.1184000E+00
        -11   -1    0    0    0    0  0.00000000000E+00  0.00000000000E+00  0.45593999997E+02  0.45594000000E+02  0.51100000000E-03 0.  1.
         11   -1    0    0    0    0 -0.00000000000E+00 -0.00000000000E+00 -0.45593999997E+02  0.45594000000E+02  0.51100000000E-03 0. -1.
         23    2    1    2    0    0  0.00000000000E+00  0.00000000000E+00 -0.83266726847E-16  0.91188000000E+02  0.91188000000E+02 0.  0.
    9900012    2    3    3    0    0 -0.15035234983E+02  0.33611098292E+02 -0.12601252551E+00  0.54367080694E+02  0.39999992057E+02 0.  0.
        -12    1    3    3    0    0  0.15035234983E+02 -0.33611098292E+02  0.12601252551E+00  0.36820919306E+02  0.00000000000E+00 0.  1.
         11    1    4    4    0    0  0.13636467860E+01  0.17691493133E+00  0.30836393106E+01  0.33763387136E+01  0.51100000000E-03 0. -1.
        -11    1    4    4    0    0 -0.20905471673E+02  0.42481467364E+01 -0.21346174064E+01  0.21439265106E+02  0.51100000000E-03 0.  1.
         12    1    4    4    0    0  0.45065899034E+01  0.29186036625E+02 -0.10750344297E+01  0.29551476874E+02  0.00000000000E+00 0. -1.
</event>
<event>
 8    1  0.1253488E-006  0.9118800E+02  0.7816164E-02  0.1184000E+00
        -11   -1    0    0    0    0  0.00000000000E+00  0.00000000000E+00  0.45593999997E+02  0.45594000000E+02  0.51100000000E-03 0. -1.
         11   -1    0    0    0    0 -0.00000000000E+00 -0.00000000000E+00 -0.45593999997E+02  0.45594000000E+02  0.51100000000E-03 0.  1.
         23    2    1    2    0    0  0.17763568394E-14  0.00000000000E+00  0.00000000000E+00  0.91188000000E+02  0.91188000000E+02 0.  0.
    9900012    2    3    3    0    0 -0.12753962809E+02  0.18604895494E+02  0.29102851801E+02  0.54367059129E+02  0.39999942897E+02 0.  0.
        -12    1    3    3    0    0  0.12753962809E+02 -0.18604895494E+02 -0.29102851801E+02  0.36820940871E+02  0.00000000000E+00 0.  1.
         11    1    4    4    0    0  0.53062226159E+01  0.27401404916E+01  0.41418235551E+01  0.72676730104E+01  0.51100000000E-03 0. -1.
        -11    1    4    4    0    0  0.91868159289E+01  0.59463629022E+01  0.66428317069E+01  0.12801719885E+02  0.51100000000E-03 0.  1.
         12    1    4    4    0    0 -0.27247001354E+02  0.99183921005E+01  0.18318196539E+02  0.34297666233E+02  0.00000000000E+00 0. -1.
</event>
<event>
 8    1  0.1253488E-006  0.9118800E+02  0.7816164E-02  0.1184000E+00
        -11   -1    0    0    0    0  0.00000000000E+00  0.00000000000E+00  0.45593999997E+02  0.45594000000E+02  0.51100000000E-03 0.  1.
         11   -1    0    0    0    0 -0.00000000000E+00 -0.00000000000E+00 -0.45593999997E+02  0.45594000000E+02  0.51100000000E-03 0. -1.
         23    2    1    2    0    0  0.00000000000E+00 -0.17763568394E-14  0.00000000000E+00  0.91188000000E+02  0.91188000000E+02 0.  0.
    9900012    2    3    3    0    0 -0.27922884442E+02 -0.14584095124E+02  0.19062963496E+02  0.54367083615E+02  0.39999998717E+02 0.  0.
         12    1    3    3    0    0  0.27922884442E+02  0.14584095124E+02 -0.19062963496E+02  0.36820916385E+02  0.00000000000E+00 0. -1.
         11    1    4    4    0    0 -0.13005222829E+01 -0.23702424429E+00  0.77841299925E+01  0.78955822270E+01  0.51100000000E-03 0. -1.
        -11    1    4    4    0    0 -0.23021996441E+02 -0.34774492080E+01  0.21073234708E+02  0.31403601616E+02  0.51100000000E-03 0.  1.
         12    1    4    4    0    0 -0.36003657185E+01 -0.10869621672E+02 -0.97944012045E+01  0.15067899772E+02  0.00000000000E+00 0. -1.
</event>
<event>
 8    1  0.1253488E-006  0.9118800E+02  0.7816164E-02  0.1184000E+00
        -11   -1    0    0    0    0  0.00000000000E+00  0.00000000000E+00  0.45593999997E+02  0.45594000000E+02  0.51100000000E-03 0.  1.
         11   -1    0    0    0    0 -0.00000000000E+00 -0.00000000000E+00 -0.45593999997E+02  0.45594000000E+02  0.51100000000E-03 0. -1.
         23    2    1    2    0    0 -0.35527136788E-14  0.00000000000E+00 -0.35527136788E-14  0.91188000000E+02  0.91188000000E+02 0.  0.
    9900012    2    3    3    0    0  0.21132070209E+02 -0.25310760604E+02 -0.16388424356E+02  0.54367089547E+02  0.40000012241E+02 0.  0.
        -12    1    3    3    0    0 -0.21132070209E+02  0.25310760604E+02  0.16388424356E+02  0.36820910453E+02  0.00000000000E+00 0.  1.
         11    1    4    4    0    0  0.16899434394E+02 -0.12368191568E+02 -0.90617623541E+01  0.22818382562E+02  0.51100000000E-03 0. -1.
        -11    1    4    4    0    0 -0.42044396727E+01 -0.13955762270E+02 -0.14402471815E+02  0.20490773732E+02  0.51100000000E-03 0.  1.
         12    1    4    4    0    0  0.84370754880E+01  0.10131932341E+01  0.70758098136E+01  0.11057933253E+02  0.00000000000E+00 0. -1.
</event>
<event>
 8    1  0.1253488E-006  0.9118800E+02  0.7816164E-02  0.1184000E+00
        -11   -1    0    0    0    0  0.00000000000E+00  0.00000000000E+00  0.45593999997E+02  0.45594000000E+02  0.51100000000E-03 0.  1.
         11   -1    0    0    0    0 -0.00000000000E+00 -0.00000000000E+00 -0.45593999997E+02  0.45594000000E+02  0.51100000000E-03 0. -1.
         23    2    1    2    0    0 -0.88817841970E-15 -0.26645352591E-14  0.00000000000E+00  0.91188000000E+02  0.91188000000E+02 0.  0.
    9900012    2    3    3    0    0 -0.73970088025E+01 -0.52653025793E+01 -0.35683996877E+02  0.54366989916E+02  0.39999785112E+02 0.  0.
        -12    1    3    3    0    0  0.73970088025E+01  0.52653025793E+01  0.35683996877E+02  0.36821010084E+02  0.00000000000E+00 0.  1.
         11    1    4    4    0    0  0.25633710040E+01 -0.21493179659E+02 -0.17622215811E+02  0.27911827835E+02  0.51100000000E-03 0. -1.
        -11    1    4    4    0    0 -0.72671835041E+01  0.10082446192E+02 -0.13451746362E+02  0.18314397553E+02  0.51100000000E-03 0.  1.
         12    1    4    4    0    0 -0.26931963024E+01  0.61454308881E+01 -0.46100347046E+01  0.81407645281E+01  0.00000000000E+00 0. -1.
</event>
<event>
 8    1  0.1253488E-006  0.9118800E+02  0.7816164E-02  0.1184000E+00
        -11   -1    0    0    0    0  0.00000000000E+00  0.00000000000E+00  0.45593999997E+02  0.45594000000E+02  0.51100000000E-03 0.  1.
         11   -1    0    0    0    0 -0.00000000000E+00 -0.00000000000E+00 -0.45593999997E+02  0.45594000000E+02  0.51100000000E-03 0. -1.
         23    2    1    2    0    0  0.44408920985E-15  0.00000000000E+00  0.88817841970E-15  0.91188000000E+02  0.91188000000E+02 0.  0.
    9900012    2    3    3    0    0  0.38780637716E+01  0.35880757292E+02  0.73010080729E+01  0.54367179241E+02  0.40000216716E+02 0.  0.
        -12    1    3    3    0    0 -0.38780637716E+01 -0.35880757292E+02 -0.73010080729E+01  0.36820820759E+02  0.00000000000E+00 0.  1.
         11    1    4    4    0    0 -0.63024813483E+01  0.33109472576E+02  0.11522062658E+02  0.35619045096E+02  0.51100000000E-03 0. -1.
        -11    1    4    4    0    0  0.25241773216E+01 -0.60683347680E+01 -0.15105889187E+01  0.67437405904E+01  0.51100000000E-03 0.  1.
        -12    1    4    4    0    0  0.76563677983E+01  0.88396194840E+01 -0.27104656665E+01  0.12004393555E+02  0.00000000000E+00 0.  1.
</event>
<event>
 8    1  0.1253488E-006  0.9118800E+02  0.7816164E-02  0.1184000E+00
        -11   -1    0    0    0    0  0.00000000000E+00  0.00000000000E+00  0.45593999997E+02  0.45594000000E+02  0.51100000000E-03 0.  1.
         11   -1    0    0    0    0 -0.00000000000E+00 -0.00000000000E+00 -0.45593999997E+02  0.45594000000E+02  0.51100000000E-03 0. -1.
         23    2    1    2    0    0 -0.35527136788E-14  0.00000000000E+00  0.00000000000E+00  0.91188000000E+02  0.91188000000E+02 0.  0.
    9900012    2    3    3    0    0 -0.19847592705E+02  0.27356170139E+02  0.14611403182E+02  0.54367080894E+02  0.39999992514E+02 0.  0.
         12    1    3    3    0    0  0.19847592705E+02 -0.27356170139E+02 -0.14611403182E+02  0.36820919106E+02  0.00000000000E+00 0. -1.
         11    1    4    4    0    0 -0.11586635731E+02 -0.24750022020E+01 -0.47212698885E+01  0.12754064179E+02  0.51100000000E-03 0. -1.
        -11    1    4    4    0    0 -0.10501770188E+02  0.47033463016E+01  0.76036879256E+01  0.13792197571E+02  0.51100000000E-03 0.  1.
         12    1    4    4    0    0  0.22408132136E+01  0.25127826039E+02  0.11728985145E+02  0.27820819144E+02  0.00000000000E+00 0. -1.
</event>
<event>
 8    1  0.1253488E-006  0.9118800E+02  0.7816164E-02  0.1184000E+00
        -11   -1    0    0    0    0  0.00000000000E+00  0.00000000000E+00  0.45593999997E+02  0.45594000000E+02  0.51100000000E-03 0. -1.
         11   -1    0    0    0    0 -0.00000000000E+00 -0.00000000000E+00 -0.45593999997E+02  0.45594000000E+02  0.51100000000E-03 0.  1.
         23    2    1    2    0    0  0.00000000000E+00 -0.88817841970E-15  0.35527136788E-14  0.91188000000E+02  0.91188000000E+02 0.  0.
    9900012    2    3    3    0    0 -0.21339052729E+02  0.42362217769E+01  0.29706548291E+02  0.54367085323E+02  0.40000002610E+02 0.  0.
        -12    1    3    3    0    0  0.21339052729E+02 -0.42362217769E+01 -0.29706548291E+02  0.36820914677E+02  0.00000000000E+00 0.  1.
         11    1    4    4    0    0 -0.15874692587E+02  0.25991978875E+01  0.20935445421E+02  0.26401791031E+02  0.51100000000E-03 0. -1.
        -11    1    4    4    0    0  0.50897007358E+00 -0.98396854861E+01  0.11075210964E+02  0.14823587932E+02  0.51100000000E-03 0.  1.
        -12    1    4    4    0    0 -0.59733302154E+01  0.11476709376E+02 -0.23041080940E+01  0.13141706360E+02  0.00000000000E+00 0.  1.
</event>
<event>
 8    1  0.1253488E-006  0.9118800E+02  0.7816164E-02  0.1184000E+00
        -11   -1    0    0    0    0  0.00000000000E+00  0.00000000000E+00  0.45593999997E+02  0.45594000000E+02  0.51100000000E-03 0.  1.
         11   -1    0    0    0    0 -0.00000000000E+00 -0.00000000000E+00 -0.45593999997E+02  0.45594000000E+02  0.51100000000E-03 0. -1.
         23    2    1    2    0    0  0.00000000000E+00  0.00000000000E+00  0.35527136788E-14  0.91188000000E+02  0.91188000000E+02 0.  0.
    9900012    2    3    3    0    0  0.20990841236E+02 -0.11140476971E+02 -0.28125698972E+02  0.54367074080E+02  0.39999976981E+02 0.  0.
        -12    1    3    3    0    0 -0.20990841236E+02  0.11140476971E+02  0.28125698972E+02  0.36820925920E+02  0.00000000000E+00 0.  1.
         11    1    4    4    0    0  0.10248178768E+02  0.81054280655E-03 -0.16663016757E+01  0.10382761205E+02  0.51100000000E-03 0. -1.
        -11    1    4    4    0    0  0.81386970411E-01 -0.55099769399E+01  0.67150884849E+01  0.86867072783E+01  0.51100000000E-03 0.  1.
         12    1    4    4    0    0  0.10661275498E+02 -0.56313105743E+01 -0.33174485781E+02  0.35297605597E+02  0.00000000000E+00 0. -1.
</event>
<event>
 8    1  0.1253488E-006  0.9118800E+02  0.7816164E-02  0.1184000E+00
        -11   -1    0    0    0    0  0.00000000000E+00  0.00000000000E+00  0.45593999997E+02  0.45594000000E+02  0.51100000000E-03 0.  1.
         11   -1    0    0    0    0 -0.00000000000E+00 -0.00000000000E+00 -0.45593999997E+02  0.45594000000E+02  0.51100000000E-03 0. -1.
         23    2    1    2    0    0 -0.17763568394E-14 -0.35527136788E-14  0.00000000000E+00  0.91188000000E+02  0.91188000000E+02 0.  0.
    9900012    2    3    3    0    0  0.94631230725E+01  0.27007995609E+02 -0.23168883767E+02  0.54367086104E+02  0.40000004392E+02 0.  0.
        -12    1    3    3    0    0 -0.94631230725E+01 -0.27007995609E+02  0.23168883767E+02  0.36820913896E+02  0.00000000000E+00 0.  1.
         11    1    4    4    0    0  0.13689448733E+02  0.33883623189E+02 -0.17554151990E+02  0.40541943459E+02  0.51100000000E-03 0. -1.
        -11    1    4    4    0    0 -0.71335608887E+01 -0.56587090374E+01 -0.55684356032E+01  0.10673151093E+02  0.51100000000E-03 0.  1.
         12    1    4    4    0    0  0.29072352285E+01 -0.12169185431E+01 -0.46296173413E-01  0.31519915530E+01  0.00000000000E+00 0. -1.
</event>
<event>
 8    1  0.1253488E-006  0.9118800E+02  0.7816164E-02  0.1184000E+00
        -11   -1    0    0    0    0  0.00000000000E+00  0.00000000000E+00  0.45593999997E+02  0.45594000000E+02  0.51100000000E-03 0.  1.
         11   -1    0    0    0    0 -0.00000000000E+00 -0.00000000000E+00 -0.45593999997E+02  0.45594000000E+02  0.51100000000E-03 0. -1.
         23    2    1    2    0    0 -0.33306690739E-15  0.13045120539E-14  0.71054273576E-14  0.91188000000E+02  0.91188000000E+02 0.  0.
    9900012    2    3    3    0    0  0.65862053175E+00 -0.24309040908E+00 -0.36814202166E+02  0.54367104369E+02  0.40000046029E+02 0.  0.
        -12    1    3    3    0    0 -0.65862053175E+00  0.24309040908E+00  0.36814202166E+02  0.36820895631E+02  0.00000000000E+00 0.  1.
         11    1    4    4    0    0  0.93211443728E+01  0.73717504437E+01  0.52629265964E+00  0.11895521058E+02  0.51100000000E-03 0. -1.
        -11    1    4    4    0    0 -0.17096593690E+01 -0.11623222528E+02 -0.26464948463E+02  0.28955409417E+02  0.51100000000E-03 0.  1.
         12    1    4    4    0    0 -0.69528644720E+01  0.40083816754E+01 -0.10875546363E+02  0.13516173893E+02  0.00000000000E+00 0. -1.
</event>
<event>
 8    1  0.1253488E-006  0.9118800E+02  0.7816164E-02  0.1184000E+00
        -11   -1    0    0    0    0  0.00000000000E+00  0.00000000000E+00  0.45593999997E+02  0.45594000000E+02  0.51100000000E-03 0. -1.
         11   -1    0    0    0    0 -0.00000000000E+00 -0.00000000000E+00 -0.45593999997E+02  0.45594000000E+02  0.51100000000E-03 0.  1.
         23    2    1    2    0    0  0.17763568394E-14  0.00000000000E+00  0.17763568394E-14  0.91188000000E+02  0.91188000000E+02 0.  0.
    9900012    2    3    3    0    0  0.11240987568E+02  0.33302170706E+02 -0.10972032776E+02  0.54367083682E+02  0.39999998870E+02 0.  0.
        -12    1    3    3    0    0 -0.11240987568E+02 -0.33302170706E+02  0.10972032776E+02  0.36820916318E+02  0.00000000000E+00 0.  1.
         11    1    4    4    0    0 -0.11971115898E+02  0.78597849100E+00 -0.26932011913E+01  0.12295475223E+02  0.51100000000E-03 0. -1.
        -11    1    4    4    0    0  0.29028432364E+01  0.99306024711E+01 -0.50908889027E+01  0.11530850549E+02  0.51100000000E-03 0.  1.
         12    1    4    4    0    0  0.20309260230E+02  0.22585589744E+02 -0.31879426817E+01  0.30540757910E+02  0.00000000000E+00 0. -1.
</event>
<event>
 8    1  0.1253488E-006  0.9118800E+02  0.7816164E-02  0.1184000E+00
        -11   -1    0    0    0    0  0.00000000000E+00  0.00000000000E+00  0.45593999997E+02  0.45594000000E+02  0.51100000000E-03 0.  1.
         11   -1    0    0    0    0 -0.00000000000E+00 -0.00000000000E+00 -0.45593999997E+02  0.45594000000E+02  0.51100000000E-03 0. -1.
         23    2    1    2    0    0  0.13322676296E-14  0.00000000000E+00  0.00000000000E+00  0.91188000000E+02  0.91188000000E+02 0.  0.
    9900012    2    3    3    0    0 -0.13845613093E+01 -0.15865632195E+02  0.33198551805E+02  0.54367093752E+02  0.40000021826E+02 0.  0.
         12    1    3    3    0    0  0.13845613093E+01  0.15865632195E+02 -0.33198551805E+02  0.36820906248E+02  0.00000000000E+00 0. -1.
         11    1    4    4    0    0  0.52100134115E+01 -0.50499165460E+01 -0.71456732181E+01  0.10183640944E+02  0.51100000000E-03 0. -1.
        -11    1    4    4    0    0 -0.10127922754E+02 -0.65376321977E+01  0.22914680106E+02  0.25892045471E+02  0.51100000000E-03 0.  1.
         12    1    4    4    0    0  0.35333480327E+01 -0.42780834510E+01  0.17429544918E+02  0.18291407337E+02  0.00000000000E+00 0. -1.
</event>
<event>
 8    1  0.1253488E-006  0.9118800E+02  0.7816164E-02  0.1184000E+00
        -11   -1    0    0    0    0  0.00000000000E+00  0.00000000000E+00  0.45593999997E+02  0.45594000000E+02  0.51100000000E-03 0.  1.
         11   -1    0    0    0    0 -0.00000000000E+00 -0.00000000000E+00 -0.45593999997E+02  0.45594000000E+02  0.51100000000E-03 0. -1.
         23    2    1    2    0    0  0.00000000000E+00  0.00000000000E+00  0.00000000000E+00  0.91188000000E+02  0.91188000000E+02 0.  0.
    9900012    2    3    3    0    0 -0.25305289111E+02 -0.48455939602E+01 -0.26304800695E+02  0.54367082339E+02  0.39999995808E+02 0.  0.
        -12    1    3    3    0    0  0.25305289111E+02  0.48455939602E+01  0.26304800695E+02  0.36820917661E+02  0.00000000000E+00 0.  1.
         11    1    4    4    0    0 -0.14858836827E+02 -0.37313386540E+01 -0.11943042552E+02  0.19425349049E+02  0.51100000000E-03 0. -1.
        -11    1    4    4    0    0 -0.78417669802E+01 -0.77143995568E+01 -0.21950469981E+02  0.24552564073E+02  0.51100000000E-03 0.  1.
        -12    1    4    4    0    0 -0.26046853035E+01  0.66001442506E+01  0.75887118384E+01  0.10389169217E+02  0.00000000000E+00 0.  1.
</event>
<event>
 8    1  0.1253488E-006  0.9118800E+02  0.7816164E-02  0.1184000E+00
        -11   -1    0    0    0    0  0.00000000000E+00  0.00000000000E+00  0.45593999997E+02  0.45594000000E+02  0.51100000000E-03 0. -1.
         11   -1    0    0    0    0 -0.00000000000E+00 -0.00000000000E+00 -0.45593999997E+02  0.45594000000E+02  0.51100000000E-03 0.  1.
         23    2    1    2    0    0  0.00000000000E+00  0.71054273576E-14 -0.35527136788E-14  0.91188000000E+02  0.91188000000E+02 0.  0.
    9900012    2    3    3    0    0  0.94194956129E+01  0.32453445252E+02 -0.14622808299E+02  0.54367088430E+02  0.40000009693E+02 0.  0.
         12    1    3    3    0    0 -0.94194956129E+01 -0.32453445252E+02  0.14622808299E+02  0.36820911570E+02  0.00000000000E+00 0. -1.
         11    1    4    4    0    0  0.34197714209E+00  0.11530728451E+02  0.63897008452E+01  0.13187225793E+02  0.51100000000E-03 0. -1.
        -11    1    4    4    0    0  0.11312601377E+02 -0.13926558349E+01 -0.15837308168E+01  0.11507503802E+02  0.51100000000E-03 0.  1.
        -12    1    4    4    0    0 -0.22350829063E+01  0.22315372636E+02 -0.19428778328E+02  0.29672358834E+02  0.00000000000E+00 0.  1.
</event>
<event>
 8    1  0.1253488E-006  0.9118800E+02  0.7816164E-02  0.1184000E+00
        -11   -1    0    0    0    0  0.00000000000E+00  0.00000000000E+00  0.45593999997E+02  0.45594000000E+02  0.51100000000E-03 0. -1.
         11   -1    0    0    0    0 -0.00000000000E+00 -0.00000000000E+00 -0.45593999997E+02  0.45594000000E+02  0.51100000000E-03 0.  1.
         23    2    1    2    0    0  0.35527136788E-14  0.35527136788E-14  0.00000000000E+00  0.91188000000E+02  0.91188000000E+02 0.  0.
    9900012    2    3    3    0    0  0.17156479675E+02  0.26832543925E+02  0.18478353534E+02  0.54367085323E+02  0.40000002610E+02 0.  0.
        -12    1    3    3    0    0 -0.17156479675E+02 -0.26832543925E+02 -0.18478353534E+02  0.36820914677E+02  0.00000000000E+00 0.  1.
         11    1    4    4    0    0  0.14351234682E+02  0.17182227177E+02  0.19303467076E+02  0.29560289395E+02  0.51100000000E-03 0. -1.
        -11    1    4    4    0    0  0.11551621923E+02  0.10981320635E+02 -0.23434702687E+00  0.15940021666E+02  0.51100000000E-03 0.  1.
         12    1    4    4    0    0 -0.87463769292E+01 -0.13310038872E+01 -0.59076651513E+00  0.88667742618E+01  0.00000000000E+00 0. -1.
</event>
<event>
 8    1  0.1253488E-006  0.9118800E+02  0.7816164E-02  0.1184000E+00
        -11   -1    0    0    0    0  0.00000000000E+00  0.00000000000E+00  0.45593999997E+02  0.45594000000E+02  0.51100000000E-03 0.  1.
         11   -1    0    0    0    0 -0.00000000000E+00 -0.00000000000E+00 -0.45593999997E+02  0.45594000000E+02  0.51100000000E-03 0. -1.
         23    2    1    2    0    0  0.00000000000E+00  0.00000000000E+00 -0.35527136788E-14  0.91188000000E+02  0.91188000000E+02 0.  0.
    9900012    2    3    3    0    0 -0.31419703032E+01  0.19314417226E+02 -0.31190723430E+02  0.54367083142E+02  0.39999997639E+02 0.  0.
        -12    1    3    3    0    0  0.31419703032E+01 -0.19314417226E+02  0.31190723430E+02  0.36820916858E+02  0.00000000000E+00 0.  1.
         11    1    4    4    0    0 -0.93863298790E+01  0.16596598553E+02 -0.77977627447E+01  0.20599887772E+02  0.51100000000E-03 0. -1.
        -11    1    4    4    0    0  0.72590552765E+01  0.11592827798E+02 -0.76643751348E+01  0.15678972744E+02  0.51100000000E-03 0.  1.
         12    1    4    4    0    0 -0.10146957007E+01 -0.88750091248E+01 -0.15728585550E+02  0.18088222625E+02  0.00000000000E+00 0. -1.
</event>
<event>
 8    1  0.1253488E-006  0.9118800E+02  0.7816164E-02  0.1184000E+00
        -11   -1    0    0    0    0  0.00000000000E+00  0.00000000000E+00  0.45593999997E+02  0.45594000000E+02  0.51100000000E-03 0. -1.
         11   -1    0    0    0    0 -0.00000000000E+00 -0.00000000000E+00 -0.45593999997E+02  0.45594000000E+02  0.51100000000E-03 0.  1.
         23    2    1    2    0    0 -0.17763568394E-14 -0.35527136788E-14 -0.35527136788E-14  0.91188000000E+02  0.91188000000E+02 0.  0.
    9900012    2    3    3    0    0 -0.86716053712E+01 -0.27873866950E+02 -0.22441707236E+02  0.54367089879E+02  0.40000012997E+02 0.  0.
         12    1    3    3    0    0  0.86716053712E+01  0.27873866950E+02  0.22441707236E+02  0.36820910121E+02  0.00000000000E+00 0. -1.
         11    1    4    4    0    0 -0.83279088536E+01 -0.80990224217E-01 -0.41105769172E+01  0.92874898732E+01  0.51100000000E-03 0. -1.
        -11    1    4    4    0    0 -0.45451146183E+01 -0.73633398886E+00 -0.17058784963E+02  0.17669250106E+02  0.51100000000E-03 0.  1.
         12    1    4    4    0    0  0.42014181008E+01 -0.27056542737E+02 -0.12723453564E+01  0.27410349900E+02  0.00000000000E+00 0. -1.
</event>
<event>
 8    1  0.1253488E-006  0.9118800E+02  0.7816164E-02  0.1184000E+00
        -11   -1    0    0    0    0  0.00000000000E+00  0.00000000000E+00  0.45593999997E+02  0.45594000000E+02  0.51100000000E-03 0. -1.
         11   -1    0    0    0    0 -0.00000000000E+00 -0.00000000000E+00 -0.45593999997E+02  0.45594000000E+02  0.51100000000E-03 0.  1.
         23    2    1    2    0    0  0.00000000000E+00  0.35527136788E-14  0.00000000000E+00  0.91188000000E+02  0.91188000000E+02 0.  0.
    9900012    2    3    3    0    0  0.18333641162E+02  0.27863639892E+02  0.15597480869E+02  0.54366997356E+02  0.39999802071E+02 0.  0.
        -12    1    3    3    0    0 -0.18333641162E+02 -0.27863639892E+02 -0.15597480869E+02  0.36821002644E+02  0.00000000000E+00 0.  1.
         11    1    4    4    0    0  0.14969607957E+02  0.91342910736E+00  0.20321662603E+02  0.25256553334E+02  0.51100000000E-03 0. -1.
        -11    1    4    4    0    0 -0.28872121038E+00  0.28808973128E+00 -0.20233844468E+01  0.20640834555E+01  0.51100000000E-03 0.  1.
        -12    1    4    4    0    0  0.36527544157E+01  0.26662121053E+02 -0.27007972873E+01  0.27046360566E+02  0.00000000000E+00 0.  1.
</event>
<event>
 8    1  0.1253488E-006  0.9118800E+02  0.7816164E-02  0.1184000E+00
        -11   -1    0    0    0    0  0.00000000000E+00  0.00000000000E+00  0.45593999997E+02  0.45594000000E+02  0.51100000000E-03 0.  1.
         11   -1    0    0    0    0 -0.00000000000E+00 -0.00000000000E+00 -0.45593999997E+02  0.45594000000E+02  0.51100000000E-03 0. -1.
         23    2    1    2    0    0  0.71054273576E-14  0.00000000000E+00  0.00000000000E+00  0.91188000000E+02  0.91188000000E+02 0.  0.
    9900012    2    3    3    0    0 -0.25771520594E+02 -0.25147820996E+02 -0.76938942230E+01  0.54367079549E+02  0.39999989447E+02 0.  0.
        -12    1    3    3    0    0  0.25771520594E+02  0.25147820996E+02  0.76938942230E+01  0.36820920451E+02  0.00000000000E+00 0.  1.
         11    1    4    4    0    0 -0.45380924545E+01  0.58023857684E+00 -0.62638465049E+01  0.77567218095E+01  0.51100000000E-03 0. -1.
        -11    1    4    4    0    0  0.64871796644E+01 -0.99456714270E+01 -0.76306490682E+01  0.14114768351E+02  0.51100000000E-03 0.  1.
         12    1    4    4    0    0 -0.27720607804E+02 -0.15782388146E+02  0.62006013501E+01  0.32495589388E+02  0.00000000000E+00 0. -1.
</event>
<event>
 8    1  0.1253488E-006  0.9118800E+02  0.7816164E-02  0.1184000E+00
        -11   -1    0    0    0    0  0.00000000000E+00  0.00000000000E+00  0.45593999997E+02  0.45594000000E+02  0.51100000000E-03 0.  1.
         11   -1    0    0    0    0 -0.00000000000E+00 -0.00000000000E+00 -0.45593999997E+02  0.45594000000E+02  0.51100000000E-03 0. -1.
         23    2    1    2    0    0  0.00000000000E+00  0.44408920985E-15  0.00000000000E+00  0.91188000000E+02  0.91188000000E+02 0.  0.
    9900012    2    3    3    0    0 -0.35713166238E+02  0.11799196858E+01 -0.88857727325E+01  0.54367090041E+02  0.40000013366E+02 0.  0.
        -12    1    3    3    0    0  0.35713166238E+02 -0.11799196858E+01  0.88857727325E+01  0.36820909959E+02  0.00000000000E+00 0.  1.
         11    1    4    4    0    0 -0.14207643543E+02  0.86522403293E+00  0.11627525226E+00  0.14234439500E+02  0.51100000000E-03 0. -1.
        -11    1    4    4    0    0 -0.19676697588E+02  0.13202153955E+02 -0.12310227503E+02  0.26702265793E+02  0.51100000000E-03 0.  1.
        -12    1    4    4    0    0 -0.18288251059E+01 -0.12887458302E+02  0.33081795186E+01  0.13430384748E+02  0.00000000000E+00 0.  1.
</event>
<event>
 8    1  0.1253488E-006  0.9118800E+02  0.7816164E-02  0.1184000E+00
        -11   -1    0    0    0    0  0.00000000000E+00  0.00000000000E+00  0.45593999997E+02  0.45594000000E+02  0.51100000000E-03 0.  1.
         11   -1    0    0    0    0 -0.00000000000E+00 -0.00000000000E+00 -0.45593999997E+02  0.45594000000E+02  0.51100000000E-03 0. -1.
         23    2    1    2    0    0  0.88817841970E-15  0.00000000000E+00 -0.71054273576E-14  0.91188000000E+02  0.91188000000E+02 0.  0.
    9900012    2    3    3    0    0  0.38563180597E+01 -0.10276573306E+02  0.35146857704E+02  0.54367071789E+02  0.39999971757E+02 0.  0.
         12    1    3    3    0    0 -0.38563180597E+01  0.10276573306E+02 -0.35146857704E+02  0.36820928211E+02  0.00000000000E+00 0. -1.
         11    1    4    4    0    0 -0.10236625020E+02 -0.32795754948E+01  0.38029350936E+01  0.11402035906E+02  0.51100000000E-03 0. -1.
        -11    1    4    4    0    0  0.39620971584E+01 -0.15300704961E+02  0.13233814245E+02  0.20614160811E+02  0.51100000000E-03 0.  1.
        -12    1    4    4    0    0  0.10130845921E+02  0.83037071498E+01  0.18110108365E+02  0.22350875072E+02  0.00000000000E+00 0.  1.
</event>
<event>
 8    1  0.1253488E-006  0.9118800E+02  0.7816164E-02  0.1184000E+00
        -11   -1    0    0    0    0  0.00000000000E+00  0.00000000000E+00  0.45593999997E+02  0.45594000000E+02  0.51100000000E-03 0. -1.
         11   -1    0    0    0    0 -0.00000000000E+00 -0.00000000000E+00 -0.45593999997E+02  0.45594000000E+02  0.51100000000E-03 0.  1.
         23    2    1    2    0    0  0.44408920985E-15 -0.17763568394E-14  0.00000000000E+00  0.91188000000E+02  0.91188000000E+02 0.  0.
    9900012    2    3    3    0    0  0.14532422645E+01  0.11646740388E+02 -0.34900169160E+02  0.54367078201E+02  0.39999986375E+02 0.  0.
         12    1    3    3    0    0 -0.14532422645E+01 -0.11646740388E+02  0.34900169160E+02  0.36820921799E+02  0.00000000000E+00 0. -1.
         11    1    4    4    0    0  0.10471110352E+02 -0.10456411938E+01 -0.12845239030E+02  0.16605351051E+02  0.51100000000E-03 0.  1.
        -11    1    4    4    0    0 -0.16910586837E+02  0.93206170078E+01 -0.21873694221E+02  0.29177051731E+02  0.51100000000E-03 0. -1.
         12    1    4    4    0    0  0.78927187492E+01  0.33717645744E+01 -0.18123590857E+00  0.85846754193E+01  0.00000000000E+00 0. -1.
</event>
<event>
 8    1  0.1253488E-006  0.9118800E+02  0.7816164E-02  0.1184000E+00
        -11   -1    0    0    0    0  0.00000000000E+00  0.00000000000E+00  0.45593999997E+02  0.45594000000E+02  0.51100000000E-03 0.  1.
         11   -1    0    0    0    0 -0.00000000000E+00 -0.00000000000E+00 -0.45593999997E+02  0.45594000000E+02  0.51100000000E-03 0. -1.
         23    2    1    2    0    0  0.00000000000E+00  0.00000000000E+00  0.00000000000E+00  0.91188000000E+02  0.91188000000E+02 0.  0.
    9900012    2    3    3    0    0  0.17696892504E+02  0.11423460881E+02 -0.30201082311E+02  0.54367070686E+02  0.39999969243E+02 0.  0.
        -12    1    3    3    0    0 -0.17696892504E+02 -0.11423460881E+02  0.30201082311E+02  0.36820929314E+02  0.00000000000E+00 0.  1.
         11    1    4    4    0    0  0.18114535768E+02  0.15501045511E+01 -0.29806763601E+02  0.34913928264E+02  0.51100000000E-03 0. -1.
        -11    1    4    4    0    0  0.49302690180E+01  0.99843182298E+01 -0.51750239651E+01  0.12279048677E+02  0.51100000000E-03 0.  1.
        -12    1    4    4    0    0 -0.53479122823E+01 -0.11096189948E+00  0.47807052553E+01  0.71740937449E+01  0.00000000000E+00 0.  1.
</event>
<event>
 8    1  0.1253488E-006  0.9118800E+02  0.7816164E-02  0.1184000E+00
        -11   -1    0    0    0    0  0.00000000000E+00  0.00000000000E+00  0.45593999997E+02  0.45594000000E+02  0.51100000000E-03 0.  1.
         11   -1    0    0    0    0 -0.00000000000E+00 -0.00000000000E+00 -0.45593999997E+02  0.45594000000E+02  0.51100000000E-03 0. -1.
         23    2    1    2    0    0  0.35527136788E-14  0.00000000000E+00  0.35527136788E-14  0.91188000000E+02  0.91188000000E+02 0.  0.
    9900012    2    3    3    0    0 -0.21157084178E+02 -0.23791678981E+02  0.18496321256E+02  0.54367080679E+02  0.39999992023E+02 0.  0.
         12    1    3    3    0    0  0.21157084178E+02  0.23791678981E+02 -0.18496321256E+02  0.36820919321E+02  0.00000000000E+00 0. -1.
         11    1    4    4    0    0  0.60360413812E+01  0.31618181796E+01  0.66463243930E+01  0.95186405518E+01  0.51100000000E-03 0. -1.
        -11    1    4    4    0    0 -0.23528828735E+01  0.12871562857E+01  0.62783522675E+01  0.68271909726E+01  0.51100000000E-03 0.  1.
         12    1    4    4    0    0 -0.24840242686E+02 -0.28240653446E+02  0.55716445959E+01  0.38021249154E+02  0.00000000000E+00 0. -1.
</event>
<event>
 8    1  0.1253488E-006  0.9118800E+02  0.7816164E-02  0.1184000E+00
        -11   -1    0    0    0    0  0.00000000000E+00  0.00000000000E+00  0.45593999997E+02  0.45594000000E+02  0.51100000000E-03 0. -1.
         11   -1    0    0    0    0 -0.00000000000E+00 -0.00000000000E+00 -0.45593999997E+02  0.45594000000E+02  0.51100000000E-03 0.  1.
         23    2    1    2    0    0  0.17763568394E-14 -0.88817841970E-15  0.00000000000E+00  0.91188000000E+02  0.91188000000E+02 0.  0.
    9900012    2    3    3    0    0  0.81943786508E+01 -0.70517989727E+01 -0.35197982321E+02  0.54367167993E+02  0.40000191072E+02 0.  0.
         12    1    3    3    0    0 -0.81943786508E+01  0.70517989727E+01  0.35197982321E+02  0.36820832007E+02  0.00000000000E+00 0. -1.
         11    1    4    4    0    0  0.11333013202E+01 -0.17161075161E+02 -0.12878428033E+02  0.21485827455E+02  0.51100000000E-03 0. -1.
        -11    1    4    4    0    0  0.12187062887E+02  0.45904521117E+01 -0.21720494012E+02  0.25325414365E+02  0.51100000000E-03 0.  1.
         12    1    4    4    0    0 -0.51259855559E+01  0.55188240766E+01 -0.59906027639E+00  0.75559261724E+01  0.00000000000E+00 0. -1.
</event>
<event>
 8    1  0.1253488E-006  0.9118800E+02  0.7816164E-02  0.1184000E+00
        -11   -1    0    0    0    0  0.00000000000E+00  0.00000000000E+00  0.45593999997E+02  0.45594000000E+02  0.51100000000E-03 0.  1.
         11   -1    0    0    0    0 -0.00000000000E+00 -0.00000000000E+00 -0.45593999997E+02  0.45594000000E+02  0.51100000000E-03 0. -1.
         23    2    1    2    0    0 -0.13322676296E-14  0.14210854715E-13 -0.88817841970E-15  0.91188000000E+02  0.91188000000E+02 0.  0.
    9900012    2    3    3    0    0 -0.39830857256E+01 -0.36174089961E+02  0.55989735688E+01  0.54367105640E+02  0.40000048928E+02 0.  0.
        -12    1    3    3    0    0  0.39830857256E+01  0.36174089961E+02 -0.55989735688E+01  0.36820894360E+02  0.00000000000E+00 0.  1.
         11    1    4    4    0    0 -0.54346487667E+01 -0.30435926815E+02  0.35205908465E+01  0.31117127253E+02  0.51100000000E-03 0. -1.
        -11    1    4    4    0    0 -0.10453167619E+02 -0.36237626774E+01  0.82645955028E+00  0.11094296051E+02  0.51100000000E-03 0.  1.
        -12    1    4    4    0    0  0.11904730660E+02 -0.21144004693E+01  0.12519231719E+01  0.12155682337E+02  0.00000000000E+00 0.  1.
</event>
<event>
 8    1  0.1253488E-006  0.9118800E+02  0.7816164E-02  0.1184000E+00
        -11   -1    0    0    0    0  0.00000000000E+00  0.00000000000E+00  0.45593999997E+02  0.45594000000E+02  0.51100000000E-03 0.  1.
         11   -1    0    0    0    0 -0.00000000000E+00 -0.00000000000E+00 -0.45593999997E+02  0.45594000000E+02  0.51100000000E-03 0. -1.
         23    2    1    2    0    0  0.00000000000E+00  0.40245584643E-15  0.00000000000E+00  0.91188000000E+02  0.91188000000E+02 0.  0.
    9900012    2    3    3    0    0  0.12030047748E+02  0.10724550971E+00 -0.34800154735E+02  0.54367023370E+02  0.39999861376E+02 0.  0.
        -12    1    3    3    0    0 -0.12030047748E+02 -0.10724550971E+00  0.34800154735E+02  0.36820976630E+02  0.00000000000E+00 0.  1.
         11    1    4    4    0    0 -0.58057050748E+00 -0.41807931993E+00 -0.31863216449E+02  0.31871247468E+02  0.51100000000E-03 0. -1.
        -11    1    4    4    0    0  0.10503522664E+02  0.78348466017E+01 -0.58495006927E+01  0.14350103422E+02  0.51100000000E-03 0.  1.
         12    1    4    4    0    0  0.21070955918E+01 -0.73095217721E+01  0.29125624065E+01  0.81456724794E+01  0.00000000000E+00 0. -1.
</event>
<event>
 8    1  0.1253488E-006  0.9118800E+02  0.7816164E-02  0.1184000E+00
        -11   -1    0    0    0    0  0.00000000000E+00  0.00000000000E+00  0.45593999997E+02  0.45594000000E+02  0.51100000000E-03 0.  1.
         11   -1    0    0    0    0 -0.00000000000E+00 -0.00000000000E+00 -0.45593999997E+02  0.45594000000E+02  0.51100000000E-03 0. -1.
         23    2    1    2    0    0  0.44408920985E-15 -0.17763568394E-14  0.00000000000E+00  0.91188000000E+02  0.91188000000E+02 0.  0.
    9900012    2    3    3    0    0 -0.74113692060E-01  0.13904696736E+02  0.34094477829E+02  0.54367088787E+02  0.40000010507E+02 0.  0.
         12    1    3    3    0    0  0.74113692060E-01 -0.13904696736E+02 -0.34094477829E+02  0.36820911213E+02  0.00000000000E+00 0. -1.
         11    1    4    4    0    0  0.12366047033E+02 -0.58210505424E+01  0.85932522938E+01  0.16144588378E+02  0.51100000000E-03 0. -1.
        -11    1    4    4    0    0 -0.40365525512E+01  0.19507960143E+02  0.16124081513E+02  0.25628895223E+02  0.51100000000E-03 0.  1.
         12    1    4    4    0    0 -0.84036081736E+01  0.21778713508E+00  0.93771440224E+01  0.12593605186E+02  0.00000000000E+00 0. -1.
</event>
<event>
 8    1  0.1253488E-006  0.9118800E+02  0.7816164E-02  0.1184000E+00
        -11   -1    0    0    0    0  0.00000000000E+00  0.00000000000E+00  0.45593999997E+02  0.45594000000E+02  0.51100000000E-03 0. -1.
         11   -1    0    0    0    0 -0.00000000000E+00 -0.00000000000E+00 -0.45593999997E+02  0.45594000000E+02  0.51100000000E-03 0.  1.
         23    2    1    2    0    0 -0.88817841970E-15  0.00000000000E+00  0.71054273576E-14  0.91188000000E+02  0.91188000000E+02 0.  0.
    9900012    2    3    3    0    0  0.55792985726E+01 -0.14931739768E+02 -0.33191791179E+02  0.54367076237E+02  0.39999981898E+02 0.  0.
         12    1    3    3    0    0 -0.55792985726E+01  0.14931739768E+02  0.33191791179E+02  0.36820923763E+02  0.00000000000E+00 0. -1.
         11    1    4    4    0    0 -0.42035643409E+01  0.28020895636E+01 -0.16969693938E+01  0.53292930558E+01  0.51100000000E-03 0. -1.
        -11    1    4    4    0    0 -0.11505052458E+02 -0.67717038765E+01 -0.14271797616E+02  0.19542425973E+02  0.51100000000E-03 0.  1.
         12    1    4    4    0    0  0.21287915371E+02 -0.10962125455E+02 -0.17223024169E+02  0.29495357209E+02  0.00000000000E+00 0. -1.
</event>
<event>
 8    1  0.1253488E-006  0.9118800E+02  0.7816164E-02  0.1184000E+00
        -11   -1    0    0    0    0  0.00000000000E+00  0.00000000000E+00  0.45593999997E+02  0.45594000000E+02  0.51100000000E-03 0.  1.
         11   -1    0    0    0    0 -0.00000000000E+00 -0.00000000000E+00 -0.45593999997E+02  0.45594000000E+02  0.51100000000E-03 0. -1.
         23    2    1    2    0    0  0.00000000000E+00 -0.17763568394E-14 -0.35527136788E-14  0.91188000000E+02  0.91188000000E+02 0.  0.
    9900012    2    3    3    0    0  0.15539080468E+02 -0.14110747992E+02 -0.30252398306E+02  0.54367029970E+02  0.39999876423E+02 0.  0.
        -12    1    3    3    0    0 -0.15539080468E+02  0.14110747992E+02  0.30252398306E+02  0.36820970030E+02  0.00000000000E+00 0.  1.
         11    1    4    4    0    0  0.10915961737E+02 -0.83897894791E+01 -0.18414500125E+02  0.22992185700E+02  0.51100000000E-03 0. -1.
        -11    1    4    4    0    0  0.18977338773E+01 -0.16646993090E+02 -0.29130432624E+01  0.17006163416E+02  0.51100000000E-03 0.  1.
        -12    1    4    4    0    0  0.27253848537E+01  0.10926034577E+02 -0.89248549190E+01  0.14368680855E+02  0.00000000000E+00 0.  1.
</event>
<event>
 8    1  0.1253488E-006  0.9118800E+02  0.7816164E-02  0.1184000E+00
        -11   -1    0    0    0    0  0.00000000000E+00  0.00000000000E+00  0.45593999997E+02  0.45594000000E+02  0.51100000000E-03 0.  1.
         11   -1    0    0    0    0 -0.00000000000E+00 -0.00000000000E+00 -0.45593999997E+02  0.45594000000E+02  0.51100000000E-03 0. -1.
         23    2    1    2    0    0  0.00000000000E+00 -0.13322676296E-14  0.00000000000E+00  0.91188000000E+02  0.91188000000E+02 0.  0.
    9900012    2    3    3    0    0  0.33693725366E+02 -0.31963346599E+01  0.14501623526E+02  0.54367071587E+02  0.39999971296E+02 0.  0.
        -12    1    3    3    0    0 -0.33693725366E+02  0.31963346599E+01 -0.14501623526E+02  0.36820928413E+02  0.00000000000E+00 0.  1.
         11    1    4    4    0    0  0.18805515838E+02 -0.10992739922E+02  0.15301954260E+01  0.21836420385E+02  0.51100000000E-03 0. -1.
        -11    1    4    4    0    0  0.20057339546E+02  0.95588992855E+01  0.14884922775E+02  0.26743790896E+02  0.51100000000E-03 0.  1.
        -12    1    4    4    0    0 -0.51691300179E+01 -0.17624940229E+01 -0.19134946744E+01  0.57868603052E+01  0.00000000000E+00 0.  1.
</event>
<event>
 8    1  0.1253488E-006  0.9118800E+02  0.7816164E-02  0.1184000E+00
        -11   -1    0    0    0    0  0.00000000000E+00  0.00000000000E+00  0.45593999997E+02  0.45594000000E+02  0.51100000000E-03 0. -1.
         11   -1    0    0    0    0 -0.00000000000E+00 -0.00000000000E+00 -0.45593999997E+02  0.45594000000E+02  0.51100000000E-03 0.  1.
         23    2    1    2    0    0  0.00000000000E+00 -0.35527136788E-14  0.00000000000E+00  0.91188000000E+02  0.91188000000E+02 0.  0.
    9900012    2    3    3    0    0  0.24507289107E+02 -0.25728481811E+02 -0.96549556714E+01  0.54367079796E+02  0.39999990010E+02 0.  0.
         12    1    3    3    0    0 -0.24507289107E+02  0.25728481811E+02  0.96549556714E+01  0.36820920204E+02  0.00000000000E+00 0. -1.
         11    1    4    4    0    0 -0.14142300392E+01 -0.57736094259E+01  0.77278907354E+01  0.97496106531E+01  0.51100000000E-03 0. -1.
        -11    1    4    4    0    0  0.64453648214E-01  0.48820314231E+01 -0.27102973516E+00  0.48899736674E+01  0.51100000000E-03 0.  1.
        -12    1    4    4    0    0  0.25857065498E+02 -0.24836903808E+02 -0.17111816672E+02  0.39727495475E+02  0.00000000000E+00 0.  1.
</event>
<event>
 8    1  0.1253488E-006  0.9118800E+02  0.7816164E-02  0.1184000E+00
        -11   -1    0    0    0    0  0.00000000000E+00  0.00000000000E+00  0.45593999997E+02  0.45594000000E+02  0.51100000000E-03 0. -1.
         11   -1    0    0    0    0 -0.00000000000E+00 -0.00000000000E+00 -0.45593999997E+02  0.45594000000E+02  0.51100000000E-03 0.  1.
         23    2    1    2    0    0  0.00000000000E+00 -0.71054273576E-14  0.00000000000E+00  0.91188000000E+02  0.91188000000E+02 0.  0.
    9900012    2    3    3    0    0 -0.50964464833E+01  0.35371569415E+02 -0.88689068789E+01  0.54367092911E+02  0.40000019909E+02 0.  0.
         12    1    3    3    0    0  0.50964464833E+01 -0.35371569415E+02  0.88689068789E+01  0.36820907089E+02  0.00000000000E+00 0. -1.
         11    1    4    4    0    0  0.24228850755E+01  0.59470463027E+00 -0.16747993090E+02  0.16932788267E+02  0.51100000000E-03 0. -1.
        -11    1    4    4    0    0 -0.12398828880E+01  0.23874219630E+02  0.65191283792E+01  0.24779320160E+02  0.51100000000E-03 0.  1.
        -12    1    4    4    0    0 -0.62794486708E+01  0.10902645155E+02  0.13599578320E+01  0.12654984484E+02  0.00000000000E+00 0.  1.
</event>
<event>
 8    1  0.1253488E-006  0.9118800E+02  0.7816164E-02  0.1184000E+00
        -11   -1    0    0    0    0  0.00000000000E+00  0.00000000000E+00  0.45593999997E+02  0.45594000000E+02  0.51100000000E-03 0. -1.
         11   -1    0    0    0    0 -0.00000000000E+00 -0.00000000000E+00 -0.45593999997E+02  0.45594000000E+02  0.51100000000E-03 0.  1.
         23    2    1    2    0    0  0.35527136788E-14  0.35527136788E-14 -0.35527136788E-14  0.91188000000E+02  0.91188000000E+02 0.  0.
    9900012    2    3    3    0    0 -0.17045449117E+02  0.23066881546E+02 -0.23090021561E+02  0.54367116584E+02  0.40000073876E+02 0.  0.
         12    1    3    3    0    0  0.17045449117E+02 -0.23066881546E+02  0.23090021561E+02  0.36820883416E+02  0.00000000000E+00 0. -1.
         11    1    4    4    0    0  0.30048994947E+01 -0.44078246641E+01 -0.17542311089E+02  0.18335512479E+02  0.51100000000E-03 0. -1.
        -11    1    4    4    0    0 -0.12653172847E+02  0.10054615096E+02 -0.56048952966E+01  0.17105932286E+02  0.51100000000E-03 0.  1.
         12    1    4    4    0    0 -0.73971757640E+01  0.17420091114E+02  0.57184824465E-01  0.18925671819E+02  0.00000000000E+00 0. -1.
</event>
<event>
 8    1  0.1253488E-006  0.9118800E+02  0.7816164E-02  0.1184000E+00
        -11   -1    0    0    0    0  0.00000000000E+00  0.00000000000E+00  0.45593999997E+02  0.45594000000E+02  0.51100000000E-03 0.  1.
         11   -1    0    0    0    0 -0.00000000000E+00 -0.00000000000E+00 -0.45593999997E+02  0.45594000000E+02  0.51100000000E-03 0. -1.
         23    2    1    2    0    0 -0.35527136788E-14  0.35527136788E-14 -0.13322676296E-14  0.91188000000E+02  0.91188000000E+02 0.  0.
    9900012    2    3    3    0    0  0.25345089340E+02 -0.26629684190E+02  0.20654673541E+01  0.54367084895E+02  0.40000001636E+02 0.  0.
        -12    1    3    3    0    0 -0.25345089340E+02  0.26629684190E+02 -0.20654673541E+01  0.36820915105E+02  0.00000000000E+00 0.  1.
         11    1    4    4    0    0  0.11493070602E+02 -0.70036321425E+01 -0.39404125167E+01  0.14023850616E+02  0.51100000000E-03 0. -1.
        -11    1    4    4    0    0 -0.71645499477E+01 -0.33884538664E+01  0.10758768576E+02  0.13362765323E+02  0.51100000000E-03 0.  1.
        -12    1    4    4    0    0  0.21016568686E+02 -0.16237598182E+02 -0.47528887048E+01  0.26980468956E+02  0.00000000000E+00 0.  1.
</event>
<event>
 8    1  0.1253488E-006  0.9118800E+02  0.7816164E-02  0.1184000E+00
        -11   -1    0    0    0    0  0.00000000000E+00  0.00000000000E+00  0.45593999997E+02  0.45594000000E+02  0.51100000000E-03 0.  1.
         11   -1    0    0    0    0 -0.00000000000E+00 -0.00000000000E+00 -0.45593999997E+02  0.45594000000E+02  0.51100000000E-03 0. -1.
         23    2    1    2    0    0 -0.35527136788E-14 -0.35527136788E-14 -0.35527136788E-14  0.91188000000E+02  0.91188000000E+02 0.  0.
    9900012    2    3    3    0    0 -0.10481861398E+02 -0.26460934444E+02 -0.23360806187E+02  0.54367112779E+02  0.40000065203E+02 0.  0.
        -12    1    3    3    0    0  0.10481861398E+02  0.26460934444E+02  0.23360806187E+02  0.36820887221E+02  0.00000000000E+00 0.  1.
         11    1    4    4    0    0 -0.19803908776E+02 -0.69722685150E+01 -0.45047571953E+01  0.21473243088E+02  0.51100000000E-03 0. -1.
        -11    1    4    4    0    0  0.39147990078E-01  0.20927237051E+01 -0.54653246696E+01  0.58524182247E+01  0.51100000000E-03 0.  1.
        -12    1    4    4    0    0  0.92828993882E+01 -0.21581389634E+02 -0.13390724322E+02  0.27041451467E+02  0.00000000000E+00 0.  1.
</event>
<event>
 8    1  0.1253488E-006  0.9118800E+02  0.7816164E-02  0.1184000E+00
        -11   -1    0    0    0    0  0.00000000000E+00  0.00000000000E+00  0.45593999997E+02  0.45594000000E+02  0.51100000000E-03 0.  1.
         11   -1    0    0    0    0 -0.00000000000E+00 -0.00000000000E+00 -0.45593999997E+02  0.45594000000E+02  0.51100000000E-03 0. -1.
         23    2    1    2    0    0  0.00000000000E+00  0.00000000000E+00  0.35527136788E-14  0.91188000000E+02  0.91188000000E+02 0.  0.
    9900012    2    3    3    0    0  0.22396950658E+02 -0.40813722040E+01 -0.28939624746E+02  0.54367042947E+02  0.39999906007E+02 0.  0.
        -12    1    3    3    0    0 -0.22396950658E+02  0.40813722040E+01  0.28939624746E+02  0.36820957053E+02  0.00000000000E+00 0.  1.
         11    1    4    4    0    0  0.20427053418E+01 -0.56297681272E+01 -0.15039836703E+02  0.16188379246E+02  0.51100000000E-03 0. -1.
        -11    1    4    4    0    0  0.90987565550E+01 -0.66159624667E+01 -0.20037468073E+02  0.22979522564E+02  0.51100000000E-03 0.  1.
        -12    1    4    4    0    0  0.11255488761E+02  0.81643583898E+01  0.61376800309E+01  0.15199141138E+02  0.00000000000E+00 0.  1.
</event>
<event>
 8    1  0.1253488E-006  0.9118800E+02  0.7816164E-02  0.1184000E+00
        -11   -1    0    0    0    0  0.00000000000E+00  0.00000000000E+00  0.45593999997E+02  0.45594000000E+02  0.51100000000E-03 0.  1.
         11   -1    0    0    0    0 -0.00000000000E+00 -0.00000000000E+00 -0.45593999997E+02  0.45594000000E+02  0.51100000000E-03 0. -1.
         23    2    1    2    0    0  0.35527136788E-14  0.88817841970E-15  0.00000000000E+00  0.91188000000E+02  0.91188000000E+02 0.  0.
    9900012    2    3    3    0    0  0.22300934956E+02  0.59868813965E+01  0.28681104439E+02  0.54367079308E+02  0.39999988898E+02 0.  0.
         12    1    3    3    0    0 -0.22300934956E+02 -0.59868813965E+01 -0.28681104439E+02  0.36820920692E+02  0.00000000000E+00 0. -1.
         11    1    4    4    0    0  0.52686984432E+01  0.81739674150E+01  0.18664895677E+02  0.21046407234E+02  0.51100000000E-03 0. -1.
        -11    1    4    4    0    0  0.12041926011E+02 -0.56375588441E+01  0.18566551837E+02  0.22836525550E+02  0.51100000000E-03 0.  1.
         12    1    4    4    0    0  0.49903105019E+01  0.34504728256E+01 -0.85503430756E+01  0.10484146524E+02  0.00000000000E+00 0. -1.
</event>
<event>
 8    1  0.1253488E-006  0.9118800E+02  0.7816164E-02  0.1184000E+00
        -11   -1    0    0    0    0  0.00000000000E+00  0.00000000000E+00  0.45593999997E+02  0.45594000000E+02  0.51100000000E-03 0. -1.
         11   -1    0    0    0    0 -0.00000000000E+00 -0.00000000000E+00 -0.45593999997E+02  0.45594000000E+02  0.51100000000E-03 0.  1.
         23    2    1    2    0    0  0.00000000000E+00  0.00000000000E+00  0.00000000000E+00  0.91188000000E+02  0.91188000000E+02 0.  0.
    9900012    2    3    3    0    0  0.18919148849E+02 -0.31562083050E+02  0.12973380523E+01  0.54367049909E+02  0.39999921877E+02 0.  0.
        -12    1    3    3    0    0 -0.18919148849E+02  0.31562083050E+02 -0.12973380523E+01  0.36820950091E+02  0.00000000000E+00 0.  1.
         11    1    4    4    0    0  0.20186825259E+02 -0.23193687512E+02  0.47165702670E+01  0.31107894333E+02  0.51100000000E-03 0. -1.
        -11    1    4    4    0    0 -0.31926812980E+01 -0.14742548085E+02 -0.58384830951E+01  0.16174789737E+02  0.51100000000E-03 0.  1.
        -12    1    4    4    0    0  0.19250048879E+01  0.63741525481E+01  0.24192508804E+01  0.70843658395E+01  0.00000000000E+00 0.  1.
</event>
<event>
 8    1  0.1253488E-006  0.9118800E+02  0.7816164E-02  0.1184000E+00
        -11   -1    0    0    0    0  0.00000000000E+00  0.00000000000E+00  0.45593999997E+02  0.45594000000E+02  0.51100000000E-03 0. -1.
         11   -1    0    0    0    0 -0.00000000000E+00 -0.00000000000E+00 -0.45593999997E+02  0.45594000000E+02  0.51100000000E-03 0.  1.
         23    2    1    2    0    0  0.17763568394E-14 -0.88817841970E-15  0.00000000000E+00  0.91188000000E+02  0.91188000000E+02 0.  0.
    9900012    2    3    3    0    0  0.12660812623E+02  0.48628914494E+01 -0.34232157583E+02  0.54367020894E+02  0.39999855732E+02 0.  0.
         12    1    3    3    0    0 -0.12660812623E+02 -0.48628914494E+01  0.34232157583E+02  0.36820979106E+02  0.00000000000E+00 0. -1.
         11    1    4    4    0    0 -0.26105360819E+01  0.17410914644E+01 -0.33559810311E+01  0.45944430636E+01  0.51100000000E-03 0. -1.
        -11    1    4    4    0    0  0.19439503016E+02 -0.10340473263E+02 -0.27594718562E+02  0.35302806654E+02  0.51100000000E-03 0.  1.
         12    1    4    4    0    0 -0.41681543113E+01  0.13462273248E+02 -0.32814579892E+01  0.14469771177E+02  0.00000000000E+00 0. -1.
</event>
<event>
 8    1  0.1253488E-006  0.9118800E+02  0.7816164E-02  0.1184000E+00
        -11   -1    0    0    0    0  0.00000000000E+00  0.00000000000E+00  0.45593999997E+02  0.45594000000E+02  0.51100000000E-03 0. -1.
         11   -1    0    0    0    0 -0.00000000000E+00 -0.00000000000E+00 -0.45593999997E+02  0.45594000000E+02  0.51100000000E-03 0.  1.
         23    2    1    2    0    0 -0.17763568394E-14  0.44408920985E-15 -0.71054273576E-14  0.91188000000E+02  0.91188000000E+02 0.  0.
    9900012    2    3    3    0    0 -0.85446608304E+01  0.15404559770E+01  0.35782601305E+02  0.54367098470E+02  0.40000032582E+02 0.  0.
        -12    1    3    3    0    0  0.85446608304E+01 -0.15404559770E+01 -0.35782601305E+02  0.36820901530E+02  0.00000000000E+00 0.  1.
         11    1    4    4    0    0  0.12704633465E+02  0.19877805280E+01  0.21441959939E+01  0.13036738841E+02  0.51100000000E-03 0. -1.
        -11    1    4    4    0    0 -0.13673487161E+02  0.45336108167E+01  0.16219205584E+02  0.21692867681E+02  0.51100000000E-03 0.  1.
         12    1    4    4    0    0 -0.75758071342E+01 -0.49809353678E+01  0.17419199727E+02  0.19637491948E+02  0.00000000000E+00 0. -1.
</event>
<event>
 8    1  0.1253488E-006  0.9118800E+02  0.7816164E-02  0.1184000E+00
        -11   -1    0    0    0    0  0.00000000000E+00  0.00000000000E+00  0.45593999997E+02  0.45594000000E+02  0.51100000000E-03 0.  1.
         11   -1    0    0    0    0 -0.00000000000E+00 -0.00000000000E+00 -0.45593999997E+02  0.45594000000E+02  0.51100000000E-03 0. -1.
         23    2    1    2    0    0  0.00000000000E+00  0.35527136788E-14  0.00000000000E+00  0.91188000000E+02  0.91188000000E+02 0.  0.
    9900012    2    3    3    0    0  0.43221682521E+01  0.30536926240E+02  0.20114525408E+02  0.54367093778E+02  0.40000021886E+02 0.  0.
        -12    1    3    3    0    0 -0.43221682521E+01 -0.30536926240E+02 -0.20114525408E+02  0.36820906222E+02  0.00000000000E+00 0.  1.
         11    1    4    4    0    0  0.83827965204E+01  0.23136142569E+02  0.18265759811E+02  0.30646212690E+02  0.51100000000E-03 0. -1.
        -11    1    4    4    0    0  0.60404498044E+01  0.62822912554E+00 -0.65569238941E+01  0.89372790539E+01  0.51100000000E-03 0.  1.
        -12    1    4    4    0    0 -0.10101078073E+02  0.67725545453E+01  0.84056894903E+01  0.14783602034E+02  0.00000000000E+00 0.  1.
</event>
<event>
 8    1  0.1253488E-006  0.9118800E+02  0.7816164E-02  0.1184000E+00
        -11   -1    0    0    0    0  0.00000000000E+00  0.00000000000E+00  0.45593999997E+02  0.45594000000E+02  0.51100000000E-03 0. -1.
         11   -1    0    0    0    0 -0.00000000000E+00 -0.00000000000E+00 -0.45593999997E+02  0.45594000000E+02  0.51100000000E-03 0.  1.
         23    2    1    2    0    0  0.00000000000E+00 -0.17763568394E-14  0.00000000000E+00  0.91188000000E+02  0.91188000000E+02 0.  0.
    9900012    2    3    3    0    0 -0.31441477054E+02 -0.10447277690E+02 -0.16064490522E+02  0.54367082763E+02  0.39999996774E+02 0.  0.
         12    1    3    3    0    0  0.31441477054E+02  0.10447277690E+02  0.16064490522E+02  0.36820917237E+02  0.00000000000E+00 0. -1.
         11    1    4    4    0    0 -0.30348190710E+02  0.43412370574E+01 -0.11217943851E+02  0.32645080534E+02  0.51100000000E-03 0.  1.
        -11    1    4    4    0    0  0.67646800768E+01 -0.83168329089E+01 -0.74345498161E+00  0.10746317125E+02  0.51100000000E-03 0. -1.
        -12    1    4    4    0    0 -0.78579664210E+01 -0.64716818389E+01 -0.41030916891E+01  0.10975685104E+02  0.00000000000E+00 0.  1.
</event>
<event>
 8    1  0.1253488E-006  0.9118800E+02  0.7816164E-02  0.1184000E+00
        -11   -1    0    0    0    0  0.00000000000E+00  0.00000000000E+00  0.45593999997E+02  0.45594000000E+02  0.51100000000E-03 0.  1.
         11   -1    0    0    0    0 -0.00000000000E+00 -0.00000000000E+00 -0.45593999997E+02  0.45594000000E+02  0.51100000000E-03 0. -1.
         23    2    1    2    0    0  0.00000000000E+00 -0.17763568394E-14  0.00000000000E+00  0.91188000000E+02  0.91188000000E+02 0.  0.
    9900012    2    3    3    0    0  0.27223622712E+02 -0.13265607067E+02  0.20944629537E+02  0.54367089218E+02  0.40000011489E+02 0.  0.
        -12    1    3    3    0    0 -0.27223622712E+02  0.13265607067E+02 -0.20944629537E+02  0.36820910782E+02  0.00000000000E+00 0.  1.
         11    1    4    4    0    0  0.20952864490E+02 -0.21219343545E+01  0.31592229827E+00  0.21062405914E+02  0.51100000000E-03 0. -1.
        -11    1    4    4    0    0  0.75479824094E+01 -0.17136995874E+02  0.10505522585E+02  0.21471252201E+02  0.51100000000E-03 0.  1.
        -12    1    4    4    0    0 -0.12772241869E+01  0.59933231614E+01  0.10123184653E+02  0.11833431103E+02  0.00000000000E+00 0.  1.
</event>
<event>
 8    1  0.1253488E-006  0.9118800E+02  0.7816164E-02  0.1184000E+00
        -11   -1    0    0    0    0  0.00000000000E+00  0.00000000000E+00  0.45593999997E+02  0.45594000000E+02  0.51100000000E-03 0.  1.
         11   -1    0    0    0    0 -0.00000000000E+00 -0.00000000000E+00 -0.45593999997E+02  0.45594000000E+02  0.51100000000E-03 0. -1.
         23    2    1    2    0    0 -0.88817841970E-15 -0.53290705182E-14  0.00000000000E+00  0.91188000000E+02  0.91188000000E+02 0.  0.
    9900012    2    3    3    0    0 -0.44601548140E+01 -0.12458192967E+02 -0.34361019364E+02  0.54367092832E+02  0.40000019729E+02 0.  0.
        -12    1    3    3    0    0  0.44601548140E+01  0.12458192967E+02  0.34361019364E+02  0.36820907168E+02  0.00000000000E+00 0.  1.
         11    1    4    4    0    0 -0.29556703039E+01 -0.94795859368E+01 -0.19829752431E+02  0.22176961429E+02  0.51100000000E-03 0. -1.
        -11    1    4    4    0    0  0.71391421547E+01  0.10388094186E+02 -0.45456985975E+01  0.13399374146E+02  0.51100000000E-03 0.  1.
        -12    1    4    4    0    0 -0.86436266648E+01 -0.13366701216E+02 -0.99855683351E+01  0.18790757257E+02  0.00000000000E+00 0.  1.
</event>
<event>
 8    1  0.1253488E-006  0.9118800E+02  0.7816164E-02  0.1184000E+00
        -11   -1    0    0    0    0  0.00000000000E+00  0.00000000000E+00  0.45593999997E+02  0.45594000000E+02  0.51100000000E-03 0. -1.
         11   -1    0    0    0    0 -0.00000000000E+00 -0.00000000000E+00 -0.45593999997E+02  0.45594000000E+02  0.51100000000E-03 0.  1.
         23    2    1    2    0    0  0.99920072216E-15  0.00000000000E+00  0.00000000000E+00  0.91188000000E+02  0.91188000000E+02 0.  0.
    9900012    2    3    3    0    0  0.52723101558E+00 -0.43816406885E+01 -0.36555465099E+02  0.54367098650E+02  0.40000032992E+02 0.  0.
         12    1    3    3    0    0 -0.52723101558E+00  0.43816406885E+01  0.36555465099E+02  0.36820901350E+02  0.00000000000E+00 0. -1.
         11    1    4    4    0    0 -0.14604219306E+02 -0.55307269263E+01 -0.99045364084E+01  0.18492485057E+02  0.51100000000E-03 0. -1.
        -11    1    4    4    0    0  0.60244236386E+00 -0.55981834059E+01 -0.11302036750E+01  0.57428176757E+01  0.51100000000E-03 0.  1.
        -12    1    4    4    0    0  0.14529007957E+02  0.67472696437E+01 -0.25520725015E+02  0.30131795917E+02  0.00000000000E+00 0.  1.
</event>
<event>
 8    1  0.1253488E-006  0.9118800E+02  0.7816164E-02  0.1184000E+00
        -11   -1    0    0    0    0  0.00000000000E+00  0.00000000000E+00  0.45593999997E+02  0.45594000000E+02  0.51100000000E-03 0. -1.
         11   -1    0    0    0    0 -0.00000000000E+00 -0.00000000000E+00 -0.45593999997E+02  0.45594000000E+02  0.51100000000E-03 0.  1.
         23    2    1    2    0    0  0.00000000000E+00  0.35527136788E-14  0.00000000000E+00  0.91188000000E+02  0.91188000000E+02 0.  0.
    9900012    2    3    3    0    0  0.17478577705E+02  0.22463519359E+02 -0.23359532162E+02  0.54367107515E+02  0.40000053201E+02 0.  0.
         12    1    3    3    0    0 -0.17478577705E+02 -0.22463519359E+02  0.23359532162E+02  0.36820892485E+02  0.00000000000E+00 0. -1.
         11    1    4    4    0    0  0.10545236084E+01  0.16525009559E+02 -0.13442896884E+01  0.16613099530E+02  0.51100000000E-03 0. -1.
        -11    1    4    4    0    0  0.20352025724E+02 -0.36719462122E+00 -0.22460098851E+02  0.30311645017E+02  0.51100000000E-03 0.  1.
        -12    1    4    4    0    0 -0.39279716272E+01  0.63057044207E+01  0.44485637709E+00  0.74423629676E+01  0.00000000000E+00 0.  1.
</event>
<event>
 8    1  0.1253488E-006  0.9118800E+02  0.7816164E-02  0.1184000E+00
        -11   -1    0    0    0    0  0.00000000000E+00  0.00000000000E+00  0.45593999997E+02  0.45594000000E+02  0.51100000000E-03 0. -1.
         11   -1    0    0    0    0 -0.00000000000E+00 -0.00000000000E+00 -0.45593999997E+02  0.45594000000E+02  0.51100000000E-03 0.  1.
         23    2    1    2    0    0  0.00000000000E+00  0.00000000000E+00 -0.35527136788E-14  0.91188000000E+02  0.91188000000E+02 0.  0.
    9900012    2    3    3    0    0  0.16348453790E+02  0.18104389885E+02  0.27581460310E+02  0.54367111536E+02  0.40000062369E+02 0.  0.
        -12    1    3    3    0    0 -0.16348453790E+02 -0.18104389885E+02 -0.27581460310E+02  0.36820888464E+02  0.00000000000E+00 0.  1.
         11    1    4    4    0    0  0.12955938535E+02  0.69770831861E+01  0.17866604118E+02  0.23146308044E+02  0.51100000000E-03 0. -1.
        -11    1    4    4    0    0  0.12811834859E+02 -0.20288891552E+01  0.14517343624E+01  0.13052472432E+02  0.51100000000E-03 0.  1.
         12    1    4    4    0    0 -0.94193196041E+01  0.13156195854E+02  0.82631218298E+01  0.18168331061E+02  0.00000000000E+00 0. -1.
</event>
<event>
 8    1  0.1253488E-006  0.9118800E+02  0.7816164E-02  0.1184000E+00
        -11   -1    0    0    0    0  0.00000000000E+00  0.00000000000E+00  0.45593999997E+02  0.45594000000E+02  0.51100000000E-03 0. -1.
         11   -1    0    0    0    0 -0.00000000000E+00 -0.00000000000E+00 -0.45593999997E+02  0.45594000000E+02  0.51100000000E-03 0.  1.
         23    2    1    2    0    0  0.00000000000E+00  0.00000000000E+00  0.00000000000E+00  0.91188000000E+02  0.91188000000E+02 0.  0.
    9900012    2    3    3    0    0 -0.21217738707E+02 -0.18816818727E+02 -0.23484372638E+02  0.54367070340E+02  0.39999968455E+02 0.  0.
         12    1    3    3    0    0  0.21217738707E+02  0.18816818727E+02  0.23484372638E+02  0.36820929660E+02  0.00000000000E+00 0. -1.
         11    1    4    4    0    0  0.25958712554E+01  0.26751335053E+01 -0.13552591565E+01  0.39663099335E+01  0.51100000000E-03 0. -1.
        -11    1    4    4    0    0  0.56806823737E+01 -0.23750492574E+01  0.33309850063E+01  0.70004623119E+01  0.51100000000E-03 0.  1.
        -12    1    4    4    0    0 -0.29494292336E+02 -0.19116902974E+02 -0.25460098488E+02  0.43400298095E+02  0.00000000000E+00 0.  1.
</event>
<event>
 8    1  0.1253488E-006  0.9118800E+02  0.7816164E-02  0.1184000E+00
        -11   -1    0    0    0    0  0.00000000000E+00  0.00000000000E+00  0.45593999997E+02  0.45594000000E+02  0.51100000000E-03 0. -1.
         11   -1    0    0    0    0 -0.00000000000E+00 -0.00000000000E+00 -0.45593999997E+02  0.45594000000E+02  0.51100000000E-03 0.  1.
         23    2    1    2    0    0  0.26645352591E-14 -0.17763568394E-14  0.00000000000E+00  0.91188000000E+02  0.91188000000E+02 0.  0.
    9900012    2    3    3    0    0  0.50693492684E+01  0.57862394608E+01 -0.36008344628E+02  0.54367085401E+02  0.40000002788E+02 0.  0.
         12    1    3    3    0    0 -0.50693492684E+01 -0.57862394608E+01  0.36008344628E+02  0.36820914599E+02  0.00000000000E+00 0. -1.
         11    1    4    4    0    0 -0.43292108364E+01  0.15699939319E+02 -0.61609204113E+01  0.17412268711E+02  0.51100000000E-03 0. -1.
        -11    1    4    4    0    0 -0.20635000890E+01 -0.62824556264E+01 -0.24795520928E+01  0.70622560246E+01  0.51100000000E-03 0.  1.
         12    1    4    4    0    0  0.11462060194E+02 -0.36312442321E+01 -0.27367872123E+02  0.29892560665E+02  0.00000000000E+00 0. -1.
</event>
<event>
 8    1  0.1253488E-006  0.9118800E+02  0.7816164E-02  0.1184000E+00
        -11   -1    0    0    0    0  0.00000000000E+00  0.00000000000E+00  0.45593999997E+02  0.45594000000E+02  0.51100000000E-03 0.  1.
         11   -1    0    0    0    0 -0.00000000000E+00 -0.00000000000E+00 -0.45593999997E+02  0.45594000000E+02  0.51100000000E-03 0. -1.
         23    2    1    2    0    0  0.35527136788E-14  0.35527136788E-14  0.17763568394E-14  0.91188000000E+02  0.91188000000E+02 0.  0.
    9900012    2    3    3    0    0 -0.30618506298E+02 -0.17221545820E+02 -0.11032202158E+02  0.54367026998E+02  0.39999869646E+02 0.  0.
        -12    1    3    3    0    0  0.30618506298E+02  0.17221545820E+02  0.11032202158E+02  0.36820973002E+02  0.00000000000E+00 0.  1.
         11    1    4    4    0    0 -0.30414270737E+02 -0.23919033314E+02 -0.14971781267E+02  0.41488579799E+02  0.51100000000E-03 0. -1.
        -11    1    4    4    0    0 -0.20669382794E+01  0.52393982931E+01 -0.23921224743E+01  0.61192955900E+01  0.51100000000E-03 0.  1.
         12    1    4    4    0    0  0.18627027180E+01  0.14580892003E+01  0.63317015835E+01  0.67591516091E+01  0.00000000000E+00 0. -1.
</event>
<event>
 8    1  0.1253488E-006  0.9118800E+02  0.7816164E-02  0.1184000E+00
        -11   -1    0    0    0    0  0.00000000000E+00  0.00000000000E+00  0.45593999997E+02  0.45594000000E+02  0.51100000000E-03 0. -1.
         11   -1    0    0    0    0 -0.00000000000E+00 -0.00000000000E+00 -0.45593999997E+02  0.45594000000E+02  0.51100000000E-03 0.  1.
         23    2    1    2    0    0  0.35527136788E-14  0.00000000000E+00 -0.17763568394E-14  0.91188000000E+02  0.91188000000E+02 0.  0.
    9900012    2    3    3    0    0  0.21601712324E+02 -0.28316675494E+02 -0.93441251206E+01  0.54367071703E+02  0.39999971561E+02 0.  0.
         12    1    3    3    0    0 -0.21601712324E+02  0.28316675494E+02  0.93441251206E+01  0.36820928297E+02  0.00000000000E+00 0. -1.
         11    1    4    4    0    0 -0.10749629415E+01  0.20200652953E+01  0.48599409550E+01  0.53717069419E+01  0.51100000000E-03 0. -1.
        -11    1    4    4    0    0  0.47325868512E+01  0.40770102478E+01  0.25182700527E+01  0.67350631166E+01  0.51100000000E-03 0.  1.
        -12    1    4    4    0    0  0.17944088415E+02 -0.34413751037E+02 -0.16722336128E+02  0.42260301644E+02  0.00000000000E+00 0.  1.
</event>
<event>
 8    1  0.1253488E-006  0.9118800E+02  0.7816164E-02  0.1184000E+00
        -11   -1    0    0    0    0  0.00000000000E+00  0.00000000000E+00  0.45593999997E+02  0.45594000000E+02  0.51100000000E-03 0.  1.
         11   -1    0    0    0    0 -0.00000000000E+00 -0.00000000000E+00 -0.45593999997E+02  0.45594000000E+02  0.51100000000E-03 0. -1.
         23    2    1    2    0    0 -0.17763568394E-14  0.00000000000E+00 -0.35527136788E-14  0.91188000000E+02  0.91188000000E+02 0.  0.
    9900012    2    3    3    0    0  0.69162136465E+01  0.29675094218E+02 -0.20672106103E+02  0.54367065753E+02  0.39999957997E+02 0.  0.
         12    1    3    3    0    0 -0.69162136465E+01 -0.29675094218E+02  0.20672106103E+02  0.36820934247E+02  0.00000000000E+00 0. -1.
         11    1    4    4    0    0  0.94988845249E+00 -0.56593938906E+01  0.40977606021E+00  0.57531681673E+01  0.51100000000E-03 0. -1.
        -11    1    4    4    0    0 -0.61990025475E+01  0.91246751976E+01 -0.15752689537E+02  0.19231083120E+02  0.51100000000E-03 0.  1.
        -12    1    4    4    0    0  0.12165327742E+02  0.26209812911E+02 -0.53291926263E+01  0.29382814466E+02  0.00000000000E+00 0.  1.
</event>
<event>
 8    1  0.1253488E-006  0.9118800E+02  0.7816164E-02  0.1184000E+00
        -11   -1    0    0    0    0  0.00000000000E+00  0.00000000000E+00  0.45593999997E+02  0.45594000000E+02  0.51100000000E-03 0. -1.
         11   -1    0    0    0    0 -0.00000000000E+00 -0.00000000000E+00 -0.45593999997E+02  0.45594000000E+02  0.51100000000E-03 0.  1.
         23    2    1    2    0    0  0.00000000000E+00  0.00000000000E+00  0.00000000000E+00  0.91188000000E+02  0.91188000000E+02 0.  0.
    9900012    2    3    3    0    0 -0.32440831536E+02  0.15419521923E+02 -0.81000380150E+01  0.54367084437E+02  0.40000000590E+02 0.  0.
         12    1    3    3    0    0  0.32440831536E+02 -0.15419521923E+02  0.81000380150E+01  0.36820915563E+02  0.00000000000E+00 0. -1.
         11    1    4    4    0    0 -0.36767296299E+02  0.77197885092E+01 -0.33141993781E+01  0.37714892676E+02  0.51100000000E-03 0. -1.
        -11    1    4    4    0    0 -0.33021530444E+01  0.48956761371E+01 -0.60183494887E+01  0.84316303523E+01  0.51100000000E-03 0.  1.
         12    1    4    4    0    0  0.76286178076E+01  0.28040572770E+01  0.12325108518E+01  0.82205614083E+01  0.00000000000E+00 0. -1.
</event>
<event>
 8    1  0.1253488E-006  0.9118800E+02  0.7816164E-02  0.1184000E+00
        -11   -1    0    0    0    0  0.00000000000E+00  0.00000000000E+00  0.45593999997E+02  0.45594000000E+02  0.51100000000E-03 0.  1.
         11   -1    0    0    0    0 -0.00000000000E+00 -0.00000000000E+00 -0.45593999997E+02  0.45594000000E+02  0.51100000000E-03 0. -1.
         23    2    1    2    0    0  0.00000000000E+00 -0.26645352591E-14  0.00000000000E+00  0.91188000000E+02  0.91188000000E+02 0.  0.
    9900012    2    3    3    0    0 -0.11945311621E+02 -0.44230089003E+01  0.34547492414E+02  0.54367045238E+02  0.39999911230E+02 0.  0.
         12    1    3    3    0    0  0.11945311621E+02  0.44230089003E+01 -0.34547492414E+02  0.36820954762E+02  0.00000000000E+00 0. -1.
         11    1    4    4    0    0  0.10044379451E+01 -0.16293513599E+02  0.10239220543E+02  0.19269901883E+02  0.51100000000E-03 0. -1.
        -11    1    4    4    0    0 -0.90467205714E+01 -0.13591791769E+01  0.28387861914E+01  0.95785817548E+01  0.51100000000E-03 0.  1.
         12    1    4    4    0    0 -0.39030289948E+01  0.13229683876E+02  0.21469485680E+02  0.25518561600E+02  0.00000000000E+00 0. -1.
</event>
<event>
 8    1  0.1253488E-006  0.9118800E+02  0.7816164E-02  0.1184000E+00
        -11   -1    0    0    0    0  0.00000000000E+00  0.00000000000E+00  0.45593999997E+02  0.45594000000E+02  0.51100000000E-03 0.  1.
         11   -1    0    0    0    0 -0.00000000000E+00 -0.00000000000E+00 -0.45593999997E+02  0.45594000000E+02  0.51100000000E-03 0. -1.
         23    2    1    2    0    0  0.35527136788E-14  0.00000000000E+00  0.17763568394E-14  0.91188000000E+02  0.91188000000E+02 0.  0.
    9900012    2    3    3    0    0  0.27186927467E+02 -0.20275104946E+02 -0.14337734200E+02  0.54367088446E+02  0.40000009730E+02 0.  0.
         12    1    3    3    0    0 -0.27186927467E+02  0.20275104946E+02  0.14337734200E+02  0.36820911554E+02  0.00000000000E+00 0. -1.
         11    1    4    4    0    0  0.94197720537E+01  0.42262488855E+01 -0.13092133553E+02  0.16673249426E+02  0.51100000000E-03 0. -1.
        -11    1    4    4    0    0  0.16365300586E+01 -0.20566305775E+02 -0.35386313566E+01  0.20932584074E+02  0.51100000000E-03 0.  1.
        -12    1    4    4    0    0  0.16130625355E+02 -0.39350480563E+01  0.22930307090E+01  0.16761254946E+02  0.00000000000E+00 0.  1.
</event>
<event>
 8    1  0.1253488E-006  0.9118800E+02  0.7816164E-02  0.1184000E+00
        -11   -1    0    0    0    0  0.00000000000E+00  0.00000000000E+00  0.45593999997E+02  0.45594000000E+02  0.51100000000E-03 0.  1.
         11   -1    0    0    0    0 -0.00000000000E+00 -0.00000000000E+00 -0.45593999997E+02  0.45594000000E+02  0.51100000000E-03 0. -1.
         23    2    1    2    0    0  0.00000000000E+00 -0.71054273576E-14  0.00000000000E+00  0.91188000000E+02  0.91188000000E+02 0.  0.
    9900012    2    3    3    0    0  0.22628852432E+02 -0.24088989428E+02 -0.16230645723E+02  0.54367106005E+02  0.40000049759E+02 0.  0.
        -12    1    3    3    0    0 -0.22628852432E+02  0.24088989428E+02  0.16230645723E+02  0.36820893995E+02  0.00000000000E+00 0.  1.
         11    1    4    4    0    0 -0.20618557527E+01 -0.33173662438E+00  0.35231737944E+01  0.40956137732E+01  0.51100000000E-03 0. -1.
        -11    1    4    4    0    0  0.26961270711E+02 -0.16843071634E+02 -0.29100765854E+01  0.31922840200E+02  0.51100000000E-03 0.  1.
         12    1    4    4    0    0 -0.22705625270E+01 -0.69141811695E+01 -0.16843742932E+02  0.18348652032E+02  0.00000000000E+00 0. -1.
</event>
<event>
 8    1  0.1253488E-006  0.9118800E+02  0.7816164E-02  0.1184000E+00
        -11   -1    0    0    0    0  0.00000000000E+00  0.00000000000E+00  0.45593999997E+02  0.45594000000E+02  0.51100000000E-03 0.  1.
         11   -1    0    0    0    0 -0.00000000000E+00 -0.00000000000E+00 -0.45593999997E+02  0.45594000000E+02  0.51100000000E-03 0. -1.
         23    2    1    2    0    0  0.00000000000E+00  0.71054273576E-14  0.00000000000E+00  0.91188000000E+02  0.91188000000E+02 0.  0.
    9900012    2    3    3    0    0  0.78043768308E+01  0.35755163096E+02 -0.40547066878E+01  0.54367073449E+02  0.39999975542E+02 0.  0.
        -12    1    3    3    0    0 -0.78043768308E+01 -0.35755163096E+02  0.40547066878E+01  0.36820926551E+02  0.00000000000E+00 0.  1.
         11    1    4    4    0    0  0.63449542122E+01  0.25369592077E+02  0.56382846844E+01  0.26751913960E+02  0.51100000000E-03 0. -1.
        -11    1    4    4    0    0 -0.13821555700E+01 -0.74115847619E+01 -0.48091235384E+01  0.89425730174E+01  0.51100000000E-03 0.  1.
        -12    1    4    4    0    0  0.28415781885E+01  0.17797155781E+02 -0.48838678339E+01  0.18672586471E+02  0.00000000000E+00 0.  1.
</event>
<event>
 8    1  0.1253488E-006  0.9118800E+02  0.7816164E-02  0.1184000E+00
        -11   -1    0    0    0    0  0.00000000000E+00  0.00000000000E+00  0.45593999997E+02  0.45594000000E+02  0.51100000000E-03 0. -1.
         11   -1    0    0    0    0 -0.00000000000E+00 -0.00000000000E+00 -0.45593999997E+02  0.45594000000E+02  0.51100000000E-03 0.  1.
         23    2    1    2    0    0  0.35527136788E-14 -0.35527136788E-14  0.00000000000E+00  0.91188000000E+02  0.91188000000E+02 0.  0.
    9900012    2    3    3    0    0  0.22838322144E+02  0.20162821532E+02  0.20679746525E+02  0.54367078681E+02  0.39999987469E+02 0.  0.
        -12    1    3    3    0    0 -0.22838322144E+02 -0.20162821532E+02 -0.20679746525E+02  0.36820921319E+02  0.00000000000E+00 0.  1.
         11    1    4    4    0    0 -0.29599822862E+01 -0.53866973174E+01 -0.40724984524E+01  0.73731436328E+01  0.51100000000E-03 0. -1.
        -11    1    4    4    0    0  0.85522192961E+00 -0.15797748941E+01  0.47153573380E+01  0.50459576248E+01  0.51100000000E-03 0.  1.
         12    1    4    4    0    0  0.24943082500E+02  0.27129293744E+02  0.20036887639E+02  0.41947977423E+02  0.00000000000E+00 0. -1.
</event>
<event>
 8    1  0.1253488E-006  0.9118800E+02  0.7816164E-02  0.1184000E+00
        -11   -1    0    0    0    0  0.00000000000E+00  0.00000000000E+00  0.45593999997E+02  0.45594000000E+02  0.51100000000E-03 0. -1.
         11   -1    0    0    0    0 -0.00000000000E+00 -0.00000000000E+00 -0.45593999997E+02  0.45594000000E+02  0.51100000000E-03 0.  1.
         23    2    1    2    0    0 -0.17763568394E-14  0.00000000000E+00  0.17763568394E-14  0.91188000000E+02  0.91188000000E+02 0.  0.
    9900012    2    3    3    0    0  0.47535971230E+01 -0.34171210924E+02 -0.12865047507E+02  0.54367112056E+02  0.40000063554E+02 0.  0.
        -12    1    3    3    0    0 -0.47535971230E+01  0.34171210924E+02  0.12865047507E+02  0.36820887944E+02  0.00000000000E+00 0.  1.
         11    1    4    4    0    0  0.82228057778E+01 -0.21608934339E+02 -0.63946498798E+01  0.23988583232E+02  0.51100000000E-03 0. -1.
        -11    1    4    4    0    0 -0.21659306110E+01 -0.70873003343E+01 -0.16941116478E+02  0.18491146780E+02  0.51100000000E-03 0.  1.
        -12    1    4    4    0    0 -0.13032780437E+01 -0.54749762503E+01  0.10470718851E+02  0.11887382044E+02  0.00000000000E+00 0.  1.
</event>
<event>
 8    1  0.1253488E-006  0.9118800E+02  0.7816164E-02  0.1184000E+00
        -11   -1    0    0    0    0  0.00000000000E+00  0.00000000000E+00  0.45593999997E+02  0.45594000000E+02  0.51100000000E-03 0. -1.
         11   -1    0    0    0    0 -0.00000000000E+00 -0.00000000000E+00 -0.45593999997E+02  0.45594000000E+02  0.51100000000E-03 0.  1.
         23    2    1    2    0    0  0.17763568394E-14 -0.35527136788E-14  0.00000000000E+00  0.91188000000E+02  0.91188000000E+02 0.  0.
    9900012    2    3    3    0    0  0.14454776044E+02 -0.11674209644E+02  0.31789166778E+02  0.54367097706E+02  0.40000030841E+02 0.  0.
        -12    1    3    3    0    0 -0.14454776044E+02  0.11674209644E+02 -0.31789166778E+02  0.36820902294E+02  0.00000000000E+00 0.  1.
         11    1    4    4    0    0 -0.99502616705E+00 -0.15814316680E+02  0.33317608325E+02  0.36893708323E+02  0.51100000000E-03 0. -1.
        -11    1    4    4    0    0  0.72662141226E+01 -0.16976883195E+00 -0.34203269433E+01  0.80327657623E+01  0.51100000000E-03 0.  1.
        -12    1    4    4    0    0  0.81835880881E+01  0.43098758681E+01  0.18918853967E+01  0.94406236207E+01  0.00000000000E+00 0.  1.
</event>
<event>
 8    1  0.1253488E-006  0.9118800E+02  0.7816164E-02  0.1184000E+00
        -11   -1    0    0    0    0  0.00000000000E+00  0.00000000000E+00  0.45593999997E+02  0.45594000000E+02  0.51100000000E-03 0.  1.
         11   -1    0    0    0    0 -0.00000000000E+00 -0.00000000000E+00 -0.45593999997E+02  0.45594000000E+02  0.51100000000E-03 0. -1.
         23    2    1    2    0    0 -0.17763568394E-14 -0.71054273576E-14  0.17763568394E-14  0.91188000000E+02  0.91188000000E+02 0.  0.
    9900012    2    3    3    0    0  0.84477658798E+01  0.32568966597E+02 -0.14955947371E+02  0.54367045432E+02  0.39999911671E+02 0.  0.
         12    1    3    3    0    0 -0.84477658798E+01 -0.32568966597E+02  0.14955947371E+02  0.36820954568E+02  0.00000000000E+00 0. -1.
         11    1    4    4    0    0 -0.11720971197E+02  0.78340819235E+01  0.35433631250E+01  0.14536486091E+02  0.51100000000E-03 0. -1.
        -11    1    4    4    0    0  0.53668310864E+00 -0.19157412841E+01 -0.20898774636E+01  0.28854257053E+01  0.51100000000E-03 0.  1.
        -12    1    4    4    0    0  0.19632053968E+02  0.26650625957E+02 -0.16409433032E+02  0.36945133636E+02  0.00000000000E+00 0.  1.
</event>
<event>
 8    1  0.1253488E-006  0.9118800E+02  0.7816164E-02  0.1184000E+00
        -11   -1    0    0    0    0  0.00000000000E+00  0.00000000000E+00  0.45593999997E+02  0.45594000000E+02  0.51100000000E-03 0.  1.
         11   -1    0    0    0    0 -0.00000000000E+00 -0.00000000000E+00 -0.45593999997E+02  0.45594000000E+02  0.51100000000E-03 0. -1.
         23    2    1    2    0    0  0.00000000000E+00  0.00000000000E+00  0.00000000000E+00  0.91188000000E+02  0.91188000000E+02 0.  0.
    9900012    2    3    3    0    0  0.17040983512E+02 -0.38462230449E+01  0.32412787765E+02  0.54367117861E+02  0.40000076788E+02 0.  0.
         12    1    3    3    0    0 -0.17040983512E+02  0.38462230449E+01 -0.32412787765E+02  0.36820882139E+02  0.00000000000E+00 0. -1.
         11    1    4    4    0    0 -0.40205612546E+01  0.22253832242E+01  0.16931160945E+02  0.17543701277E+02  0.51100000000E-03 0. -1.
        -11    1    4    4    0    0  0.10850918769E+02  0.23001220016E+01  0.19998259637E+02  0.22868392775E+02  0.51100000000E-03 0.  1.
         12    1    4    4    0    0  0.10210625997E+02 -0.83717282708E+01 -0.45166328169E+01  0.13955023809E+02  0.00000000000E+00 0. -1.
</event>
<event>
 8    1  0.1253488E-006  0.9118800E+02  0.7816164E-02  0.1184000E+00
        -11   -1    0    0    0    0  0.00000000000E+00  0.00000000000E+00  0.45593999997E+02  0.45594000000E+02  0.51100000000E-03 0. -1.
         11   -1    0    0    0    0 -0.00000000000E+00 -0.00000000000E+00 -0.45593999997E+02  0.45594000000E+02  0.51100000000E-03 0.  1.
         23    2    1    2    0    0  0.00000000000E+00  0.00000000000E+00  0.00000000000E+00  0.91188000000E+02  0.91188000000E+02 0.  0.
    9900012    2    3    3    0    0  0.81774961233E+01 -0.35386952368E+02 -0.60557674829E+01  0.54367079852E+02  0.39999990138E+02 0.  0.
        -12    1    3    3    0    0 -0.81774961233E+01  0.35386952368E+02  0.60557674829E+01  0.36820920148E+02  0.00000000000E+00 0.  1.
         11    1    4    4    0    0  0.55439838475E+01 -0.20482923414E+02  0.61403049320E+01  0.22090478795E+02  0.51100000000E-03 0. -1.
        -11    1    4    4    0    0  0.13020371076E+02 -0.14443568804E+02 -0.87438300439E+01  0.21321381448E+02  0.51100000000E-03 0.  1.
        -12    1    4    4    0    0 -0.10386858800E+02 -0.46046014980E+00 -0.34522423710E+01  0.10955219609E+02  0.00000000000E+00 0.  1.
</event>
<event>
 8    1  0.1253488E-006  0.9118800E+02  0.7816164E-02  0.1184000E+00
        -11   -1    0    0    0    0  0.00000000000E+00  0.00000000000E+00  0.45593999997E+02  0.45594000000E+02  0.51100000000E-03 0.  1.
         11   -1    0    0    0    0 -0.00000000000E+00 -0.00000000000E+00 -0.45593999997E+02  0.45594000000E+02  0.51100000000E-03 0. -1.
         23    2    1    2    0    0 -0.35527136788E-14  0.00000000000E+00  0.35527136788E-14  0.91188000000E+02  0.91188000000E+02 0.  0.
    9900012    2    3    3    0    0 -0.16523821702E+02  0.89978495818E+01  0.31650954537E+02  0.54367069759E+02  0.39999967129E+02 0.  0.
        -12    1    3    3    0    0  0.16523821702E+02 -0.89978495818E+01 -0.31650954537E+02  0.36820930241E+02  0.00000000000E+00 0.  1.
         11    1    4    4    0    0  0.61052821298E+01 -0.32519771026E+00  0.64640713446E+00  0.61480131652E+01  0.51100000000E-03 0. -1.
        -11    1    4    4    0    0  0.17590566932E+01  0.73469593818E+01  0.20020846714E+02  0.21398747534E+02  0.51100000000E-03 0.  1.
        -12    1    4    4    0    0 -0.24388160525E+02  0.19760879102E+01  0.10983700688E+02  0.26820309059E+02  0.00000000000E+00 0.  1.
</event>
<event>
 8    1  0.1253488E-006  0.9118800E+02  0.7816164E-02  0.1184000E+00
        -11   -1    0    0    0    0  0.00000000000E+00  0.00000000000E+00  0.45593999997E+02  0.45594000000E+02  0.51100000000E-03 0. -1.
         11   -1    0    0    0    0 -0.00000000000E+00 -0.00000000000E+00 -0.45593999997E+02  0.45594000000E+02  0.51100000000E-03 0.  1.
         23    2    1    2    0    0  0.00000000000E+00  0.44408920985E-15 -0.88817841970E-15  0.91188000000E+02  0.91188000000E+02 0.  0.
    9900012    2    3    3    0    0 -0.36749544817E+02  0.21878134667E+01 -0.68174549320E+00  0.54367077294E+02  0.39999984306E+02 0.  0.
         12    1    3    3    0    0  0.36749544817E+02 -0.21878134667E+01  0.68174549320E+00  0.36820922706E+02  0.00000000000E+00 0. -1.
         11    1    4    4    0    0  0.20305016284E+01  0.10515381955E+01  0.10651979440E+02  0.10894647111E+02  0.51100000000E-03 0. -1.
        -11    1    4    4    0    0 -0.32601666808E+02 -0.14328363878E+01 -0.29794779291E+01  0.32768872238E+02  0.51100000000E-03 0.  1.
         12    1    4    4    0    0 -0.61783796378E+01  0.25691116590E+01 -0.83542470038E+01  0.10703557944E+02  0.00000000000E+00 0. -1.
</event>
<event>
 8    1  0.1253488E-006  0.9118800E+02  0.7816164E-02  0.1184000E+00
        -11   -1    0    0    0    0  0.00000000000E+00  0.00000000000E+00  0.45593999997E+02  0.45594000000E+02  0.51100000000E-03 0.  1.
         11   -1    0    0    0    0 -0.00000000000E+00 -0.00000000000E+00 -0.45593999997E+02  0.45594000000E+02  0.51100000000E-03 0. -1.
         23    2    1    2    0    0 -0.88817841970E-15  0.00000000000E+00  0.00000000000E+00  0.91188000000E+02  0.91188000000E+02 0.  0.
    9900012    2    3    3    0    0 -0.37158319995E+01 -0.19283624302E+02  0.31146634615E+02  0.54367103467E+02  0.40000043974E+02 0.  0.
         12    1    3    3    0    0  0.37158319995E+01  0.19283624302E+02 -0.31146634615E+02  0.36820896533E+02  0.00000000000E+00 0. -1.
         11    1    4    4    0    0 -0.11765289843E+02 -0.10715030213E+02  0.13210065750E+02  0.20681870199E+02  0.51100000000E-03 0. -1.
        -11    1    4    4    0    0 -0.14367989408E+01  0.79916233841E+01  0.10223810449E+01  0.81838682035E+01  0.51100000000E-03 0.  1.
         12    1    4    4    0    0  0.94862567847E+01 -0.16560217472E+02  0.16914187820E+02  0.25501365064E+02  0.00000000000E+00 0. -1.
</event>
<event>
 8    1  0.1253488E-006  0.9118800E+02  0.7816164E-02  0.1184000E+00
        -11   -1    0    0    0    0  0.00000000000E+00  0.00000000000E+00  0.45593999997E+02  0.45594000000E+02  0.51100000000E-03 0. -1.
         11   -1    0    0    0    0 -0.00000000000E+00 -0.00000000000E+00 -0.45593999997E+02  0.45594000000E+02  0.51100000000E-03 0.  1.
         23    2    1    2    0    0 -0.35527136788E-14  0.00000000000E+00  0.00000000000E+00  0.91188000000E+02  0.91188000000E+02 0.  0.
    9900012    2    3    3    0    0 -0.23728062116E+02  0.21587335875E+02 -0.18076093857E+02  0.54367093288E+02  0.40000020769E+02 0.  0.
         12    1    3    3    0    0  0.23728062116E+02 -0.21587335875E+02  0.18076093857E+02  0.36820906712E+02  0.00000000000E+00 0. -1.
         11    1    4    4    0    0 -0.59041077891E+01 -0.44163479946E+01 -0.93973778466E+01  0.11944594135E+02  0.51100000000E-03 0.  1.
        -11    1    4    4    0    0 -0.19571692846E+02  0.22423043247E+02 -0.16218117685E+02  0.33895005101E+02  0.51100000000E-03 0. -1.
         12    1    4    4    0    0  0.17477385190E+01  0.35806406224E+01  0.75394016747E+01  0.85274940522E+01  0.00000000000E+00 0. -1.
</event>
<event>
 8    1  0.1253488E-006  0.9118800E+02  0.7816164E-02  0.1184000E+00
        -11   -1    0    0    0    0  0.00000000000E+00  0.00000000000E+00  0.45593999997E+02  0.45594000000E+02  0.51100000000E-03 0. -1.
         11   -1    0    0    0    0 -0.00000000000E+00 -0.00000000000E+00 -0.45593999997E+02  0.45594000000E+02  0.51100000000E-03 0.  1.
         23    2    1    2    0    0  0.17763568394E-14  0.00000000000E+00  0.00000000000E+00  0.91188000000E+02  0.91188000000E+02 0.  0.
    9900012    2    3    3    0    0 -0.15621655077E+02  0.32827214504E+02 -0.58410745316E+01  0.54367078350E+02  0.39999986715E+02 0.  0.
         12    1    3    3    0    0  0.15621655077E+02 -0.32827214504E+02  0.58410745316E+01  0.36820921650E+02  0.00000000000E+00 0. -1.
         11    1    4    4    0    0  0.59820378224E+01  0.23942055753E+01  0.52811706135E+01  0.83311319852E+01  0.51100000000E-03 0. -1.
        -11    1    4    4    0    0 -0.17999989347E+02  0.58557664758E+01 -0.94058215499E+01  0.21136676579E+02  0.51100000000E-03 0.  1.
        -12    1    4    4    0    0 -0.36037035522E+01  0.24577242453E+02 -0.17164235952E+01  0.24899269786E+02  0.00000000000E+00 0.  1.
</event>
<event>
 8    1  0.1253488E-006  0.9118800E+02  0.7816164E-02  0.1184000E+00
        -11   -1    0    0    0    0  0.00000000000E+00  0.00000000000E+00  0.45593999997E+02  0.45594000000E+02  0.51100000000E-03 0. -1.
         11   -1    0    0    0    0 -0.00000000000E+00 -0.00000000000E+00 -0.45593999997E+02  0.45594000000E+02  0.51100000000E-03 0.  1.
         23    2    1    2    0    0  0.71054273576E-14  0.35527136788E-14  0.53290705182E-14  0.91188000000E+02  0.91188000000E+02 0.  0.
    9900012    2    3    3    0    0 -0.17692031213E+02 -0.28836980234E+02 -0.14532943706E+02  0.54367002590E+02  0.39999814005E+02 0.  0.
         12    1    3    3    0    0  0.17692031213E+02  0.28836980234E+02  0.14532943706E+02  0.36820997410E+02  0.00000000000E+00 0. -1.
         11    1    4    4    0    0 -0.62117836825E+01  0.11131258805E+01  0.10796862201E+02  0.12505900183E+02  0.51100000000E-03 0. -1.
        -11    1    4    4    0    0 -0.56674301383E+01 -0.45473592205E+01 -0.57310811611E+01  0.92543790601E+01  0.51100000000E-03 0.  1.
        -12    1    4    4    0    0 -0.58128173926E+01 -0.25402746894E+02 -0.19598724746E+02  0.32606723347E+02  0.00000000000E+00 0.  1.
</event>
<event>
 8    1  0.1253488E-006  0.9118800E+02  0.7816164E-02  0.1184000E+00
        -11   -1    0    0    0    0  0.00000000000E+00  0.00000000000E+00  0.45593999997E+02  0.45594000000E+02  0.51100000000E-03 0. -1.
         11   -1    0    0    0    0 -0.00000000000E+00 -0.00000000000E+00 -0.45593999997E+02  0.45594000000E+02  0.51100000000E-03 0.  1.
         23    2    1    2    0    0  0.00000000000E+00 -0.35527136788E-14 -0.17763568394E-14  0.91188000000E+02  0.91188000000E+02 0.  0.
    9900012    2    3    3    0    0 -0.17085874368E+02 -0.31981526241E+02  0.64057562269E+01  0.54367097832E+02  0.40000031128E+02 0.  0.
         12    1    3    3    0    0  0.17085874368E+02  0.31981526241E+02 -0.64057562269E+01  0.36820902168E+02  0.00000000000E+00 0. -1.
         11    1    4    4    0    0 -0.12186236267E+02 -0.13363959290E+02 -0.10644164573E+02  0.20985661819E+02  0.51100000000E-03 0. -1.
        -11    1    4    4    0    0 -0.12610109348E+02 -0.61860568357E+01  0.90419936368E+01  0.16704484611E+02  0.51100000000E-03 0.  1.
         12    1    4    4    0    0  0.77104712469E+01 -0.12431510115E+02  0.80079271634E+01  0.16676951401E+02  0.00000000000E+00 0. -1.
</event>
<event>
 8    1  0.1253488E-006  0.9118800E+02  0.7816164E-02  0.1184000E+00
        -11   -1    0    0    0    0  0.00000000000E+00  0.00000000000E+00  0.45593999997E+02  0.45594000000E+02  0.51100000000E-03 0. -1.
         11   -1    0    0    0    0 -0.00000000000E+00 -0.00000000000E+00 -0.45593999997E+02  0.45594000000E+02  0.51100000000E-03 0.  1.
         23    2    1    2    0    0 -0.17763568394E-14 -0.35527136788E-14  0.00000000000E+00  0.91188000000E+02  0.91188000000E+02 0.  0.
    9900012    2    3    3    0    0  0.15965057405E+02 -0.31554468626E+02 -0.10257246741E+02  0.54367100243E+02  0.40000036625E+02 0.  0.
         12    1    3    3    0    0 -0.15965057405E+02  0.31554468626E+02  0.10257246741E+02  0.36820899757E+02  0.00000000000E+00 0. -1.
         11    1    4    4    0    0  0.29504907566E+01 -0.99147922059E-01 -0.22588188477E+01  0.37171883007E+01  0.51100000000E-03 0. -1.
        -11    1    4    4    0    0  0.79056417856E+01  0.64320950972E+01 -0.70781546221E+01  0.12408516934E+02  0.51100000000E-03 0.  1.
        -12    1    4    4    0    0  0.51089248623E+01 -0.37887415801E+02 -0.92027327094E+00  0.38241395009E+02  0.00000000000E+00 0.  1.
</event>
<event>
 8    1  0.1253488E-006  0.9118800E+02  0.7816164E-02  0.1184000E+00
        -11   -1    0    0    0    0  0.00000000000E+00  0.00000000000E+00  0.45593999997E+02  0.45594000000E+02  0.51100000000E-03 0.  1.
         11   -1    0    0    0    0 -0.00000000000E+00 -0.00000000000E+00 -0.45593999997E+02  0.45594000000E+02  0.51100000000E-03 0. -1.
         23    2    1    2    0    0  0.00000000000E+00  0.00000000000E+00 -0.17763568394E-14  0.91188000000E+02  0.91188000000E+02 0.  0.
    9900012    2    3    3    0    0  0.32067298820E+01  0.35911143457E+02 -0.74758901349E+01  0.54367051150E+02  0.39999924706E+02 0.  0.
        -12    1    3    3    0    0 -0.32067298820E+01 -0.35911143457E+02  0.74758901349E+01  0.36820948850E+02  0.00000000000E+00 0.  1.
         11    1    4    4    0    0 -0.65302168962E+01  0.15825135089E+02 -0.10449149968E+02  0.20056504396E+02  0.51100000000E-03 0. -1.
        -11    1    4    4    0    0  0.13275906098E+02  0.24705862783E+02  0.67916119285E+00  0.28055134980E+02  0.51100000000E-03 0.  1.
        -12    1    4    4    0    0 -0.35389593199E+01 -0.46198544149E+01  0.22940986401E+01  0.62554117732E+01  0.00000000000E+00 0.  1.
</event>
<event>
 8    1  0.1253488E-006  0.9118800E+02  0.7816164E-02  0.1184000E+00
        -11   -1    0    0    0    0  0.00000000000E+00  0.00000000000E+00  0.45593999997E+02  0.45594000000E+02  0.51100000000E-03 0.  1.
         11   -1    0    0    0    0 -0.00000000000E+00 -0.00000000000E+00 -0.45593999997E+02  0.45594000000E+02  0.51100000000E-03 0. -1.
         23    2    1    2    0    0  0.00000000000E+00  0.00000000000E+00  0.00000000000E+00  0.91188000000E+02  0.91188000000E+02 0.  0.
    9900012    2    3    3    0    0 -0.30684026814E+02  0.53809300001E+01 -0.19629472246E+02  0.54367080812E+02  0.39999992327E+02 0.  0.
        -12    1    3    3    0    0  0.30684026814E+02 -0.53809300001E+01  0.19629472246E+02  0.36820919188E+02  0.00000000000E+00 0.  1.
         11    1    4    4    0    0 -0.15633097126E+02 -0.12963798351E+02 -0.47213315332E+01  0.20850533929E+02  0.51100000000E-03 0.  1.
        -11    1    4    4    0    0 -0.77334892840E+01  0.10970302628E+02 -0.18204202514E+02  0.22617413329E+02  0.51100000000E-03 0. -1.
        -12    1    4    4    0    0 -0.73174404043E+01  0.73744257235E+01  0.32960618012E+01  0.10899133554E+02  0.00000000000E+00 0.  1.
</event>
<event>
 8    1  0.1253488E-006  0.9118800E+02  0.7816164E-02  0.1184000E+00
        -11   -1    0    0    0    0  0.00000000000E+00  0.00000000000E+00  0.45593999997E+02  0.45594000000E+02  0.51100000000E-03 0.  1.
         11   -1    0    0    0    0 -0.00000000000E+00 -0.00000000000E+00 -0.45593999997E+02  0.45594000000E+02  0.51100000000E-03 0. -1.
         23    2    1    2    0    0 -0.35527136788E-14  0.35527136788E-14  0.44408920985E-15  0.91188000000E+02  0.91188000000E+02 0.  0.
    9900012    2    3    3    0    0 -0.18277020893E+02 -0.31756187424E+02 -0.36434161035E+01  0.54367089998E+02  0.40000013269E+02 0.  0.
         12    1    3    3    0    0  0.18277020893E+02  0.31756187424E+02  0.36434161035E+01  0.36820910002E+02  0.00000000000E+00 0. -1.
         11    1    4    4    0    0 -0.20281171993E+02 -0.22110921876E+02 -0.45127791556E+01  0.30341126867E+02  0.51100000000E-03 0. -1.
        -11    1    4    4    0    0  0.65952383152E+01 -0.28469955822E+01 -0.87908444259E+01  0.11352598745E+02  0.51100000000E-03 0.  1.
        -12    1    4    4    0    0 -0.45910872159E+01 -0.67982699653E+01  0.96602074780E+01  0.12673364386E+02  0.00000000000E+00 0.  1.
</event>
<event>
 8    1  0.1253488E-006  0.9118800E+02  0.7816164E-02  0.1184000E+00
        -11   -1    0    0    0    0  0.00000000000E+00  0.00000000000E+00  0.45593999997E+02  0.45594000000E+02  0.51100000000E-03 0. -1.
         11   -1    0    0    0    0 -0.00000000000E+00 -0.00000000000E+00 -0.45593999997E+02  0.45594000000E+02  0.51100000000E-03 0.  1.
         23    2    1    2    0    0 -0.88817841970E-15  0.17763568394E-14  0.00000000000E+00  0.91188000000E+02  0.91188000000E+02 0.  0.
    9900012    2    3    3    0    0 -0.71943129475E+01  0.12234817270E+02 -0.33975427782E+02  0.54367101242E+02  0.40000038901E+02 0.  0.
         12    1    3    3    0    0  0.71943129475E+01 -0.12234817270E+02  0.33975427782E+02  0.36820898758E+02  0.00000000000E+00 0. -1.
         11    1    4    4    0    0  0.80572555679E+01  0.49827134134E+01  0.32177342541E+00  0.94789418526E+01  0.51100000000E-03 0. -1.
        -11    1    4    4    0    0 -0.14264956931E+02 -0.53580170618E+01 -0.24653059890E+02  0.28982248106E+02  0.51100000000E-03 0.  1.
        -12    1    4    4    0    0 -0.98661158413E+00  0.12610120918E+02 -0.96441413170E+01  0.15905911283E+02  0.00000000000E+00 0.  1.
</event>
<event>
 8    1  0.1253488E-006  0.9118800E+02  0.7816164E-02  0.1184000E+00
        -11   -1    0    0    0    0  0.00000000000E+00  0.00000000000E+00  0.45593999997E+02  0.45594000000E+02  0.51100000000E-03 0. -1.
         11   -1    0    0    0    0 -0.00000000000E+00 -0.00000000000E+00 -0.45593999997E+02  0.45594000000E+02  0.51100000000E-03 0.  1.
         23    2    1    2    0    0  0.88817841970E-15 -0.35527136788E-14  0.00000000000E+00  0.91188000000E+02  0.91188000000E+02 0.  0.
    9900012    2    3    3    0    0 -0.22305072575E+01  0.29579391908E+02 -0.21814311736E+02  0.54367084954E+02  0.40000001770E+02 0.  0.
         12    1    3    3    0    0  0.22305072575E+01 -0.29579391908E+02  0.21814311736E+02  0.36820915046E+02  0.00000000000E+00 0. -1.
         11    1    4    4    0    0  0.27637635120E+01  0.16752039426E+01 -0.19357570328E+01  0.37672075269E+01  0.51100000000E-03 0. -1.
        -11    1    4    4    0    0  0.36636114235E+01 -0.68293107875E+01 -0.11447442524E+02  0.13824090389E+02  0.51100000000E-03 0.  1.
        -12    1    4    4    0    0 -0.86578821931E+01  0.34733498753E+02 -0.84311121799E+01  0.36775787038E+02  0.00000000000E+00 0.  1.
</event>
<event>
 8    1  0.1253488E-006  0.9118800E+02  0.7816164E-02  0.1184000E+00
        -11   -1    0    0    0    0  0.00000000000E+00  0.00000000000E+00  0.45593999997E+02  0.45594000000E+02  0.51100000000E-03 0.  1.
         11   -1    0    0    0    0 -0.00000000000E+00 -0.00000000000E+00 -0.45593999997E+02  0.45594000000E+02  0.51100000000E-03 0. -1.
         23    2    1    2    0    0  0.00000000000E+00  0.00000000000E+00  0.00000000000E+00  0.91188000000E+02  0.91188000000E+02 0.  0.
    9900012    2    3    3    0    0 -0.81339901211E+01 -0.27569360802E+02 -0.23011900950E+02  0.54367095127E+02  0.40000024960E+02 0.  0.
        -12    1    3    3    0    0  0.81339901211E+01  0.27569360802E+02  0.23011900950E+02  0.36820904873E+02  0.00000000000E+00 0.  1.
         11    1    4    4    0    0  0.61083054217E+00 -0.87643071709E+01 -0.26623608835E+02  0.28035740436E+02  0.51100000000E-03 0.  1.
        -11    1    4    4    0    0 -0.69511637781E+00 -0.17882642919E+02  0.15035111980E+01  0.17959194045E+02  0.51100000000E-03 0. -1.
        -12    1    4    4    0    0 -0.80497042855E+01 -0.92241071229E+00  0.21081966871E+01  0.83721606457E+01  0.00000000000E+00 0.  1.
</event>
<event>
 8    1  0.1253488E-006  0.9118800E+02  0.7816164E-02  0.1184000E+00
        -11   -1    0    0    0    0  0.00000000000E+00  0.00000000000E+00  0.45593999997E+02  0.45594000000E+02  0.51100000000E-03 0.  1.
         11   -1    0    0    0    0 -0.00000000000E+00 -0.00000000000E+00 -0.45593999997E+02  0.45594000000E+02  0.51100000000E-03 0. -1.
         23    2    1    2    0    0  0.00000000000E+00  0.35527136788E-14  0.00000000000E+00  0.91188000000E+02  0.91188000000E+02 0.  0.
    9900012    2    3    3    0    0 -0.27311123986E+02 -0.24149353700E+02  0.51664460234E+01  0.54367069240E+02  0.39999965947E+02 0.  0.
        -12    1    3    3    0    0  0.27311123986E+02  0.24149353700E+02 -0.51664460234E+01  0.36820930760E+02  0.00000000000E+00 0.  1.
         11    1    4    4    0    0  0.10180283653E+01  0.17604140874E+01 -0.58024918052E+01  0.61485242881E+01  0.51100000000E-03 0. -1.
        -11    1    4    4    0    0 -0.23206384780E+02 -0.29785332030E+02  0.15006690252E+02  0.40631306296E+02  0.51100000000E-03 0.  1.
        -12    1    4    4    0    0 -0.51227675716E+01  0.38755642430E+01 -0.40377524239E+01  0.75872386565E+01  0.00000000000E+00 0.  1.
</event>
<event>
 8    1  0.1253488E-006  0.9118800E+02  0.7816164E-02  0.1184000E+00
        -11   -1    0    0    0    0  0.00000000000E+00  0.00000000000E+00  0.45593999997E+02  0.45594000000E+02  0.51100000000E-03 0.  1.
         11   -1    0    0    0    0 -0.00000000000E+00 -0.00000000000E+00 -0.45593999997E+02  0.45594000000E+02  0.51100000000E-03 0. -1.
         23    2    1    2    0    0  0.26645352591E-14 -0.35527136788E-14  0.00000000000E+00  0.91188000000E+02  0.91188000000E+02 0.  0.
    9900012    2    3    3    0    0 -0.72620827001E+01  0.31511193808E+02  0.17609422391E+02  0.54367014988E+02  0.39999842267E+02 0.  0.
         12    1    3    3    0    0  0.72620827001E+01 -0.31511193808E+02 -0.17609422391E+02  0.36820985012E+02  0.00000000000E+00 0. -1.
         11    1    4    4    0    0 -0.75230359453E+00  0.10580539691E+02  0.44135082490E+01  0.11488813524E+02  0.51100000000E-03 0.  1.
        -11    1    4    4    0    0 -0.94624744980E+00  0.25933642523E+02 -0.19097146941E+01  0.26021072407E+02  0.51100000000E-03 0. -1.
         12    1    4    4    0    0 -0.55635316558E+01 -0.50029884069E+01  0.15105628837E+02  0.16857129057E+02  0.00000000000E+00 0. -1.
</event>
<event>
 8    1  0.1253488E-006  0.9118800E+02  0.7816164E-02  0.1184000E+00
        -11   -1    0    0    0    0  0.00000000000E+00  0.00000000000E+00  0.45593999997E+02  0.45594000000E+02  0.51100000000E-03 0. -1.
         11   -1    0    0    0    0 -0.00000000000E+00 -0.00000000000E+00 -0.45593999997E+02  0.45594000000E+02  0.51100000000E-03 0.  1.
         23    2    1    2    0    0 -0.71054273576E-14  0.00000000000E+00  0.35527136788E-14  0.91188000000E+02  0.91188000000E+02 0.  0.
    9900012    2    3    3    0    0  0.31999955117E+02  0.72705164870E+01 -0.16700954667E+02  0.54367089850E+02  0.40000012930E+02 0.  0.
        -12    1    3    3    0    0 -0.31999955117E+02 -0.72705164870E+01  0.16700954667E+02  0.36820910150E+02  0.00000000000E+00 0.  1.
         11    1    4    4    0    0  0.26136228510E+02  0.85325988918E+01 -0.58276113699E+00  0.27499950825E+02  0.51100000000E-03 0. -1.
        -11    1    4    4    0    0  0.10363591256E+02  0.55179780014E+01 -0.14347585191E+02  0.18539290872E+02  0.51100000000E-03 0.  1.
        -12    1    4    4    0    0 -0.44998646488E+01 -0.67800604061E+01 -0.17706083389E+01  0.83278481529E+01  0.00000000000E+00 0.  1.
</event>
<event>
 8    1  0.1253488E-006  0.9118800E+02  0.7816164E-02  0.1184000E+00
        -11   -1    0    0    0    0  0.00000000000E+00  0.00000000000E+00  0.45593999997E+02  0.45594000000E+02  0.51100000000E-03 0. -1.
         11   -1    0    0    0    0 -0.00000000000E+00 -0.00000000000E+00 -0.45593999997E+02  0.45594000000E+02  0.51100000000E-03 0.  1.
         23    2    1    2    0    0  0.44408920985E-15  0.17763568394E-14  0.00000000000E+00  0.91188000000E+02  0.91188000000E+02 0.  0.
    9900012    2    3    3    0    0 -0.81689359237E+00 -0.15771005289E+02  0.33262403780E+02  0.54367089797E+02  0.40000012809E+02 0.  0.
        -12    1    3    3    0    0  0.81689359237E+00  0.15771005289E+02 -0.33262403780E+02  0.36820910203E+02  0.00000000000E+00 0.  1.
         11    1    4    4    0    0 -0.58322098075E+01  0.58193737868E+01  0.10465558383E+02  0.13319448000E+02  0.51100000000E-03 0. -1.
        -11    1    4    4    0    0  0.48990243896E+01  0.49149069502E+01  0.83617555052E+01  0.10866264569E+02  0.51100000000E-03 0.  1.
         12    1    4    4    0    0  0.11629182548E+00 -0.26505286026E+02  0.14435089892E+02  0.30181377227E+02  0.00000000000E+00 0. -1.
</event>
<event>
 8    1  0.1253488E-006  0.9118800E+02  0.7816164E-02  0.1184000E+00
        -11   -1    0    0    0    0  0.00000000000E+00  0.00000000000E+00  0.45593999997E+02  0.45594000000E+02  0.51100000000E-03 0. -1.
         11   -1    0    0    0    0 -0.00000000000E+00 -0.00000000000E+00 -0.45593999997E+02  0.45594000000E+02  0.51100000000E-03 0.  1.
         23    2    1    2    0    0 -0.17763568394E-14  0.35527136788E-14  0.00000000000E+00  0.91188000000E+02  0.91188000000E+02 0.  0.
    9900012    2    3    3    0    0  0.96721377562E+01 -0.23841342451E+02 -0.26340447540E+02  0.54367095133E+02  0.40000024975E+02 0.  0.
         12    1    3    3    0    0 -0.96721377562E+01  0.23841342451E+02  0.26340447540E+02  0.36820904867E+02  0.00000000000E+00 0. -1.
         11    1    4    4    0    0  0.71155156902E+00  0.64106401062E+01 -0.65585176186E+01  0.91987371862E+01  0.51100000000E-03 0. -1.
        -11    1    4    4    0    0 -0.51834200817E+01 -0.11019871368E+02 -0.17314124481E+02  0.21168002161E+02  0.51100000000E-03 0.  1.
        -12    1    4    4    0    0  0.14144006269E+02 -0.19232111190E+02 -0.24678054404E+01  0.24000355786E+02  0.00000000000E+00 0.  1.
</event>
<event>
 8    1  0.1253488E-006  0.9118800E+02  0.7816164E-02  0.1184000E+00
        -11   -1    0    0    0    0  0.00000000000E+00  0.00000000000E+00  0.45593999997E+02  0.45594000000E+02  0.51100000000E-03 0.  1.
         11   -1    0    0    0    0 -0.00000000000E+00 -0.00000000000E+00 -0.45593999997E+02  0.45594000000E+02  0.51100000000E-03 0. -1.
         23    2    1    2    0    0  0.88817841970E-15  0.00000000000E+00  0.00000000000E+00  0.91188000000E+02  0.91188000000E+02 0.  0.
    9900012    2    3    3    0    0  0.48366511160E+01 -0.16409890353E+02  0.32605236245E+02  0.54367093900E+02  0.40000022163E+02 0.  0.
         12    1    3    3    0    0 -0.48366511160E+01  0.16409890353E+02 -0.32605236245E+02  0.36820906100E+02  0.00000000000E+00 0. -1.
         11    1    4    4    0    0 -0.42849528112E+01 -0.36838718429E+01 -0.31502807269E+01  0.64696214162E+01  0.51100000000E-03 0. -1.
        -11    1    4    4    0    0 -0.26311385207E+01  0.13848222375E+01  0.27674780997E+02  0.27834046167E+02  0.51100000000E-03 0.  1.
         12    1    4    4    0    0  0.11752742448E+02 -0.14110840748E+02  0.80807359756E+01  0.20063426317E+02  0.00000000000E+00 0. -1.
</event>
<event>
 8    1  0.1253488E-006  0.9118800E+02  0.7816164E-02  0.1184000E+00
        -11   -1    0    0    0    0  0.00000000000E+00  0.00000000000E+00  0.45593999997E+02  0.45594000000E+02  0.51100000000E-03 0.  1.
         11   -1    0    0    0    0 -0.00000000000E+00 -0.00000000000E+00 -0.45593999997E+02  0.45594000000E+02  0.51100000000E-03 0. -1.
         23    2    1    2    0    0  0.00000000000E+00  0.35527136788E-14 -0.35527136788E-14  0.91188000000E+02  0.91188000000E+02 0.  0.
    9900012    2    3    3    0    0  0.83863447027E+01  0.25486234991E+02 -0.25217033051E+02  0.54367113165E+02  0.40000066081E+02 0.  0.
        -12    1    3    3    0    0 -0.83863447027E+01 -0.25486234991E+02  0.25217033051E+02  0.36820886835E+02  0.00000000000E+00 0.  1.
         11    1    4    4    0    0  0.65641448220E+01  0.26205726902E+01 -0.61616637177E+01  0.93766464420E+01  0.51100000000E-03 0. -1.
        -11    1    4    4    0    0  0.12098915322E+02  0.12879230588E+02  0.37427968309E+01  0.18062858603E+02  0.51100000000E-03 0.  1.
        -12    1    4    4    0    0 -0.10276715442E+02  0.99864317124E+01 -0.22798166164E+02  0.26927608120E+02  0.00000000000E+00 0.  1.
</event>
<event>
 8    1  0.1253488E-006  0.9118800E+02  0.7816164E-02  0.1184000E+00
        -11   -1    0    0    0    0  0.00000000000E+00  0.00000000000E+00  0.45593999997E+02  0.45594000000E+02  0.51100000000E-03 0. -1.
         11   -1    0    0    0    0 -0.00000000000E+00 -0.00000000000E+00 -0.45593999997E+02  0.45594000000E+02  0.51100000000E-03 0.  1.
         23    2    1    2    0    0  0.00000000000E+00  0.00000000000E+00 -0.35527136788E-14  0.91188000000E+02  0.91188000000E+02 0.  0.
    9900012    2    3    3    0    0  0.30430565161E+02  0.69313971952E+01 -0.19537547641E+02  0.54367091118E+02  0.40000015822E+02 0.  0.
         12    1    3    3    0    0 -0.30430565161E+02 -0.69313971952E+01  0.19537547641E+02  0.36820908882E+02  0.00000000000E+00 0. -1.
         11    1    4    4    0    0 -0.32232733557E+01 -0.11035330162E+00 -0.22704587426E-01  0.32252418105E+01  0.51100000000E-03 0. -1.
        -11    1    4    4    0    0  0.67823318294E+01 -0.43199094684E-01  0.90367017438E+01  0.11298843741E+02  0.51100000000E-03 0.  1.
        -12    1    4    4    0    0  0.26871506687E+02  0.70849495915E+01 -0.28551544797E+02  0.39843005567E+02  0.00000000000E+00 0.  1.
</event>
<event>
 8    1  0.1253488E-006  0.9118800E+02  0.7816164E-02  0.1184000E+00
        -11   -1    0    0    0    0  0.00000000000E+00  0.00000000000E+00  0.45593999997E+02  0.45594000000E+02  0.51100000000E-03 0.  1.
         11   -1    0    0    0    0 -0.00000000000E+00 -0.00000000000E+00 -0.45593999997E+02  0.45594000000E+02  0.51100000000E-03 0. -1.
         23    2    1    2    0    0 -0.88817841970E-15  0.00000000000E+00  0.35527136788E-14  0.91188000000E+02  0.91188000000E+02 0.  0.
    9900012    2    3    3    0    0  0.55069643678E+01  0.27601830462E+02 -0.23740091955E+02  0.54367086548E+02  0.40000005404E+02 0.  0.
        -12    1    3    3    0    0 -0.55069643678E+01 -0.27601830462E+02  0.23740091955E+02  0.36820913452E+02  0.00000000000E+00 0.  1.
         11    1    4    4    0    0  0.82805290504E+01  0.13007147753E+02 -0.29829182805E+02  0.33578761161E+02  0.51100000000E-03 0. -1.
        -11    1    4    4    0    0 -0.72856494059E+01  0.11308064033E+02  0.14494497422E+01  0.13529741470E+02  0.51100000000E-03 0.  1.
        -12    1    4    4    0    0  0.45120847232E+01  0.32866186761E+01  0.46396411080E+01  0.72585839172E+01  0.00000000000E+00 0.  1.
</event>
<event>
 8    1  0.1253488E-006  0.9118800E+02  0.7816164E-02  0.1184000E+00
        -11   -1    0    0    0    0  0.00000000000E+00  0.00000000000E+00  0.45593999997E+02  0.45594000000E+02  0.51100000000E-03 0.  1.
         11   -1    0    0    0    0 -0.00000000000E+00 -0.00000000000E+00 -0.45593999997E+02  0.45594000000E+02  0.51100000000E-03 0. -1.
         23    2    1    2    0    0  0.88817841970E-15 -0.17763568394E-14  0.00000000000E+00  0.91188000000E+02  0.91188000000E+02 0.  0.
    9900012    2    3    3    0    0  0.68838155494E+01 -0.13121964439E+02 -0.33707662395E+02  0.54367090568E+02  0.40000014568E+02 0.  0.
        -12    1    3    3    0    0 -0.68838155494E+01  0.13121964439E+02  0.33707662395E+02  0.36820909432E+02  0.00000000000E+00 0.  1.
         11    1    4    4    0    0 -0.40613593401E+01 -0.68467588091E+01 -0.22305208560E+02  0.23683223494E+02  0.51100000000E-03 0. -1.
        -11    1    4    4    0    0  0.11545926155E+02 -0.14536685941E+02 -0.12423958443E+02  0.22337824258E+02  0.51100000000E-03 0.  1.
        -12    1    4    4    0    0 -0.60075126559E+00  0.82614803114E+01  0.10215046081E+01  0.83460428158E+01  0.00000000000E+00 0.  1.
</event>
<event>
 8    1  0.1253488E-006  0.9118800E+02  0.7816164E-02  0.1184000E+00
        -11   -1    0    0    0    0  0.00000000000E+00  0.00000000000E+00  0.45593999997E+02  0.45594000000E+02  0.51100000000E-03 0. -1.
         11   -1    0    0    0    0 -0.00000000000E+00 -0.00000000000E+00 -0.45593999997E+02  0.45594000000E+02  0.51100000000E-03 0.  1.
         23    2    1    2    0    0  0.00000000000E+00 -0.33306690739E-15  0.17763568394E-14  0.91188000000E+02  0.91188000000E+02 0.  0.
    9900012    2    3    3    0    0 -0.34636909050E+02  0.47465477817E+00  0.12483594723E+02  0.54367069771E+02  0.39999967158E+02 0.  0.
        -12    1    3    3    0    0  0.34636909050E+02 -0.47465477817E+00 -0.12483594723E+02  0.36820930229E+02  0.00000000000E+00 0.  1.
         11    1    4    4    0    0  0.42804170236E+00 -0.20254737712E+01  0.66282114407E+01  0.69439866691E+01  0.51100000000E-03 0. -1.
        -11    1    4    4    0    0  0.30410138573E+01  0.11602849913E+01  0.85995940662E+01  0.91949467049E+01  0.51100000000E-03 0.  1.
         12    1    4    4    0    0 -0.38105964610E+02  0.13398435581E+01 -0.27442107841E+01  0.38228136397E+02  0.00000000000E+00 0. -1.
</event>
<event>
 8    1  0.1253488E-006  0.9118800E+02  0.7816164E-02  0.1184000E+00
        -11   -1    0    0    0    0  0.00000000000E+00  0.00000000000E+00  0.45593999997E+02  0.45594000000E+02  0.51100000000E-03 0.  1.
         11   -1    0    0    0    0 -0.00000000000E+00 -0.00000000000E+00 -0.45593999997E+02  0.45594000000E+02  0.51100000000E-03 0. -1.
         23    2    1    2    0    0  0.00000000000E+00  0.00000000000E+00  0.00000000000E+00  0.91188000000E+02  0.91188000000E+02 0.  0.
    9900012    2    3    3    0    0 -0.69076713409E+01  0.35777380554E+02  0.52957935076E+01  0.54367050643E+02  0.39999923551E+02 0.  0.
        -12    1    3    3    0    0  0.69076713409E+01 -0.35777380554E+02 -0.52957935076E+01  0.36820949357E+02  0.00000000000E+00 0.  1.
         11    1    4    4    0    0  0.90867484628E+00  0.20537109505E+02  0.10235065686E+02  0.22964214043E+02  0.51100000000E-03 0. -1.
        -11    1    4    4    0    0 -0.98073885385E+01  0.17223732422E+02  0.55183905078E+01  0.20574121186E+02  0.51100000000E-03 0.  1.
         12    1    4    4    0    0  0.19910423514E+01 -0.19834613728E+01 -0.10457662686E+02  0.10828715414E+02  0.00000000000E+00 0. -1.
</event>
<event>
 8    1  0.1253488E-006  0.9118800E+02  0.7816164E-02  0.1184000E+00
        -11   -1    0    0    0    0  0.00000000000E+00  0.00000000000E+00  0.45593999997E+02  0.45594000000E+02  0.51100000000E-03 0.  1.
         11   -1    0    0    0    0 -0.00000000000E+00 -0.00000000000E+00 -0.45593999997E+02  0.45594000000E+02  0.51100000000E-03 0. -1.
         23    2    1    2    0    0  0.17763568394E-14  0.00000000000E+00 -0.35527136788E-14  0.91188000000E+02  0.91188000000E+02 0.  0.
    9900012    2    3    3    0    0  0.71148396510E+01  0.30883441955E+02  0.18744905224E+02  0.54367090151E+02  0.40000013618E+02 0.  0.
         12    1    3    3    0    0 -0.71148396510E+01 -0.30883441955E+02 -0.18744905224E+02  0.36820909849E+02  0.00000000000E+00 0. -1.
         11    1    4    4    0    0 -0.40731812217E+01  0.20795013208E+02  0.22663472383E+01  0.21311023196E+02  0.51100000000E-03 0. -1.
        -11    1    4    4    0    0  0.17977533323E+02  0.29487498396E+01  0.74158306004E+01  0.19669300286E+02  0.51100000000E-03 0.  1.
        -12    1    4    4    0    0 -0.67895124500E+01  0.71396789078E+01  0.90627273850E+01  0.13386766670E+02  0.00000000000E+00 0.  1.
</event>
<event>
 8    1  0.1253488E-006  0.9118800E+02  0.7816164E-02  0.1184000E+00
        -11   -1    0    0    0    0  0.00000000000E+00  0.00000000000E+00  0.45593999997E+02  0.45594000000E+02  0.51100000000E-03 0.  1.
         11   -1    0    0    0    0 -0.00000000000E+00 -0.00000000000E+00 -0.45593999997E+02  0.45594000000E+02  0.51100000000E-03 0. -1.
         23    2    1    2    0    0  0.35527136788E-14 -0.17763568394E-14  0.35527136788E-14  0.91188000000E+02  0.91188000000E+02 0.  0.
    9900012    2    3    3    0    0 -0.21807650293E+02 -0.15754193945E+02  0.25139845586E+02  0.54367081024E+02  0.39999992810E+02 0.  0.
         12    1    3    3    0    0  0.21807650293E+02  0.15754193945E+02 -0.25139845586E+02  0.36820918976E+02  0.00000000000E+00 0. -1.
         11    1    4    4    0    0 -0.23668620840E+02 -0.97947127623E+01 -0.50833918137E+00  0.25620273604E+02  0.51100000000E-03 0. -1.
        -11    1    4    4    0    0 -0.34216834646E+01 -0.62900049047E+01  0.18613333370E+02  0.19943125604E+02  0.51100000000E-03 0.  1.
         12    1    4    4    0    0  0.52826540116E+01  0.33052372216E+00  0.70348513969E+01  0.88036818158E+01  0.00000000000E+00 0. -1.
</event>
<event>
 8    1  0.1253488E-006  0.9118800E+02  0.7816164E-02  0.1184000E+00
        -11   -1    0    0    0    0  0.00000000000E+00  0.00000000000E+00  0.45593999997E+02  0.45594000000E+02  0.51100000000E-03 0.  1.
         11   -1    0    0    0    0 -0.00000000000E+00 -0.00000000000E+00 -0.45593999997E+02  0.45594000000E+02  0.51100000000E-03 0. -1.
         23    2    1    2    0    0  0.00000000000E+00  0.00000000000E+00  0.41633363423E-15  0.91188000000E+02  0.91188000000E+02 0.  0.
    9900012    2    3    3    0    0 -0.34955796408E+02  0.11570013082E+02 -0.12961568830E+00  0.54366950240E+02  0.39999694660E+02 0.  0.
        -12    1    3    3    0    0  0.34955796408E+02 -0.11570013082E+02  0.12961568830E+00  0.36821049760E+02  0.00000000000E+00 0.  1.
         11    1    4    4    0    0 -0.75382444937E+01  0.58702461730E+01 -0.15528185362E+02  0.18232099744E+02  0.51100000000E-03 0. -1.
        -11    1    4    4    0    0  0.13127305034E+00 -0.32967495009E+01  0.34906813809E+01  0.48031912985E+01  0.51100000000E-03 0.  1.
        -12    1    4    4    0    0 -0.27548824965E+02  0.89965164098E+01  0.11907888293E+02  0.31331659197E+02  0.00000000000E+00 0.  1.
</event>
<event>
 8    1  0.1253488E-006  0.9118800E+02  0.7816164E-02  0.1184000E+00
        -11   -1    0    0    0    0  0.00000000000E+00  0.00000000000E+00  0.45593999997E+02  0.45594000000E+02  0.51100000000E-03 0. -1.
         11   -1    0    0    0    0 -0.00000000000E+00 -0.00000000000E+00 -0.45593999997E+02  0.45594000000E+02  0.51100000000E-03 0.  1.
         23    2    1    2    0    0 -0.35527136788E-14  0.00000000000E+00  0.00000000000E+00  0.91188000000E+02  0.91188000000E+02 0.  0.
    9900012    2    3    3    0    0  0.18919787354E+02 -0.26889914128E+02  0.16575603124E+02  0.54367130181E+02  0.40000104873E+02 0.  0.
        -12    1    3    3    0    0 -0.18919787354E+02  0.26889914128E+02 -0.16575603124E+02  0.36820869819E+02  0.00000000000E+00 0.  1.
         11    1    4    4    0    0  0.15032003915E+01 -0.59824802346E+01  0.18598753850E+02  0.19594982169E+02  0.51100000000E-03 0. -1.
        -11    1    4    4    0    0  0.11262133460E+02 -0.89343209533E+01  0.93500533069E+01  0.17148796986E+02  0.51100000000E-03 0.  1.
        -12    1    4    4    0    0  0.61544535018E+01 -0.11973112940E+02 -0.11373204033E+02  0.17623351025E+02  0.00000000000E+00 0.  1.
</event>
<event>
 8    1  0.1253488E-006  0.9118800E+02  0.7816164E-02  0.1184000E+00
        -11   -1    0    0    0    0  0.00000000000E+00  0.00000000000E+00  0.45593999997E+02  0.45594000000E+02  0.51100000000E-03 0. -1.
         11   -1    0    0    0    0 -0.00000000000E+00 -0.00000000000E+00 -0.45593999997E+02  0.45594000000E+02  0.51100000000E-03 0.  1.
         23    2    1    2    0    0  0.00000000000E+00  0.35527136788E-14  0.35527136788E-14  0.91188000000E+02  0.91188000000E+02 0.  0.
    9900012    2    3    3    0    0  0.21200521774E+02 -0.21720186429E+02 -0.20846197843E+02  0.54366911117E+02  0.39999605471E+02 0.  0.
         12    1    3    3    0    0 -0.21200521774E+02  0.21720186429E+02  0.20846197843E+02  0.36821088883E+02  0.00000000000E+00 0. -1.
         11    1    4    4    0    0  0.17856920705E+02  0.40471169977E+01 -0.42911060096E+01  0.18805913009E+02  0.51100000000E-03 0.  1.
        -11    1    4    4    0    0  0.63144105001E+01 -0.26872337934E+02 -0.16909339042E+02  0.32371593614E+02  0.51100000000E-03 0. -1.
         12    1    4    4    0    0 -0.29708094310E+01  0.11050345073E+01  0.35424720855E+00  0.31894044934E+01  0.00000000000E+00 0. -1.
</event>
<event>
 8    1  0.1253488E-006  0.9118800E+02  0.7816164E-02  0.1184000E+00
        -11   -1    0    0    0    0  0.00000000000E+00  0.00000000000E+00  0.45593999997E+02  0.45594000000E+02  0.51100000000E-03 0. -1.
         11   -1    0    0    0    0 -0.00000000000E+00 -0.00000000000E+00 -0.45593999997E+02  0.45594000000E+02  0.51100000000E-03 0.  1.
         23    2    1    2    0    0 -0.16653345369E-14  0.71054273576E-14 -0.35527136788E-14  0.91188000000E+02  0.91188000000E+02 0.  0.
    9900012    2    3    3    0    0  0.60374643350E+00 -0.35044459076E+02  0.11282775569E+02  0.54367086836E+02  0.40000006061E+02 0.  0.
        -12    1    3    3    0    0 -0.60374643350E+00  0.35044459076E+02 -0.11282775569E+02  0.36820913164E+02  0.00000000000E+00 0.  1.
         11    1    4    4    0    0 -0.75921948679E+01 -0.24409956852E+02  0.22489988762E+01  0.25662139674E+02  0.51100000000E-03 0. -1.
        -11    1    4    4    0    0  0.14955099620E+01 -0.85564400680E+01 -0.70310424733E+01  0.11175185690E+02  0.51100000000E-03 0.  1.
         12    1    4    4    0    0  0.67004313394E+01 -0.20780621559E+01  0.16064819166E+02  0.17529761473E+02  0.00000000000E+00 0. -1.
</event>
<event>
 8    1  0.1253488E-006  0.9118800E+02  0.7816164E-02  0.1184000E+00
        -11   -1    0    0    0    0  0.00000000000E+00  0.00000000000E+00  0.45593999997E+02  0.45594000000E+02  0.51100000000E-03 0.  1.
         11   -1    0    0    0    0 -0.00000000000E+00 -0.00000000000E+00 -0.45593999997E+02  0.45594000000E+02  0.51100000000E-03 0. -1.
         23    2    1    2    0    0  0.00000000000E+00 -0.88817841970E-15  0.00000000000E+00  0.91188000000E+02  0.91188000000E+02 0.  0.
    9900012    2    3    3    0    0  0.16685788690E+02 -0.76531370911E+01  0.31918555676E+02  0.54367078664E+02  0.39999987431E+02 0.  0.
         12    1    3    3    0    0 -0.16685788690E+02  0.76531370911E+01 -0.31918555676E+02  0.36820921336E+02  0.00000000000E+00 0. -1.
         11    1    4    4    0    0  0.16551472294E+02  0.21739838794E+01  0.48285852947E+01  0.17377936506E+02  0.51100000000E-03 0. -1.
        -11    1    4    4    0    0 -0.98121958346E+01  0.38342210991E-01  0.54895195969E+01  0.11243464007E+02  0.51100000000E-03 0.  1.
        -12    1    4    4    0    0  0.99465122312E+01 -0.98654631815E+01  0.21600450784E+02  0.25745678151E+02  0.00000000000E+00 0.  1.
</event>
<event>
 8    1  0.1253488E-006  0.9118800E+02  0.7816164E-02  0.1184000E+00
        -11   -1    0    0    0    0  0.00000000000E+00  0.00000000000E+00  0.45593999997E+02  0.45594000000E+02  0.51100000000E-03 0.  1.
         11   -1    0    0    0    0 -0.00000000000E+00 -0.00000000000E+00 -0.45593999997E+02  0.45594000000E+02  0.51100000000E-03 0. -1.
         23    2    1    2    0    0  0.00000000000E+00  0.00000000000E+00  0.00000000000E+00  0.91188000000E+02  0.91188000000E+02 0.  0.
    9900012    2    3    3    0    0 -0.23945038423E+02 -0.17093839188E+02  0.22140804268E+02  0.54367089950E+02  0.40000013160E+02 0.  0.
         12    1    3    3    0    0  0.23945038423E+02  0.17093839188E+02 -0.22140804268E+02  0.36820910050E+02  0.00000000000E+00 0. -1.
         11    1    4    4    0    0 -0.62773779023E-01 -0.33103810623E+01 -0.60992091349E+01  0.69399506956E+01  0.51100000000E-03 0. -1.
        -11    1    4    4    0    0 -0.23591969920E+02 -0.20057334625E+02  0.19253229621E+02  0.36463194704E+02  0.51100000000E-03 0.  1.
        -12    1    4    4    0    0 -0.29029472473E+00  0.62738764999E+01  0.89867837817E+01  0.10963944550E+02  0.00000000000E+00 0.  1.
</event>
<event>
 8    1  0.1253488E-006  0.9118800E+02  0.7816164E-02  0.1184000E+00
        -11   -1    0    0    0    0  0.00000000000E+00  0.00000000000E+00  0.45593999997E+02  0.45594000000E+02  0.51100000000E-03 0. -1.
         11   -1    0    0    0    0 -0.00000000000E+00 -0.00000000000E+00 -0.45593999997E+02  0.45594000000E+02  0.51100000000E-03 0.  1.
         23    2    1    2    0    0  0.00000000000E+00  0.00000000000E+00  0.00000000000E+00  0.91188000000E+02  0.91188000000E+02 0.  0.
    9900012    2    3    3    0    0 -0.14996654637E+02  0.31020005991E+02 -0.12986134938E+02  0.54367080367E+02  0.39999991312E+02 0.  0.
         12    1    3    3    0    0  0.14996654637E+02 -0.31020005991E+02  0.12986134938E+02  0.36820919633E+02  0.00000000000E+00 0. -1.
         11    1    4    4    0    0 -0.14549636240E+02 -0.16893976629E+01 -0.55540815701E+01  0.15665050320E+02  0.51100000000E-03 0. -1.
        -11    1    4    4    0    0  0.70869981628E+01  0.43544714267E+01 -0.37811857302E+01  0.91369759851E+01  0.51100000000E-03 0.  1.
        -12    1    4    4    0    0 -0.75340165591E+01  0.28354932228E+02 -0.36508676378E+01  0.29565054061E+02  0.00000000000E+00 0.  1.
</event>
<event>
 8    1  0.1253488E-006  0.9118800E+02  0.7816164E-02  0.1184000E+00
        -11   -1    0    0    0    0  0.00000000000E+00  0.00000000000E+00  0.45593999997E+02  0.45594000000E+02  0.51100000000E-03 0. -1.
         11   -1    0    0    0    0 -0.00000000000E+00 -0.00000000000E+00 -0.45593999997E+02  0.45594000000E+02  0.51100000000E-03 0.  1.
         23    2    1    2    0    0  0.88817841970E-15 -0.35527136788E-14  0.00000000000E+00  0.91188000000E+02  0.91188000000E+02 0.  0.
    9900012    2    3    3    0    0  0.62726499534E+01  0.29032521048E+02  0.21761140257E+02  0.54367073326E+02  0.39999975261E+02 0.  0.
        -12    1    3    3    0    0 -0.62726499534E+01 -0.29032521048E+02 -0.21761140257E+02  0.36820926674E+02  0.00000000000E+00 0.  1.
         11    1    4    4    0    0 -0.47073110659E+01  0.19452139980E+02  0.19371930560E+02  0.27853477721E+02  0.51100000000E-03 0. -1.
        -11    1    4    4    0    0 -0.23415087612E+01  0.80640394187E+01 -0.63339958249E+01  0.10518122380E+02  0.51100000000E-03 0.  1.
        -12    1    4    4    0    0  0.13321469781E+02  0.15163416494E+01  0.87232055215E+01  0.15995473225E+02  0.00000000000E+00 0.  1.
</event>
<event>
 8    1  0.1253488E-006  0.9118800E+02  0.7816164E-02  0.1184000E+00
        -11   -1    0    0    0    0  0.00000000000E+00  0.00000000000E+00  0.45593999997E+02  0.45594000000E+02  0.51100000000E-03 0.  1.
         11   -1    0    0    0    0 -0.00000000000E+00 -0.00000000000E+00 -0.45593999997E+02  0.45594000000E+02  0.51100000000E-03 0. -1.
         23    2    1    2    0    0  0.00000000000E+00  0.71054273576E-14 -0.35527136788E-14  0.91188000000E+02  0.91188000000E+02 0.  0.
    9900012    2    3    3    0    0  0.22367554284E+02 -0.24738872884E+02  0.15603076710E+02  0.54367145596E+02  0.40000140015E+02 0.  0.
         12    1    3    3    0    0 -0.22367554284E+02  0.24738872884E+02 -0.15603076710E+02  0.36820854404E+02  0.00000000000E+00 0. -1.
         11    1    4    4    0    0  0.96911036606E+01 -0.20019135979E+02 -0.45698005565E+01  0.22706086693E+02  0.51100000000E-03 0. -1.
        -11    1    4    4    0    0 -0.44985613477E+00 -0.99055232503E+01  0.56612053615E+01  0.11418012428E+02  0.51100000000E-03 0.  1.
        -12    1    4    4    0    0  0.13126306758E+02  0.51857863454E+01  0.14511671905E+02  0.20243046475E+02  0.00000000000E+00 0.  1.
</event>
<event>
 8    1  0.1253488E-006  0.9118800E+02  0.7816164E-02  0.1184000E+00
        -11   -1    0    0    0    0  0.00000000000E+00  0.00000000000E+00  0.45593999997E+02  0.45594000000E+02  0.51100000000E-03 0.  1.
         11   -1    0    0    0    0 -0.00000000000E+00 -0.00000000000E+00 -0.45593999997E+02  0.45594000000E+02  0.51100000000E-03 0. -1.
         23    2    1    2    0    0  0.00000000000E+00  0.00000000000E+00  0.00000000000E+00  0.91188000000E+02  0.91188000000E+02 0.  0.
    9900012    2    3    3    0    0  0.36033466596E+01 -0.10384171712E+02  0.35142208947E+02  0.54366946525E+02  0.39999686192E+02 0.  0.
         12    1    3    3    0    0 -0.36033466596E+01  0.10384171712E+02 -0.35142208947E+02  0.36821053475E+02  0.00000000000E+00 0. -1.
         11    1    4    4    0    0 -0.12402663546E+02 -0.63419625578E+01  0.24924321323E+01  0.14151281578E+02  0.51100000000E-03 0. -1.
        -11    1    4    4    0    0  0.45299899106E+01 -0.13017496122E+01 -0.76863806368E+00  0.47755801090E+01  0.51100000000E-03 0.  1.
        -12    1    4    4    0    0  0.11476020295E+02 -0.27404595424E+01  0.33418414879E+02  0.35440084838E+02  0.00000000000E+00 0.  1.
</event>
<event>
 8    1  0.1253488E-006  0.9118800E+02  0.7816164E-02  0.1184000E+00
        -11   -1    0    0    0    0  0.00000000000E+00  0.00000000000E+00  0.45593999997E+02  0.45594000000E+02  0.51100000000E-03 0.  1.
         11   -1    0    0    0    0 -0.00000000000E+00 -0.00000000000E+00 -0.45593999997E+02  0.45594000000E+02  0.51100000000E-03 0. -1.
         23    2    1    2    0    0 -0.88817841970E-15 -0.71054273576E-14  0.00000000000E+00  0.91188000000E+02  0.91188000000E+02 0.  0.
    9900012    2    3    3    0    0  0.55653107727E+01 -0.28207228240E+02 -0.23003465778E+02  0.54367084112E+02  0.39999999851E+02 0.  0.
        -12    1    3    3    0    0 -0.55653107727E+01  0.28207228240E+02  0.23003465778E+02  0.36820915888E+02  0.00000000000E+00 0.  1.
         11    1    4    4    0    0  0.12467973999E+02 -0.64882337610E+01  0.30652258904E+01  0.14385519212E+02  0.51100000000E-03 0.  1.
        -11    1    4    4    0    0 -0.13873522885E+02 -0.11962026774E+02 -0.16089136551E+02  0.24380833395E+02  0.51100000000E-03 0. -1.
         12    1    4    4    0    0  0.69708596586E+01 -0.97569677051E+01 -0.99795551172E+01  0.15600731506E+02  0.00000000000E+00 0. -1.
</event>
<event>
 8    1  0.1253488E-006  0.9118800E+02  0.7816164E-02  0.1184000E+00
        -11   -1    0    0    0    0  0.00000000000E+00  0.00000000000E+00  0.45593999997E+02  0.45594000000E+02  0.51100000000E-03 0. -1.
         11   -1    0    0    0    0 -0.00000000000E+00 -0.00000000000E+00 -0.45593999997E+02  0.45594000000E+02  0.51100000000E-03 0.  1.
         23    2    1    2    0    0  0.00000000000E+00  0.00000000000E+00 -0.35527136788E-14  0.91188000000E+02  0.91188000000E+02 0.  0.
    9900012    2    3    3    0    0 -0.33239445283E+02 -0.83188251063E+01  0.13480244247E+02  0.54367074444E+02  0.39999977809E+02 0.  0.
         12    1    3    3    0    0  0.33239445283E+02  0.83188251063E+01 -0.13480244247E+02  0.36820925556E+02  0.00000000000E+00 0. -1.
         11    1    4    4    0    0 -0.24324264951E+02 -0.12414767561E+02  0.95006829856E+01  0.28914689977E+02  0.51100000000E-03 0. -1.
        -11    1    4    4    0    0 -0.77697641317E+01  0.78803119833E+01 -0.74617445499E+01  0.13347141402E+02  0.51100000000E-03 0.  1.
        -12    1    4    4    0    0 -0.11454162008E+01 -0.37843695285E+01  0.11441305811E+02  0.12105243065E+02  0.00000000000E+00 0.  1.
</event>
<event>
 8    1  0.1253488E-006  0.9118800E+02  0.7816164E-02  0.1184000E+00
        -11   -1    0    0    0    0  0.00000000000E+00  0.00000000000E+00  0.45593999997E+02  0.45594000000E+02  0.51100000000E-03 0.  1.
         11   -1    0    0    0    0 -0.00000000000E+00 -0.00000000000E+00 -0.45593999997E+02  0.45594000000E+02  0.51100000000E-03 0. -1.
         23    2    1    2    0    0  0.71054273576E-14 -0.17763568394E-14  0.00000000000E+00  0.91188000000E+02  0.91188000000E+02 0.  0.
    9900012    2    3    3    0    0 -0.34253895044E+02 -0.12562999161E+02  0.49619190518E+01  0.54367096775E+02  0.40000028719E+02 0.  0.
        -12    1    3    3    0    0  0.34253895044E+02  0.12562999161E+02 -0.49619190518E+01  0.36820903225E+02  0.00000000000E+00 0.  1.
         11    1    4    4    0    0 -0.94588891865E+00  0.60166152048E+01 -0.17730098091E+01  0.63433373246E+01  0.51100000000E-03 0.  1.
        -11    1    4    4    0    0 -0.27737342870E+02  0.39383877244E+00  0.30271766358E+01  0.27904822112E+02  0.51100000000E-03 0. -1.
         12    1    4    4    0    0 -0.55706632555E+01 -0.18973453138E+02  0.37077522252E+01  0.20118937339E+02  0.00000000000E+00 0. -1.
</event>
<event>
 8    1  0.1253488E-006  0.9118800E+02  0.7816164E-02  0.1184000E+00
        -11   -1    0    0    0    0  0.00000000000E+00  0.00000000000E+00  0.45593999997E+02  0.45594000000E+02  0.51100000000E-03 0. -1.
         11   -1    0    0    0    0 -0.00000000000E+00 -0.00000000000E+00 -0.45593999997E+02  0.45594000000E+02  0.51100000000E-03 0.  1.
         23    2    1    2    0    0  0.35527136788E-14  0.35527136788E-14 -0.35527136788E-14  0.91188000000E+02  0.91188000000E+02 0.  0.
    9900012    2    3    3    0    0 -0.23376548745E+02 -0.80781314401E+01  0.27277443485E+02  0.54367106992E+02  0.40000052010E+02 0.  0.
        -12    1    3    3    0    0  0.23376548745E+02  0.80781314401E+01 -0.27277443485E+02  0.36820893008E+02  0.00000000000E+00 0.  1.
         11    1    4    4    0    0 -0.58471030032E+01  0.14571703163E+00 -0.26840246763E+01  0.64353582424E+01  0.51100000000E-03 0. -1.
        -11    1    4    4    0    0  0.63303749356E+01 -0.31361744076E+01 -0.23494476865E+01  0.74450749784E+01  0.51100000000E-03 0.  1.
         12    1    4    4    0    0 -0.23859820678E+02 -0.50876740641E+01  0.32310915848E+02  0.40486673772E+02  0.00000000000E+00 0. -1.
</event>
<event>
 8    1  0.1253488E-006  0.9118800E+02  0.7816164E-02  0.1184000E+00
        -11   -1    0    0    0    0  0.00000000000E+00  0.00000000000E+00  0.45593999997E+02  0.45594000000E+02  0.51100000000E-03 0. -1.
         11   -1    0    0    0    0 -0.00000000000E+00 -0.00000000000E+00 -0.45593999997E+02  0.45594000000E+02  0.51100000000E-03 0.  1.
         23    2    1    2    0    0  0.00000000000E+00  0.00000000000E+00  0.00000000000E+00  0.91188000000E+02  0.91188000000E+02 0.  0.
    9900012    2    3    3    0    0 -0.15610846417E+02 -0.33217510179E+02 -0.29458855168E+01  0.54367085429E+02  0.40000002853E+02 0.  0.
        -12    1    3    3    0    0  0.15610846417E+02  0.33217510179E+02  0.29458855168E+01  0.36820914571E+02  0.00000000000E+00 0.  1.
         11    1    4    4    0    0 -0.28645520465E+01 -0.50868937582E+01  0.61966841596E+01  0.85135798210E+01  0.51100000000E-03 0. -1.
        -11    1    4    4    0    0 -0.14015048741E+02 -0.30794591474E+02  0.24201025074E+01  0.33920279357E+02  0.51100000000E-03 0.  1.
        -12    1    4    4    0    0  0.12687543704E+01  0.26639750530E+01 -0.11562672184E+02  0.11933226251E+02  0.00000000000E+00 0.  1.
</event>
<event>
 8    1  0.1253488E-006  0.9118800E+02  0.7816164E-02  0.1184000E+00
        -11   -1    0    0    0    0  0.00000000000E+00  0.00000000000E+00  0.45593999997E+02  0.45594000000E+02  0.51100000000E-03 0.  1.
         11   -1    0    0    0    0 -0.00000000000E+00 -0.00000000000E+00 -0.45593999997E+02  0.45594000000E+02  0.51100000000E-03 0. -1.
         23    2    1    2    0    0  0.00000000000E+00  0.88817841970E-15  0.00000000000E+00  0.91188000000E+02  0.91188000000E+02 0.  0.
    9900012    2    3    3    0    0 -0.35630787807E+02  0.36754107571E+01 -0.85275132154E+01  0.54367079783E+02  0.39999989980E+02 0.  0.
        -12    1    3    3    0    0  0.35630787807E+02 -0.36754107571E+01  0.85275132154E+01  0.36820920217E+02  0.00000000000E+00 0.  1.
         11    1    4    4    0    0 -0.11673257357E+01 -0.49211359279E+01 -0.28657375124E+01  0.58131471636E+01  0.51100000000E-03 0. -1.
        -11    1    4    4    0    0  0.41385020107E+01  0.20507124154E+01 -0.81008126217E+01  0.93250086164E+01  0.51100000000E-03 0.  1.
         12    1    4    4    0    0 -0.38601964082E+02  0.65458342697E+01  0.24390369186E+01  0.39228924003E+02  0.00000000000E+00 0. -1.
</event>
<event>
 8    1  0.1253488E-006  0.9118800E+02  0.7816164E-02  0.1184000E+00
        -11   -1    0    0    0    0  0.00000000000E+00  0.00000000000E+00  0.45593999997E+02  0.45594000000E+02  0.51100000000E-03 0.  1.
         11   -1    0    0    0    0 -0.00000000000E+00 -0.00000000000E+00 -0.45593999997E+02  0.45594000000E+02  0.51100000000E-03 0. -1.
         23    2    1    2    0    0  0.00000000000E+00  0.88817841970E-15  0.00000000000E+00  0.91188000000E+02  0.91188000000E+02 0.  0.
    9900012    2    3    3    0    0 -0.16674495708E+02 -0.34244846117E+01 -0.32649854714E+02  0.54367096768E+02  0.40000028702E+02 0.  0.
        -12    1    3    3    0    0  0.16674495708E+02  0.34244846117E+01  0.32649854714E+02  0.36820903232E+02  0.00000000000E+00 0.  1.
         11    1    4    4    0    0  0.34387005430E+01  0.16374529421E+01 -0.28284179133E+01  0.47440343291E+01  0.51100000000E-03 0. -1.
        -11    1    4    4    0    0 -0.55532778790E+01  0.13609269136E+02 -0.55385797678E+01  0.15707544930E+02  0.51100000000E-03 0.  1.
         12    1    4    4    0    0 -0.14559918372E+02 -0.18671206689E+02 -0.24282857033E+02  0.33915517509E+02  0.00000000000E+00 0. -1.
</event>
<event>
 8    1  0.1253488E-006  0.9118800E+02  0.7816164E-02  0.1184000E+00
        -11   -1    0    0    0    0  0.00000000000E+00  0.00000000000E+00  0.45593999997E+02  0.45594000000E+02  0.51100000000E-03 0.  1.
         11   -1    0    0    0    0 -0.00000000000E+00 -0.00000000000E+00 -0.45593999997E+02  0.45594000000E+02  0.51100000000E-03 0. -1.
         23    2    1    2    0    0 -0.22204460493E-15 -0.35527136788E-14  0.00000000000E+00  0.91188000000E+02  0.91188000000E+02 0.  0.
    9900012    2    3    3    0    0  0.14749661371E+01  0.26270995225E+02 -0.25757310368E+02  0.54367085392E+02  0.40000002767E+02 0.  0.
        -12    1    3    3    0    0 -0.14749661371E+01 -0.26270995225E+02  0.25757310368E+02  0.36820914608E+02  0.00000000000E+00 0.  1.
         11    1    4    4    0    0 -0.12436348280E+02  0.20148302832E+01 -0.34978219886E+01  0.13075054820E+02  0.51100000000E-03 0. -1.
        -11    1    4    4    0    0  0.16011803051E+01 -0.49540950939E+00  0.32627315447E+01  0.36680548449E+01  0.51100000000E-03 0.  1.
        -12    1    4    4    0    0  0.12310134112E+02  0.24751574451E+02 -0.25522219924E+02  0.37623975727E+02  0.00000000000E+00 0.  1.
</event>
<event>
 8    1  0.1253488E-006  0.9118800E+02  0.7816164E-02  0.1184000E+00
        -11   -1    0    0    0    0  0.00000000000E+00  0.00000000000E+00  0.45593999997E+02  0.45594000000E+02  0.51100000000E-03 0. -1.
         11   -1    0    0    0    0 -0.00000000000E+00 -0.00000000000E+00 -0.45593999997E+02  0.45594000000E+02  0.51100000000E-03 0.  1.
         23    2    1    2    0    0  0.00000000000E+00 -0.44408920985E-15  0.71054273576E-14  0.91188000000E+02  0.91188000000E+02 0.  0.
    9900012    2    3    3    0    0  0.43414578288E+01 -0.38490991791E+01 -0.36360907736E+02  0.54367089746E+02  0.40000012694E+02 0.  0.
         12    1    3    3    0    0 -0.43414578288E+01  0.38490991791E+01  0.36360907736E+02  0.36820910254E+02  0.00000000000E+00 0. -1.
         11    1    4    4    0    0 -0.25099375818E+00 -0.85714669372E+01 -0.23556749151E+02  0.25068974334E+02  0.51100000000E-03 0.  1.
        -11    1    4    4    0    0 -0.45630098145E+01  0.60280450660E+01 -0.17399632062E+02  0.18971177667E+02  0.51100000000E-03 0. -1.
         12    1    4    4    0    0  0.91554614015E+01 -0.13056773079E+01  0.45954734780E+01  0.10326937745E+02  0.00000000000E+00 0. -1.
</event>
<event>
 8    1  0.1253488E-006  0.9118800E+02  0.7816164E-02  0.1184000E+00
        -11   -1    0    0    0    0  0.00000000000E+00  0.00000000000E+00  0.45593999997E+02  0.45594000000E+02  0.51100000000E-03 0. -1.
         11   -1    0    0    0    0 -0.00000000000E+00 -0.00000000000E+00 -0.45593999997E+02  0.45594000000E+02  0.51100000000E-03 0.  1.
         23    2    1    2    0    0 -0.71054273576E-14  0.00000000000E+00  0.00000000000E+00  0.91188000000E+02  0.91188000000E+02 0.  0.
    9900012    2    3    3    0    0 -0.26675473460E+02 -0.95912841499E+01 -0.23499017477E+02  0.54367116817E+02  0.40000074408E+02 0.  0.
         12    1    3    3    0    0  0.26675473460E+02  0.95912841499E+01  0.23499017477E+02  0.36820883183E+02  0.00000000000E+00 0. -1.
         11    1    4    4    0    0  0.32738028497E+01 -0.52146320590E+01 -0.74274544587E+01  0.96476552906E+01  0.51100000000E-03 0. -1.
        -11    1    4    4    0    0 -0.24605594723E+02 -0.15405841038E+02 -0.14215349787E+02  0.32324161236E+02  0.51100000000E-03 0.  1.
         12    1    4    4    0    0 -0.53436815867E+01  0.11029188947E+02 -0.18562132314E+01  0.12395300291E+02  0.00000000000E+00 0. -1.
</event>
<event>
 8    1  0.1253488E-006  0.9118800E+02  0.7816164E-02  0.1184000E+00
        -11   -1    0    0    0    0  0.00000000000E+00  0.00000000000E+00  0.45593999997E+02  0.45594000000E+02  0.51100000000E-03 0. -1.
         11   -1    0    0    0    0 -0.00000000000E+00 -0.00000000000E+00 -0.45593999997E+02  0.45594000000E+02  0.51100000000E-03 0.  1.
         23    2    1    2    0    0  0.44408920985E-15  0.35527136788E-14  0.00000000000E+00  0.91188000000E+02  0.91188000000E+02 0.  0.
    9900012    2    3    3    0    0 -0.14285856474E+01 -0.16971753433E+02  0.32645008241E+02  0.54367111437E+02  0.40000062142E+02 0.  0.
        -12    1    3    3    0    0  0.14285856474E+01  0.16971753433E+02 -0.32645008241E+02  0.36820888563E+02  0.00000000000E+00 0.  1.
         11    1    4    4    0    0  0.31474047497E+01 -0.20008352668E+02  0.13571909544E+02  0.24381080003E+02  0.51100000000E-03 0. -1.
        -11    1    4    4    0    0  0.77556705723E+01  0.31647724247E+01  0.14880628954E+01  0.85076754739E+01  0.51100000000E-03 0.  1.
         12    1    4    4    0    0 -0.12331660969E+02 -0.12817318961E+00  0.17585035801E+02  0.21478355960E+02  0.00000000000E+00 0. -1.
</event>
<event>
 8    1  0.1253488E-006  0.9118800E+02  0.7816164E-02  0.1184000E+00
        -11   -1    0    0    0    0  0.00000000000E+00  0.00000000000E+00  0.45593999997E+02  0.45594000000E+02  0.51100000000E-03 0. -1.
         11   -1    0    0    0    0 -0.00000000000E+00 -0.00000000000E+00 -0.45593999997E+02  0.45594000000E+02  0.51100000000E-03 0.  1.
         23    2    1    2    0    0 -0.35527136788E-14  0.00000000000E+00 -0.35527136788E-14  0.91188000000E+02  0.91188000000E+02 0.  0.
    9900012    2    3    3    0    0  0.27132496481E+02 -0.47180982067E+00  0.24887265785E+02  0.54367204679E+02  0.40000274707E+02 0.  0.
        -12    1    3    3    0    0 -0.27132496481E+02  0.47180982067E+00 -0.24887265785E+02  0.36820795321E+02  0.00000000000E+00 0.  1.
         11    1    4    4    0    0  0.16011895248E+02  0.49506793997E+00  0.60825977837E+01  0.17135456742E+02  0.51100000000E-03 0. -1.
        -11    1    4    4    0    0  0.64409362988E+01 -0.25426785917E+00 -0.78514902525E+01  0.10158553637E+02  0.51100000000E-03 0.  1.
         12    1    4    4    0    0  0.46796649339E+01 -0.71260990147E+00  0.26656158254E+02  0.27073194300E+02  0.00000000000E+00 0. -1.
</event>
<event>
 8    1  0.1253488E-006  0.9118800E+02  0.7816164E-02  0.1184000E+00
        -11   -1    0    0    0    0  0.00000000000E+00  0.00000000000E+00  0.45593999997E+02  0.45594000000E+02  0.51100000000E-03 0.  1.
         11   -1    0    0    0    0 -0.00000000000E+00 -0.00000000000E+00 -0.45593999997E+02  0.45594000000E+02  0.51100000000E-03 0. -1.
         23    2    1    2    0    0  0.00000000000E+00  0.00000000000E+00  0.00000000000E+00  0.91188000000E+02  0.91188000000E+02 0.  0.
    9900012    2    3    3    0    0 -0.11356040964E+02 -0.95303976029E+01  0.33704458141E+02  0.54367100453E+02  0.40000037102E+02 0.  0.
         12    1    3    3    0    0  0.11356040964E+02  0.95303976029E+01 -0.33704458141E+02  0.36820899547E+02  0.00000000000E+00 0. -1.
         11    1    4    4    0    0  0.28267625118E+01 -0.14001824778E+02  0.75534418192E+01  0.16158470441E+02  0.51100000000E-03 0.  1.
        -11    1    4    4    0    0  0.51581797556E+01  0.59929269120E+01  0.43479845694E+01  0.90236889042E+01  0.51100000000E-03 0. -1.
         12    1    4    4    0    0 -0.19340983232E+02 -0.15214997364E+01  0.21803031753E+02  0.29184941107E+02  0.00000000000E+00 0. -1.
</event>
<event>
 8    1  0.1253488E-006  0.9118800E+02  0.7816164E-02  0.1184000E+00
        -11   -1    0    0    0    0  0.00000000000E+00  0.00000000000E+00  0.45593999997E+02  0.45594000000E+02  0.51100000000E-03 0. -1.
         11   -1    0    0    0    0 -0.00000000000E+00 -0.00000000000E+00 -0.45593999997E+02  0.45594000000E+02  0.51100000000E-03 0.  1.
         23    2    1    2    0    0  0.00000000000E+00  0.00000000000E+00  0.00000000000E+00  0.91188000000E+02  0.91188000000E+02 0.  0.
    9900012    2    3    3    0    0 -0.10486408855E+02  0.25898025941E+02 -0.23981392543E+02  0.54367086016E+02  0.40000004191E+02 0.  0.
         12    1    3    3    0    0  0.10486408855E+02 -0.25898025941E+02  0.23981392543E+02  0.36820913984E+02  0.00000000000E+00 0. -1.
         11    1    4    4    0    0 -0.15887423889E+02  0.94873214921E+00  0.23872655954E+01  0.16093767980E+02  0.51100000000E-03 0. -1.
        -11    1    4    4    0    0  0.39057368050E+01  0.19849772468E+01 -0.22060498983E+01  0.49052595318E+01  0.51100000000E-03 0.  1.
        -12    1    4    4    0    0  0.14952782289E+01  0.22964316545E+02 -0.24162608240E+02  0.33368058504E+02  0.00000000000E+00 0.  1.
</event>
<event>
 8    1  0.1253488E-006  0.9118800E+02  0.7816164E-02  0.1184000E+00
        -11   -1    0    0    0    0  0.00000000000E+00  0.00000000000E+00  0.45593999997E+02  0.45594000000E+02  0.51100000000E-03 0. -1.
         11   -1    0    0    0    0 -0.00000000000E+00 -0.00000000000E+00 -0.45593999997E+02  0.45594000000E+02  0.51100000000E-03 0.  1.
         23    2    1    2    0    0  0.00000000000E+00 -0.88817841970E-15  0.35527136788E-14  0.91188000000E+02  0.91188000000E+02 0.  0.
    9900012    2    3    3    0    0  0.22429275869E+02  0.35923062953E+01 -0.28979357478E+02  0.54367078768E+02  0.39999987667E+02 0.  0.
         12    1    3    3    0    0 -0.22429275869E+02 -0.35923062953E+01  0.28979357478E+02  0.36820921232E+02  0.00000000000E+00 0. -1.
         11    1    4    4    0    0  0.98924392385E+01  0.12613184789E+01  0.48424225804E+01  0.11086042355E+02  0.51100000000E-03 0. -1.
        -11    1    4    4    0    0  0.12349035417E+02 -0.62753265812E+01 -0.78541921207E+01  0.15923778872E+02  0.51100000000E-03 0.  1.
        -12    1    4    4    0    0  0.18780121344E+00  0.86063143977E+01 -0.25967587938E+02  0.27357257540E+02  0.00000000000E+00 0.  1.
</event>
<event>
 8    1  0.1253488E-006  0.9118800E+02  0.7816164E-02  0.1184000E+00
        -11   -1    0    0    0    0  0.00000000000E+00  0.00000000000E+00  0.45593999997E+02  0.45594000000E+02  0.51100000000E-03 0.  1.
         11   -1    0    0    0    0 -0.00000000000E+00 -0.00000000000E+00 -0.45593999997E+02  0.45594000000E+02  0.51100000000E-03 0. -1.
         23    2    1    2    0    0  0.17763568394E-14  0.00000000000E+00  0.00000000000E+00  0.91188000000E+02  0.91188000000E+02 0.  0.
    9900012    2    3    3    0    0  0.13996840682E+02 -0.33774666562E+02  0.43748200192E+01  0.54367099676E+02  0.40000035332E+02 0.  0.
        -12    1    3    3    0    0 -0.13996840682E+02  0.33774666562E+02 -0.43748200192E+01  0.36820900324E+02  0.00000000000E+00 0.  1.
         11    1    4    4    0    0  0.18206169930E+01 -0.26812235104E+02  0.12608117612E+02  0.29684595794E+02  0.51100000000E-03 0. -1.
        -11    1    4    4    0    0  0.16328572688E+02 -0.15327574029E+01 -0.52071695383E+01  0.17207156829E+02  0.51100000000E-03 0.  1.
         12    1    4    4    0    0 -0.41523489990E+01 -0.54296740555E+01 -0.30261280549E+01  0.74753470530E+01  0.00000000000E+00 0. -1.
</event>
<event>
 8    1  0.1253488E-006  0.9118800E+02  0.7816164E-02  0.1184000E+00
        -11   -1    0    0    0    0  0.00000000000E+00  0.00000000000E+00  0.45593999997E+02  0.45594000000E+02  0.51100000000E-03 0. -1.
         11   -1    0    0    0    0 -0.00000000000E+00 -0.00000000000E+00 -0.45593999997E+02  0.45594000000E+02  0.51100000000E-03 0.  1.
         23    2    1    2    0    0  0.17763568394E-14  0.00000000000E+00  0.17763568394E-14  0.91188000000E+02  0.91188000000E+02 0.  0.
    9900012    2    3    3    0    0 -0.10875186922E+02 -0.32577010819E+02  0.13275876206E+02  0.54367079133E+02  0.39999988500E+02 0.  0.
        -12    1    3    3    0    0  0.10875186922E+02  0.32577010819E+02 -0.13275876206E+02  0.36820920867E+02  0.00000000000E+00 0.  1.
         11    1    4    4    0    0 -0.28935008832E+01 -0.21525908252E+02  0.21376342574E+01  0.21824448536E+02  0.51100000000E-03 0. -1.
        -11    1    4    4    0    0  0.11192306159E+01  0.58846742351E+01 -0.47150822791E+01  0.76232584362E+01  0.51100000000E-03 0.  1.
        -12    1    4    4    0    0 -0.91009166543E+01 -0.16935776802E+02  0.15853324227E+02  0.24919372161E+02  0.00000000000E+00 0.  1.
</event>
<event>
 8    1  0.1253488E-006  0.9118800E+02  0.7816164E-02  0.1184000E+00
        -11   -1    0    0    0    0  0.00000000000E+00  0.00000000000E+00  0.45593999997E+02  0.45594000000E+02  0.51100000000E-03 0.  1.
         11   -1    0    0    0    0 -0.00000000000E+00 -0.00000000000E+00 -0.45593999997E+02  0.45594000000E+02  0.51100000000E-03 0. -1.
         23    2    1    2    0    0  0.00000000000E+00  0.00000000000E+00  0.00000000000E+00  0.91188000000E+02  0.91188000000E+02 0.  0.
    9900012    2    3    3    0    0 -0.25109698744E+02  0.24872349650E+02 -0.10327044907E+02  0.54367100980E+02  0.40000038304E+02 0.  0.
         12    1    3    3    0    0  0.25109698744E+02 -0.24872349650E+02  0.10327044907E+02  0.36820899020E+02  0.00000000000E+00 0. -1.
         11    1    4    4    0    0 -0.93362573727E+01  0.65364782640E+01 -0.12925317384E+02  0.17232384616E+02  0.51100000000E-03 0. -1.
        -11    1    4    4    0    0 -0.91530492222E+01 -0.27056223766E+01  0.10041930232E+02  0.13854207504E+02  0.51100000000E-03 0.  1.
        -12    1    4    4    0    0 -0.66203921491E+01  0.21041493763E+02 -0.74436577549E+01  0.23280508859E+02  0.00000000000E+00 0.  1.
</event>
<event>
 8    1  0.1253488E-006  0.9118800E+02  0.7816164E-02  0.1184000E+00
        -11   -1    0    0    0    0  0.00000000000E+00  0.00000000000E+00  0.45593999997E+02  0.45594000000E+02  0.51100000000E-03 0.  1.
         11   -1    0    0    0    0 -0.00000000000E+00 -0.00000000000E+00 -0.45593999997E+02  0.45594000000E+02  0.51100000000E-03 0. -1.
         23    2    1    2    0    0 -0.17763568394E-14  0.00000000000E+00 -0.35527136788E-14  0.91188000000E+02  0.91188000000E+02 0.  0.
    9900012    2    3    3    0    0 -0.11535319678E+02 -0.14729438157E+02  0.31713800855E+02  0.54367012599E+02  0.39999836821E+02 0.  0.
         12    1    3    3    0    0  0.11535319678E+02  0.14729438157E+02 -0.31713800855E+02  0.36820987401E+02  0.00000000000E+00 0. -1.
         11    1    4    4    0    0 -0.23256153855E+01 -0.80282390255E+01 -0.37497660315E+01  0.91608872017E+01  0.51100000000E-03 0. -1.
        -11    1    4    4    0    0 -0.11659137060E+02 -0.50526331323E+01  0.36012901244E+01  0.13207341495E+02  0.51100000000E-03 0.  1.
        -12    1    4    4    0    0  0.24494327665E+01 -0.16485659993E+01  0.31862276762E+02  0.31998783902E+02  0.00000000000E+00 0.  1.
</event>
<event>
 8    1  0.1253488E-006  0.9118800E+02  0.7816164E-02  0.1184000E+00
        -11   -1    0    0    0    0  0.00000000000E+00  0.00000000000E+00  0.45593999997E+02  0.45594000000E+02  0.51100000000E-03 0.  1.
         11   -1    0    0    0    0 -0.00000000000E+00 -0.00000000000E+00 -0.45593999997E+02  0.45594000000E+02  0.51100000000E-03 0. -1.
         23    2    1    2    0    0  0.88817841970E-15  0.00000000000E+00  0.00000000000E+00  0.91188000000E+02  0.91188000000E+02 0.  0.
    9900012    2    3    3    0    0  0.63064742635E+01 -0.58641472235E+01 -0.35799713098E+02  0.54367091562E+02  0.40000016835E+02 0.  0.
        -12    1    3    3    0    0 -0.63064742635E+01  0.58641472235E+01  0.35799713098E+02  0.36820908438E+02  0.00000000000E+00 0.  1.
         11    1    4    4    0    0  0.10942189661E+02 -0.11168222276E+02 -0.25963300158E+02  0.30307650168E+02  0.51100000000E-03 0. -1.
        -11    1    4    4    0    0  0.61636752279E+01  0.74604032691E+01 -0.61643265130E+00  0.96968293131E+01  0.51100000000E-03 0.  1.
         12    1    4    4    0    0 -0.10799390626E+02 -0.21563282169E+01 -0.92199802888E+01  0.14362612081E+02  0.00000000000E+00 0. -1.
</event>
<event>
 8    1  0.1253488E-006  0.9118800E+02  0.7816164E-02  0.1184000E+00
        -11   -1    0    0    0    0  0.00000000000E+00  0.00000000000E+00  0.45593999997E+02  0.45594000000E+02  0.51100000000E-03 0.  1.
         11   -1    0    0    0    0 -0.00000000000E+00 -0.00000000000E+00 -0.45593999997E+02  0.45594000000E+02  0.51100000000E-03 0. -1.
         23    2    1    2    0    0  0.00000000000E+00  0.00000000000E+00  0.00000000000E+00  0.91188000000E+02  0.91188000000E+02 0.  0.
    9900012    2    3    3    0    0 -0.10748986897E+02 -0.22128955056E+02  0.27396080360E+02  0.54367128333E+02  0.40000100661E+02 0.  0.
         12    1    3    3    0    0  0.10748986897E+02  0.22128955056E+02 -0.27396080360E+02  0.36820871667E+02  0.00000000000E+00 0. -1.
         11    1    4    4    0    0 -0.30548508930E+01  0.20804977066E+01  0.65550616445E+01  0.75252520297E+01  0.51100000000E-03 0. -1.
        -11    1    4    4    0    0 -0.37694322665E+01  0.73605478846E+01  0.10552011093E+02  0.13406387400E+02  0.51100000000E-03 0.  1.
         12    1    4    4    0    0 -0.39247037378E+01 -0.31570000647E+02  0.10289007623E+02  0.33435488903E+02  0.00000000000E+00 0. -1.
</event>
<event>
 8    1  0.1253488E-006  0.9118800E+02  0.7816164E-02  0.1184000E+00
        -11   -1    0    0    0    0  0.00000000000E+00  0.00000000000E+00  0.45593999997E+02  0.45594000000E+02  0.51100000000E-03 0. -1.
         11   -1    0    0    0    0 -0.00000000000E+00 -0.00000000000E+00 -0.45593999997E+02  0.45594000000E+02  0.51100000000E-03 0.  1.
         23    2    1    2    0    0  0.00000000000E+00 -0.35527136788E-14  0.00000000000E+00  0.91188000000E+02  0.91188000000E+02 0.  0.
    9900012    2    3    3    0    0  0.27934623189E+02 -0.21338033447E+02 -0.10960167539E+02  0.54367080449E+02  0.39999991499E+02 0.  0.
         12    1    3    3    0    0 -0.27934623189E+02  0.21338033447E+02  0.10960167539E+02  0.36820919551E+02  0.00000000000E+00 0. -1.
         11    1    4    4    0    0  0.52170647889E+01  0.43458729689E+01 -0.18386927980E+01  0.70345695205E+01  0.51100000000E-03 0. -1.
        -11    1    4    4    0    0  0.16589232159E+02  0.67759187618E-01 -0.12327558634E+02  0.20668234493E+02  0.51100000000E-03 0.  1.
        -12    1    4    4    0    0  0.61283262412E+01 -0.25751665604E+02  0.32060838927E+01  0.26664276435E+02  0.00000000000E+00 0.  1.
</event>
<event>
 8    1  0.1253488E-006  0.9118800E+02  0.7816164E-02  0.1184000E+00
        -11   -1    0    0    0    0  0.00000000000E+00  0.00000000000E+00  0.45593999997E+02  0.45594000000E+02  0.51100000000E-03 0. -1.
         11   -1    0    0    0    0 -0.00000000000E+00 -0.00000000000E+00 -0.45593999997E+02  0.45594000000E+02  0.51100000000E-03 0.  1.
         23    2    1    2    0    0  0.00000000000E+00  0.00000000000E+00  0.00000000000E+00  0.91188000000E+02  0.91188000000E+02 0.  0.
    9900012    2    3    3    0    0 -0.29434166469E+02 -0.11054783462E+02 -0.19162487211E+02  0.54367091412E+02  0.40000016493E+02 0.  0.
         12    1    3    3    0    0  0.29434166469E+02  0.11054783462E+02  0.19162487211E+02  0.36820908588E+02  0.00000000000E+00 0. -1.
         11    1    4    4    0    0 -0.13233318396E+02 -0.32450396588E+01 -0.17148167510E+02  0.21902297764E+02  0.51100000000E-03 0. -1.
        -11    1    4    4    0    0 -0.63290488918E+01 -0.14864957230E+01 -0.14161893472E+02  0.15582867399E+02  0.51100000000E-03 0.  1.
         12    1    4    4    0    0 -0.98717991813E+01 -0.63232480806E+01  0.12147573771E+02  0.16881926249E+02  0.00000000000E+00 0. -1.
</event>
<event>
 8    1  0.1253488E-006  0.9118800E+02  0.7816164E-02  0.1184000E+00
        -11   -1    0    0    0    0  0.00000000000E+00  0.00000000000E+00  0.45593999997E+02  0.45594000000E+02  0.51100000000E-03 0. -1.
         11   -1    0    0    0    0 -0.00000000000E+00 -0.00000000000E+00 -0.45593999997E+02  0.45594000000E+02  0.51100000000E-03 0.  1.
         23    2    1    2    0    0  0.00000000000E+00 -0.35527136788E-14  0.00000000000E+00  0.91188000000E+02  0.91188000000E+02 0.  0.
    9900012    2    3    3    0    0 -0.21664277178E+02 -0.27642071535E+02  0.11061355040E+02  0.54367101047E+02  0.40000038457E+02 0.  0.
         12    1    3    3    0    0  0.21664277178E+02  0.27642071535E+02 -0.11061355040E+02  0.36820898953E+02  0.00000000000E+00 0. -1.
         11    1    4    4    0    0 -0.22183369297E+02 -0.17347203106E+02  0.15017740382E+02  0.31914884543E+02  0.51100000000E-03 0. -1.
        -11    1    4    4    0    0  0.33588342465E+01 -0.10602574154E+02  0.56184037215E+01  0.12460449704E+02  0.51100000000E-03 0.  1.
         12    1    4    4    0    0 -0.28397421272E+01  0.30770572434E+00 -0.95747890641E+01  0.99917667999E+01  0.00000000000E+00 0. -1.
</event>
<event>
 8    1  0.1253488E-006  0.9118800E+02  0.7816164E-02  0.1184000E+00
        -11   -1    0    0    0    0  0.00000000000E+00  0.00000000000E+00  0.45593999997E+02  0.45594000000E+02  0.51100000000E-03 0.  1.
         11   -1    0    0    0    0 -0.00000000000E+00 -0.00000000000E+00 -0.45593999997E+02  0.45594000000E+02  0.51100000000E-03 0. -1.
         23    2    1    2    0    0 -0.35527136788E-14 -0.35527136788E-14 -0.35527136788E-14  0.91188000000E+02  0.91188000000E+02 0.  0.
    9900012    2    3    3    0    0  0.13493671292E+02  0.26817019039E+02  0.21320139687E+02  0.54367081606E+02  0.39999994138E+02 0.  0.
         12    1    3    3    0    0 -0.13493671292E+02 -0.26817019039E+02 -0.21320139687E+02  0.36820918394E+02  0.00000000000E+00 0. -1.
         11    1    4    4    0    0 -0.11854677004E+02  0.69719449532E+01  0.71454789556E+01  0.15498362916E+02  0.51100000000E-03 0. -1.
        -11    1    4    4    0    0  0.17321029000E+02  0.51072144297E+01  0.12585835924E+02  0.22011473168E+02  0.51100000000E-03 0.  1.
        -12    1    4    4    0    0  0.80273192970E+01  0.14737859656E+02  0.15888248074E+01  0.16857245523E+02  0.00000000000E+00 0.  1.
</event>
<event>
 8    1  0.1253488E-006  0.9118800E+02  0.7816164E-02  0.1184000E+00
        -11   -1    0    0    0    0  0.00000000000E+00  0.00000000000E+00  0.45593999997E+02  0.45594000000E+02  0.51100000000E-03 0.  1.
         11   -1    0    0    0    0 -0.00000000000E+00 -0.00000000000E+00 -0.45593999997E+02  0.45594000000E+02  0.51100000000E-03 0. -1.
         23    2    1    2    0    0 -0.35527136788E-14  0.22204460493E-15  0.00000000000E+00  0.91188000000E+02  0.91188000000E+02 0.  0.
    9900012    2    3    3    0    0  0.22581353501E+02  0.17521043138E+01 -0.29031100552E+02  0.54366916437E+02  0.39999617600E+02 0.  0.
        -12    1    3    3    0    0 -0.22581353501E+02 -0.17521043138E+01  0.29031100552E+02  0.36821083563E+02  0.00000000000E+00 0.  1.
         11    1    4    4    0    0  0.12571620014E+02  0.38694336977E+01 -0.11524490625E+02  0.17488053961E+02  0.51100000000E-03 0. -1.
        -11    1    4    4    0    0  0.16045288712E+02 -0.10080236313E+02 -0.28819943296E+01  0.19166855390E+02  0.51100000000E-03 0.  1.
         12    1    4    4    0    0 -0.60355552250E+01  0.79629069289E+01 -0.14624615597E+02  0.17712007086E+02  0.00000000000E+00 0. -1.
</event>
<event>
 8    1  0.1253488E-006  0.9118800E+02  0.7816164E-02  0.1184000E+00
        -11   -1    0    0    0    0  0.00000000000E+00  0.00000000000E+00  0.45593999997E+02  0.45594000000E+02  0.51100000000E-03 0. -1.
         11   -1    0    0    0    0 -0.00000000000E+00 -0.00000000000E+00 -0.45593999997E+02  0.45594000000E+02  0.51100000000E-03 0.  1.
         23    2    1    2    0    0 -0.71054273576E-14  0.00000000000E+00  0.88817841970E-15  0.91188000000E+02  0.91188000000E+02 0.  0.
    9900012    2    3    3    0    0  0.36137804591E+02  0.56804684146E+01 -0.41919171372E+01  0.54367071015E+02  0.39999969992E+02 0.  0.
         12    1    3    3    0    0 -0.36137804591E+02 -0.56804684146E+01  0.41919171372E+01  0.36820928985E+02  0.00000000000E+00 0. -1.
         11    1    4    4    0    0  0.82826127182E+01  0.10406013184E+01  0.16960826382E+01  0.85182874523E+01  0.51100000000E-03 0. -1.
        -11    1    4    4    0    0  0.25513189163E+02  0.11735628036E+02 -0.16724543992E+02  0.32685748556E+02  0.51100000000E-03 0.  1.
         12    1    4    4    0    0  0.23420027094E+01 -0.70957609402E+01  0.10836544217E+02  0.13163035006E+02  0.00000000000E+00 0. -1.
</event>
<event>
 8    1  0.1253488E-006  0.9118800E+02  0.7816164E-02  0.1184000E+00
        -11   -1    0    0    0    0  0.00000000000E+00  0.00000000000E+00  0.45593999997E+02  0.45594000000E+02  0.51100000000E-03 0. -1.
         11   -1    0    0    0    0 -0.00000000000E+00 -0.00000000000E+00 -0.45593999997E+02  0.45594000000E+02  0.51100000000E-03 0.  1.
         23    2    1    2    0    0  0.00000000000E+00  0.00000000000E+00  0.00000000000E+00  0.91188000000E+02  0.91188000000E+02 0.  0.
    9900012    2    3    3    0    0  0.97746885267E+01 -0.16591034215E+02 -0.31384293785E+02  0.54367070510E+02  0.39999968841E+02 0.  0.
         12    1    3    3    0    0 -0.97746885267E+01  0.16591034215E+02  0.31384293785E+02  0.36820929490E+02  0.00000000000E+00 0. -1.
         11    1    4    4    0    0  0.76412780182E+01 -0.19098090566E+02 -0.66780355486E+01  0.21626889561E+02  0.51100000000E-03 0. -1.
        -11    1    4    4    0    0 -0.18545981826E+01 -0.63482078416E+01 -0.21528837773E+02  0.22521770209E+02  0.51100000000E-03 0.  1.
         12    1    4    4    0    0  0.39880086912E+01  0.88552641925E+01 -0.31774204634E+01  0.10218410739E+02  0.00000000000E+00 0. -1.
</event>
<event>
 8    1  0.1253488E-006  0.9118800E+02  0.7816164E-02  0.1184000E+00
        -11   -1    0    0    0    0  0.00000000000E+00  0.00000000000E+00  0.45593999997E+02  0.45594000000E+02  0.51100000000E-03 0.  1.
         11   -1    0    0    0    0 -0.00000000000E+00 -0.00000000000E+00 -0.45593999997E+02  0.45594000000E+02  0.51100000000E-03 0. -1.
         23    2    1    2    0    0 -0.35527136788E-14  0.26645352591E-14 -0.71054273576E-14  0.91188000000E+02  0.91188000000E+02 0.  0.
    9900012    2    3    3    0    0 -0.14842638032E+02  0.49030306715E+01 -0.33338182486E+02  0.54367108851E+02  0.40000056247E+02 0.  0.
        -12    1    3    3    0    0  0.14842638032E+02 -0.49030306715E+01  0.33338182486E+02  0.36820891149E+02  0.00000000000E+00 0.  1.
         11    1    4    4    0    0 -0.61071044566E+01 -0.25780881593E+01 -0.10494080074E+02  0.12412452629E+02  0.51100000000E-03 0. -1.
        -11    1    4    4    0    0 -0.35002660401E+01 -0.33873478466E+01  0.77018141910E+01  0.91128442255E+01  0.51100000000E-03 0.  1.
         12    1    4    4    0    0 -0.52352675357E+01  0.10868466677E+02 -0.30545916603E+02  0.32841811997E+02  0.00000000000E+00 0. -1.
</event>
<event>
 8    1  0.1253488E-006  0.9118800E+02  0.7816164E-02  0.1184000E+00
        -11   -1    0    0    0    0  0.00000000000E+00  0.00000000000E+00  0.45593999997E+02  0.45594000000E+02  0.51100000000E-03 0. -1.
         11   -1    0    0    0    0 -0.00000000000E+00 -0.00000000000E+00 -0.45593999997E+02  0.45594000000E+02  0.51100000000E-03 0.  1.
         23    2    1    2    0    0 -0.71054273576E-14  0.00000000000E+00  0.17763568394E-14  0.91188000000E+02  0.91188000000E+02 0.  0.
    9900012    2    3    3    0    0  0.33213756129E+02  0.10137802245E+02 -0.12241363729E+02  0.54367087239E+02  0.40000006980E+02 0.  0.
         12    1    3    3    0    0 -0.33213756129E+02 -0.10137802245E+02  0.12241363729E+02  0.36820912761E+02  0.00000000000E+00 0. -1.
         11    1    4    4    0    0 -0.16404571575E+01 -0.42790203299E+01  0.27890016743E+01  0.53646663708E+01  0.51100000000E-03 0. -1.
        -11    1    4    4    0    0  0.35071061336E+02  0.13044300975E+02 -0.20975920703E+02  0.42896647663E+02  0.51100000000E-03 0.  1.
        -12    1    4    4    0    0 -0.21684804930E+00  0.13725215998E+01  0.59455552992E+01  0.61057732053E+01  0.00000000000E+00 0.  1.
</event>
<event>
 8    1  0.1253488E-006  0.9118800E+02  0.7816164E-02  0.1184000E+00
        -11   -1    0    0    0    0  0.00000000000E+00  0.00000000000E+00  0.45593999997E+02  0.45594000000E+02  0.51100000000E-03 0.  1.
         11   -1    0    0    0    0 -0.00000000000E+00 -0.00000000000E+00 -0.45593999997E+02  0.45594000000E+02  0.51100000000E-03 0. -1.
         23    2    1    2    0    0 -0.35527136788E-14  0.35527136788E-14  0.17763568394E-14  0.91188000000E+02  0.91188000000E+02 0.  0.
    9900012    2    3    3    0    0  0.26233800731E+02 -0.23169493728E+02 -0.11434520904E+02  0.54367000438E+02  0.39999809099E+02 0.  0.
        -12    1    3    3    0    0 -0.26233800731E+02  0.23169493728E+02  0.11434520904E+02  0.36820999562E+02  0.00000000000E+00 0.  1.
         11    1    4    4    0    0  0.15647886314E+02 -0.18613386297E+02 -0.16119488594E+02  0.29174516420E+02  0.51100000000E-03 0. -1.
        -11    1    4    4    0    0  0.70192899506E+01  0.71718759458E+01 -0.32987655418E+01  0.10563526417E+02  0.51100000000E-03 0.  1.
        -12    1    4    4    0    0  0.35666244664E+01 -0.11727983377E+02  0.79837332328E+01  0.14628957602E+02  0.00000000000E+00 0.  1.
</event>
<event>
 8    1  0.1253488E-006  0.9118800E+02  0.7816164E-02  0.1184000E+00
        -11   -1    0    0    0    0  0.00000000000E+00  0.00000000000E+00  0.45593999997E+02  0.45594000000E+02  0.51100000000E-03 0.  1.
         11   -1    0    0    0    0 -0.00000000000E+00 -0.00000000000E+00 -0.45593999997E+02  0.45594000000E+02  0.51100000000E-03 0. -1.
         23    2    1    2    0    0  0.00000000000E+00 -0.44408920985E-15  0.00000000000E+00  0.91188000000E+02  0.91188000000E+02 0.  0.
    9900012    2    3    3    0    0  0.21012023917E+02  0.37281604078E+01  0.30006276055E+02  0.54367069379E+02  0.39999966264E+02 0.  0.
         12    1    3    3    0    0 -0.21012023917E+02 -0.37281604078E+01 -0.30006276055E+02  0.36820930621E+02  0.00000000000E+00 0. -1.
         11    1    4    4    0    0  0.20987716176E+02  0.41437079777E+01  0.19100693070E+02  0.28679104277E+02  0.51100000000E-03 0. -1.
        -11    1    4    4    0    0  0.10453258690E+02  0.38492399301E+01  0.19806200231E+01  0.11314155789E+02  0.51100000000E-03 0.  1.
        -12    1    4    4    0    0 -0.10428950949E+02 -0.42647875000E+01  0.89249629616E+01  0.14373809314E+02  0.00000000000E+00 0.  1.
</event>
<event>
 8    1  0.1253488E-006  0.9118800E+02  0.7816164E-02  0.1184000E+00
        -11   -1    0    0    0    0  0.00000000000E+00  0.00000000000E+00  0.45593999997E+02  0.45594000000E+02  0.51100000000E-03 0. -1.
         11   -1    0    0    0    0 -0.00000000000E+00 -0.00000000000E+00 -0.45593999997E+02  0.45594000000E+02  0.51100000000E-03 0.  1.
         23    2    1    2    0    0  0.00000000000E+00  0.00000000000E+00  0.00000000000E+00  0.91188000000E+02  0.91188000000E+02 0.  0.
    9900012    2    3    3    0    0  0.22962187283E+02 -0.47645569748E+01  0.28386898591E+02  0.54367094802E+02  0.40000024221E+02 0.  0.
        -12    1    3    3    0    0 -0.22962187283E+02  0.47645569748E+01 -0.28386898591E+02  0.36820905198E+02  0.00000000000E+00 0.  1.
         11    1    4    4    0    0 -0.19028944997E+01  0.16833592149E+01 -0.67367276620E+00  0.26284103524E+01  0.51100000000E-03 0. -1.
        -11    1    4    4    0    0  0.29248182684E+02  0.22791240023E+00  0.97326451606E+01  0.30825841699E+02  0.51100000000E-03 0.  1.
         12    1    4    4    0    0 -0.43831009013E+01 -0.66758285899E+01  0.19327926196E+02  0.20912842751E+02  0.00000000000E+00 0. -1.
</event>
<event>
 8    1  0.1253488E-006  0.9118800E+02  0.7816164E-02  0.1184000E+00
        -11   -1    0    0    0    0  0.00000000000E+00  0.00000000000E+00  0.45593999997E+02  0.45594000000E+02  0.51100000000E-03 0.  1.
         11   -1    0    0    0    0 -0.00000000000E+00 -0.00000000000E+00 -0.45593999997E+02  0.45594000000E+02  0.51100000000E-03 0. -1.
         23    2    1    2    0    0  0.35527136788E-14  0.00000000000E+00  0.00000000000E+00  0.91188000000E+02  0.91188000000E+02 0.  0.
    9900012    2    3    3    0    0  0.29984958337E+02 -0.17456229424E+02  0.12327265082E+02  0.54367093757E+02  0.40000021838E+02 0.  0.
         12    1    3    3    0    0 -0.29984958337E+02  0.17456229424E+02 -0.12327265082E+02  0.36820906243E+02  0.00000000000E+00 0. -1.
         11    1    4    4    0    0  0.10767807456E+02 -0.16755168536E+02  0.13915761826E+02  0.24296703018E+02  0.51100000000E-03 0. -1.
        -11    1    4    4    0    0  0.10803981575E+02 -0.10703017599E+02  0.41983079607E+01  0.15776767527E+02  0.51100000000E-03 0.  1.
         12    1    4    4    0    0  0.84131693054E+01  0.10001956712E+02 -0.57868047052E+01  0.14293623212E+02  0.00000000000E+00 0. -1.
</event>
<event>
 8    1  0.1253488E-006  0.9118800E+02  0.7816164E-02  0.1184000E+00
        -11   -1    0    0    0    0  0.00000000000E+00  0.00000000000E+00  0.45593999997E+02  0.45594000000E+02  0.51100000000E-03 0. -1.
         11   -1    0    0    0    0 -0.00000000000E+00 -0.00000000000E+00 -0.45593999997E+02  0.45594000000E+02  0.51100000000E-03 0.  1.
         23    2    1    2    0    0 -0.17763568394E-14  0.00000000000E+00 -0.44408920985E-15  0.91188000000E+02  0.91188000000E+02 0.  0.
    9900012    2    3    3    0    0  0.76329002457E+01  0.35991514010E+02  0.14594368086E+01  0.54367079280E+02  0.39999988834E+02 0.  0.
         12    1    3    3    0    0 -0.76329002457E+01 -0.35991514010E+02 -0.14594368086E+01  0.36820920720E+02  0.00000000000E+00 0. -1.
         11    1    4    4    0    0 -0.65226970315E+01  0.75849116193E+01  0.10428841397E+02  0.14451200434E+02  0.51100000000E-03 0. -1.
        -11    1    4    4    0    0 -0.55251044466E+01  0.97600094742E+01  0.42389422769E+00  0.11223379645E+02  0.51100000000E-03 0.  1.
        -12    1    4    4    0    0  0.19680701724E+02  0.18646592916E+02 -0.93932988161E+01  0.28692499201E+02  0.00000000000E+00 0.  1.
</event>
<event>
 8    1  0.1253488E-006  0.9118800E+02  0.7816164E-02  0.1184000E+00
        -11   -1    0    0    0    0  0.00000000000E+00  0.00000000000E+00  0.45593999997E+02  0.45594000000E+02  0.51100000000E-03 0. -1.
         11   -1    0    0    0    0 -0.00000000000E+00 -0.00000000000E+00 -0.45593999997E+02  0.45594000000E+02  0.51100000000E-03 0.  1.
         23    2    1    2    0    0  0.66613381478E-15  0.88817841970E-15  0.00000000000E+00  0.91188000000E+02  0.91188000000E+02 0.  0.
    9900012    2    3    3    0    0 -0.29105846980E+00  0.74497914128E+01  0.36058204712E+02  0.54367106010E+02  0.40000049771E+02 0.  0.
        -12    1    3    3    0    0  0.29105846980E+00 -0.74497914128E+01 -0.36058204712E+02  0.36820893990E+02  0.00000000000E+00 0.  1.
         11    1    4    4    0    0 -0.99348603090E+01 -0.10124270270E+02  0.18106620293E+02  0.23001130332E+02  0.51100000000E-03 0. -1.
        -11    1    4    4    0    0 -0.30685608269E+00  0.94761393665E+01  0.22479840802E+00  0.94837710081E+01  0.51100000000E-03 0.  1.
         12    1    4    4    0    0  0.99506579218E+01  0.80979223164E+01  0.17726786012E+02  0.21882204670E+02  0.00000000000E+00 0. -1.
</event>
<event>
 8    1  0.1253488E-006  0.9118800E+02  0.7816164E-02  0.1184000E+00
        -11   -1    0    0    0    0  0.00000000000E+00  0.00000000000E+00  0.45593999997E+02  0.45594000000E+02  0.51100000000E-03 0.  1.
         11   -1    0    0    0    0 -0.00000000000E+00 -0.00000000000E+00 -0.45593999997E+02  0.45594000000E+02  0.51100000000E-03 0. -1.
         23    2    1    2    0    0  0.17763568394E-14  0.66613381478E-15  0.00000000000E+00  0.91188000000E+02  0.91188000000E+02 0.  0.
    9900012    2    3    3    0    0  0.10255233899E+02  0.19273232056E+01  0.35311401639E+02  0.54367089055E+02  0.40000011120E+02 0.  0.
         12    1    3    3    0    0 -0.10255233899E+02 -0.19273232056E+01 -0.35311401639E+02  0.36820910945E+02  0.00000000000E+00 0. -1.
         11    1    4    4    0    0  0.10168639230E+02 -0.21851211895E+01  0.11195363289E+02  0.15281103947E+02  0.51100000000E-03 0. -1.
        -11    1    4    4    0    0  0.11263456562E+02  0.62323181843E+01  0.24529829003E+02  0.27702342047E+02  0.51100000000E-03 0.  1.
         12    1    4    4    0    0 -0.11176861893E+02 -0.21198737891E+01 -0.41379065326E+00  0.11383643062E+02  0.00000000000E+00 0. -1.
</event>
<event>
 8    1  0.1253488E-006  0.9118800E+02  0.7816164E-02  0.1184000E+00
        -11   -1    0    0    0    0  0.00000000000E+00  0.00000000000E+00  0.45593999997E+02  0.45594000000E+02  0.51100000000E-03 0. -1.
         11   -1    0    0    0    0 -0.00000000000E+00 -0.00000000000E+00 -0.45593999997E+02  0.45594000000E+02  0.51100000000E-03 0.  1.
         23    2    1    2    0    0 -0.17763568394E-14  0.35527136788E-14  0.00000000000E+00  0.91188000000E+02  0.91188000000E+02 0.  0.
    9900012    2    3    3    0    0  0.92939288025E+01 -0.28123659687E+02  0.21873862123E+02  0.54367038702E+02  0.39999896328E+02 0.  0.
        -12    1    3    3    0    0 -0.92939288025E+01  0.28123659687E+02 -0.21873862123E+02  0.36820961298E+02  0.00000000000E+00 0.  1.
         11    1    4    4    0    0 -0.12742355755E+01 -0.98093479612E+01  0.10770213209E+02  0.14623422190E+02  0.51100000000E-03 0. -1.
        -11    1    4    4    0    0  0.18230161601E+02 -0.28271847445E+01  0.12691355936E+02  0.22392013785E+02  0.51100000000E-03 0.  1.
        -12    1    4    4    0    0 -0.76619972235E+01 -0.15487126981E+02 -0.15877070224E+01  0.17351602726E+02  0.00000000000E+00 0.  1.
</event>
<event>
 8    1  0.1253488E-006  0.9118800E+02  0.7816164E-02  0.1184000E+00
        -11   -1    0    0    0    0  0.00000000000E+00  0.00000000000E+00  0.45593999997E+02  0.45594000000E+02  0.51100000000E-03 0. -1.
         11   -1    0    0    0    0 -0.00000000000E+00 -0.00000000000E+00 -0.45593999997E+02  0.45594000000E+02  0.51100000000E-03 0.  1.
         23    2    1    2    0    0  0.66613381478E-15 -0.17763568394E-14 -0.71054273576E-14  0.91188000000E+02  0.91188000000E+02 0.  0.
    9900012    2    3    3    0    0 -0.11116407578E+01  0.14323911304E+02  0.33902347613E+02  0.54367090806E+02  0.40000015110E+02 0.  0.
        -12    1    3    3    0    0  0.11116407578E+01 -0.14323911304E+02 -0.33902347613E+02  0.36820909194E+02  0.00000000000E+00 0.  1.
         11    1    4    4    0    0  0.42848291380E+01  0.15918334327E+02  0.27677533757E+02  0.32214887919E+02  0.51100000000E-03 0. -1.
        -11    1    4    4    0    0 -0.83690655800E+01  0.34663169510E+01 -0.43568702387E+01  0.10051812296E+02  0.51100000000E-03 0.  1.
        -12    1    4    4    0    0  0.29725956843E+01 -0.50607399745E+01  0.10581684094E+02  0.12100390591E+02  0.00000000000E+00 0.  1.
</event>
<event>
 8    1  0.1253488E-006  0.9118800E+02  0.7816164E-02  0.1184000E+00
        -11   -1    0    0    0    0  0.00000000000E+00  0.00000000000E+00  0.45593999997E+02  0.45594000000E+02  0.51100000000E-03 0. -1.
         11   -1    0    0    0    0 -0.00000000000E+00 -0.00000000000E+00 -0.45593999997E+02  0.45594000000E+02  0.51100000000E-03 0.  1.
         23    2    1    2    0    0  0.17763568394E-14  0.00000000000E+00  0.00000000000E+00  0.91188000000E+02  0.91188000000E+02 0.  0.
    9900012    2    3    3    0    0 -0.11637074704E+02 -0.10775932511E+02  0.33229956121E+02  0.54367187774E+02  0.40000236168E+02 0.  0.
        -12    1    3    3    0    0  0.11637074704E+02  0.10775932511E+02 -0.33229956121E+02  0.36820812226E+02  0.00000000000E+00 0.  1.
         11    1    4    4    0    0  0.95929358614E+01 -0.92300310973E+01  0.30837809776E+01  0.13664830693E+02  0.51100000000E-03 0. -1.
        -11    1    4    4    0    0 -0.16707215092E+01 -0.19631124852E+01 -0.18681746224E+01  0.31835825216E+01  0.51100000000E-03 0.  1.
        -12    1    4    4    0    0 -0.19559289057E+02  0.41721107142E+00  0.32014349766E+02  0.37518774559E+02  0.00000000000E+00 0.  1.
</event>
<event>
 8    1  0.1253488E-006  0.9118800E+02  0.7816164E-02  0.1184000E+00
        -11   -1    0    0    0    0  0.00000000000E+00  0.00000000000E+00  0.45593999997E+02  0.45594000000E+02  0.51100000000E-03 0.  1.
         11   -1    0    0    0    0 -0.00000000000E+00 -0.00000000000E+00 -0.45593999997E+02  0.45594000000E+02  0.51100000000E-03 0. -1.
         23    2    1    2    0    0  0.71054273576E-14  0.00000000000E+00 -0.88817841970E-15  0.91188000000E+02  0.91188000000E+02 0.  0.
    9900012    2    3    3    0    0  0.35522101381E+02 -0.90938102720E+01 -0.33559412937E+01  0.54367089993E+02  0.40000013257E+02 0.  0.
        -12    1    3    3    0    0 -0.35522101381E+02  0.90938102720E+01  0.33559412937E+01  0.36820910007E+02  0.00000000000E+00 0.  1.
         11    1    4    4    0    0  0.45009956228E+01 -0.78301857152E+01 -0.36153752298E+01  0.97283970028E+01  0.51100000000E-03 0. -1.
        -11    1    4    4    0    0  0.10824976597E+02 -0.82256140441E+01  0.13779343401E+02  0.19357457208E+02  0.51100000000E-03 0.  1.
         12    1    4    4    0    0  0.20196129161E+02  0.69619894873E+01 -0.13519909465E+02  0.25281235782E+02  0.00000000000E+00 0. -1.
</event>
<event>
 8    1  0.1253488E-006  0.9118800E+02  0.7816164E-02  0.1184000E+00
        -11   -1    0    0    0    0  0.00000000000E+00  0.00000000000E+00  0.45593999997E+02  0.45594000000E+02  0.51100000000E-03 0.  1.
         11   -1    0    0    0    0 -0.00000000000E+00 -0.00000000000E+00 -0.45593999997E+02  0.45594000000E+02  0.51100000000E-03 0. -1.
         23    2    1    2    0    0  0.35527136788E-14  0.17763568394E-14  0.00000000000E+00  0.91188000000E+02  0.91188000000E+02 0.  0.
    9900012    2    3    3    0    0 -0.27384309162E+02 -0.98841502297E+01  0.22543037392E+02  0.54367009398E+02  0.39999829525E+02 0.  0.
         12    1    3    3    0    0  0.27384309162E+02  0.98841502297E+01 -0.22543037392E+02  0.36820990602E+02  0.00000000000E+00 0. -1.
         11    1    4    4    0    0 -0.25088121323E+01  0.22392681664E+01  0.55408180411E+01  0.64814446740E+01  0.51100000000E-03 0. -1.
        -11    1    4    4    0    0 -0.31289379857E+02 -0.14336967951E+02  0.20695260168E+02  0.40160524593E+02  0.51100000000E-03 0.  1.
         12    1    4    4    0    0  0.64138828279E+01  0.22135495554E+01 -0.36930408165E+01  0.77250401317E+01  0.00000000000E+00 0. -1.
</event>
<event>
 8    1  0.1253488E-006  0.9118800E+02  0.7816164E-02  0.1184000E+00
        -11   -1    0    0    0    0  0.00000000000E+00  0.00000000000E+00  0.45593999997E+02  0.45594000000E+02  0.51100000000E-03 0. -1.
         11   -1    0    0    0    0 -0.00000000000E+00 -0.00000000000E+00 -0.45593999997E+02  0.45594000000E+02  0.51100000000E-03 0.  1.
         23    2    1    2    0    0  0.00000000000E+00  0.00000000000E+00  0.00000000000E+00  0.91188000000E+02  0.91188000000E+02 0.  0.
    9900012    2    3    3    0    0  0.29287632597E+02  0.20665255749E+02 -0.84239432599E+01  0.54367067932E+02  0.39999962964E+02 0.  0.
         12    1    3    3    0    0 -0.29287632597E+02 -0.20665255749E+02  0.84239432599E+01  0.36820932068E+02  0.00000000000E+00 0. -1.
         11    1    4    4    0    0  0.17480150715E+02  0.91920658444E+01  0.14073460855E+01  0.19799756735E+02  0.51100000000E-03 0. -1.
        -11    1    4    4    0    0  0.40133982173E+01 -0.96518695009E+01 -0.15082119949E+01  0.10561280879E+02  0.51100000000E-03 0.  1.
         12    1    4    4    0    0  0.77940836651E+01  0.21125059405E+02 -0.83230773505E+01  0.24006030318E+02  0.00000000000E+00 0. -1.
</event>
<event>
 8    1  0.1253488E-006  0.9118800E+02  0.7816164E-02  0.1184000E+00
        -11   -1    0    0    0    0  0.00000000000E+00  0.00000000000E+00  0.45593999997E+02  0.45594000000E+02  0.51100000000E-03 0. -1.
         11   -1    0    0    0    0 -0.00000000000E+00 -0.00000000000E+00 -0.45593999997E+02  0.45594000000E+02  0.51100000000E-03 0.  1.
         23    2    1    2    0    0 -0.71054273576E-14 -0.22204460493E-15  0.00000000000E+00  0.91188000000E+02  0.91188000000E+02 0.  0.
    9900012    2    3    3    0    0 -0.32187838901E+02 -0.81315903185E+00  0.17862309168E+02  0.54367078101E+02  0.39999986146E+02 0.  0.
        -12    1    3    3    0    0  0.32187838901E+02  0.81315903185E+00 -0.17862309168E+02  0.36820921899E+02  0.00000000000E+00 0.  1.
         11    1    4    4    0    0  0.17693228200E+01  0.16832611551E+01 -0.88179598413E+00  0.25964275026E+01  0.51100000000E-03 0. -1.
        -11    1    4    4    0    0 -0.66035534348E+01 -0.12472087010E+02  0.17698272355E+02  0.22636004881E+02  0.51100000000E-03 0.  1.
         12    1    4    4    0    0 -0.27353608286E+02  0.99756668230E+01  0.10458327972E+01  0.29134645717E+02  0.00000000000E+00 0. -1.
</event>
<event>
 8    1  0.1253488E-006  0.9118800E+02  0.7816164E-02  0.1184000E+00
        -11   -1    0    0    0    0  0.00000000000E+00  0.00000000000E+00  0.45593999997E+02  0.45594000000E+02  0.51100000000E-03 0. -1.
         11   -1    0    0    0    0 -0.00000000000E+00 -0.00000000000E+00 -0.45593999997E+02  0.45594000000E+02  0.51100000000E-03 0.  1.
         23    2    1    2    0    0 -0.35527136788E-14  0.00000000000E+00  0.00000000000E+00  0.91188000000E+02  0.91188000000E+02 0.  0.
    9900012    2    3    3    0    0 -0.26261641541E+02  0.18727528570E+02  0.17759222442E+02  0.54367026025E+02  0.39999867428E+02 0.  0.
         12    1    3    3    0    0  0.26261641541E+02 -0.18727528570E+02 -0.17759222442E+02  0.36820973975E+02  0.00000000000E+00 0. -1.
         11    1    4    4    0    0 -0.13888001189E+02  0.78753364672E+01  0.14996951641E+02  0.21904475805E+02  0.51100000000E-03 0. -1.
        -11    1    4    4    0    0 -0.17626334867E+02  0.11331485197E+02 -0.63831426361E+01  0.21905130627E+02  0.51100000000E-03 0.  1.
        -12    1    4    4    0    0  0.52526945151E+01 -0.47929309393E+00  0.91454134366E+01  0.10557419593E+02  0.00000000000E+00 0.  1.
</event>
<event>
 8    1  0.1253488E-006  0.9118800E+02  0.7816164E-02  0.1184000E+00
        -11   -1    0    0    0    0  0.00000000000E+00  0.00000000000E+00  0.45593999997E+02  0.45594000000E+02  0.51100000000E-03 0. -1.
         11   -1    0    0    0    0 -0.00000000000E+00 -0.00000000000E+00 -0.45593999997E+02  0.45594000000E+02  0.51100000000E-03 0.  1.
         23    2    1    2    0    0  0.00000000000E+00  0.00000000000E+00  0.00000000000E+00  0.91188000000E+02  0.91188000000E+02 0.  0.
    9900012    2    3    3    0    0  0.20442111949E+02  0.27732461446E+02  0.12992769072E+02  0.54367062927E+02  0.39999951555E+02 0.  0.
        -12    1    3    3    0    0 -0.20442111949E+02 -0.27732461446E+02 -0.12992769072E+02  0.36820937073E+02  0.00000000000E+00 0.  1.
         11    1    4    4    0    0  0.35524447236E+01  0.34273354647E+01  0.96444800211E+01  0.10834319870E+02  0.51100000000E-03 0. -1.
        -11    1    4    4    0    0 -0.32166119755E+01  0.21583133943E+02  0.70005891519E+01  0.22916948142E+02  0.51100000000E-03 0.  1.
         12    1    4    4    0    0  0.20106279201E+02  0.27219920384E+01 -0.36523001014E+01  0.20615794916E+02  0.00000000000E+00 0. -1.
</event>
<event>
 8    1  0.1253488E-006  0.9118800E+02  0.7816164E-02  0.1184000E+00
        -11   -1    0    0    0    0  0.00000000000E+00  0.00000000000E+00  0.45593999997E+02  0.45594000000E+02  0.51100000000E-03 0. -1.
         11   -1    0    0    0    0 -0.00000000000E+00 -0.00000000000E+00 -0.45593999997E+02  0.45594000000E+02  0.51100000000E-03 0.  1.
         23    2    1    2    0    0  0.35527136788E-14  0.00000000000E+00  0.00000000000E+00  0.91188000000E+02  0.91188000000E+02 0.  0.
    9900012    2    3    3    0    0  0.30769902174E+02  0.18707860871E+02 -0.76817500376E+01  0.54367079020E+02  0.39999988243E+02 0.  0.
        -12    1    3    3    0    0 -0.30769902174E+02 -0.18707860871E+02  0.76817500376E+01  0.36820920980E+02  0.00000000000E+00 0.  1.
         11    1    4    4    0    0  0.10599038279E+02  0.15905891159E+02  0.12235612541E+02  0.22694651363E+02  0.51100000000E-03 0. -1.
        -11    1    4    4    0    0  0.16521546164E+02  0.78692005052E+01 -0.13694459501E+02  0.22856596981E+02  0.51100000000E-03 0.  1.
         12    1    4    4    0    0  0.36493177302E+01 -0.50672307930E+01 -0.62229030767E+01  0.88158306760E+01  0.00000000000E+00 0. -1.
</event>
<event>
 8    1  0.1253488E-006  0.9118800E+02  0.7816164E-02  0.1184000E+00
        -11   -1    0    0    0    0  0.00000000000E+00  0.00000000000E+00  0.45593999997E+02  0.45594000000E+02  0.51100000000E-03 0.  1.
         11   -1    0    0    0    0 -0.00000000000E+00 -0.00000000000E+00 -0.45593999997E+02  0.45594000000E+02  0.51100000000E-03 0. -1.
         23    2    1    2    0    0 -0.35527136788E-14  0.17763568394E-14  0.00000000000E+00  0.91188000000E+02  0.91188000000E+02 0.  0.
    9900012    2    3    3    0    0 -0.22977373843E+02 -0.11472685380E+02  0.26385583753E+02  0.54367065077E+02  0.39999956457E+02 0.  0.
         12    1    3    3    0    0  0.22977373843E+02  0.11472685380E+02 -0.26385583753E+02  0.36820934923E+02  0.00000000000E+00 0. -1.
         11    1    4    4    0    0 -0.21426345952E+02 -0.33208641897E+00  0.43959685880E+01  0.21875171367E+02  0.51100000000E-03 0. -1.
        -11    1    4    4    0    0  0.50851902447E+01  0.44497249660E+01  0.43701591919E+01  0.80472047148E+01  0.51100000000E-03 0.  1.
         12    1    4    4    0    0 -0.66362181361E+01 -0.15590323927E+02  0.17619455973E+02  0.24444688996E+02  0.00000000000E+00 0. -1.
</event>
<event>
 8    1  0.1253488E-006  0.9118800E+02  0.7816164E-02  0.1184000E+00
        -11   -1    0    0    0    0  0.00000000000E+00  0.00000000000E+00  0.45593999997E+02  0.45594000000E+02  0.51100000000E-03 0.  1.
         11   -1    0    0    0    0 -0.00000000000E+00 -0.00000000000E+00 -0.45593999997E+02  0.45594000000E+02  0.51100000000E-03 0. -1.
         23    2    1    2    0    0  0.00000000000E+00  0.00000000000E+00  0.00000000000E+00  0.91188000000E+02  0.91188000000E+02 0.  0.
    9900012    2    3    3    0    0 -0.10345292150E+02 -0.28656867922E+02 -0.20677010220E+02  0.54367083385E+02  0.39999998192E+02 0.  0.
        -12    1    3    3    0    0  0.10345292150E+02  0.28656867922E+02  0.20677010220E+02  0.36820916615E+02  0.00000000000E+00 0.  1.
         11    1    4    4    0    0 -0.18896937051E+01  0.55165073095E+01 -0.10228570460E+02  0.11773973378E+02  0.51100000000E-03 0. -1.
        -11    1    4    4    0    0 -0.13361608619E+02 -0.10371189901E+02 -0.30302499415E+01  0.17183613701E+02  0.51100000000E-03 0.  1.
         12    1    4    4    0    0  0.49060101737E+01 -0.23802185330E+02 -0.74181898182E+01  0.25409496306E+02  0.00000000000E+00 0. -1.
</event>
<event>
 8    1  0.1253488E-006  0.9118800E+02  0.7816164E-02  0.1184000E+00
        -11   -1    0    0    0    0  0.00000000000E+00  0.00000000000E+00  0.45593999997E+02  0.45594000000E+02  0.51100000000E-03 0.  1.
         11   -1    0    0    0    0 -0.00000000000E+00 -0.00000000000E+00 -0.45593999997E+02  0.45594000000E+02  0.51100000000E-03 0. -1.
         23    2    1    2    0    0  0.00000000000E+00  0.00000000000E+00  0.88817841970E-15  0.91188000000E+02  0.91188000000E+02 0.  0.
    9900012    2    3    3    0    0  0.34433636106E+02  0.11588787432E+02 -0.59838450710E+01  0.54367059064E+02  0.39999942748E+02 0.  0.
         12    1    3    3    0    0 -0.34433636106E+02 -0.11588787432E+02  0.59838450710E+01  0.36820940936E+02  0.00000000000E+00 0. -1.
         11    1    4    4    0    0 -0.40943173295E+01  0.12420484715E+02 -0.50101955821E+01  0.14004782576E+02  0.51100000000E-03 0. -1.
        -11    1    4    4    0    0  0.19270212033E+02 -0.55751497744E+00  0.54936298030E+01  0.20045744272E+02  0.51100000000E-03 0.  1.
        -12    1    4    4    0    0  0.19257741402E+02 -0.27418230612E+00 -0.64672792919E+01  0.20316532216E+02  0.00000000000E+00 0.  1.
</event>
<event>
 8    1  0.1253488E-006  0.9118800E+02  0.7816164E-02  0.1184000E+00
        -11   -1    0    0    0    0  0.00000000000E+00  0.00000000000E+00  0.45593999997E+02  0.45594000000E+02  0.51100000000E-03 0.  1.
         11   -1    0    0    0    0 -0.00000000000E+00 -0.00000000000E+00 -0.45593999997E+02  0.45594000000E+02  0.51100000000E-03 0. -1.
         23    2    1    2    0    0  0.00000000000E+00 -0.17763568394E-14  0.35527136788E-14  0.91188000000E+02  0.91188000000E+02 0.  0.
    9900012    2    3    3    0    0  0.16967885737E+02 -0.13954502280E+02 -0.29548994460E+02  0.54367077227E+02  0.39999984154E+02 0.  0.
        -12    1    3    3    0    0 -0.16967885737E+02  0.13954502280E+02  0.29548994460E+02  0.36820922773E+02  0.00000000000E+00 0.  1.
         11    1    4    4    0    0 -0.82114527334E+01 -0.90564319540E+01 -0.23042357206E+02  0.26084423352E+02  0.51100000000E-03 0.  1.
        -11    1    4    4    0    0  0.24780683447E+02 -0.54387436326E+01 -0.80355844281E+01  0.26612644021E+02  0.51100000000E-03 0. -1.
        -12    1    4    4    0    0  0.39865502293E+00  0.54067330677E+00  0.15289471742E+01  0.16700098543E+01  0.00000000000E+00 0.  1.
</event>
<event>
 8    1  0.1253488E-006  0.9118800E+02  0.7816164E-02  0.1184000E+00
        -11   -1    0    0    0    0  0.00000000000E+00  0.00000000000E+00  0.45593999997E+02  0.45594000000E+02  0.51100000000E-03 0.  1.
         11   -1    0    0    0    0 -0.00000000000E+00 -0.00000000000E+00 -0.45593999997E+02  0.45594000000E+02  0.51100000000E-03 0. -1.
         23    2    1    2    0    0 -0.88817841970E-15 -0.35527136788E-14 -0.35527136788E-14  0.91188000000E+02  0.91188000000E+02 0.  0.
    9900012    2    3    3    0    0 -0.37209191707E+01 -0.18648698912E+02 -0.31530321188E+02  0.54367077078E+02  0.39999983816E+02 0.  0.
        -12    1    3    3    0    0  0.37209191707E+01  0.18648698912E+02  0.31530321188E+02  0.36820922922E+02  0.00000000000E+00 0.  1.
         11    1    4    4    0    0  0.15452842586E+01  0.14340946535E+01 -0.82387253934E+01  0.85041829287E+01  0.51100000000E-03 0. -1.
        -11    1    4    4    0    0  0.74339146273E+01  0.21843286052E+01  0.37449712527E+01  0.86057648170E+01  0.51100000000E-03 0.  1.
         12    1    4    4    0    0 -0.12700118057E+02 -0.22267122170E+02 -0.27036567047E+02  0.37257129333E+02  0.00000000000E+00 0. -1.
</event>
<event>
 8    1  0.1253488E-006  0.9118800E+02  0.7816164E-02  0.1184000E+00
        -11   -1    0    0    0    0  0.00000000000E+00  0.00000000000E+00  0.45593999997E+02  0.45594000000E+02  0.51100000000E-03 0. -1.
         11   -1    0    0    0    0 -0.00000000000E+00 -0.00000000000E+00 -0.45593999997E+02  0.45594000000E+02  0.51100000000E-03 0.  1.
         23    2    1    2    0    0  0.00000000000E+00  0.00000000000E+00  0.00000000000E+00  0.91188000000E+02  0.91188000000E+02 0.  0.
    9900012    2    3    3    0    0 -0.67570962991E+01 -0.37440040152E+01  0.36001448508E+02  0.54367079165E+02  0.39999988573E+02 0.  0.
        -12    1    3    3    0    0  0.67570962991E+01  0.37440040152E+01 -0.36001448508E+02  0.36820920835E+02  0.00000000000E+00 0.  1.
         11    1    4    4    0    0 -0.17036411531E+01 -0.47873991991E-01  0.34307436959E+01  0.38307554954E+01  0.51100000000E-03 0. -1.
        -11    1    4    4    0    0 -0.18535012227E+02 -0.65278002391E+01  0.30955692149E+02  0.36666247843E+02  0.51100000000E-03 0.  1.
        -12    1    4    4    0    0  0.13481557081E+02  0.28316702158E+01  0.16150126628E+01  0.13870075826E+02  0.00000000000E+00 0.  1.
</event>
<event>
 8    1  0.1253488E-006  0.9118800E+02  0.7816164E-02  0.1184000E+00
        -11   -1    0    0    0    0  0.00000000000E+00  0.00000000000E+00  0.45593999997E+02  0.45594000000E+02  0.51100000000E-03 0.  1.
         11   -1    0    0    0    0 -0.00000000000E+00 -0.00000000000E+00 -0.45593999997E+02  0.45594000000E+02  0.51100000000E-03 0. -1.
         23    2    1    2    0    0  0.00000000000E+00  0.00000000000E+00  0.00000000000E+00  0.91188000000E+02  0.91188000000E+02 0.  0.
    9900012    2    3    3    0    0  0.35870476211E+02  0.66848434012E+01  0.49398270307E+01  0.54367080865E+02  0.39999992447E+02 0.  0.
        -12    1    3    3    0    0 -0.35870476211E+02 -0.66848434012E+01 -0.49398270307E+01  0.36820919135E+02  0.00000000000E+00 0.  1.
         11    1    4    4    0    0  0.16653836335E+02 -0.91526235678E+01  0.76078278307E+01  0.20469485275E+02  0.51100000000E-03 0. -1.
        -11    1    4    4    0    0  0.71464699430E+01 -0.55154914162E+01  0.10534361966E+01  0.90885865947E+01  0.51100000000E-03 0.  1.
        -12    1    4    4    0    0  0.12070169933E+02  0.21352958385E+02 -0.37214369966E+01  0.24809008995E+02  0.00000000000E+00 0.  1.
</event>
<event>
 8    1  0.1253488E-006  0.9118800E+02  0.7816164E-02  0.1184000E+00
        -11   -1    0    0    0    0  0.00000000000E+00  0.00000000000E+00  0.45593999997E+02  0.45594000000E+02  0.51100000000E-03 0.  1.
         11   -1    0    0    0    0 -0.00000000000E+00 -0.00000000000E+00 -0.45593999997E+02  0.45594000000E+02  0.51100000000E-03 0. -1.
         23    2    1    2    0    0 -0.44408920985E-15  0.00000000000E+00  0.00000000000E+00  0.91188000000E+02  0.91188000000E+02 0.  0.
    9900012    2    3    3    0    0 -0.22599041319E+01 -0.23191007887E+02  0.28510529606E+02  0.54367077796E+02  0.39999985451E+02 0.  0.
         12    1    3    3    0    0  0.22599041319E+01  0.23191007887E+02 -0.28510529606E+02  0.36820922204E+02  0.00000000000E+00 0. -1.
         11    1    4    4    0    0  0.64282757741E+01 -0.88191978157E+01  0.17965122282E+02  0.21020147440E+02  0.51100000000E-03 0. -1.
        -11    1    4    4    0    0 -0.15401428341E+02 -0.18214387813E+02  0.71701137462E+01  0.24907397490E+02  0.51100000000E-03 0.  1.
         12    1    4    4    0    0  0.67132484349E+01  0.38425777412E+01  0.33752935781E+01  0.84395328653E+01  0.00000000000E+00 0. -1.
</event>
<event>
 8    1  0.1253488E-006  0.9118800E+02  0.7816164E-02  0.1184000E+00
        -11   -1    0    0    0    0  0.00000000000E+00  0.00000000000E+00  0.45593999997E+02  0.45594000000E+02  0.51100000000E-03 0.  1.
         11   -1    0    0    0    0 -0.00000000000E+00 -0.00000000000E+00 -0.45593999997E+02  0.45594000000E+02  0.51100000000E-03 0. -1.
         23    2    1    2    0    0  0.00000000000E+00  0.35527136788E-14 -0.44408920985E-15  0.91188000000E+02  0.91188000000E+02 0.  0.
    9900012    2    3    3    0    0 -0.28021955717E+02 -0.23592174623E+02 -0.37361355208E+01  0.54367089986E+02  0.40000013240E+02 0.  0.
         12    1    3    3    0    0  0.28021955717E+02  0.23592174623E+02  0.37361355208E+01  0.36820910014E+02  0.00000000000E+00 0. -1.
         11    1    4    4    0    0 -0.29183176238E+02 -0.25644635775E+02 -0.27263276174E+01  0.38945320410E+02  0.51100000000E-03 0.  1.
        -11    1    4    4    0    0  0.74721408503E+01  0.13296837641E+01 -0.37954263690E+01  0.84856472578E+01  0.51100000000E-03 0. -1.
        -12    1    4    4    0    0 -0.63109203301E+01  0.72277738773E+00  0.27856184657E+01  0.69361223173E+01  0.00000000000E+00 0.  1.
</event>
<event>
 8    1  0.1253488E-006  0.9118800E+02  0.7816164E-02  0.1184000E+00
        -11   -1    0    0    0    0  0.00000000000E+00  0.00000000000E+00  0.45593999997E+02  0.45594000000E+02  0.51100000000E-03 0. -1.
         11   -1    0    0    0    0 -0.00000000000E+00 -0.00000000000E+00 -0.45593999997E+02  0.45594000000E+02  0.51100000000E-03 0.  1.
         23    2    1    2    0    0  0.00000000000E+00  0.00000000000E+00 -0.26367796835E-15  0.91188000000E+02  0.91188000000E+02 0.  0.
    9900012    2    3    3    0    0  0.17468918868E+02 -0.32413093602E+02 -0.88498030132E-01  0.54367087529E+02  0.40000007641E+02 0.  0.
         12    1    3    3    0    0 -0.17468918868E+02  0.32413093602E+02  0.88498030132E-01  0.36820912471E+02  0.00000000000E+00 0. -1.
         11    1    4    4    0    0  0.49224119408E+01 -0.53718363392E-01  0.41471577962E+01  0.64367649502E+01  0.51100000000E-03 0. -1.
        -11    1    4    4    0    0  0.19840180261E+02 -0.34563753296E+02 -0.54170303845E+01  0.40219771421E+02  0.51100000000E-03 0.  1.
         12    1    4    4    0    0 -0.72936733337E+01  0.22043780575E+01  0.11813745582E+01  0.77105511583E+01  0.00000000000E+00 0. -1.
</event>
<event>
 8    1  0.1253488E-006  0.9118800E+02  0.7816164E-02  0.1184000E+00
        -11   -1    0    0    0    0  0.00000000000E+00  0.00000000000E+00  0.45593999997E+02  0.45594000000E+02  0.51100000000E-03 0.  1.
         11   -1    0    0    0    0 -0.00000000000E+00 -0.00000000000E+00 -0.45593999997E+02  0.45594000000E+02  0.51100000000E-03 0. -1.
         23    2    1    2    0    0  0.00000000000E+00  0.35527136788E-14  0.00000000000E+00  0.91188000000E+02  0.91188000000E+02 0.  0.
    9900012    2    3    3    0    0  0.82243454712E+01  0.31491488967E+02 -0.17217034793E+02  0.54367081722E+02  0.39999994401E+02 0.  0.
        -12    1    3    3    0    0 -0.82243454712E+01 -0.31491488967E+02  0.17217034793E+02  0.36820918278E+02  0.00000000000E+00 0.  1.
         11    1    4    4    0    0  0.49654962608E+01  0.10183076077E+02 -0.13480289757E+02  0.17608787684E+02  0.51100000000E-03 0. -1.
        -11    1    4    4    0    0 -0.88431237077E+00  0.17755473022E+02  0.11094025607E+02  0.20955100454E+02  0.51100000000E-03 0.  1.
        -12    1    4    4    0    0  0.41431615811E+01  0.35529398682E+01 -0.14830770643E+02  0.15803193584E+02  0.00000000000E+00 0.  1.
</event>
<event>
 8    1  0.1253488E-006  0.9118800E+02  0.7816164E-02  0.1184000E+00
        -11   -1    0    0    0    0  0.00000000000E+00  0.00000000000E+00  0.45593999997E+02  0.45594000000E+02  0.51100000000E-03 0. -1.
         11   -1    0    0    0    0 -0.00000000000E+00 -0.00000000000E+00 -0.45593999997E+02  0.45594000000E+02  0.51100000000E-03 0.  1.
         23    2    1    2    0    0  0.00000000000E+00  0.00000000000E+00 -0.35527136788E-14  0.91188000000E+02  0.91188000000E+02 0.  0.
    9900012    2    3    3    0    0  0.24660369712E+02 -0.11783474177E+02 -0.24673783285E+02  0.54367086383E+02  0.40000005027E+02 0.  0.
         12    1    3    3    0    0 -0.24660369712E+02  0.11783474177E+02  0.24673783285E+02  0.36820913617E+02  0.00000000000E+00 0. -1.
         11    1    4    4    0    0  0.13238330671E+02 -0.18016920416E+02 -0.22194551139E+01  0.22467505457E+02  0.51100000000E-03 0. -1.
        -11    1    4    4    0    0  0.10859526454E+01 -0.61159396586E+01 -0.88843544186E+01  0.10840468844E+02  0.51100000000E-03 0.  1.
        -12    1    4    4    0    0  0.10336086396E+02  0.12349385898E+02 -0.13569973752E+02  0.21059112082E+02  0.00000000000E+00 0.  1.
</event>
<event>
 8    1  0.1253488E-006  0.9118800E+02  0.7816164E-02  0.1184000E+00
        -11   -1    0    0    0    0  0.00000000000E+00  0.00000000000E+00  0.45593999997E+02  0.45594000000E+02  0.51100000000E-03 0.  1.
         11   -1    0    0    0    0 -0.00000000000E+00 -0.00000000000E+00 -0.45593999997E+02  0.45594000000E+02  0.51100000000E-03 0. -1.
         23    2    1    2    0    0  0.44408920985E-15 -0.71054273576E-14  0.35527136788E-14  0.91188000000E+02  0.91188000000E+02 0.  0.
    9900012    2    3    3    0    0  0.19322002818E+01 -0.32200821996E+02 -0.17752581554E+02  0.54367075419E+02  0.39999980033E+02 0.  0.
        -12    1    3    3    0    0 -0.19322002818E+01  0.32200821996E+02  0.17752581554E+02  0.36820924581E+02  0.00000000000E+00 0.  1.
         11    1    4    4    0    0  0.84833840062E+01 -0.13547698791E+02 -0.12561835658E+02  0.20329969555E+02  0.51100000000E-03 0. -1.
        -11    1    4    4    0    0 -0.17200811984E+01  0.59023975997E+01 -0.65380972432E+01  0.89746137843E+01  0.51100000000E-03 0.  1.
        -12    1    4    4    0    0 -0.48311025260E+01 -0.24555520805E+02  0.13473513481E+01  0.25062492080E+02  0.00000000000E+00 0.  1.
</event>
<event>
 8    1  0.1253488E-006  0.9118800E+02  0.7816164E-02  0.1184000E+00
        -11   -1    0    0    0    0  0.00000000000E+00  0.00000000000E+00  0.45593999997E+02  0.45594000000E+02  0.51100000000E-03 0.  1.
         11   -1    0    0    0    0 -0.00000000000E+00 -0.00000000000E+00 -0.45593999997E+02  0.45594000000E+02  0.51100000000E-03 0. -1.
         23    2    1    2    0    0 -0.17763568394E-14 -0.17763568394E-14  0.71054273576E-14  0.91188000000E+02  0.91188000000E+02 0.  0.
    9900012    2    3    3    0    0  0.14041405134E+02  0.15458110377E+02 -0.30325994018E+02  0.54367080026E+02  0.39999990535E+02 0.  0.
        -12    1    3    3    0    0 -0.14041405134E+02 -0.15458110377E+02  0.30325994018E+02  0.36820919974E+02  0.00000000000E+00 0.  1.
         11    1    4    4    0    0  0.95350028852E+00  0.12644246337E+01  0.21478241765E+01  0.26685354427E+01  0.51100000000E-03 0. -1.
        -11    1    4    4    0    0 -0.28761912540E+01 -0.42723702079E+01  0.48676088088E+01  0.70865534006E+01  0.51100000000E-03 0.  1.
         12    1    4    4    0    0  0.15964096099E+02  0.18466055951E+02 -0.37341427003E+02  0.44611991183E+02  0.00000000000E+00 0. -1.
</event>
<event>
 8    1  0.1253488E-006  0.9118800E+02  0.7816164E-02  0.1184000E+00
        -11   -1    0    0    0    0  0.00000000000E+00  0.00000000000E+00  0.45593999997E+02  0.45594000000E+02  0.51100000000E-03 0.  1.
         11   -1    0    0    0    0 -0.00000000000E+00 -0.00000000000E+00 -0.45593999997E+02  0.45594000000E+02  0.51100000000E-03 0. -1.
         23    2    1    2    0    0 -0.17763568394E-14  0.00000000000E+00  0.35527136788E-14  0.91188000000E+02  0.91188000000E+02 0.  0.
    9900012    2    3    3    0    0 -0.10233121920E+02  0.30835675531E+02 -0.17326980553E+02  0.54367083054E+02  0.39999997438E+02 0.  0.
        -12    1    3    3    0    0  0.10233121920E+02 -0.30835675531E+02  0.17326980553E+02  0.36820916946E+02  0.00000000000E+00 0.  1.
         11    1    4    4    0    0 -0.18915968500E+02  0.11889330552E+02 -0.90564399903E-01  0.22342297273E+02  0.51100000000E-03 0. -1.
        -11    1    4    4    0    0  0.93210475389E+01  0.71196082197E+01 -0.78751292608E+00  0.11755463636E+02  0.51100000000E-03 0.  1.
         12    1    4    4    0    0 -0.63820095902E+00  0.11826736759E+02 -0.16448903227E+02  0.20269322145E+02  0.00000000000E+00 0. -1.
</event>
<event>
 8    1  0.1253488E-006  0.9118800E+02  0.7816164E-02  0.1184000E+00
        -11   -1    0    0    0    0  0.00000000000E+00  0.00000000000E+00  0.45593999997E+02  0.45594000000E+02  0.51100000000E-03 0.  1.
         11   -1    0    0    0    0 -0.00000000000E+00 -0.00000000000E+00 -0.45593999997E+02  0.45594000000E+02  0.51100000000E-03 0. -1.
         23    2    1    2    0    0 -0.35527136788E-14  0.17763568394E-14  0.35527136788E-14  0.91188000000E+02  0.91188000000E+02 0.  0.
    9900012    2    3    3    0    0 -0.24575774724E+02  0.63152517610E+01 -0.26681902225E+02  0.54367149733E+02  0.40000149445E+02 0.  0.
        -12    1    3    3    0    0  0.24575774724E+02 -0.63152517610E+01  0.26681902225E+02  0.36820850267E+02  0.00000000000E+00 0.  1.
         11    1    4    4    0    0 -0.24375579388E+02  0.15001998368E+02 -0.32331615474E+02  0.43180576478E+02  0.51100000000E-03 0. -1.
        -11    1    4    4    0    0 -0.11401841579E+01 -0.58187925820E+01  0.16103491887E+01  0.61442324010E+01  0.51100000000E-03 0.  1.
         12    1    4    4    0    0  0.93998882195E+00 -0.28679540248E+01  0.40393640605E+01  0.50423408539E+01  0.00000000000E+00 0. -1.
</event>
<event>
 8    1  0.1253488E-006  0.9118800E+02  0.7816164E-02  0.1184000E+00
        -11   -1    0    0    0    0  0.00000000000E+00  0.00000000000E+00  0.45593999997E+02  0.45594000000E+02  0.51100000000E-03 0.  1.
         11   -1    0    0    0    0 -0.00000000000E+00 -0.00000000000E+00 -0.45593999997E+02  0.45594000000E+02  0.51100000000E-03 0. -1.
         23    2    1    2    0    0  0.00000000000E+00  0.00000000000E+00  0.00000000000E+00  0.91188000000E+02  0.91188000000E+02 0.  0.
    9900012    2    3    3    0    0  0.21660573196E+02 -0.24188160256E+02 -0.17364655415E+02  0.54367098526E+02  0.40000032709E+02 0.  0.
        -12    1    3    3    0    0 -0.21660573196E+02  0.24188160256E+02  0.17364655415E+02  0.36820901474E+02  0.00000000000E+00 0.  1.
         11    1    4    4    0    0  0.14879908829E+02 -0.15328067299E+02 -0.91775502615E+00  0.21382319997E+02  0.51100000000E-03 0. -1.
        -11    1    4    4    0    0 -0.59602958355E+01 -0.52628184959E+01 -0.17977651633E+02  0.19657526382E+02  0.51100000000E-03 0.  1.
        -12    1    4    4    0    0  0.12740960202E+02 -0.35972744603E+01  0.15307512442E+01  0.13327252147E+02  0.00000000000E+00 0.  1.
</event>
<event>
 8    1  0.1253488E-006  0.9118800E+02  0.7816164E-02  0.1184000E+00
        -11   -1    0    0    0    0  0.00000000000E+00  0.00000000000E+00  0.45593999997E+02  0.45594000000E+02  0.51100000000E-03 0.  1.
         11   -1    0    0    0    0 -0.00000000000E+00 -0.00000000000E+00 -0.45593999997E+02  0.45594000000E+02  0.51100000000E-03 0. -1.
         23    2    1    2    0    0  0.71054273576E-14  0.00000000000E+00  0.00000000000E+00  0.91188000000E+02  0.91188000000E+02 0.  0.
    9900012    2    3    3    0    0  0.20983462930E+02 -0.30076575785E+02  0.32976729388E+01  0.54367071518E+02  0.39999971139E+02 0.  0.
         12    1    3    3    0    0 -0.20983462930E+02  0.30076575785E+02 -0.32976729388E+01  0.36820928482E+02  0.00000000000E+00 0. -1.
         11    1    4    4    0    0  0.61687801815E+01 -0.12929967435E+02  0.80973455210E+00  0.14348992198E+02  0.51100000000E-03 0. -1.
        -11    1    4    4    0    0  0.90740737501E+01 -0.24113855861E+02 -0.72241747952E+01  0.26758280226E+02  0.51100000000E-03 0.  1.
         12    1    4    4    0    0  0.57406089983E+01  0.69672475111E+01  0.97121131819E+01  0.13259799094E+02  0.00000000000E+00 0. -1.
</event>
<event>
 8    1  0.1253488E-006  0.9118800E+02  0.7816164E-02  0.1184000E+00
        -11   -1    0    0    0    0  0.00000000000E+00  0.00000000000E+00  0.45593999997E+02  0.45594000000E+02  0.51100000000E-03 0.  1.
         11   -1    0    0    0    0 -0.00000000000E+00 -0.00000000000E+00 -0.45593999997E+02  0.45594000000E+02  0.51100000000E-03 0. -1.
         23    2    1    2    0    0  0.00000000000E+00  0.00000000000E+00  0.00000000000E+00  0.91188000000E+02  0.91188000000E+02 0.  0.
    9900012    2    3    3    0    0 -0.18753778704E+02  0.11043582510E+02 -0.29700369002E+02  0.54367124818E+02  0.40000092648E+02 0.  0.
        -12    1    3    3    0    0  0.18753778704E+02 -0.11043582510E+02  0.29700369002E+02  0.36820875182E+02  0.00000000000E+00 0.  1.
         11    1    4    4    0    0 -0.64795497589E+01  0.19923437026E+02 -0.26518948901E+02  0.33796191488E+02  0.51100000000E-03 0. -1.
        -11    1    4    4    0    0 -0.13386072274E+02 -0.78131510283E+01 -0.65808321829E+01  0.16838634517E+02  0.51100000000E-03 0.  1.
        -12    1    4    4    0    0  0.11118433293E+01 -0.10667034879E+01  0.33994120827E+01  0.37322988128E+01  0.00000000000E+00 0.  1.
</event>
<event>
 8    1  0.1253488E-006  0.9118800E+02  0.7816164E-02  0.1184000E+00
        -11   -1    0    0    0    0  0.00000000000E+00  0.00000000000E+00  0.45593999997E+02  0.45594000000E+02  0.51100000000E-03 0.  1.
         11   -1    0    0    0    0 -0.00000000000E+00 -0.00000000000E+00 -0.45593999997E+02  0.45594000000E+02  0.51100000000E-03 0. -1.
         23    2    1    2    0    0  0.35527136788E-14  0.00000000000E+00 -0.35527136788E-14  0.91188000000E+02  0.91188000000E+02 0.  0.
    9900012    2    3    3    0    0  0.11259599427E+02 -0.17250270647E+02 -0.30519363871E+02  0.54367055040E+02  0.39999933575E+02 0.  0.
        -12    1    3    3    0    0 -0.11259599427E+02  0.17250270647E+02  0.30519363871E+02  0.36820944960E+02  0.00000000000E+00 0.  1.
         11    1    4    4    0    0 -0.86217927701E+01  0.24333067197E+00 -0.20481950718E+02  0.22223969624E+02  0.51100000000E-03 0.  1.
        -11    1    4    4    0    0  0.18522364540E+02 -0.15847990861E+02 -0.13656423411E+02  0.27941630287E+02  0.51100000000E-03 0. -1.
        -12    1    4    4    0    0  0.13590276573E+01 -0.16456104580E+01  0.36190102577E+01  0.42014551286E+01  0.00000000000E+00 0.  1.
</event>
<event>
 8    1  0.1253488E-006  0.9118800E+02  0.7816164E-02  0.1184000E+00
        -11   -1    0    0    0    0  0.00000000000E+00  0.00000000000E+00  0.45593999997E+02  0.45594000000E+02  0.51100000000E-03 0.  1.
         11   -1    0    0    0    0 -0.00000000000E+00 -0.00000000000E+00 -0.45593999997E+02  0.45594000000E+02  0.51100000000E-03 0. -1.
         23    2    1    2    0    0  0.00000000000E+00  0.00000000000E+00  0.00000000000E+00  0.91188000000E+02  0.91188000000E+02 0.  0.
    9900012    2    3    3    0    0 -0.11501148658E+02  0.34685740845E+02  0.45170529693E+01  0.54367071088E+02  0.39999970159E+02 0.  0.
         12    1    3    3    0    0  0.11501148658E+02 -0.34685740845E+02 -0.45170529693E+01  0.36820928912E+02  0.00000000000E+00 0. -1.
         11    1    4    4    0    0 -0.66547507216E+01  0.34492200605E+02  0.49918343042E+01  0.35481206571E+02  0.51100000000E-03 0. -1.
        -11    1    4    4    0    0  0.41933619797E+01  0.65860721382E+01 -0.12841549932E+00  0.78087849057E+01  0.51100000000E-03 0.  1.
        -12    1    4    4    0    0 -0.90397599165E+01 -0.63925318984E+01 -0.34636583563E+00  0.11077079611E+02  0.00000000000E+00 0.  1.
</event>
<event>
 8    1  0.1253488E-006  0.9118800E+02  0.7816164E-02  0.1184000E+00
        -11   -1    0    0    0    0  0.00000000000E+00  0.00000000000E+00  0.45593999997E+02  0.45594000000E+02  0.51100000000E-03 0. -1.
         11   -1    0    0    0    0 -0.00000000000E+00 -0.00000000000E+00 -0.45593999997E+02  0.45594000000E+02  0.51100000000E-03 0.  1.
         23    2    1    2    0    0  0.35527136788E-14  0.00000000000E+00  0.00000000000E+00  0.91188000000E+02  0.91188000000E+02 0.  0.
    9900012    2    3    3    0    0  0.26148577741E+02  0.25553597026E+02  0.43639785873E+01  0.54367099034E+02  0.40000033867E+02 0.  0.
         12    1    3    3    0    0 -0.26148577741E+02 -0.25553597026E+02 -0.43639785873E+01  0.36820900966E+02  0.00000000000E+00 0. -1.
         11    1    4    4    0    0 -0.19606053540E+01  0.18307594386E+02  0.61295257652E+01  0.19405748425E+02  0.51100000000E-03 0. -1.
        -11    1    4    4    0    0  0.22462212852E+02  0.11206276185E+02 -0.72732378063E+01  0.26134873648E+02  0.51100000000E-03 0.  1.
         12    1    4    4    0    0  0.56469702430E+01 -0.39602735451E+01  0.55076906284E+01  0.88264769606E+01  0.00000000000E+00 0. -1.
</event>
<event>
 8    1  0.1253488E-006  0.9118800E+02  0.7816164E-02  0.1184000E+00
        -11   -1    0    0    0    0  0.00000000000E+00  0.00000000000E+00  0.45593999997E+02  0.45594000000E+02  0.51100000000E-03 0. -1.
         11   -1    0    0    0    0 -0.00000000000E+00 -0.00000000000E+00 -0.45593999997E+02  0.45594000000E+02  0.51100000000E-03 0.  1.
         23    2    1    2    0    0  0.00000000000E+00  0.44408920985E-15  0.00000000000E+00  0.91188000000E+02  0.91188000000E+02 0.  0.
    9900012    2    3    3    0    0  0.31724485721E+02  0.27448688655E+01 -0.18487895630E+02  0.54367087679E+02  0.40000007982E+02 0.  0.
         12    1    3    3    0    0 -0.31724485721E+02 -0.27448688655E+01  0.18487895630E+02  0.36820912321E+02  0.00000000000E+00 0. -1.
         11    1    4    4    0    0  0.18342378031E+01 -0.10124227482E+02 -0.20587786937E+01  0.10492996731E+02  0.51100000000E-03 0. -1.
        -11    1    4    4    0    0  0.15411235043E+02 -0.17170301109E+01 -0.17389810359E+02  0.23299353265E+02  0.51100000000E-03 0.  1.
        -12    1    4    4    0    0  0.14479012874E+02  0.14586126459E+02  0.96069342304E+00  0.20574737683E+02  0.00000000000E+00 0.  1.
</event>
<event>
 8    1  0.1253488E-006  0.9118800E+02  0.7816164E-02  0.1184000E+00
        -11   -1    0    0    0    0  0.00000000000E+00  0.00000000000E+00  0.45593999997E+02  0.45594000000E+02  0.51100000000E-03 0. -1.
         11   -1    0    0    0    0 -0.00000000000E+00 -0.00000000000E+00 -0.45593999997E+02  0.45594000000E+02  0.51100000000E-03 0.  1.
         23    2    1    2    0    0 -0.35527136788E-14  0.00000000000E+00  0.00000000000E+00  0.91188000000E+02  0.91188000000E+02 0.  0.
    9900012    2    3    3    0    0 -0.21878982110E+02  0.68659011080E+01  0.28808985565E+02  0.54366971966E+02  0.39999744191E+02 0.  0.
        -12    1    3    3    0    0  0.21878982110E+02 -0.68659011080E+01 -0.28808985565E+02  0.36821028034E+02  0.00000000000E+00 0.  1.
         11    1    4    4    0    0 -0.19428214542E+02 -0.31605324908E+01  0.20673750655E+02  0.28545550481E+02  0.51100000000E-03 0. -1.
        -11    1    4    4    0    0 -0.35724758591E+01  0.11304770763E+02 -0.47884547517E+01  0.12786310060E+02  0.51100000000E-03 0.  1.
         12    1    4    4    0    0  0.11217082907E+01 -0.12783371645E+01  0.12923689662E+02  0.13035111425E+02  0.00000000000E+00 0. -1.
</event>
<event>
 8    1  0.1253488E-006  0.9118800E+02  0.7816164E-02  0.1184000E+00
        -11   -1    0    0    0    0  0.00000000000E+00  0.00000000000E+00  0.45593999997E+02  0.45594000000E+02  0.51100000000E-03 0.  1.
         11   -1    0    0    0    0 -0.00000000000E+00 -0.00000000000E+00 -0.45593999997E+02  0.45594000000E+02  0.51100000000E-03 0. -1.
         23    2    1    2    0    0  0.33306690739E-15  0.00000000000E+00  0.71054273576E-14  0.91188000000E+02  0.91188000000E+02 0.  0.
    9900012    2    3    3    0    0  0.70969251476E+00 -0.93983559518E+01  0.35594206624E+02  0.54367077914E+02  0.39999985721E+02 0.  0.
         12    1    3    3    0    0 -0.70969251476E+00  0.93983559518E+01 -0.35594206624E+02  0.36820922086E+02  0.00000000000E+00 0. -1.
         11    1    4    4    0    0 -0.11381844893E+02 -0.48734854507E+01  0.91061956979E+01  0.15369451973E+02  0.51100000000E-03 0. -1.
        -11    1    4    4    0    0 -0.21501071336E+01  0.16543986772E+01  0.22904978853E+02  0.23065082965E+02  0.51100000000E-03 0.  1.
        -12    1    4    4    0    0  0.14241644542E+02 -0.61792691783E+01  0.35830320729E+01  0.15932542975E+02  0.00000000000E+00 0.  1.
</event>
<event>
 8    1  0.1253488E-006  0.9118800E+02  0.7816164E-02  0.1184000E+00
        -11   -1    0    0    0    0  0.00000000000E+00  0.00000000000E+00  0.45593999997E+02  0.45594000000E+02  0.51100000000E-03 0. -1.
         11   -1    0    0    0    0 -0.00000000000E+00 -0.00000000000E+00 -0.45593999997E+02  0.45594000000E+02  0.51100000000E-03 0.  1.
         23    2    1    2    0    0  0.00000000000E+00  0.00000000000E+00 -0.17763568394E-14  0.91188000000E+02  0.91188000000E+02 0.  0.
    9900012    2    3    3    0    0  0.31694275524E+02 -0.14322642723E+02 -0.12087817346E+02  0.54367074920E+02  0.39999978896E+02 0.  0.
         12    1    3    3    0    0 -0.31694275524E+02  0.14322642723E+02  0.12087817346E+02  0.36820925080E+02  0.00000000000E+00 0. -1.
         11    1    4    4    0    0  0.10156126938E+02 -0.12640624834E+01 -0.17351373900E+02  0.20144849089E+02  0.51100000000E-03 0. -1.
        -11    1    4    4    0    0  0.25201424117E+02 -0.75864797194E+01  0.92194525721E+00  0.26334700214E+02  0.51100000000E-03 0.  1.
        -12    1    4    4    0    0 -0.36632755306E+01 -0.54721005198E+01  0.43416112969E+01  0.78875256174E+01  0.00000000000E+00 0.  1.
</event>
<event>
 8    1  0.1253488E-006  0.9118800E+02  0.7816164E-02  0.1184000E+00
        -11   -1    0    0    0    0  0.00000000000E+00  0.00000000000E+00  0.45593999997E+02  0.45594000000E+02  0.51100000000E-03 0.  1.
         11   -1    0    0    0    0 -0.00000000000E+00 -0.00000000000E+00 -0.45593999997E+02  0.45594000000E+02  0.51100000000E-03 0. -1.
         23    2    1    2    0    0  0.35527136788E-14  0.00000000000E+00  0.00000000000E+00  0.91188000000E+02  0.91188000000E+02 0.  0.
    9900012    2    3    3    0    0  0.17078227038E+02  0.66733101532E+01  0.31930877830E+02  0.54367083849E+02  0.39999999252E+02 0.  0.
         12    1    3    3    0    0 -0.17078227038E+02 -0.66733101532E+01 -0.31930877830E+02  0.36820916151E+02  0.00000000000E+00 0. -1.
         11    1    4    4    0    0  0.11350974764E+02 -0.23337940999E+01 -0.63122006875E+01  0.13196025946E+02  0.51100000000E-03 0. -1.
        -11    1    4    4    0    0  0.44278045472E+01 -0.13870934029E+01  0.93564115846E+01  0.10443750247E+02  0.51100000000E-03 0.  1.
        -12    1    4    4    0    0  0.12994477269E+01  0.10394197656E+02  0.28886666933E+02  0.30727307656E+02  0.00000000000E+00 0.  1.
</event>
<event>
 8    1  0.1253488E-006  0.9118800E+02  0.7816164E-02  0.1184000E+00
        -11   -1    0    0    0    0  0.00000000000E+00  0.00000000000E+00  0.45593999997E+02  0.45594000000E+02  0.51100000000E-03 0.  1.
         11   -1    0    0    0    0 -0.00000000000E+00 -0.00000000000E+00 -0.45593999997E+02  0.45594000000E+02  0.51100000000E-03 0. -1.
         23    2    1    2    0    0 -0.17763568394E-14  0.00000000000E+00  0.35527136788E-14  0.91188000000E+02  0.91188000000E+02 0.  0.
    9900012    2    3    3    0    0 -0.15414235119E+02  0.23307010508E+02  0.23978405854E+02  0.54367091124E+02  0.40000015836E+02 0.  0.
         12    1    3    3    0    0  0.15414235119E+02 -0.23307010508E+02 -0.23978405854E+02  0.36820908876E+02  0.00000000000E+00 0. -1.
         11    1    4    4    0    0 -0.96351030533E+01  0.90273216818E+01  0.61472414806E+01  0.14564213871E+02  0.51100000000E-03 0. -1.
        -11    1    4    4    0    0 -0.12717670982E+02  0.57540033771E+01 -0.47036852785E+01  0.14729981858E+02  0.51100000000E-03 0.  1.
        -12    1    4    4    0    0  0.69385389160E+01  0.85256854490E+01  0.22534849652E+02  0.25072895395E+02  0.00000000000E+00 0.  1.
</event>
<event>
 8    1  0.1253488E-006  0.9118800E+02  0.7816164E-02  0.1184000E+00
        -11   -1    0    0    0    0  0.00000000000E+00  0.00000000000E+00  0.45593999997E+02  0.45594000000E+02  0.51100000000E-03 0.  1.
         11   -1    0    0    0    0 -0.00000000000E+00 -0.00000000000E+00 -0.45593999997E+02  0.45594000000E+02  0.51100000000E-03 0. -1.
         23    2    1    2    0    0  0.00000000000E+00  0.35527136788E-14  0.35527136788E-14  0.91188000000E+02  0.91188000000E+02 0.  0.
    9900012    2    3    3    0    0  0.79315246213E+01  0.28653749263E+02  0.21721809841E+02  0.54367035151E+02  0.39999888233E+02 0.  0.
         12    1    3    3    0    0 -0.79315246213E+01 -0.28653749263E+02 -0.21721809841E+02  0.36820964849E+02  0.00000000000E+00 0. -1.
         11    1    4    4    0    0  0.29711624785E+01  0.22401410577E+02 -0.13099133345E+01  0.22635522426E+02  0.51100000000E-03 0. -1.
        -11    1    4    4    0    0 -0.30698121704E+01  0.66087386661E+01  0.22528519733E+02  0.23677697843E+02  0.51100000000E-03 0.  1.
        -12    1    4    4    0    0  0.80301743132E+01 -0.35639997963E+00  0.50320344281E+00  0.80538148818E+01  0.00000000000E+00 0.  1.
</event>
<event>
 8    1  0.1253488E-006  0.9118800E+02  0.7816164E-02  0.1184000E+00
        -11   -1    0    0    0    0  0.00000000000E+00  0.00000000000E+00  0.45593999997E+02  0.45594000000E+02  0.51100000000E-03 0.  1.
         11   -1    0    0    0    0 -0.00000000000E+00 -0.00000000000E+00 -0.45593999997E+02  0.45594000000E+02  0.51100000000E-03 0. -1.
         23    2    1    2    0    0 -0.35527136788E-14  0.00000000000E+00  0.00000000000E+00  0.91188000000E+02  0.91188000000E+02 0.  0.
    9900012    2    3    3    0    0  0.31401702123E+02 -0.18697417443E+02  0.44855789301E+01  0.54367072071E+02  0.39999972399E+02 0.  0.
         12    1    3    3    0    0 -0.31401702123E+02  0.18697417443E+02 -0.44855789301E+01  0.36820927929E+02  0.00000000000E+00 0. -1.
         11    1    4    4    0    0  0.91209181299E+01  0.50319725147E+01  0.59127438569E+01  0.11977997959E+02  0.51100000000E-03 0. -1.
        -11    1    4    4    0    0 -0.76847714582E+00  0.76996191527E+00  0.75068736491E+01  0.75852851442E+01  0.51100000000E-03 0.  1.
         12    1    4    4    0    0  0.23049261139E+02 -0.24499351873E+02 -0.89340385759E+01  0.34803788968E+02  0.00000000000E+00 0. -1.
</event>
<event>
 8    1  0.1253488E-006  0.9118800E+02  0.7816164E-02  0.1184000E+00
        -11   -1    0    0    0    0  0.00000000000E+00  0.00000000000E+00  0.45593999997E+02  0.45594000000E+02  0.51100000000E-03 0. -1.
         11   -1    0    0    0    0 -0.00000000000E+00 -0.00000000000E+00 -0.45593999997E+02  0.45594000000E+02  0.51100000000E-03 0.  1.
         23    2    1    2    0    0  0.00000000000E+00  0.00000000000E+00  0.00000000000E+00  0.91188000000E+02  0.91188000000E+02 0.  0.
    9900012    2    3    3    0    0 -0.98034614857E+01  0.30846550534E+02  0.17554571898E+02  0.54367074815E+02  0.39999978655E+02 0.  0.
        -12    1    3    3    0    0  0.98034614857E+01 -0.30846550534E+02 -0.17554571898E+02  0.36820925185E+02  0.00000000000E+00 0.  1.
         11    1    4    4    0    0  0.10142563879E+02  0.21319493780E+01  0.59490309202E+01  0.11950220891E+02  0.51100000000E-03 0. -1.
        -11    1    4    4    0    0 -0.50784734507E+01 -0.17227307268E+01  0.60589963842E+01  0.80913615165E+01  0.51100000000E-03 0.  1.
         12    1    4    4    0    0 -0.14867551914E+02  0.30437331883E+02  0.55465445941E+01  0.34325492407E+02  0.00000000000E+00 0. -1.
</event>
<event>
 8    1  0.1253488E-006  0.9118800E+02  0.7816164E-02  0.1184000E+00
        -11   -1    0    0    0    0  0.00000000000E+00  0.00000000000E+00  0.45593999997E+02  0.45594000000E+02  0.51100000000E-03 0.  1.
         11   -1    0    0    0    0 -0.00000000000E+00 -0.00000000000E+00 -0.45593999997E+02  0.45594000000E+02  0.51100000000E-03 0. -1.
         23    2    1    2    0    0  0.00000000000E+00 -0.35527136788E-14  0.00000000000E+00  0.91188000000E+02  0.91188000000E+02 0.  0.
    9900012    2    3    3    0    0  0.21401577227E+02  0.22833511360E+02 -0.19400622704E+02  0.54367069673E+02  0.39999966934E+02 0.  0.
        -12    1    3    3    0    0 -0.21401577227E+02 -0.22833511360E+02  0.19400622704E+02  0.36820930327E+02  0.00000000000E+00 0.  1.
         11    1    4    4    0    0  0.75604140789E+01  0.16296908316E+01 -0.11205817667E+02  0.13615656543E+02  0.51100000000E-03 0. -1.
        -11    1    4    4    0    0 -0.47405497095E+01  0.65352306078E+01 -0.14193875840E+02  0.16329365029E+02  0.51100000000E-03 0.  1.
        -12    1    4    4    0    0  0.18581712857E+02  0.14668589920E+02  0.59990708024E+01  0.24422048101E+02  0.00000000000E+00 0.  1.
</event>
<event>
 8    1  0.1253488E-006  0.9118800E+02  0.7816164E-02  0.1184000E+00
        -11   -1    0    0    0    0  0.00000000000E+00  0.00000000000E+00  0.45593999997E+02  0.45594000000E+02  0.51100000000E-03 0.  1.
         11   -1    0    0    0    0 -0.00000000000E+00 -0.00000000000E+00 -0.45593999997E+02  0.45594000000E+02  0.51100000000E-03 0. -1.
         23    2    1    2    0    0  0.00000000000E+00  0.35527136788E-14  0.00000000000E+00  0.91188000000E+02  0.91188000000E+02 0.  0.
    9900012    2    3    3    0    0  0.17171521467E+02  0.29059263405E+02  0.14713814108E+02  0.54366834012E+02  0.39999429693E+02 0.  0.
        -12    1    3    3    0    0 -0.17171521467E+02 -0.29059263405E+02 -0.14713814108E+02  0.36821165988E+02  0.00000000000E+00 0.  1.
         11    1    4    4    0    0  0.12210191741E+02 -0.40477749170E+01  0.28956313265E+01  0.13185520284E+02  0.51100000000E-03 0. -1.
        -11    1    4    4    0    0  0.46915086007E+01 -0.55341785092E+00  0.49189606066E+01  0.68200218459E+01  0.51100000000E-03 0.  1.
         12    1    4    4    0    0  0.26982112532E+00  0.33660456172E+02  0.68992221751E+01  0.34361291882E+02  0.00000000000E+00 0. -1.
</event>
<event>
 8    1  0.1253488E-006  0.9118800E+02  0.7816164E-02  0.1184000E+00
        -11   -1    0    0    0    0  0.00000000000E+00  0.00000000000E+00  0.45593999997E+02  0.45594000000E+02  0.51100000000E-03 0. -1.
         11   -1    0    0    0    0 -0.00000000000E+00 -0.00000000000E+00 -0.45593999997E+02  0.45594000000E+02  0.51100000000E-03 0.  1.
         23    2    1    2    0    0  0.17763568394E-14 -0.17763568394E-14  0.00000000000E+00  0.91188000000E+02  0.91188000000E+02 0.  0.
    9900012    2    3    3    0    0  0.87501746727E+01  0.12770894871E+02 -0.33408366649E+02  0.54367078301E+02  0.39999986603E+02 0.  0.
         12    1    3    3    0    0 -0.87501746727E+01 -0.12770894871E+02  0.33408366649E+02  0.36820921699E+02  0.00000000000E+00 0. -1.
         11    1    4    4    0    0 -0.12289032629E+02  0.70139664915E+01 -0.20348331490E+02  0.24784483929E+02  0.51100000000E-03 0. -1.
        -11    1    4    4    0    0  0.12427022042E+02  0.62776941463E+01  0.87323807727E-02  0.13922657689E+02  0.51100000000E-03 0.  1.
        -12    1    4    4    0    0  0.86121852599E+01 -0.52076576687E+00 -0.13068767539E+02  0.15659936683E+02  0.00000000000E+00 0.  1.
</event>
<event>
 8    1  0.1253488E-006  0.9118800E+02  0.7816164E-02  0.1184000E+00
        -11   -1    0    0    0    0  0.00000000000E+00  0.00000000000E+00  0.45593999997E+02  0.45594000000E+02  0.51100000000E-03 0. -1.
         11   -1    0    0    0    0 -0.00000000000E+00 -0.00000000000E+00 -0.45593999997E+02  0.45594000000E+02  0.51100000000E-03 0.  1.
         23    2    1    2    0    0  0.00000000000E+00  0.00000000000E+00 -0.35527136788E-14  0.91188000000E+02  0.91188000000E+02 0.  0.
    9900012    2    3    3    0    0 -0.14210022438E+01  0.27978652474E+02 -0.23894664407E+02  0.54367092505E+02  0.40000018983E+02 0.  0.
         12    1    3    3    0    0  0.14210022438E+01 -0.27978652474E+02  0.23894664407E+02  0.36820907495E+02  0.00000000000E+00 0. -1.
         11    1    4    4    0    0  0.12123802546E+01  0.12247299489E+02 -0.27127591703E+02  0.29788797266E+02  0.51100000000E-03 0. -1.
        -11    1    4    4    0    0  0.25255535677E+00  0.45920949211E+01 -0.75292785148E+01  0.88227634666E+01  0.51100000000E-03 0.  1.
         12    1    4    4    0    0 -0.28859378551E+01  0.11139258064E+02  0.10762205811E+02  0.15755531773E+02  0.00000000000E+00 0. -1.
</event>
<event>
 8    1  0.1253488E-006  0.9118800E+02  0.7816164E-02  0.1184000E+00
        -11   -1    0    0    0    0  0.00000000000E+00  0.00000000000E+00  0.45593999997E+02  0.45594000000E+02  0.51100000000E-03 0.  1.
         11   -1    0    0    0    0 -0.00000000000E+00 -0.00000000000E+00 -0.45593999997E+02  0.45594000000E+02  0.51100000000E-03 0. -1.
         23    2    1    2    0    0 -0.88817841970E-15  0.00000000000E+00  0.35527136788E-14  0.91188000000E+02  0.91188000000E+02 0.  0.
    9900012    2    3    3    0    0 -0.51016937543E+01  0.23738756462E+02  0.27680764918E+02  0.54367074102E+02  0.39999977030E+02 0.  0.
         12    1    3    3    0    0  0.51016937543E+01 -0.23738756462E+02 -0.27680764918E+02  0.36820925898E+02  0.00000000000E+00 0. -1.
         11    1    4    4    0    0  0.63022599889E+01  0.13048947079E+00 -0.27888118627E+01  0.68929660043E+01  0.51100000000E-03 0.  1.
        -11    1    4    4    0    0  0.26325066201E+01  0.16093805058E+02  0.26416970185E+02  0.31045079583E+02  0.51100000000E-03 0. -1.
         12    1    4    4    0    0 -0.14036460363E+02  0.75144619338E+01  0.40526065964E+01  0.16429028514E+02  0.00000000000E+00 0. -1.
</event>
<event>
 8    1  0.1253488E-006  0.9118800E+02  0.7816164E-02  0.1184000E+00
        -11   -1    0    0    0    0  0.00000000000E+00  0.00000000000E+00  0.45593999997E+02  0.45594000000E+02  0.51100000000E-03 0. -1.
         11   -1    0    0    0    0 -0.00000000000E+00 -0.00000000000E+00 -0.45593999997E+02  0.45594000000E+02  0.51100000000E-03 0.  1.
         23    2    1    2    0    0  0.17763568394E-14  0.00000000000E+00  0.88817841970E-15  0.91188000000E+02  0.91188000000E+02 0.  0.
    9900012    2    3    3    0    0  0.13817867946E+02  0.33816029712E+02 -0.46178921945E+01  0.54367051229E+02  0.39999924887E+02 0.  0.
         12    1    3    3    0    0 -0.13817867946E+02 -0.33816029712E+02  0.46178921945E+01  0.36820948771E+02  0.00000000000E+00 0. -1.
         11    1    4    4    0    0  0.37017671277E+01 -0.32501782160E+01  0.38592209258E+01  0.62578210839E+01  0.51100000000E-03 0. -1.
        -11    1    4    4    0    0 -0.70978333645E+01  0.18518276737E+02 -0.11000719580E+02  0.22678660527E+02  0.51100000000E-03 0.  1.
         12    1    4    4    0    0  0.17213934183E+02  0.18547931191E+02  0.25236064597E+01  0.25430569618E+02  0.00000000000E+00 0. -1.
</event>
<event>
 8    1  0.1253488E-006  0.9118800E+02  0.7816164E-02  0.1184000E+00
        -11   -1    0    0    0    0  0.00000000000E+00  0.00000000000E+00  0.45593999997E+02  0.45594000000E+02  0.51100000000E-03 0.  1.
         11   -1    0    0    0    0 -0.00000000000E+00 -0.00000000000E+00 -0.45593999997E+02  0.45594000000E+02  0.51100000000E-03 0. -1.
         23    2    1    2    0    0 -0.17763568394E-14  0.44408920985E-15  0.00000000000E+00  0.91188000000E+02  0.91188000000E+02 0.  0.
    9900012    2    3    3    0    0  0.14583603300E+02 -0.17358951256E+01  0.33765146433E+02  0.54367082972E+02  0.39999997252E+02 0.  0.
         12    1    3    3    0    0 -0.14583603300E+02  0.17358951256E+01 -0.33765146433E+02  0.36820917028E+02  0.00000000000E+00 0. -1.
         11    1    4    4    0    0  0.10034526834E+01  0.12538496098E+01 -0.21736906764E+01  0.27025890457E+01  0.51100000000E-03 0. -1.
        -11    1    4    4    0    0  0.13379298969E+02 -0.12683098777E+02  0.47984839901E+01  0.19049726622E+02  0.51100000000E-03 0.  1.
        -12    1    4    4    0    0  0.20085164767E+00  0.96933540417E+01  0.31140353119E+02  0.32614767305E+02  0.00000000000E+00 0.  1.
</event>
<event>
 8    1  0.1253488E-006  0.9118800E+02  0.7816164E-02  0.1184000E+00
        -11   -1    0    0    0    0  0.00000000000E+00  0.00000000000E+00  0.45593999997E+02  0.45594000000E+02  0.51100000000E-03 0. -1.
         11   -1    0    0    0    0 -0.00000000000E+00 -0.00000000000E+00 -0.45593999997E+02  0.45594000000E+02  0.51100000000E-03 0.  1.
         23    2    1    2    0    0  0.35527136788E-14  0.35527136788E-14  0.35527136788E-14  0.91188000000E+02  0.91188000000E+02 0.  0.
    9900012    2    3    3    0    0  0.28541602267E+02 -0.15590047348E+02  0.17265813264E+02  0.54367069214E+02  0.39999965888E+02 0.  0.
         12    1    3    3    0    0 -0.28541602267E+02  0.15590047348E+02 -0.17265813264E+02  0.36820930786E+02  0.00000000000E+00 0. -1.
         11    1    4    4    0    0 -0.22280247459E+00  0.76689595864E+01 -0.52075895037E+01  0.92726248054E+01  0.51100000000E-03 0. -1.
        -11    1    4    4    0    0  0.95216678516E+01 -0.14539679288E+02  0.62937607952E+01  0.18484476127E+02  0.51100000000E-03 0.  1.
         12    1    4    4    0    0  0.19242736890E+02 -0.87193276460E+01  0.16179641973E+02  0.26609968282E+02  0.00000000000E+00 0. -1.
</event>
<event>
 8    1  0.1253488E-006  0.9118800E+02  0.7816164E-02  0.1184000E+00
        -11   -1    0    0    0    0  0.00000000000E+00  0.00000000000E+00  0.45593999997E+02  0.45594000000E+02  0.51100000000E-03 0. -1.
         11   -1    0    0    0    0 -0.00000000000E+00 -0.00000000000E+00 -0.45593999997E+02  0.45594000000E+02  0.51100000000E-03 0.  1.
         23    2    1    2    0    0  0.00000000000E+00  0.35527136788E-14 -0.66613381478E-15  0.91188000000E+02  0.91188000000E+02 0.  0.
    9900012    2    3    3    0    0  0.22824264835E+02  0.28860677412E+02 -0.13763063267E+01  0.54367082235E+02  0.39999995571E+02 0.  0.
         12    1    3    3    0    0 -0.22824264835E+02 -0.28860677412E+02  0.13763063267E+01  0.36820917765E+02  0.00000000000E+00 0. -1.
         11    1    4    4    0    0  0.91545623184E+01  0.39931936256E+01 -0.10108499604E+02  0.14210326213E+02  0.51100000000E-03 0. -1.
        -11    1    4    4    0    0 -0.26033438788E+01 -0.21428789450E+01  0.79253106224E+01  0.86127741319E+01  0.51100000000E-03 0.  1.
        -12    1    4    4    0    0  0.16273046396E+02  0.27010362732E+02  0.80688265445E+00  0.31543981890E+02  0.00000000000E+00 0.  1.
</event>
<event>
 8    1  0.1253488E-006  0.9118800E+02  0.7816164E-02  0.1184000E+00
        -11   -1    0    0    0    0  0.00000000000E+00  0.00000000000E+00  0.45593999997E+02  0.45594000000E+02  0.51100000000E-03 0. -1.
         11   -1    0    0    0    0 -0.00000000000E+00 -0.00000000000E+00 -0.45593999997E+02  0.45594000000E+02  0.51100000000E-03 0.  1.
         23    2    1    2    0    0  0.00000000000E+00  0.00000000000E+00  0.00000000000E+00  0.91188000000E+02  0.91188000000E+02 0.  0.
    9900012    2    3    3    0    0  0.58891032520E+01 -0.88397498691E+01 -0.35255596219E+02  0.54367085025E+02  0.40000001931E+02 0.  0.
         12    1    3    3    0    0 -0.58891032520E+01  0.88397498691E+01  0.35255596219E+02  0.36820914975E+02  0.00000000000E+00 0. -1.
         11    1    4    4    0    0  0.59126182914E+01 -0.35310402934E+01 -0.11715726103E+02  0.13589905776E+02  0.51100000000E-03 0. -1.
        -11    1    4    4    0    0 -0.80718552312E+00  0.95480273058E+01 -0.24052552449E+02  0.25890956982E+02  0.51100000000E-03 0.  1.
         12    1    4    4    0    0  0.78367048369E+00 -0.14856736882E+02  0.51268233298E+00  0.14886222267E+02  0.00000000000E+00 0. -1.
</event>
<event>
 8    1  0.1253488E-006  0.9118800E+02  0.7816164E-02  0.1184000E+00
        -11   -1    0    0    0    0  0.00000000000E+00  0.00000000000E+00  0.45593999997E+02  0.45594000000E+02  0.51100000000E-03 0.  1.
         11   -1    0    0    0    0 -0.00000000000E+00 -0.00000000000E+00 -0.45593999997E+02  0.45594000000E+02  0.51100000000E-03 0. -1.
         23    2    1    2    0    0 -0.17763568394E-14  0.00000000000E+00  0.00000000000E+00  0.91188000000E+02  0.91188000000E+02 0.  0.
    9900012    2    3    3    0    0  0.14505910033E+02  0.18732273175E+02  0.28185839494E+02  0.54367339601E+02  0.40000582285E+02 0.  0.
         12    1    3    3    0    0 -0.14505910033E+02 -0.18732273175E+02 -0.28185839494E+02  0.36820660399E+02  0.00000000000E+00 0. -1.
         11    1    4    4    0    0  0.17246559960E+01 -0.88046217713E+01  0.43077031318E+01  0.99524926211E+01  0.51100000000E-03 0. -1.
        -11    1    4    4    0    0  0.59222990016E+01 -0.25578216163E+01  0.55990778802E+01  0.85419991954E+01  0.51100000000E-03 0.  1.
        -12    1    4    4    0    0  0.68589550356E+01  0.30094716563E+02  0.18279058482E+02  0.35872847785E+02  0.00000000000E+00 0.  1.
</event>
<event>
 8    1  0.1253488E-006  0.9118800E+02  0.7816164E-02  0.1184000E+00
        -11   -1    0    0    0    0  0.00000000000E+00  0.00000000000E+00  0.45593999997E+02  0.45594000000E+02  0.51100000000E-03 0. -1.
         11   -1    0    0    0    0 -0.00000000000E+00 -0.00000000000E+00 -0.45593999997E+02  0.45594000000E+02  0.51100000000E-03 0.  1.
         23    2    1    2    0    0 -0.11102230246E-15  0.00000000000E+00  0.00000000000E+00  0.91188000000E+02  0.91188000000E+02 0.  0.
    9900012    2    3    3    0    0  0.50571579582E+00  0.15073419471E+02 -0.33590434141E+02  0.54367068605E+02  0.39999964498E+02 0.  0.
         12    1    3    3    0    0 -0.50571579582E+00 -0.15073419471E+02  0.33590434141E+02  0.36820931395E+02  0.00000000000E+00 0. -1.
         11    1    4    4    0    0 -0.89336633644E+00  0.30926768162E+00  0.31489222047E+01  0.32877745091E+01  0.51100000000E-03 0. -1.
        -11    1    4    4    0    0 -0.99689701189E+01  0.20251056412E+02 -0.20338394017E+02  0.30383151951E+02  0.51100000000E-03 0.  1.
         12    1    4    4    0    0  0.11368052251E+02 -0.54869046227E+01 -0.16400962329E+02  0.20696142144E+02  0.00000000000E+00 0. -1.
</event>
<event>
 8    1  0.1253488E-006  0.9118800E+02  0.7816164E-02  0.1184000E+00
        -11   -1    0    0    0    0  0.00000000000E+00  0.00000000000E+00  0.45593999997E+02  0.45594000000E+02  0.51100000000E-03 0. -1.
         11   -1    0    0    0    0 -0.00000000000E+00 -0.00000000000E+00 -0.45593999997E+02  0.45594000000E+02  0.51100000000E-03 0.  1.
         23    2    1    2    0    0  0.00000000000E+00  0.00000000000E+00  0.00000000000E+00  0.91188000000E+02  0.91188000000E+02 0.  0.
    9900012    2    3    3    0    0  0.18741369413E+02 -0.14904074394E+02  0.27971580528E+02  0.54367086401E+02  0.40000005069E+02 0.  0.
        -12    1    3    3    0    0 -0.18741369413E+02  0.14904074394E+02 -0.27971580528E+02  0.36820913599E+02  0.00000000000E+00 0.  1.
         11    1    4    4    0    0  0.61205845682E+01 -0.20245061120E+01  0.15067828027E+02  0.16389009188E+02  0.51100000000E-03 0. -1.
        -11    1    4    4    0    0 -0.32640670163E+01 -0.16422139026E+02 -0.71209992071E+00  0.16758516349E+02  0.51100000000E-03 0.  1.
         12    1    4    4    0    0  0.15884851861E+02  0.35425707433E+01  0.13615852422E+02  0.21219560865E+02  0.00000000000E+00 0. -1.
</event>
<event>
 8    1  0.1253488E-006  0.9118800E+02  0.7816164E-02  0.1184000E+00
        -11   -1    0    0    0    0  0.00000000000E+00  0.00000000000E+00  0.45593999997E+02  0.45594000000E+02  0.51100000000E-03 0.  1.
         11   -1    0    0    0    0 -0.00000000000E+00 -0.00000000000E+00 -0.45593999997E+02  0.45594000000E+02  0.51100000000E-03 0. -1.
         23    2    1    2    0    0  0.00000000000E+00  0.11102230246E-14  0.00000000000E+00  0.91188000000E+02  0.91188000000E+02 0.  0.
    9900012    2    3    3    0    0  0.29527388889E+02  0.11248467348E+01  0.21969245394E+02  0.54367085862E+02  0.40000003839E+02 0.  0.
         12    1    3    3    0    0 -0.29527388889E+02 -0.11248467348E+01 -0.21969245394E+02  0.36820914138E+02  0.00000000000E+00 0. -1.
         11    1    4    4    0    0 -0.23115658400E+01 -0.39609928973E+01 -0.11198760098E+01  0.47209028695E+01  0.51100000000E-03 0. -1.
        -11    1    4    4    0    0  0.44932815770E+01 -0.11191855236E+02  0.75803802092E+01  0.14244625911E+02  0.51100000000E-03 0.  1.
         12    1    4    4    0    0  0.27345673152E+02  0.16277694868E+02  0.15508741195E+02  0.35401557082E+02  0.00000000000E+00 0. -1.
</event>
<event>
 8    1  0.1253488E-006  0.9118800E+02  0.7816164E-02  0.1184000E+00
        -11   -1    0    0    0    0  0.00000000000E+00  0.00000000000E+00  0.45593999997E+02  0.45594000000E+02  0.51100000000E-03 0.  1.
         11   -1    0    0    0    0 -0.00000000000E+00 -0.00000000000E+00 -0.45593999997E+02  0.45594000000E+02  0.51100000000E-03 0. -1.
         23    2    1    2    0    0 -0.88817841970E-15  0.00000000000E+00  0.00000000000E+00  0.91188000000E+02  0.91188000000E+02 0.  0.
    9900012    2    3    3    0    0  0.72114498138E+01  0.22191048692E+02  0.28483910848E+02  0.54367070793E+02  0.39999969487E+02 0.  0.
         12    1    3    3    0    0 -0.72114498138E+01 -0.22191048692E+02 -0.28483910848E+02  0.36820929207E+02  0.00000000000E+00 0. -1.
         11    1    4    4    0    0  0.83000751049E+00  0.27598962430E+02  0.10034983044E+02  0.29378436388E+02  0.51100000000E-03 0. -1.
        -11    1    4    4    0    0 -0.33023198304E+01  0.95917119567E+00  0.10197919730E+02  0.10762104475E+02  0.51100000000E-03 0.  1.
         12    1    4    4    0    0  0.96837621337E+01 -0.63670849332E+01  0.82510080742E+01  0.14226529930E+02  0.00000000000E+00 0. -1.
</event>
<event>
 8    1  0.1253488E-006  0.9118800E+02  0.7816164E-02  0.1184000E+00
        -11   -1    0    0    0    0  0.00000000000E+00  0.00000000000E+00  0.45593999997E+02  0.45594000000E+02  0.51100000000E-03 0. -1.
         11   -1    0    0    0    0 -0.00000000000E+00 -0.00000000000E+00 -0.45593999997E+02  0.45594000000E+02  0.51100000000E-03 0.  1.
         23    2    1    2    0    0  0.00000000000E+00  0.00000000000E+00  0.00000000000E+00  0.91188000000E+02  0.91188000000E+02 0.  0.
    9900012    2    3    3    0    0  0.16023904794E+02  0.32817878821E+02 -0.46905526488E+01  0.54367082313E+02  0.39999995750E+02 0.  0.
         12    1    3    3    0    0 -0.16023904794E+02 -0.32817878821E+02  0.46905526488E+01  0.36820917687E+02  0.00000000000E+00 0. -1.
         11    1    4    4    0    0  0.14176858287E+02  0.27027655435E+02 -0.26843532793E+01  0.30637937626E+02  0.51100000000E-03 0.  1.
        -11    1    4    4    0    0  0.14459962976E+01 -0.63710157582E+01 -0.78648519891E+01  0.10224316317E+02  0.51100000000E-03 0. -1.
         12    1    4    4    0    0  0.40105020953E+00  0.12161239144E+02  0.58586526195E+01  0.13504828370E+02  0.00000000000E+00 0. -1.
</event>
<event>
 8    1  0.1253488E-006  0.9118800E+02  0.7816164E-02  0.1184000E+00
        -11   -1    0    0    0    0  0.00000000000E+00  0.00000000000E+00  0.45593999997E+02  0.45594000000E+02  0.51100000000E-03 0.  1.
         11   -1    0    0    0    0 -0.00000000000E+00 -0.00000000000E+00 -0.45593999997E+02  0.45594000000E+02  0.51100000000E-03 0. -1.
         23    2    1    2    0    0  0.00000000000E+00  0.00000000000E+00  0.35527136788E-14  0.91188000000E+02  0.91188000000E+02 0.  0.
    9900012    2    3    3    0    0 -0.13598943005E+02  0.18694115203E+02 -0.28659812814E+02  0.54366999679E+02  0.39999807367E+02 0.  0.
        -12    1    3    3    0    0  0.13598943005E+02 -0.18694115203E+02  0.28659812814E+02  0.36821000321E+02  0.00000000000E+00 0.  1.
         11    1    4    4    0    0 -0.12868578765E+02 -0.39905621766E+01 -0.20942257466E+02  0.24901868483E+02  0.51100000000E-03 0. -1.
        -11    1    4    4    0    0 -0.55092820460E+01  0.26322126727E+01  0.23268763553E+01  0.65341476912E+01  0.51100000000E-03 0.  1.
        -12    1    4    4    0    0  0.47789178060E+01  0.20052464707E+02 -0.10044431704E+02  0.22930983504E+02  0.00000000000E+00 0.  1.
</event>
<event>
 8    1  0.1253488E-006  0.9118800E+02  0.7816164E-02  0.1184000E+00
        -11   -1    0    0    0    0  0.00000000000E+00  0.00000000000E+00  0.45593999997E+02  0.45594000000E+02  0.51100000000E-03 0.  1.
         11   -1    0    0    0    0 -0.00000000000E+00 -0.00000000000E+00 -0.45593999997E+02  0.45594000000E+02  0.51100000000E-03 0. -1.
         23    2    1    2    0    0  0.00000000000E+00  0.00000000000E+00  0.13322676296E-14  0.91188000000E+02  0.91188000000E+02 0.  0.
    9900012    2    3    3    0    0  0.33710538257E+02 -0.14358613949E+02 -0.36341668982E+01  0.54367117975E+02  0.40000077046E+02 0.  0.
         12    1    3    3    0    0 -0.33710538257E+02  0.14358613949E+02  0.36341668982E+01  0.36820882025E+02  0.00000000000E+00 0. -1.
         11    1    4    4    0    0  0.19199899122E+02 -0.18105286454E+02 -0.35756216242E+01  0.26631233432E+02  0.51100000000E-03 0.  1.
        -11    1    4    4    0    0  0.10562458099E+02 -0.10461387667E+01  0.10853420440E+02  0.15180799153E+02  0.51100000000E-03 0. -1.
        -12    1    4    4    0    0  0.39481810355E+01  0.47928112712E+01 -0.10911965715E+02  0.12555085389E+02  0.00000000000E+00 0.  1.
</event>
<event>
 8    1  0.1253488E-006  0.9118800E+02  0.7816164E-02  0.1184000E+00
        -11   -1    0    0    0    0  0.00000000000E+00  0.00000000000E+00  0.45593999997E+02  0.45594000000E+02  0.51100000000E-03 0.  1.
         11   -1    0    0    0    0 -0.00000000000E+00 -0.00000000000E+00 -0.45593999997E+02  0.45594000000E+02  0.51100000000E-03 0. -1.
         23    2    1    2    0    0  0.00000000000E+00  0.17763568394E-14 -0.71054273576E-14  0.91188000000E+02  0.91188000000E+02 0.  0.
    9900012    2    3    3    0    0 -0.10734556394E+02 -0.10207678609E+02  0.33709811583E+02  0.54367098320E+02  0.40000032240E+02 0.  0.
         12    1    3    3    0    0  0.10734556394E+02  0.10207678609E+02 -0.33709811583E+02  0.36820901680E+02  0.00000000000E+00 0. -1.
         11    1    4    4    0    0 -0.11824965718E+02 -0.57421697519E+01  0.42624169745E+01  0.13819208603E+02  0.51100000000E-03 0. -1.
        -11    1    4    4    0    0  0.12262988652E+01  0.10846977042E+02  0.57619797304E+01  0.12343465094E+02  0.51100000000E-03 0.  1.
        -12    1    4    4    0    0 -0.13588954088E+00 -0.15312485899E+02  0.23685414878E+02  0.28204424623E+02  0.00000000000E+00 0.  1.
</event>
<event>
 8    1  0.1253488E-006  0.9118800E+02  0.7816164E-02  0.1184000E+00
        -11   -1    0    0    0    0  0.00000000000E+00  0.00000000000E+00  0.45593999997E+02  0.45594000000E+02  0.51100000000E-03 0.  1.
         11   -1    0    0    0    0 -0.00000000000E+00 -0.00000000000E+00 -0.45593999997E+02  0.45594000000E+02  0.51100000000E-03 0. -1.
         23    2    1    2    0    0  0.35527136788E-14  0.00000000000E+00 -0.35527136788E-14  0.91188000000E+02  0.91188000000E+02 0.  0.
    9900012    2    3    3    0    0 -0.16067821155E+02  0.90439503791E+01  0.31871808361E+02  0.54367080901E+02  0.39999992529E+02 0.  0.
         12    1    3    3    0    0  0.16067821155E+02 -0.90439503791E+01 -0.31871808361E+02  0.36820919099E+02  0.00000000000E+00 0. -1.
         11    1    4    4    0    0  0.56873160829E+01 -0.62978658936E+01  0.21023048600E+01  0.87423317842E+01  0.51100000000E-03 0. -1.
        -11    1    4    4    0    0  0.27125075146E+01 -0.28893551198E+01  0.45890227729E+01  0.60634313962E+01  0.51100000000E-03 0.  1.
        -12    1    4    4    0    0 -0.24467644752E+02  0.18231171392E+02  0.25180480728E+02  0.39561317720E+02  0.00000000000E+00 0.  1.
</event>
<event>
 8    1  0.1253488E-006  0.9118800E+02  0.7816164E-02  0.1184000E+00
        -11   -1    0    0    0    0  0.00000000000E+00  0.00000000000E+00  0.45593999997E+02  0.45594000000E+02  0.51100000000E-03 0.  1.
         11   -1    0    0    0    0 -0.00000000000E+00 -0.00000000000E+00 -0.45593999997E+02  0.45594000000E+02  0.51100000000E-03 0. -1.
         23    2    1    2    0    0 -0.17763568394E-14  0.14210854715E-13  0.88817841970E-15  0.91188000000E+02  0.91188000000E+02 0.  0.
    9900012    2    3    3    0    0  0.13000942592E+02 -0.34275221131E+02 -0.34589998181E+01  0.54367082418E+02  0.39999995988E+02 0.  0.
        -12    1    3    3    0    0 -0.13000942592E+02  0.34275221131E+02  0.34589998181E+01  0.36820917582E+02  0.00000000000E+00 0.  1.
         11    1    4    4    0    0  0.40254393596E+01  0.40714337833E+00  0.30534225592E+01  0.50688575985E+01  0.51100000000E-03 0. -1.
        -11    1    4    4    0    0 -0.55040687729E+01  0.22146585497E+01  0.52827316485E+01  0.79439750428E+01  0.51100000000E-03 0.  1.
         12    1    4    4    0    0  0.14479572006E+02 -0.36897023059E+02 -0.11795154026E+02  0.41354249776E+02  0.00000000000E+00 0. -1.
</event>
<event>
 8    1  0.1253488E-006  0.9118800E+02  0.7816164E-02  0.1184000E+00
        -11   -1    0    0    0    0  0.00000000000E+00  0.00000000000E+00  0.45593999997E+02  0.45594000000E+02  0.51100000000E-03 0.  1.
         11   -1    0    0    0    0 -0.00000000000E+00 -0.00000000000E+00 -0.45593999997E+02  0.45594000000E+02  0.51100000000E-03 0. -1.
         23    2    1    2    0    0  0.17763568394E-14 -0.88817841970E-15  0.00000000000E+00  0.91188000000E+02  0.91188000000E+02 0.  0.
    9900012    2    3    3    0    0  0.84550048201E+01  0.28712412830E+01  0.35721817370E+02  0.54367090598E+02  0.40000014636E+02 0.  0.
         12    1    3    3    0    0 -0.84550048201E+01 -0.28712412830E+01 -0.35721817370E+02  0.36820909402E+02  0.00000000000E+00 0. -1.
         11    1    4    4    0    0 -0.99106439031E+01 -0.40284762560E+01  0.45721719382E+00  0.10707872400E+02  0.51100000000E-03 0. -1.
        -11    1    4    4    0    0  0.89478799759E+01  0.91145151190E+01  0.88782380468E+01  0.15555129475E+02  0.51100000000E-03 0.  1.
        -12    1    4    4    0    0  0.94177687473E+01 -0.22147975800E+01  0.26386362129E+02  0.28104088722E+02  0.00000000000E+00 0.  1.
</event>
<event>
 8    1  0.1253488E-006  0.9118800E+02  0.7816164E-02  0.1184000E+00
        -11   -1    0    0    0    0  0.00000000000E+00  0.00000000000E+00  0.45593999997E+02  0.45594000000E+02  0.51100000000E-03 0. -1.
         11   -1    0    0    0    0 -0.00000000000E+00 -0.00000000000E+00 -0.45593999997E+02  0.45594000000E+02  0.51100000000E-03 0.  1.
         23    2    1    2    0    0 -0.35527136788E-14 -0.71054273576E-14  0.44408920985E-15  0.91188000000E+02  0.91188000000E+02 0.  0.
    9900012    2    3    3    0    0  0.10179555789E+02  0.35303690048E+02  0.24092112745E+01  0.54367106665E+02  0.40000051264E+02 0.  0.
         12    1    3    3    0    0 -0.10179555789E+02 -0.35303690048E+02 -0.24092112745E+01  0.36820893335E+02  0.00000000000E+00 0. -1.
         11    1    4    4    0    0  0.32548139304E+01 -0.61043491280E+00 -0.47066763974E+00  0.33448427157E+01  0.51100000000E-03 0. -1.
        -11    1    4    4    0    0  0.18902374407E+02  0.32877339889E+02  0.56948757009E+01  0.38349065776E+02  0.51100000000E-03 0.  1.
         12    1    4    4    0    0 -0.11977632548E+02  0.30367850718E+01 -0.28149967867E+01  0.12673198173E+02  0.00000000000E+00 0. -1.
</event>
<event>
 8    1  0.1253488E-006  0.9118800E+02  0.7816164E-02  0.1184000E+00
        -11   -1    0    0    0    0  0.00000000000E+00  0.00000000000E+00  0.45593999997E+02  0.45594000000E+02  0.51100000000E-03 0. -1.
         11   -1    0    0    0    0 -0.00000000000E+00 -0.00000000000E+00 -0.45593999997E+02  0.45594000000E+02  0.51100000000E-03 0.  1.
         23    2    1    2    0    0  0.71054273576E-14  0.00000000000E+00 -0.24980018054E-14  0.91188000000E+02  0.91188000000E+02 0.  0.
    9900012    2    3    3    0    0 -0.36707469480E+02 -0.28473944893E+01  0.48303740858E+00  0.54367091590E+02  0.40000016897E+02 0.  0.
         12    1    3    3    0    0  0.36707469480E+02  0.28473944893E+01 -0.48303740858E+00  0.36820908410E+02  0.00000000000E+00 0. -1.
         11    1    4    4    0    0 -0.31713409975E+01  0.33929592326E+01  0.57324279940E+01  0.73776898176E+01  0.51100000000E-03 0. -1.
        -11    1    4    4    0    0 -0.77785278069E+01 -0.35772249265E+01  0.12818057018E+02  0.15414428922E+02  0.51100000000E-03 0.  1.
        -12    1    4    4    0    0 -0.25757600676E+02 -0.26631287955E+01 -0.18067447604E+02  0.31574972850E+02  0.00000000000E+00 0.  1.
</event>
<event>
 8    1  0.1253488E-006  0.9118800E+02  0.7816164E-02  0.1184000E+00
        -11   -1    0    0    0    0  0.00000000000E+00  0.00000000000E+00  0.45593999997E+02  0.45594000000E+02  0.51100000000E-03 0.  1.
         11   -1    0    0    0    0 -0.00000000000E+00 -0.00000000000E+00 -0.45593999997E+02  0.45594000000E+02  0.51100000000E-03 0. -1.
         23    2    1    2    0    0  0.00000000000E+00  0.00000000000E+00  0.00000000000E+00  0.91188000000E+02  0.91188000000E+02 0.  0.
    9900012    2    3    3    0    0 -0.15556304153E+02 -0.33266884144E+02  0.26626327707E+01  0.54367166320E+02  0.40000187260E+02 0.  0.
         12    1    3    3    0    0  0.15556304153E+02  0.33266884144E+02 -0.26626327707E+01  0.36820833680E+02  0.00000000000E+00 0. -1.
         11    1    4    4    0    0 -0.65600330224E+01 -0.52168153561E+01  0.69342357284E+01  0.10878089038E+02  0.51100000000E-03 0. -1.
        -11    1    4    4    0    0 -0.19736656651E+02 -0.13120261403E+02  0.26297015164E+01  0.23845171532E+02  0.51100000000E-03 0.  1.
        -12    1    4    4    0    0  0.10740385521E+02 -0.14929807386E+02 -0.69013044742E+01  0.19643905751E+02  0.00000000000E+00 0.  1.
</event>
<event>
 8    1  0.1253488E-006  0.9118800E+02  0.7816164E-02  0.1184000E+00
        -11   -1    0    0    0    0  0.00000000000E+00  0.00000000000E+00  0.45593999997E+02  0.45594000000E+02  0.51100000000E-03 0. -1.
         11   -1    0    0    0    0 -0.00000000000E+00 -0.00000000000E+00 -0.45593999997E+02  0.45594000000E+02  0.51100000000E-03 0.  1.
         23    2    1    2    0    0 -0.88817841970E-15  0.00000000000E+00 -0.35527136788E-14  0.91188000000E+02  0.91188000000E+02 0.  0.
    9900012    2    3    3    0    0  0.17091044181E+01 -0.28094127231E+02 -0.23739845355E+02  0.54367064647E+02  0.39999955476E+02 0.  0.
         12    1    3    3    0    0 -0.17091044181E+01  0.28094127231E+02  0.23739845355E+02  0.36820935353E+02  0.00000000000E+00 0. -1.
         11    1    4    4    0    0  0.35301495176E+00  0.33046303704E+01 -0.40195136619E+01  0.52155241136E+01  0.51100000000E-03 0. -1.
        -11    1    4    4    0    0  0.12640513280E+02 -0.11056147992E+01 -0.59383816951E+01  0.14009615894E+02  0.51100000000E-03 0.  1.
        -12    1    4    4    0    0 -0.11284423814E+02 -0.30293142802E+02 -0.13781949999E+02  0.35141924640E+02  0.00000000000E+00 0.  1.
</event>
<event>
 8    1  0.1253488E-006  0.9118800E+02  0.7816164E-02  0.1184000E+00
        -11   -1    0    0    0    0  0.00000000000E+00  0.00000000000E+00  0.45593999997E+02  0.45594000000E+02  0.51100000000E-03 0. -1.
         11   -1    0    0    0    0 -0.00000000000E+00 -0.00000000000E+00 -0.45593999997E+02  0.45594000000E+02  0.51100000000E-03 0.  1.
         23    2    1    2    0    0  0.00000000000E+00  0.00000000000E+00  0.00000000000E+00  0.91188000000E+02  0.91188000000E+02 0.  0.
    9900012    2    3    3    0    0  0.13738012203E+02  0.15293632273E+02 -0.30547328799E+02  0.54367252260E+02  0.40000383175E+02 0.  0.
         12    1    3    3    0    0 -0.13738012203E+02 -0.15293632273E+02  0.30547328799E+02  0.36820747740E+02  0.00000000000E+00 0. -1.
         11    1    4    4    0    0  0.15657581727E+02 -0.73136132831E+01 -0.64759390418E+01  0.18454988256E+02  0.51100000000E-03 0. -1.
        -11    1    4    4    0    0  0.44181271790E+01  0.15213750671E+02 -0.97780030711E+01  0.18616857994E+02  0.51100000000E-03 0.  1.
        -12    1    4    4    0    0 -0.63376967023E+01  0.73934948846E+01 -0.14293386686E+02  0.17295406010E+02  0.00000000000E+00 0.  1.
</event>
<event>
 8    1  0.1253488E-006  0.9118800E+02  0.7816164E-02  0.1184000E+00
        -11   -1    0    0    0    0  0.00000000000E+00  0.00000000000E+00  0.45593999997E+02  0.45594000000E+02  0.51100000000E-03 0. -1.
         11   -1    0    0    0    0 -0.00000000000E+00 -0.00000000000E+00 -0.45593999997E+02  0.45594000000E+02  0.51100000000E-03 0.  1.
         23    2    1    2    0    0  0.00000000000E+00  0.00000000000E+00  0.71054273576E-14  0.91188000000E+02  0.91188000000E+02 0.  0.
    9900012    2    3    3    0    0 -0.70384738604E+01  0.18069645060E+02 -0.31300614652E+02  0.54367073009E+02  0.39999974540E+02 0.  0.
         12    1    3    3    0    0  0.70384738604E+01 -0.18069645060E+02  0.31300614652E+02  0.36820926991E+02  0.00000000000E+00 0. -1.
         11    1    4    4    0    0 -0.23671309753E+01 -0.93034792565E+01 -0.58557154707E+01  0.11244885027E+02  0.51100000000E-03 0. -1.
        -11    1    4    4    0    0  0.32775827235E+01 -0.88025117448E+00 -0.86832914676E+01  0.93229255929E+01  0.51100000000E-03 0.  1.
         12    1    4    4    0    0 -0.79489256086E+01  0.28253375491E+02 -0.16761607713E+02  0.33799262390E+02  0.00000000000E+00 0. -1.
</event>
<event>
 8    1  0.1253488E-006  0.9118800E+02  0.7816164E-02  0.1184000E+00
        -11   -1    0    0    0    0  0.00000000000E+00  0.00000000000E+00  0.45593999997E+02  0.45594000000E+02  0.51100000000E-03 0. -1.
         11   -1    0    0    0    0 -0.00000000000E+00 -0.00000000000E+00 -0.45593999997E+02  0.45594000000E+02  0.51100000000E-03 0.  1.
         23    2    1    2    0    0 -0.17763568394E-14 -0.17763568394E-14 -0.71054273576E-14  0.91188000000E+02  0.91188000000E+02 0.  0.
    9900012    2    3    3    0    0  0.14639895691E+02  0.14304978566E+02 -0.30607524905E+02  0.54367088300E+02  0.40000009398E+02 0.  0.
         12    1    3    3    0    0 -0.14639895691E+02 -0.14304978566E+02  0.30607524905E+02  0.36820911700E+02  0.00000000000E+00 0. -1.
         11    1    4    4    0    0 -0.75675491614E+01 -0.35416816561E+00 -0.43593116794E+01  0.87405282437E+01  0.51100000000E-03 0. -1.
        -11    1    4    4    0    0  0.11500566865E+02  0.13175855346E+02 -0.27199052506E+00  0.17491145801E+02  0.51100000000E-03 0.  1.
         12    1    4    4    0    0  0.10706877988E+02  0.14832913851E+01 -0.25976222700E+02  0.28135414256E+02  0.00000000000E+00 0. -1.
</event>
<event>
 8    1  0.1253488E-006  0.9118800E+02  0.7816164E-02  0.1184000E+00
        -11   -1    0    0    0    0  0.00000000000E+00  0.00000000000E+00  0.45593999997E+02  0.45594000000E+02  0.51100000000E-03 0.  1.
         11   -1    0    0    0    0 -0.00000000000E+00 -0.00000000000E+00 -0.45593999997E+02  0.45594000000E+02  0.51100000000E-03 0. -1.
         23    2    1    2    0    0  0.00000000000E+00  0.17763568394E-14  0.88817841970E-15  0.91188000000E+02  0.91188000000E+02 0.  0.
    9900012    2    3    3    0    0  0.32747269467E+02 -0.15630493633E+02 -0.62510828903E+01  0.54367190312E+02  0.40000241954E+02 0.  0.
        -12    1    3    3    0    0 -0.32747269467E+02  0.15630493633E+02  0.62510828903E+01  0.36820809688E+02  0.00000000000E+00 0.  1.
         11    1    4    4    0    0  0.34496977168E+02 -0.50205617646E+01  0.56356286083E+01  0.35312997384E+02  0.51100000000E-03 0. -1.
        -11    1    4    4    0    0 -0.18441311519E+01  0.86287837327E+00 -0.56279214293E+01  0.59848875235E+01  0.51100000000E-03 0.  1.
        -12    1    4    4    0    0  0.94423450460E-01 -0.11472810242E+02 -0.62587900693E+01  0.13069305405E+02  0.00000000000E+00 0.  1.
</event>
<event>
 8    1  0.1253488E-006  0.9118800E+02  0.7816164E-02  0.1184000E+00
        -11   -1    0    0    0    0  0.00000000000E+00  0.00000000000E+00  0.45593999997E+02  0.45594000000E+02  0.51100000000E-03 0. -1.
         11   -1    0    0    0    0 -0.00000000000E+00 -0.00000000000E+00 -0.45593999997E+02  0.45594000000E+02  0.51100000000E-03 0.  1.
         23    2    1    2    0    0  0.00000000000E+00  0.00000000000E+00  0.00000000000E+00  0.91188000000E+02  0.91188000000E+02 0.  0.
    9900012    2    3    3    0    0  0.23082881436E+02 -0.28600940029E+02  0.22240302683E+01  0.54367088868E+02  0.40000010693E+02 0.  0.
         12    1    3    3    0    0 -0.23082881436E+02  0.28600940029E+02 -0.22240302683E+01  0.36820911132E+02  0.00000000000E+00 0. -1.
         11    1    4    4    0    0  0.11494473346E+02 -0.17608019691E+02 -0.51220370473E-01  0.21027788727E+02  0.51100000000E-03 0.  1.
        -11    1    4    4    0    0  0.20653157193E+02 -0.84677901968E+01  0.61646723647E+01  0.23157278736E+02  0.51100000000E-03 0. -1.
        -12    1    4    4    0    0 -0.90647491031E+01 -0.25251301411E+01 -0.38894217259E+01  0.10182021405E+02  0.00000000000E+00 0.  1.
</event>
<event>
 8    1  0.1253488E-006  0.9118800E+02  0.7816164E-02  0.1184000E+00
        -11   -1    0    0    0    0  0.00000000000E+00  0.00000000000E+00  0.45593999997E+02  0.45594000000E+02  0.51100000000E-03 0. -1.
         11   -1    0    0    0    0 -0.00000000000E+00 -0.00000000000E+00 -0.45593999997E+02  0.45594000000E+02  0.51100000000E-03 0.  1.
         23    2    1    2    0    0  0.00000000000E+00  0.88817841970E-15 -0.17763568394E-14  0.91188000000E+02  0.91188000000E+02 0.  0.
    9900012    2    3    3    0    0 -0.34834967644E+02 -0.48197126931E+01  0.10912031921E+02  0.54367122201E+02  0.40000086682E+02 0.  0.
        -12    1    3    3    0    0  0.34834967644E+02  0.48197126931E+01 -0.10912031921E+02  0.36820877799E+02  0.00000000000E+00 0.  1.
         11    1    4    4    0    0 -0.20009546104E+02 -0.15489743277E+02  0.50200504913E+01  0.25797577198E+02  0.51100000000E-03 0. -1.
        -11    1    4    4    0    0 -0.76895479851E+01 -0.58350150100E+01  0.41388810800E+01  0.10502708472E+02  0.51100000000E-03 0.  1.
        -12    1    4    4    0    0 -0.71358735548E+01  0.16505045594E+02  0.17531003496E+01  0.18066836532E+02  0.00000000000E+00 0.  1.
</event>
<event>
 8    1  0.1253488E-006  0.9118800E+02  0.7816164E-02  0.1184000E+00
        -11   -1    0    0    0    0  0.00000000000E+00  0.00000000000E+00  0.45593999997E+02  0.45594000000E+02  0.51100000000E-03 0.  1.
         11   -1    0    0    0    0 -0.00000000000E+00 -0.00000000000E+00 -0.45593999997E+02  0.45594000000E+02  0.51100000000E-03 0. -1.
         23    2    1    2    0    0  0.00000000000E+00 -0.88817841970E-15 -0.35527136788E-14  0.91188000000E+02  0.91188000000E+02 0.  0.
    9900012    2    3    3    0    0  0.29005843677E+02 -0.50578556959E+01 -0.22110148764E+02  0.54367088142E+02  0.40000009037E+02 0.  0.
         12    1    3    3    0    0 -0.29005843677E+02  0.50578556959E+01  0.22110148764E+02  0.36820911858E+02  0.00000000000E+00 0. -1.
         11    1    4    4    0    0  0.79964328294E+00  0.69611303421E+01 -0.41479148590E+00  0.70191749698E+01  0.51100000000E-03 0. -1.
        -11    1    4    4    0    0  0.35651819154E+01  0.18838818823E+01  0.63425684839E+01  0.75158305110E+01  0.51100000000E-03 0.  1.
        -12    1    4    4    0    0  0.24641018479E+02 -0.13902867920E+02 -0.28037925762E+02  0.39832082661E+02  0.00000000000E+00 0.  1.
</event>
<event>
 8    1  0.1253488E-006  0.9118800E+02  0.7816164E-02  0.1184000E+00
        -11   -1    0    0    0    0  0.00000000000E+00  0.00000000000E+00  0.45593999997E+02  0.45594000000E+02  0.51100000000E-03 0. -1.
         11   -1    0    0    0    0 -0.00000000000E+00 -0.00000000000E+00 -0.45593999997E+02  0.45594000000E+02  0.51100000000E-03 0.  1.
         23    2    1    2    0    0  0.35527136788E-14 -0.88817841970E-15 -0.35527136788E-14  0.91188000000E+02  0.91188000000E+02 0.  0.
    9900012    2    3    3    0    0 -0.25070418204E+02 -0.20844033194E+01  0.26886956380E+02  0.54367095211E+02  0.40000025152E+02 0.  0.
        -12    1    3    3    0    0  0.25070418204E+02  0.20844033194E+01 -0.26886956380E+02  0.36820904789E+02  0.00000000000E+00 0.  1.
         11    1    4    4    0    0 -0.99142708915E+01  0.44229184458E+01  0.67921234813E+01  0.12805776686E+02  0.51100000000E-03 0. -1.
        -11    1    4    4    0    0 -0.16577379715E+02 -0.43787381801E+01 -0.37734118367E+01  0.17556238304E+02  0.51100000000E-03 0.  1.
         12    1    4    4    0    0  0.14212324022E+01 -0.21285835852E+01  0.23868244736E+02  0.24005080220E+02  0.00000000000E+00 0. -1.
</event>
<event>
 8    1  0.1253488E-006  0.9118800E+02  0.7816164E-02  0.1184000E+00
        -11   -1    0    0    0    0  0.00000000000E+00  0.00000000000E+00  0.45593999997E+02  0.45594000000E+02  0.51100000000E-03 0.  1.
         11   -1    0    0    0    0 -0.00000000000E+00 -0.00000000000E+00 -0.45593999997E+02  0.45594000000E+02  0.51100000000E-03 0. -1.
         23    2    1    2    0    0  0.00000000000E+00  0.00000000000E+00  0.35527136788E-14  0.91188000000E+02  0.91188000000E+02 0.  0.
    9900012    2    3    3    0    0  0.31025346986E+02 -0.76415755242E+01  0.18297893083E+02  0.54367099368E+02  0.40000034629E+02 0.  0.
         12    1    3    3    0    0 -0.31025346986E+02  0.76415755242E+01 -0.18297893083E+02  0.36820900632E+02  0.00000000000E+00 0. -1.
         11    1    4    4    0    0  0.36401763690E+02 -0.41705774072E+01  0.21139882689E+02  0.42301025472E+02  0.51100000000E-03 0. -1.
        -11    1    4    4    0    0  0.64313821485E-01 -0.50284025143E+01  0.11272759090E+01  0.51536122622E+01  0.51100000000E-03 0.  1.
         12    1    4    4    0    0 -0.54407305254E+01  0.15574043973E+01 -0.39692655149E+01  0.69124616335E+01  0.00000000000E+00 0. -1.
</event>
<event>
 8    1  0.1253488E-006  0.9118800E+02  0.7816164E-02  0.1184000E+00
        -11   -1    0    0    0    0  0.00000000000E+00  0.00000000000E+00  0.45593999997E+02  0.45594000000E+02  0.51100000000E-03 0.  1.
         11   -1    0    0    0    0 -0.00000000000E+00 -0.00000000000E+00 -0.45593999997E+02  0.45594000000E+02  0.51100000000E-03 0. -1.
         23    2    1    2    0    0  0.17763568394E-14  0.00000000000E+00  0.35527136788E-14  0.91188000000E+02  0.91188000000E+02 0.  0.
    9900012    2    3    3    0    0 -0.10677420359E+02 -0.25846529755E+02 -0.23952635675E+02  0.54367093415E+02  0.40000021059E+02 0.  0.
        -12    1    3    3    0    0  0.10677420359E+02  0.25846529755E+02  0.23952635675E+02  0.36820906585E+02  0.00000000000E+00 0.  1.
         11    1    4    4    0    0 -0.11742400551E+02 -0.17204159827E+02  0.13445177119E+01  0.20872824778E+02  0.51100000000E-03 0. -1.
        -11    1    4    4    0    0 -0.61029156113E+01  0.31553359537E+01 -0.35437955583E+01  0.77304728936E+01  0.51100000000E-03 0.  1.
        -12    1    4    4    0    0  0.71678958032E+01 -0.11797705882E+02 -0.21753357829E+02  0.25763795744E+02  0.00000000000E+00 0.  1.
</event>
<event>
 8    1  0.1253488E-006  0.9118800E+02  0.7816164E-02  0.1184000E+00
        -11   -1    0    0    0    0  0.00000000000E+00  0.00000000000E+00  0.45593999997E+02  0.45594000000E+02  0.51100000000E-03 0. -1.
         11   -1    0    0    0    0 -0.00000000000E+00 -0.00000000000E+00 -0.45593999997E+02  0.45594000000E+02  0.51100000000E-03 0.  1.
         23    2    1    2    0    0  0.00000000000E+00  0.26645352591E-14 -0.35527136788E-14  0.91188000000E+02  0.91188000000E+02 0.  0.
    9900012    2    3    3    0    0  0.26511693337E+02  0.74847831782E+01  0.24431262175E+02  0.54367103293E+02  0.40000043578E+02 0.  0.
        -12    1    3    3    0    0 -0.26511693337E+02 -0.74847831782E+01 -0.24431262175E+02  0.36820896707E+02  0.00000000000E+00 0.  1.
         11    1    4    4    0    0  0.14849727017E+02 -0.13382017514E+01  0.57647823039E+01  0.15985552592E+02  0.51100000000E-03 0. -1.
        -11    1    4    4    0    0  0.37545062427E+01  0.18282320604E+02  0.37631295559E+01  0.19039451361E+02  0.51100000000E-03 0.  1.
        -12    1    4    4    0    0  0.79074600775E+01 -0.94593356749E+01  0.14903350315E+02  0.19342099340E+02  0.00000000000E+00 0.  1.
</event>
<event>
 8    1  0.1253488E-006  0.9118800E+02  0.7816164E-02  0.1184000E+00
        -11   -1    0    0    0    0  0.00000000000E+00  0.00000000000E+00  0.45593999997E+02  0.45594000000E+02  0.51100000000E-03 0. -1.
         11   -1    0    0    0    0 -0.00000000000E+00 -0.00000000000E+00 -0.45593999997E+02  0.45594000000E+02  0.51100000000E-03 0.  1.
         23    2    1    2    0    0  0.00000000000E+00  0.00000000000E+00  0.00000000000E+00  0.91188000000E+02  0.91188000000E+02 0.  0.
    9900012    2    3    3    0    0  0.11428480932E+02  0.12131163195E+02  0.32833002496E+02  0.54367063703E+02  0.39999953324E+02 0.  0.
        -12    1    3    3    0    0 -0.11428480932E+02 -0.12131163195E+02 -0.32833002496E+02  0.36820936297E+02  0.00000000000E+00 0.  1.
         11    1    4    4    0    0  0.15848111783E+02 -0.44544794964E+01  0.75150233311E+01  0.18096425354E+02  0.51100000000E-03 0. -1.
        -11    1    4    4    0    0 -0.91066058056E+01  0.22509839727E+01  0.40967831693E+01  0.10236250815E+02  0.51100000000E-03 0.  1.
         12    1    4    4    0    0  0.46869749546E+01  0.14334658718E+02  0.21221195996E+02  0.26034387535E+02  0.00000000000E+00 0. -1.
</event>
<event>
 8    1  0.1253488E-006  0.9118800E+02  0.7816164E-02  0.1184000E+00
        -11   -1    0    0    0    0  0.00000000000E+00  0.00000000000E+00  0.45593999997E+02  0.45594000000E+02  0.51100000000E-03 0.  1.
         11   -1    0    0    0    0 -0.00000000000E+00 -0.00000000000E+00 -0.45593999997E+02  0.45594000000E+02  0.51100000000E-03 0. -1.
         23    2    1    2    0    0  0.00000000000E+00 -0.44408920985E-15  0.00000000000E+00  0.91188000000E+02  0.91188000000E+02 0.  0.
    9900012    2    3    3    0    0 -0.28033827783E+02 -0.23175419399E+01  0.23759452671E+02  0.54367107941E+02  0.40000054174E+02 0.  0.
         12    1    3    3    0    0  0.28033827783E+02  0.23175419399E+01 -0.23759452671E+02  0.36820892059E+02  0.00000000000E+00 0. -1.
         11    1    4    4    0    0 -0.65822436748E+01 -0.15711634164E+02 -0.65047221056E+00  0.17047125689E+02  0.51100000000E-03 0. -1.
        -11    1    4    4    0    0 -0.21731487889E+02  0.85185006756E+01  0.20449708274E+02  0.31032450571E+02  0.51100000000E-03 0.  1.
         12    1    4    4    0    0  0.27990378138E+00  0.48755915485E+01  0.39602166069E+01  0.62875316817E+01  0.00000000000E+00 0. -1.
</event>
<event>
 8    1  0.1253488E-006  0.9118800E+02  0.7816164E-02  0.1184000E+00
        -11   -1    0    0    0    0  0.00000000000E+00  0.00000000000E+00  0.45593999997E+02  0.45594000000E+02  0.51100000000E-03 0. -1.
         11   -1    0    0    0    0 -0.00000000000E+00 -0.00000000000E+00 -0.45593999997E+02  0.45594000000E+02  0.51100000000E-03 0.  1.
         23    2    1    2    0    0  0.00000000000E+00  0.88817841970E-15 -0.88817841970E-15  0.91188000000E+02  0.91188000000E+02 0.  0.
    9900012    2    3    3    0    0  0.35933276439E+02  0.66426812825E+01 -0.45225827896E+01  0.54367091194E+02  0.40000015994E+02 0.  0.
        -12    1    3    3    0    0 -0.35933276439E+02 -0.66426812825E+01  0.45225827896E+01  0.36820908806E+02  0.00000000000E+00 0.  1.
         11    1    4    4    0    0  0.26049988525E+02 -0.78368496419E+01 -0.70746348568E+00  0.27212471761E+02  0.51100000000E-03 0. -1.
        -11    1    4    4    0    0 -0.31858516830E+01  0.61078178279E+01 -0.85013290748E+01  0.10942014708E+02  0.51100000000E-03 0.  1.
        -12    1    4    4    0    0  0.13069139596E+02  0.83717130964E+01  0.46862097709E+01  0.16212604725E+02  0.00000000000E+00 0.  1.
</event>
<event>
 8    1  0.1253488E-006  0.9118800E+02  0.7816164E-02  0.1184000E+00
        -11   -1    0    0    0    0  0.00000000000E+00  0.00000000000E+00  0.45593999997E+02  0.45594000000E+02  0.51100000000E-03 0. -1.
         11   -1    0    0    0    0 -0.00000000000E+00 -0.00000000000E+00 -0.45593999997E+02  0.45594000000E+02  0.51100000000E-03 0.  1.
         23    2    1    2    0    0  0.00000000000E+00  0.00000000000E+00 -0.33306690739E-14  0.91188000000E+02  0.91188000000E+02 0.  0.
    9900012    2    3    3    0    0  0.33562203343E+02 -0.15116750271E+02  0.91702076536E+00  0.54367101599E+02  0.40000039715E+02 0.  0.
         12    1    3    3    0    0 -0.33562203343E+02  0.15116750271E+02 -0.91702076536E+00  0.36820898401E+02  0.00000000000E+00 0. -1.
         11    1    4    4    0    0  0.15153174007E+02 -0.10648785668E+02  0.72035636476E+01  0.19872258256E+02  0.51100000000E-03 0. -1.
        -11    1    4    4    0    0  0.25337194064E+02 -0.34249013947E+01 -0.88176579002E+01  0.27045414467E+02  0.51100000000E-03 0.  1.
        -12    1    4    4    0    0 -0.69281647275E+01 -0.10430632080E+01  0.25311150180E+01  0.74494288762E+01  0.00000000000E+00 0.  1.
</event>
<event>
 8    1  0.1253488E-006  0.9118800E+02  0.7816164E-02  0.1184000E+00
        -11   -1    0    0    0    0  0.00000000000E+00  0.00000000000E+00  0.45593999997E+02  0.45594000000E+02  0.51100000000E-03 0.  1.
         11   -1    0    0    0    0 -0.00000000000E+00 -0.00000000000E+00 -0.45593999997E+02  0.45594000000E+02  0.51100000000E-03 0. -1.
         23    2    1    2    0    0  0.00000000000E+00  0.00000000000E+00  0.00000000000E+00  0.91188000000E+02  0.91188000000E+02 0.  0.
    9900012    2    3    3    0    0  0.13727802326E+02  0.25962075702E+02  0.22210385961E+02  0.54367038905E+02  0.39999896791E+02 0.  0.
         12    1    3    3    0    0 -0.13727802326E+02 -0.25962075702E+02 -0.22210385961E+02  0.36820961095E+02  0.00000000000E+00 0. -1.
         11    1    4    4    0    0  0.23072855358E+00  0.53543615957E-01 -0.13006720801E+01  0.13220630490E+01  0.51100000000E-03 0. -1.
        -11    1    4    4    0    0  0.92212247306E+01  0.17750702986E+02  0.33775272633E+02  0.39254139701E+02  0.51100000000E-03 0.  1.
        -12    1    4    4    0    0  0.42758490420E+01  0.81578291000E+01 -0.10264214592E+02  0.13790836154E+02  0.00000000000E+00 0.  1.
</event>
<event>
 8    1  0.1253488E-006  0.9118800E+02  0.7816164E-02  0.1184000E+00
        -11   -1    0    0    0    0  0.00000000000E+00  0.00000000000E+00  0.45593999997E+02  0.45594000000E+02  0.51100000000E-03 0. -1.
         11   -1    0    0    0    0 -0.00000000000E+00 -0.00000000000E+00 -0.45593999997E+02  0.45594000000E+02  0.51100000000E-03 0.  1.
         23    2    1    2    0    0  0.71054273576E-14  0.00000000000E+00  0.17763568394E-14  0.91188000000E+02  0.91188000000E+02 0.  0.
    9900012    2    3    3    0    0 -0.32696206213E+02  0.12134723169E+02 -0.11810437491E+02  0.54367084193E+02  0.40000000035E+02 0.  0.
         12    1    3    3    0    0  0.32696206213E+02 -0.12134723169E+02  0.11810437491E+02  0.36820915807E+02  0.00000000000E+00 0. -1.
         11    1    4    4    0    0  0.48193345467E+01  0.15785687693E+01  0.30908538718E+01  0.59389597364E+01  0.51100000000E-03 0. -1.
        -11    1    4    4    0    0 -0.22206175205E+02  0.18072181895E+02 -0.62518192428E+01  0.29305344560E+02  0.51100000000E-03 0.  1.
        -12    1    4    4    0    0 -0.15309365555E+02 -0.75160274955E+01 -0.86494721203E+01  0.19122779896E+02  0.00000000000E+00 0.  1.
</event>
<event>
 8    1  0.1253488E-006  0.9118800E+02  0.7816164E-02  0.1184000E+00
        -11   -1    0    0    0    0  0.00000000000E+00  0.00000000000E+00  0.45593999997E+02  0.45594000000E+02  0.51100000000E-03 0. -1.
         11   -1    0    0    0    0 -0.00000000000E+00 -0.00000000000E+00 -0.45593999997E+02  0.45594000000E+02  0.51100000000E-03 0.  1.
         23    2    1    2    0    0  0.00000000000E+00  0.44408920985E-15  0.35527136788E-14  0.91188000000E+02  0.91188000000E+02 0.  0.
    9900012    2    3    3    0    0 -0.20862205282E+02  0.14654601384E+01 -0.30305127056E+02  0.54367083274E+02  0.39999997940E+02 0.  0.
         12    1    3    3    0    0  0.20862205282E+02 -0.14654601384E+01  0.30305127056E+02  0.36820916726E+02  0.00000000000E+00 0. -1.
         11    1    4    4    0    0 -0.43471382081E+01  0.73149834714E+00 -0.18375569190E+02  0.18896937418E+02  0.51100000000E-03 0. -1.
        -11    1    4    4    0    0 -0.38702816771E+01 -0.80375710205E+01 -0.17057140279E+02  0.19249095120E+02  0.51100000000E-03 0.  1.
         12    1    4    4    0    0 -0.12644785397E+02  0.87715328118E+01  0.51275824135E+01  0.16221050737E+02  0.00000000000E+00 0. -1.
</event>
<event>
 8    1  0.1253488E-006  0.9118800E+02  0.7816164E-02  0.1184000E+00
        -11   -1    0    0    0    0  0.00000000000E+00  0.00000000000E+00  0.45593999997E+02  0.45594000000E+02  0.51100000000E-03 0.  1.
         11   -1    0    0    0    0 -0.00000000000E+00 -0.00000000000E+00 -0.45593999997E+02  0.45594000000E+02  0.51100000000E-03 0. -1.
         23    2    1    2    0    0  0.00000000000E+00  0.35527136788E-14  0.35527136788E-14  0.91188000000E+02  0.91188000000E+02 0.  0.
    9900012    2    3    3    0    0  0.94647312215E+01 -0.20614516358E+02  0.29004219678E+02  0.54367025259E+02  0.39999865682E+02 0.  0.
         12    1    3    3    0    0 -0.94647312215E+01  0.20614516358E+02 -0.29004219678E+02  0.36820974741E+02  0.00000000000E+00 0. -1.
         11    1    4    4    0    0  0.61919783575E+01 -0.24557961644E+02  0.13287578617E+02  0.28600591285E+02  0.51100000000E-03 0. -1.
        -11    1    4    4    0    0 -0.26871146110E+01  0.44929520023E+01  0.18456030811E+02  0.19184167331E+02  0.51100000000E-03 0.  1.
         12    1    4    4    0    0  0.59598674750E+01 -0.54950671651E+00 -0.27393897499E+01  0.65822666425E+01  0.00000000000E+00 0. -1.
</event>
<event>
 8    1  0.1253488E-006  0.9118800E+02  0.7816164E-02  0.1184000E+00
        -11   -1    0    0    0    0  0.00000000000E+00  0.00000000000E+00  0.45593999997E+02  0.45594000000E+02  0.51100000000E-03 0.  1.
         11   -1    0    0    0    0 -0.00000000000E+00 -0.00000000000E+00 -0.45593999997E+02  0.45594000000E+02  0.51100000000E-03 0. -1.
         23    2    1    2    0    0 -0.35527136788E-14 -0.35527136788E-14  0.17763568394E-14  0.91188000000E+02  0.91188000000E+02 0.  0.
    9900012    2    3    3    0    0 -0.21823418628E+02  0.29063783153E+02  0.59004149624E+01  0.54367082188E+02  0.39999995464E+02 0.  0.
         12    1    3    3    0    0  0.21823418628E+02 -0.29063783153E+02 -0.59004149624E+01  0.36820917812E+02  0.00000000000E+00 0. -1.
         11    1    4    4    0    0 -0.98014965314E+00 -0.27217329774E+00  0.11955750443E+02  0.11998947478E+02  0.51100000000E-03 0. -1.
        -11    1    4    4    0    0 -0.41919267213E+01  0.93176541208E+01 -0.11897337422E+02  0.15682396690E+02  0.51100000000E-03 0.  1.
        -12    1    4    4    0    0 -0.16651342254E+02  0.20018302330E+02  0.58420019405E+01  0.26685738021E+02  0.00000000000E+00 0.  1.
</event>
<event>
 8    1  0.1253488E-006  0.9118800E+02  0.7816164E-02  0.1184000E+00
        -11   -1    0    0    0    0  0.00000000000E+00  0.00000000000E+00  0.45593999997E+02  0.45594000000E+02  0.51100000000E-03 0.  1.
         11   -1    0    0    0    0 -0.00000000000E+00 -0.00000000000E+00 -0.45593999997E+02  0.45594000000E+02  0.51100000000E-03 0. -1.
         23    2    1    2    0    0 -0.35527136788E-14 -0.35527136788E-14 -0.13322676296E-14  0.91188000000E+02  0.91188000000E+02 0.  0.
    9900012    2    3    3    0    0 -0.24075967116E+02 -0.27806881406E+02 -0.17047989459E+01  0.54367065933E+02  0.39999958407E+02 0.  0.
        -12    1    3    3    0    0  0.24075967116E+02  0.27806881406E+02  0.17047989459E+01  0.36820934067E+02  0.00000000000E+00 0.  1.
         11    1    4    4    0    0  0.13140400030E+01 -0.90551277238E+01 -0.87240197048E+01  0.12642411135E+02  0.51100000000E-03 0. -1.
        -11    1    4    4    0    0 -0.93927827762E+01  0.27382062687E+01 -0.64702644024E+01  0.11729725638E+02  0.51100000000E-03 0.  1.
         12    1    4    4    0    0 -0.15997224343E+02 -0.21489959951E+02  0.13489485161E+02  0.29994929160E+02  0.00000000000E+00 0. -1.
</event>
<event>
 8    1  0.1253488E-006  0.9118800E+02  0.7816164E-02  0.1184000E+00
        -11   -1    0    0    0    0  0.00000000000E+00  0.00000000000E+00  0.45593999997E+02  0.45594000000E+02  0.51100000000E-03 0. -1.
         11   -1    0    0    0    0 -0.00000000000E+00 -0.00000000000E+00 -0.45593999997E+02  0.45594000000E+02  0.51100000000E-03 0.  1.
         23    2    1    2    0    0  0.00000000000E+00  0.00000000000E+00 -0.35527136788E-14  0.91188000000E+02  0.91188000000E+02 0.  0.
    9900012    2    3    3    0    0  0.53136879276E+01  0.21150430161E+02  0.29668246601E+02  0.54367070737E+02  0.39999969359E+02 0.  0.
        -12    1    3    3    0    0 -0.53136879276E+01 -0.21150430161E+02 -0.29668246601E+02  0.36820929263E+02  0.00000000000E+00 0.  1.
         11    1    4    4    0    0  0.87315837386E-01 -0.12838909927E+00 -0.69836589097E+01  0.69853847313E+01  0.51100000000E-03 0. -1.
        -11    1    4    4    0    0  0.26346068710E+00  0.63462916618E+01 -0.11321981258E+01  0.64518758705E+01  0.51100000000E-03 0.  1.
         12    1    4    4    0    0  0.49629114031E+01  0.14932527598E+02  0.37784103637E+02  0.40929810135E+02  0.00000000000E+00 0. -1.
</event>
<event>
 8    1  0.1253488E-006  0.9118800E+02  0.7816164E-02  0.1184000E+00
        -11   -1    0    0    0    0  0.00000000000E+00  0.00000000000E+00  0.45593999997E+02  0.45594000000E+02  0.51100000000E-03 0. -1.
         11   -1    0    0    0    0 -0.00000000000E+00 -0.00000000000E+00 -0.45593999997E+02  0.45594000000E+02  0.51100000000E-03 0.  1.
         23    2    1    2    0    0  0.17763568394E-14  0.19984014443E-14  0.00000000000E+00  0.91188000000E+02  0.91188000000E+02 0.  0.
    9900012    2    3    3    0    0 -0.13837873336E+02 -0.70377617814E+00 -0.34114480326E+02  0.54367084649E+02  0.40000001075E+02 0.  0.
         12    1    3    3    0    0  0.13837873336E+02  0.70377617814E+00  0.34114480326E+02  0.36820915351E+02  0.00000000000E+00 0. -1.
         11    1    4    4    0    0 -0.33305549800E+01  0.43413074502E+01 -0.43448864517E+00  0.54889277182E+01  0.51100000000E-03 0.  1.
        -11    1    4    4    0    0 -0.11446269441E+02  0.86862480723E+01 -0.31916973540E+02  0.35002302637E+02  0.51100000000E-03 0. -1.
        -12    1    4    4    0    0  0.93895108503E+00 -0.13731331701E+02 -0.17630181405E+01  0.13875854294E+02  0.00000000000E+00 0.  1.
</event>
<event>
 8    1  0.1253488E-006  0.9118800E+02  0.7816164E-02  0.1184000E+00
        -11   -1    0    0    0    0  0.00000000000E+00  0.00000000000E+00  0.45593999997E+02  0.45594000000E+02  0.51100000000E-03 0. -1.
         11   -1    0    0    0    0 -0.00000000000E+00 -0.00000000000E+00 -0.45593999997E+02  0.45594000000E+02  0.51100000000E-03 0.  1.
         23    2    1    2    0    0  0.00000000000E+00  0.00000000000E+00  0.00000000000E+00  0.91188000000E+02  0.91188000000E+02 0.  0.
    9900012    2    3    3    0    0 -0.28637026152E+02  0.17849813303E+02 -0.14733792971E+02  0.54367085330E+02  0.40000002628E+02 0.  0.
         12    1    3    3    0    0  0.28637026152E+02 -0.17849813303E+02  0.14733792971E+02  0.36820914670E+02  0.00000000000E+00 0. -1.
         11    1    4    4    0    0 -0.16816266699E+02  0.30159464792E+02 -0.12890772397E+02  0.36858542504E+02  0.51100000000E-03 0. -1.
        -11    1    4    4    0    0 -0.42977143025E+01 -0.24129632652E+01 -0.11301836953E+01  0.50566842290E+01  0.51100000000E-03 0.  1.
         12    1    4    4    0    0 -0.75230451504E+01 -0.98966882234E+01 -0.71283687841E+00  0.12451858598E+02  0.00000000000E+00 0. -1.
</event>
<event>
 8    1  0.1253488E-006  0.9118800E+02  0.7816164E-02  0.1184000E+00
        -11   -1    0    0    0    0  0.00000000000E+00  0.00000000000E+00  0.45593999997E+02  0.45594000000E+02  0.51100000000E-03 0.  1.
         11   -1    0    0    0    0 -0.00000000000E+00 -0.00000000000E+00 -0.45593999997E+02  0.45594000000E+02  0.51100000000E-03 0. -1.
         23    2    1    2    0    0 -0.35527136788E-14  0.00000000000E+00  0.17763568394E-14  0.91188000000E+02  0.91188000000E+02 0.  0.
    9900012    2    3    3    0    0  0.13967268699E+02  0.30450726191E+02  0.15279562181E+02  0.54366860136E+02  0.39999489249E+02 0.  0.
         12    1    3    3    0    0 -0.13967268699E+02 -0.30450726191E+02 -0.15279562181E+02  0.36821139864E+02  0.00000000000E+00 0. -1.
         11    1    4    4    0    0 -0.68028669892E+01 -0.52191689478E+01 -0.11451996605E+01  0.86504454395E+01  0.51100000000E-03 0. -1.
        -11    1    4    4    0    0  0.35801303641E+01  0.15585059634E+02  0.38831388930E+01  0.16455703727E+02  0.51100000000E-03 0.  1.
         12    1    4    4    0    0  0.17190005324E+02  0.20084835505E+02  0.12541622948E+02  0.29260710970E+02  0.00000000000E+00 0. -1.
</event>
<event>
 8    1  0.1253488E-006  0.9118800E+02  0.7816164E-02  0.1184000E+00
        -11   -1    0    0    0    0  0.00000000000E+00  0.00000000000E+00  0.45593999997E+02  0.45594000000E+02  0.51100000000E-03 0.  1.
         11   -1    0    0    0    0 -0.00000000000E+00 -0.00000000000E+00 -0.45593999997E+02  0.45594000000E+02  0.51100000000E-03 0. -1.
         23    2    1    2    0    0  0.88817841970E-15  0.00000000000E+00  0.71054273576E-14  0.91188000000E+02  0.91188000000E+02 0.  0.
    9900012    2    3    3    0    0  0.49272070209E+01 -0.53655397842E+01  0.36093117079E+02  0.54367089002E+02  0.40000010998E+02 0.  0.
         12    1    3    3    0    0 -0.49272070209E+01  0.53655397842E+01 -0.36093117079E+02  0.36820910998E+02  0.00000000000E+00 0. -1.
         11    1    4    4    0    0 -0.56799690635E+01 -0.22355857792E+01 -0.10278533144E+01  0.61900222161E+01  0.51100000000E-03 0. -1.
        -11    1    4    4    0    0  0.70924373425E+01 -0.55674500132E+01 -0.16538687595E+01  0.91670305574E+01  0.51100000000E-03 0.  1.
        -12    1    4    4    0    0  0.35147387420E+01  0.24374960081E+01  0.38774839153E+02  0.39010036229E+02  0.00000000000E+00 0.  1.
</event>
<event>
 8    1  0.1253488E-006  0.9118800E+02  0.7816164E-02  0.1184000E+00
        -11   -1    0    0    0    0  0.00000000000E+00  0.00000000000E+00  0.45593999997E+02  0.45594000000E+02  0.51100000000E-03 0. -1.
         11   -1    0    0    0    0 -0.00000000000E+00 -0.00000000000E+00 -0.45593999997E+02  0.45594000000E+02  0.51100000000E-03 0.  1.
         23    2    1    2    0    0 -0.35527136788E-14 -0.35527136788E-14  0.44408920985E-15  0.91188000000E+02  0.91188000000E+02 0.  0.
    9900012    2    3    3    0    0  0.26592194962E+02  0.25466348529E+02 -0.31169860714E+00  0.54367124178E+02  0.40000091188E+02 0.  0.
         12    1    3    3    0    0 -0.26592194962E+02 -0.25466348529E+02  0.31169860714E+00  0.36820875822E+02  0.00000000000E+00 0. -1.
         11    1    4    4    0    0 -0.27934511626E+01  0.21920052432E+01  0.11884059550E+02  0.12403190236E+02  0.51100000000E-03 0. -1.
        -11    1    4    4    0    0  0.17098869728E+02  0.21545109108E+02 -0.62585440515E+01  0.28208729967E+02  0.51100000000E-03 0.  1.
         12    1    4    4    0    0  0.12286776397E+02  0.17292341773E+01 -0.59372141051E+01  0.13755203975E+02  0.00000000000E+00 0. -1.
</event>
<event>
 8    1  0.1253488E-006  0.9118800E+02  0.7816164E-02  0.1184000E+00
        -11   -1    0    0    0    0  0.00000000000E+00  0.00000000000E+00  0.45593999997E+02  0.45594000000E+02  0.51100000000E-03 0.  1.
         11   -1    0    0    0    0 -0.00000000000E+00 -0.00000000000E+00 -0.45593999997E+02  0.45594000000E+02  0.51100000000E-03 0. -1.
         23    2    1    2    0    0  0.00000000000E+00 -0.88817841970E-15  0.00000000000E+00  0.91188000000E+02  0.91188000000E+02 0.  0.
    9900012    2    3    3    0    0 -0.28080669115E+02 -0.25735568615E+01 -0.23677715758E+02  0.54367063070E+02  0.39999951881E+02 0.  0.
        -12    1    3    3    0    0  0.28080669115E+02  0.25735568615E+01  0.23677715758E+02  0.36820936930E+02  0.00000000000E+00 0.  1.
         11    1    4    4    0    0 -0.35101009723E+01  0.85774332728E+01 -0.34422335179E+01  0.98864625745E+01  0.51100000000E-03 0. -1.
        -11    1    4    4    0    0 -0.77087204565E+01 -0.15658205719E+02 -0.20630084135E+02  0.27022289856E+02  0.51100000000E-03 0.  1.
        -12    1    4    4    0    0 -0.16861847686E+02  0.45072155843E+01  0.39460189480E+00  0.17458310639E+02  0.00000000000E+00 0.  1.
</event>
<event>
 8    1  0.1253488E-006  0.9118800E+02  0.7816164E-02  0.1184000E+00
        -11   -1    0    0    0    0  0.00000000000E+00  0.00000000000E+00  0.45593999997E+02  0.45594000000E+02  0.51100000000E-03 0.  1.
         11   -1    0    0    0    0 -0.00000000000E+00 -0.00000000000E+00 -0.45593999997E+02  0.45594000000E+02  0.51100000000E-03 0. -1.
         23    2    1    2    0    0 -0.17763568394E-14 -0.35527136788E-14  0.00000000000E+00  0.91188000000E+02  0.91188000000E+02 0.  0.
    9900012    2    3    3    0    0 -0.11434114360E+02 -0.17585074793E+02 -0.30262286164E+02  0.54367084877E+02  0.40000001593E+02 0.  0.
        -12    1    3    3    0    0  0.11434114360E+02  0.17585074793E+02  0.30262286164E+02  0.36820915123E+02  0.00000000000E+00 0.  1.
         11    1    4    4    0    0  0.96140384622E+01 -0.66788435546E+01 -0.17899219974E+02  0.21387350530E+02  0.51100000000E-03 0. -1.
        -11    1    4    4    0    0 -0.16615437602E+01 -0.90327404155E+01  0.11761051031E+01  0.92592845596E+01  0.51100000000E-03 0.  1.
        -12    1    4    4    0    0 -0.19386609062E+02 -0.18734908230E+01 -0.13539171293E+02  0.23720449787E+02  0.00000000000E+00 0.  1.
</event>
<event>
 8    1  0.1253488E-006  0.9118800E+02  0.7816164E-02  0.1184000E+00
        -11   -1    0    0    0    0  0.00000000000E+00  0.00000000000E+00  0.45593999997E+02  0.45594000000E+02  0.51100000000E-03 0.  1.
         11   -1    0    0    0    0 -0.00000000000E+00 -0.00000000000E+00 -0.45593999997E+02  0.45594000000E+02  0.51100000000E-03 0. -1.
         23    2    1    2    0    0  0.00000000000E+00  0.00000000000E+00  0.00000000000E+00  0.91188000000E+02  0.91188000000E+02 0.  0.
    9900012    2    3    3    0    0  0.25796766067E+02  0.18883754149E+02 -0.18267739093E+02  0.54367087439E+02  0.40000007434E+02 0.  0.
        -12    1    3    3    0    0 -0.25796766067E+02 -0.18883754149E+02  0.18267739093E+02  0.36820912561E+02  0.00000000000E+00 0.  1.
         11    1    4    4    0    0  0.17775720115E+02  0.80419799635E+01  0.69985870446E+01  0.20727515245E+02  0.51100000000E-03 0. -1.
        -11    1    4    4    0    0  0.54059141985E+00  0.13344792006E+02 -0.20361463116E+02  0.24350870482E+02  0.51100000000E-03 0.  1.
         12    1    4    4    0    0  0.74804545321E+01 -0.25030178213E+01 -0.49048630220E+01  0.92887017115E+01  0.00000000000E+00 0. -1.
</event>
<event>
 8    1  0.1253488E-006  0.9118800E+02  0.7816164E-02  0.1184000E+00
        -11   -1    0    0    0    0  0.00000000000E+00  0.00000000000E+00  0.45593999997E+02  0.45594000000E+02  0.51100000000E-03 0.  1.
         11   -1    0    0    0    0 -0.00000000000E+00 -0.00000000000E+00 -0.45593999997E+02  0.45594000000E+02  0.51100000000E-03 0. -1.
         23    2    1    2    0    0  0.35527136788E-14  0.17763568394E-14  0.17763568394E-14  0.91188000000E+02  0.91188000000E+02 0.  0.
    9900012    2    3    3    0    0  0.31416772708E+02  0.14445429977E+02 -0.12652821448E+02  0.54367109935E+02  0.40000058718E+02 0.  0.
         12    1    3    3    0    0 -0.31416772708E+02 -0.14445429977E+02  0.12652821448E+02  0.36820890065E+02  0.00000000000E+00 0. -1.
         11    1    4    4    0    0  0.55161371609E+01 -0.27667674345E+00 -0.12794872208E+01  0.56693392038E+01  0.51100000000E-03 0. -1.
        -11    1    4    4    0    0  0.25840730535E+02  0.40455185345E+01 -0.21593881349E+02  0.33917625016E+02  0.51100000000E-03 0.  1.
         12    1    4    4    0    0  0.59905012431E-01  0.10676588186E+02  0.10220547121E+02  0.14780145715E+02  0.00000000000E+00 0. -1.
</event>
<event>
 8    1  0.1253488E-006  0.9118800E+02  0.7816164E-02  0.1184000E+00
        -11   -1    0    0    0    0  0.00000000000E+00  0.00000000000E+00  0.45593999997E+02  0.45594000000E+02  0.51100000000E-03 0.  1.
         11   -1    0    0    0    0 -0.00000000000E+00 -0.00000000000E+00 -0.45593999997E+02  0.45594000000E+02  0.51100000000E-03 0. -1.
         23    2    1    2    0    0  0.00000000000E+00  0.00000000000E+00  0.00000000000E+00  0.91188000000E+02  0.91188000000E+02 0.  0.
    9900012    2    3    3    0    0  0.22315817234E+02  0.22304093967E+02 -0.18981884916E+02  0.54367078482E+02  0.39999987015E+02 0.  0.
        -12    1    3    3    0    0 -0.22315817234E+02 -0.22304093967E+02  0.18981884916E+02  0.36820921518E+02  0.00000000000E+00 0.  1.
         11    1    4    4    0    0  0.10191323675E+02 -0.29104599916E+01 -0.10930883250E+02  0.15225572715E+02  0.51100000000E-03 0. -1.
        -11    1    4    4    0    0 -0.50505209218E+00  0.10241759604E+02  0.86383169563E+01  0.13407805096E+02  0.51100000000E-03 0.  1.
        -12    1    4    4    0    0  0.12629545651E+02  0.14972794354E+02 -0.16689318623E+02  0.25733700671E+02  0.00000000000E+00 0.  1.
</event>
<event>
 8    1  0.1253488E-006  0.9118800E+02  0.7816164E-02  0.1184000E+00
        -11   -1    0    0    0    0  0.00000000000E+00  0.00000000000E+00  0.45593999997E+02  0.45594000000E+02  0.51100000000E-03 0.  1.
         11   -1    0    0    0    0 -0.00000000000E+00 -0.00000000000E+00 -0.45593999997E+02  0.45594000000E+02  0.51100000000E-03 0. -1.
         23    2    1    2    0    0  0.00000000000E+00  0.00000000000E+00  0.00000000000E+00  0.91188000000E+02  0.91188000000E+02 0.  0.
    9900012    2    3    3    0    0 -0.24997478518E+02 -0.13427484139E+02  0.23465052380E+02  0.54367082769E+02  0.39999996788E+02 0.  0.
         12    1    3    3    0    0  0.24997478518E+02  0.13427484139E+02 -0.23465052380E+02  0.36820917231E+02  0.00000000000E+00 0. -1.
         11    1    4    4    0    0  0.70826863373E+00 -0.55736420591E+01 -0.37456674314E+01  0.67525665512E+01  0.51100000000E-03 0. -1.
        -11    1    4    4    0    0 -0.14455730384E+00  0.55124702848E+01  0.15555152854E+02  0.16503666442E+02  0.51100000000E-03 0.  1.
         12    1    4    4    0    0 -0.25561189848E+02 -0.13366312365E+02  0.11655566957E+02  0.31110849776E+02  0.00000000000E+00 0. -1.
</event>
<event>
 8    1  0.1253488E-006  0.9118800E+02  0.7816164E-02  0.1184000E+00
        -11   -1    0    0    0    0  0.00000000000E+00  0.00000000000E+00  0.45593999997E+02  0.45594000000E+02  0.51100000000E-03 0. -1.
         11   -1    0    0    0    0 -0.00000000000E+00 -0.00000000000E+00 -0.45593999997E+02  0.45594000000E+02  0.51100000000E-03 0.  1.
         23    2    1    2    0    0  0.00000000000E+00 -0.17763568394E-14  0.17763568394E-14  0.91188000000E+02  0.91188000000E+02 0.  0.
    9900012    2    3    3    0    0 -0.35255750689E+02 -0.58231766670E+01  0.88826785125E+01  0.54367091256E+02  0.40000016137E+02 0.  0.
        -12    1    3    3    0    0  0.35255750689E+02  0.58231766670E+01 -0.88826785125E+01  0.36820908744E+02  0.00000000000E+00 0.  1.
         11    1    4    4    0    0 -0.26491252577E+02  0.90838253829E+01  0.11006710401E+02  0.30090696582E+02  0.51100000000E-03 0. -1.
        -11    1    4    4    0    0 -0.10092008334E+02 -0.14088922822E+02  0.41425411040E+01  0.17818726822E+02  0.51100000000E-03 0.  1.
         12    1    4    4    0    0  0.13275102219E+01 -0.81807922773E+00 -0.62665729927E+01  0.64576678518E+01  0.00000000000E+00 0. -1.
</event>
<event>
 8    1  0.1253488E-006  0.9118800E+02  0.7816164E-02  0.1184000E+00
        -11   -1    0    0    0    0  0.00000000000E+00  0.00000000000E+00  0.45593999997E+02  0.45594000000E+02  0.51100000000E-03 0.  1.
         11   -1    0    0    0    0 -0.00000000000E+00 -0.00000000000E+00 -0.45593999997E+02  0.45594000000E+02  0.51100000000E-03 0. -1.
         23    2    1    2    0    0  0.00000000000E+00  0.00000000000E+00  0.00000000000E+00  0.91188000000E+02  0.91188000000E+02 0.  0.
    9900012    2    3    3    0    0  0.29902637145E+02  0.20434317627E+02 -0.66370297858E+01  0.54367092766E+02  0.40000019579E+02 0.  0.
         12    1    3    3    0    0 -0.29902637145E+02 -0.20434317627E+02  0.66370297858E+01  0.36820907234E+02  0.00000000000E+00 0. -1.
         11    1    4    4    0    0 -0.51672614049E+01  0.10975426359E+02 -0.71440000829E+01  0.14078256698E+02  0.51100000000E-03 0. -1.
        -11    1    4    4    0    0  0.30612938042E+02  0.92177333851E+00  0.10299801745E+01  0.30644126698E+02  0.51100000000E-03 0.  1.
        -12    1    4    4    0    0  0.44569605077E+01  0.85371179295E+01 -0.52300987753E+00  0.96447093705E+01  0.00000000000E+00 0.  1.
</event>
<event>
 8    1  0.1253488E-006  0.9118800E+02  0.7816164E-02  0.1184000E+00
        -11   -1    0    0    0    0  0.00000000000E+00  0.00000000000E+00  0.45593999997E+02  0.45594000000E+02  0.51100000000E-03 0.  1.
         11   -1    0    0    0    0 -0.00000000000E+00 -0.00000000000E+00 -0.45593999997E+02  0.45594000000E+02  0.51100000000E-03 0. -1.
         23    2    1    2    0    0  0.00000000000E+00  0.17763568394E-14  0.00000000000E+00  0.91188000000E+02  0.91188000000E+02 0.  0.
    9900012    2    3    3    0    0 -0.31986053201E+02 -0.79860265797E+01 -0.16398052905E+02  0.54367077158E+02  0.39999983996E+02 0.  0.
        -12    1    3    3    0    0  0.31986053201E+02  0.79860265797E+01  0.16398052905E+02  0.36820922842E+02  0.00000000000E+00 0.  1.
         11    1    4    4    0    0 -0.15552158515E+02 -0.47169341053E+01 -0.24158102675E+02  0.29115855250E+02  0.51100000000E-03 0. -1.
        -11    1    4    4    0    0 -0.99985940737E+01 -0.10189390158E+02  0.26897653355E+01  0.14526885181E+02  0.51100000000E-03 0.  1.
        -12    1    4    4    0    0 -0.64353006123E+01  0.69202976831E+01  0.50702844341E+01  0.10724336727E+02  0.00000000000E+00 0.  1.
</event>
<event>
 8    1  0.1253488E-006  0.9118800E+02  0.7816164E-02  0.1184000E+00
        -11   -1    0    0    0    0  0.00000000000E+00  0.00000000000E+00  0.45593999997E+02  0.45594000000E+02  0.51100000000E-03 0.  1.
         11   -1    0    0    0    0 -0.00000000000E+00 -0.00000000000E+00 -0.45593999997E+02  0.45594000000E+02  0.51100000000E-03 0. -1.
         23    2    1    2    0    0  0.00000000000E+00 -0.35527136788E-14 -0.35527136788E-14  0.91188000000E+02  0.91188000000E+02 0.  0.
    9900012    2    3    3    0    0  0.21203458377E+02 -0.24079942268E+02 -0.18065142861E+02  0.54367086739E+02  0.40000005839E+02 0.  0.
        -12    1    3    3    0    0 -0.21203458377E+02  0.24079942268E+02  0.18065142861E+02  0.36820913261E+02  0.00000000000E+00 0.  1.
         11    1    4    4    0    0 -0.59092190773E+01 -0.34762787739E+01 -0.22839438706E+01  0.72263257664E+01  0.51100000000E-03 0. -1.
        -11    1    4    4    0    0 -0.37940450963E+01 -0.10401681177E+02 -0.24232959242E+00  0.11074677123E+02  0.51100000000E-03 0.  1.
        -12    1    4    4    0    0  0.30906722551E+02 -0.10201982317E+02 -0.15538869398E+02  0.36066083849E+02  0.00000000000E+00 0.  1.
</event>
<event>
 8    1  0.1253488E-006  0.9118800E+02  0.7816164E-02  0.1184000E+00
        -11   -1    0    0    0    0  0.00000000000E+00  0.00000000000E+00  0.45593999997E+02  0.45594000000E+02  0.51100000000E-03 0.  1.
         11   -1    0    0    0    0 -0.00000000000E+00 -0.00000000000E+00 -0.45593999997E+02  0.45594000000E+02  0.51100000000E-03 0. -1.
         23    2    1    2    0    0  0.00000000000E+00  0.00000000000E+00  0.17763568394E-14  0.91188000000E+02  0.91188000000E+02 0.  0.
    9900012    2    3    3    0    0 -0.33614318149E+02 -0.12872988616E+02 -0.77553867880E+01  0.54367051550E+02  0.39999925617E+02 0.  0.
         12    1    3    3    0    0  0.33614318149E+02  0.12872988616E+02  0.77553867880E+01  0.36820948450E+02  0.00000000000E+00 0. -1.
         11    1    4    4    0    0  0.32842308616E+01 -0.63336216502E+01 -0.74188243248E+01  0.10292710536E+02  0.51100000000E-03 0. -1.
        -11    1    4    4    0    0 -0.32463402166E+02 -0.59702302159E+01  0.85753438723E+01  0.34103557759E+02  0.51100000000E-03 0.  1.
        -12    1    4    4    0    0 -0.44351468455E+01 -0.56913674979E+00 -0.89119063355E+01  0.99707832548E+01  0.00000000000E+00 0.  1.
</event>
<event>
 8    1  0.1253488E-006  0.9118800E+02  0.7816164E-02  0.1184000E+00
        -11   -1    0    0    0    0  0.00000000000E+00  0.00000000000E+00  0.45593999997E+02  0.45594000000E+02  0.51100000000E-03 0.  1.
         11   -1    0    0    0    0 -0.00000000000E+00 -0.00000000000E+00 -0.45593999997E+02  0.45594000000E+02  0.51100000000E-03 0. -1.
         23    2    1    2    0    0  0.35527136788E-14  0.17763568394E-14  0.00000000000E+00  0.91188000000E+02  0.91188000000E+02 0.  0.
    9900012    2    3    3    0    0 -0.31510760893E+02  0.12929494032E+02 -0.13988648697E+02  0.54367052696E+02  0.39999928232E+02 0.  0.
        -12    1    3    3    0    0  0.31510760893E+02 -0.12929494032E+02  0.13988648697E+02  0.36820947304E+02  0.00000000000E+00 0.  1.
         11    1    4    4    0    0 -0.31794254005E+02  0.35509354429E+01  0.19292545172E+01  0.32050050756E+02  0.51100000000E-03 0. -1.
        -11    1    4    4    0    0  0.31069296930E+01  0.38357858785E+01  0.30175272871E+00  0.49454342978E+01  0.51100000000E-03 0.  1.
         12    1    4    4    0    0 -0.28234365814E+01  0.55427727109E+01 -0.16219655942E+02  0.17371567642E+02  0.00000000000E+00 0. -1.
</event>
<event>
 8    1  0.1253488E-006  0.9118800E+02  0.7816164E-02  0.1184000E+00
        -11   -1    0    0    0    0  0.00000000000E+00  0.00000000000E+00  0.45593999997E+02  0.45594000000E+02  0.51100000000E-03 0. -1.
         11   -1    0    0    0    0 -0.00000000000E+00 -0.00000000000E+00 -0.45593999997E+02  0.45594000000E+02  0.51100000000E-03 0.  1.
         23    2    1    2    0    0  0.13322676296E-14  0.00000000000E+00 -0.35527136788E-14  0.91188000000E+02  0.91188000000E+02 0.  0.
    9900012    2    3    3    0    0 -0.14759484628E+01 -0.27277914106E+02 -0.24688391973E+02  0.54367085833E+02  0.40000003775E+02 0.  0.
         12    1    3    3    0    0  0.14759484628E+01  0.27277914106E+02  0.24688391973E+02  0.36820914167E+02  0.00000000000E+00 0. -1.
         11    1    4    4    0    0 -0.39537059067E+01 -0.51747033566E+01 -0.86376565551E+00  0.65692797622E+01  0.51100000000E-03 0. -1.
        -11    1    4    4    0    0 -0.15124207012E+02 -0.73861074106E+01 -0.16852118679E+02  0.23817853065E+02  0.51100000000E-03 0.  1.
         12    1    4    4    0    0  0.17601964456E+02 -0.14717103339E+02 -0.69725076390E+01  0.23979953006E+02  0.00000000000E+00 0. -1.
</event>
<event>
 8    1  0.1253488E-006  0.9118800E+02  0.7816164E-02  0.1184000E+00
        -11   -1    0    0    0    0  0.00000000000E+00  0.00000000000E+00  0.45593999997E+02  0.45594000000E+02  0.51100000000E-03 0. -1.
         11   -1    0    0    0    0 -0.00000000000E+00 -0.00000000000E+00 -0.45593999997E+02  0.45594000000E+02  0.51100000000E-03 0.  1.
         23    2    1    2    0    0  0.00000000000E+00  0.00000000000E+00 -0.35527136788E-14  0.91188000000E+02  0.91188000000E+02 0.  0.
    9900012    2    3    3    0    0 -0.27050847732E+02 -0.16088132149E+02 -0.19110269895E+02  0.54367098673E+02  0.40000033045E+02 0.  0.
         12    1    3    3    0    0  0.27050847732E+02  0.16088132149E+02  0.19110269895E+02  0.36820901327E+02  0.00000000000E+00 0. -1.
         11    1    4    4    0    0 -0.11238857016E+02  0.65252780266E+01 -0.43092924141E+01  0.13691645691E+02  0.51100000000E-03 0. -1.
        -11    1    4    4    0    0 -0.22352842882E+02 -0.21350752704E+02 -0.10089822163E+02  0.32516284190E+02  0.51100000000E-03 0.  1.
         12    1    4    4    0    0  0.65408521661E+01 -0.12626574707E+01 -0.47111553181E+01  0.81591687922E+01  0.00000000000E+00 0. -1.
</event>
<event>
 8    1  0.1253488E-006  0.9118800E+02  0.7816164E-02  0.1184000E+00
        -11   -1    0    0    0    0  0.00000000000E+00  0.00000000000E+00  0.45593999997E+02  0.45594000000E+02  0.51100000000E-03 0.  1.
         11   -1    0    0    0    0 -0.00000000000E+00 -0.00000000000E+00 -0.45593999997E+02  0.45594000000E+02  0.51100000000E-03 0. -1.
         23    2    1    2    0    0 -0.17763568394E-14  0.13322676296E-14  0.00000000000E+00  0.91188000000E+02  0.91188000000E+02 0.  0.
    9900012    2    3    3    0    0  0.15569455806E+02  0.13300846842E+01 -0.33340714857E+02  0.54367077326E+02  0.39999984381E+02 0.  0.
        -12    1    3    3    0    0 -0.15569455806E+02 -0.13300846842E+01  0.33340714857E+02  0.36820922674E+02  0.00000000000E+00 0.  1.
         11    1    4    4    0    0  0.87901616705E+01  0.14080386339E+02 -0.14050105890E+02  0.21746946853E+02  0.51100000000E-03 0. -1.
        -11    1    4    4    0    0  0.13666896037E+02 -0.12778422975E+02 -0.10508607549E+02  0.21459333026E+02  0.51100000000E-03 0.  1.
        -12    1    4    4    0    0 -0.68876019017E+01  0.28121320801E-01 -0.87820014180E+01  0.11160797448E+02  0.00000000000E+00 0.  1.
</event>
<event>
 8    1  0.1253488E-006  0.9118800E+02  0.7816164E-02  0.1184000E+00
        -11   -1    0    0    0    0  0.00000000000E+00  0.00000000000E+00  0.45593999997E+02  0.45594000000E+02  0.51100000000E-03 0. -1.
         11   -1    0    0    0    0 -0.00000000000E+00 -0.00000000000E+00 -0.45593999997E+02  0.45594000000E+02  0.51100000000E-03 0.  1.
         23    2    1    2    0    0  0.00000000000E+00  0.00000000000E+00  0.88817841970E-15  0.91188000000E+02  0.91188000000E+02 0.  0.
    9900012    2    3    3    0    0  0.32709343060E+02  0.14951368288E+02  0.78953069639E+01  0.54367076476E+02  0.39999982442E+02 0.  0.
        -12    1    3    3    0    0 -0.32709343060E+02 -0.14951368288E+02 -0.78953069639E+01  0.36820923524E+02  0.00000000000E+00 0.  1.
         11    1    4    4    0    0  0.14953768447E+02  0.79584362200E+01  0.20774109178E+02  0.26805139623E+02  0.51100000000E-03 0. -1.
        -11    1    4    4    0    0 -0.53450843860E+00  0.58128165976E+01 -0.46883260568E+01  0.74869845428E+01  0.51100000000E-03 0.  1.
         12    1    4    4    0    0  0.18290083052E+02  0.11801154707E+01 -0.81904761571E+01  0.20074952310E+02  0.00000000000E+00 0. -1.
</event>
<event>
 8    1  0.1253488E-006  0.9118800E+02  0.7816164E-02  0.1184000E+00
        -11   -1    0    0    0    0  0.00000000000E+00  0.00000000000E+00  0.45593999997E+02  0.45594000000E+02  0.51100000000E-03 0.  1.
         11   -1    0    0    0    0 -0.00000000000E+00 -0.00000000000E+00 -0.45593999997E+02  0.45594000000E+02  0.51100000000E-03 0. -1.
         23    2    1    2    0    0  0.00000000000E+00  0.00000000000E+00  0.00000000000E+00  0.91188000000E+02  0.91188000000E+02 0.  0.
    9900012    2    3    3    0    0 -0.10202032915E+02 -0.22173812992E+02 -0.27568473829E+02  0.54367079215E+02  0.39999988686E+02 0.  0.
        -12    1    3    3    0    0  0.10202032915E+02  0.22173812992E+02  0.27568473829E+02  0.36820920785E+02  0.00000000000E+00 0.  1.
         11    1    4    4    0    0  0.33531131099E+01 -0.21088139851E+02 -0.14100072140E+02  0.25588377137E+02  0.51100000000E-03 0. -1.
        -11    1    4    4    0    0 -0.77478478632E+01  0.59308649037E+01  0.27852976119E+01  0.10147028534E+02  0.51100000000E-03 0.  1.
        -12    1    4    4    0    0 -0.58072981614E+01 -0.70165380447E+01 -0.16253699301E+02  0.18631673544E+02  0.00000000000E+00 0.  1.
</event>
<event>
 8    1  0.1253488E-006  0.9118800E+02  0.7816164E-02  0.1184000E+00
        -11   -1    0    0    0    0  0.00000000000E+00  0.00000000000E+00  0.45593999997E+02  0.45594000000E+02  0.51100000000E-03 0.  1.
         11   -1    0    0    0    0 -0.00000000000E+00 -0.00000000000E+00 -0.45593999997E+02  0.45594000000E+02  0.51100000000E-03 0. -1.
         23    2    1    2    0    0 -0.71054273576E-14  0.00000000000E+00 -0.17763568394E-14  0.91188000000E+02  0.91188000000E+02 0.  0.
    9900012    2    3    3    0    0  0.31596477967E+02 -0.16110219204E+02 -0.98946673395E+01  0.54367068121E+02  0.39999963395E+02 0.  0.
        -12    1    3    3    0    0 -0.31596477967E+02  0.16110219204E+02  0.98946673395E+01  0.36820931879E+02  0.00000000000E+00 0.  1.
         11    1    4    4    0    0  0.17529299911E+02 -0.12731435376E+02 -0.22398362674E+02  0.31161714536E+02  0.51100000000E-03 0. -1.
        -11    1    4    4    0    0 -0.20593543646E+01 -0.12020837365E+01  0.44501458356E+01  0.50487368645E+01  0.51100000000E-03 0.  1.
         12    1    4    4    0    0  0.16126532420E+02 -0.21767000917E+01  0.80535494988E+01  0.18156616720E+02  0.00000000000E+00 0. -1.
</event>
<event>
 8    1  0.1253488E-006  0.9118800E+02  0.7816164E-02  0.1184000E+00
        -11   -1    0    0    0    0  0.00000000000E+00  0.00000000000E+00  0.45593999997E+02  0.45594000000E+02  0.51100000000E-03 0.  1.
         11   -1    0    0    0    0 -0.00000000000E+00 -0.00000000000E+00 -0.45593999997E+02  0.45594000000E+02  0.51100000000E-03 0. -1.
         23    2    1    2    0    0  0.00000000000E+00  0.00000000000E+00  0.35527136788E-14  0.91188000000E+02  0.91188000000E+02 0.  0.
    9900012    2    3    3    0    0  0.29794784440E+01  0.28490425615E+02 -0.23134356413E+02  0.54367080807E+02  0.39999992316E+02 0.  0.
        -12    1    3    3    0    0 -0.29794784440E+01 -0.28490425615E+02  0.23134356413E+02  0.36820919193E+02  0.00000000000E+00 0.  1.
         11    1    4    4    0    0 -0.76958676112E+01  0.72293881628E+01 -0.28755436931E+00  0.10562817772E+02  0.51100000000E-03 0. -1.
        -11    1    4    4    0    0  0.81324472386E+01  0.13973041087E+02  0.33355254341E+01  0.16507825584E+02  0.51100000000E-03 0.  1.
         12    1    4    4    0    0  0.25428988166E+01  0.72879963652E+01 -0.26182327478E+02  0.27296437452E+02  0.00000000000E+00 0. -1.
</event>
<event>
 8    1  0.1253488E-006  0.9118800E+02  0.7816164E-02  0.1184000E+00
        -11   -1    0    0    0    0  0.00000000000E+00  0.00000000000E+00  0.45593999997E+02  0.45594000000E+02  0.51100000000E-03 0. -1.
         11   -1    0    0    0    0 -0.00000000000E+00 -0.00000000000E+00 -0.45593999997E+02  0.45594000000E+02  0.51100000000E-03 0.  1.
         23    2    1    2    0    0  0.17763568394E-14  0.00000000000E+00  0.00000000000E+00  0.91188000000E+02  0.91188000000E+02 0.  0.
    9900012    2    3    3    0    0 -0.82331474641E+01 -0.11855533163E+02  0.33873913503E+02  0.54367076604E+02  0.39999982734E+02 0.  0.
        -12    1    3    3    0    0  0.82331474641E+01  0.11855533163E+02 -0.33873913503E+02  0.36820923396E+02  0.00000000000E+00 0.  1.
         11    1    4    4    0    0 -0.13231310015E+02 -0.92758925626E+01  0.17317779231E+02  0.23685759969E+02  0.51100000000E-03 0. -1.
        -11    1    4    4    0    0  0.75131089292E+00 -0.45618279875E+01  0.22580327638E+02  0.23048773051E+02  0.51100000000E-03 0.  1.
         12    1    4    4    0    0  0.42468516581E+01  0.19821873873E+01 -0.60241933665E+01  0.76325435839E+01  0.00000000000E+00 0. -1.
</event>
<event>
 8    1  0.1253488E-006  0.9118800E+02  0.7816164E-02  0.1184000E+00
        -11   -1    0    0    0    0  0.00000000000E+00  0.00000000000E+00  0.45593999997E+02  0.45594000000E+02  0.51100000000E-03 0. -1.
         11   -1    0    0    0    0 -0.00000000000E+00 -0.00000000000E+00 -0.45593999997E+02  0.45594000000E+02  0.51100000000E-03 0.  1.
         23    2    1    2    0    0  0.71054273576E-14 -0.17763568394E-14 -0.35527136788E-14  0.91188000000E+02  0.91188000000E+02 0.  0.
    9900012    2    3    3    0    0  0.24949946604E+02 -0.11888952958E+02 -0.24329710984E+02  0.54367056577E+02  0.39999937079E+02 0.  0.
         12    1    3    3    0    0 -0.24949946604E+02  0.11888952958E+02  0.24329710984E+02  0.36820943423E+02  0.00000000000E+00 0. -1.
         11    1    4    4    0    0  0.15523165663E+01 -0.54445326581E+01 -0.17291687266E+02  0.18194918834E+02  0.51100000000E-03 0. -1.
        -11    1    4    4    0    0  0.23855908770E+02 -0.14085422612E+02 -0.67382703943E+01  0.28511538042E+02  0.51100000000E-03 0.  1.
         12    1    4    4    0    0 -0.45827873205E+00  0.76410023119E+01 -0.29975332340E+00  0.76605997012E+01  0.00000000000E+00 0. -1.
</event>
<event>
 8    1  0.1253488E-006  0.9118800E+02  0.7816164E-02  0.1184000E+00
        -11   -1    0    0    0    0  0.00000000000E+00  0.00000000000E+00  0.45593999997E+02  0.45594000000E+02  0.51100000000E-03 0. -1.
         11   -1    0    0    0    0 -0.00000000000E+00 -0.00000000000E+00 -0.45593999997E+02  0.45594000000E+02  0.51100000000E-03 0.  1.
         23    2    1    2    0    0  0.35527136788E-14  0.00000000000E+00 -0.17763568394E-14  0.91188000000E+02  0.91188000000E+02 0.  0.
    9900012    2    3    3    0    0  0.27401691602E+02 -0.19562734128E+02 -0.14907276065E+02  0.54367080010E+02  0.39999990499E+02 0.  0.
         12    1    3    3    0    0 -0.27401691602E+02  0.19562734128E+02  0.14907276065E+02  0.36820919990E+02  0.00000000000E+00 0. -1.
         11    1    4    4    0    0  0.11639475024E+02 -0.18537825214E+02 -0.35509441118E+01  0.22175156073E+02  0.51100000000E-03 0. -1.
        -11    1    4    4    0    0  0.21584534098E+02 -0.55346629922E+01 -0.10919161386E+02  0.24814364636E+02  0.51100000000E-03 0.  1.
         12    1    4    4    0    0 -0.58223175199E+01  0.45097540780E+01 -0.43717056755E+00  0.73775593018E+01  0.00000000000E+00 0. -1.
</event>
<event>
 8    1  0.1253488E-006  0.9118800E+02  0.7816164E-02  0.1184000E+00
        -11   -1    0    0    0    0  0.00000000000E+00  0.00000000000E+00  0.45593999997E+02  0.45594000000E+02  0.51100000000E-03 0. -1.
         11   -1    0    0    0    0 -0.00000000000E+00 -0.00000000000E+00 -0.45593999997E+02  0.45594000000E+02  0.51100000000E-03 0.  1.
         23    2    1    2    0    0 -0.88817841970E-15 -0.17763568394E-14  0.00000000000E+00  0.91188000000E+02  0.91188000000E+02 0.  0.
    9900012    2    3    3    0    0  0.25445060221E+01  0.12854743366E+02 -0.34410211626E+02  0.54367060277E+02  0.39999945514E+02 0.  0.
         12    1    3    3    0    0 -0.25445060221E+01 -0.12854743366E+02  0.34410211626E+02  0.36820939723E+02  0.00000000000E+00 0. -1.
         11    1    4    4    0    0  0.86163590520E+01  0.65300034729E-01 -0.15904879416E+02  0.18088977221E+02  0.51100000000E-03 0. -1.
        -11    1    4    4    0    0  0.91517570241E+01  0.86405394250E+01 -0.15911185865E+02  0.20287420094E+02  0.51100000000E-03 0.  1.
         12    1    4    4    0    0 -0.15223610054E+02  0.41489039060E+01 -0.25941463454E+01  0.15990662962E+02  0.00000000000E+00 0. -1.
</event>
<event>
 8    1  0.1253488E-006  0.9118800E+02  0.7816164E-02  0.1184000E+00
        -11   -1    0    0    0    0  0.00000000000E+00  0.00000000000E+00  0.45593999997E+02  0.45594000000E+02  0.51100000000E-03 0. -1.
         11   -1    0    0    0    0 -0.00000000000E+00 -0.00000000000E+00 -0.45593999997E+02  0.45594000000E+02  0.51100000000E-03 0.  1.
         23    2    1    2    0    0  0.35527136788E-14 -0.35527136788E-14 -0.44408920985E-15  0.91188000000E+02  0.91188000000E+02 0.  0.
    9900012    2    3    3    0    0 -0.27431300397E+02  0.24526441581E+02  0.13254878783E+01  0.54367088873E+02  0.40000010705E+02 0.  0.
         12    1    3    3    0    0  0.27431300397E+02 -0.24526441581E+02 -0.13254878783E+01  0.36820911127E+02  0.00000000000E+00 0. -1.
         11    1    4    4    0    0 -0.22336550725E+02 -0.16858725680E+01  0.76537875886E+01  0.23671589074E+02  0.51100000000E-03 0. -1.
        -11    1    4    4    0    0 -0.81121222747E+01  0.12204605484E+02 -0.72241399861E+01  0.16338516506E+02  0.51100000000E-03 0.  1.
         12    1    4    4    0    0  0.30173726029E+01  0.14007708665E+02  0.89584027583E+00  0.14356983293E+02  0.00000000000E+00 0. -1.
</event>
<event>
 8    1  0.1253488E-006  0.9118800E+02  0.7816164E-02  0.1184000E+00
        -11   -1    0    0    0    0  0.00000000000E+00  0.00000000000E+00  0.45593999997E+02  0.45594000000E+02  0.51100000000E-03 0.  1.
         11   -1    0    0    0    0 -0.00000000000E+00 -0.00000000000E+00 -0.45593999997E+02  0.45594000000E+02  0.51100000000E-03 0. -1.
         23    2    1    2    0    0  0.00000000000E+00  0.00000000000E+00  0.00000000000E+00  0.91188000000E+02  0.91188000000E+02 0.  0.
    9900012    2    3    3    0    0  0.34104181592E+02  0.92796241175E+01 -0.10323397934E+02  0.54367093293E+02  0.40000020781E+02 0.  0.
        -12    1    3    3    0    0 -0.34104181592E+02 -0.92796241175E+01  0.10323397934E+02  0.36820906707E+02  0.00000000000E+00 0.  1.
         11    1    4    4    0    0  0.18497313571E+02 -0.67242567593E+00  0.69082559544E+01  0.19756689152E+02  0.51100000000E-03 0. -1.
        -11    1    4    4    0    0  0.16194484265E+02  0.54536259176E+01 -0.22113169199E+02  0.27946298655E+02  0.51100000000E-03 0.  1.
        -12    1    4    4    0    0 -0.58761624400E+00  0.44984238758E+01  0.48815153101E+01  0.66641054868E+01  0.00000000000E+00 0.  1.
</event>
<event>
 8    1  0.1253488E-006  0.9118800E+02  0.7816164E-02  0.1184000E+00
        -11   -1    0    0    0    0  0.00000000000E+00  0.00000000000E+00  0.45593999997E+02  0.45594000000E+02  0.51100000000E-03 0.  1.
         11   -1    0    0    0    0 -0.00000000000E+00 -0.00000000000E+00 -0.45593999997E+02  0.45594000000E+02  0.51100000000E-03 0. -1.
         23    2    1    2    0    0  0.35527136788E-14 -0.35527136788E-14  0.00000000000E+00  0.91188000000E+02  0.91188000000E+02 0.  0.
    9900012    2    3    3    0    0  0.23313967879E+02  0.26436912239E+02 -0.10645673442E+02  0.54367057725E+02  0.39999939696E+02 0.  0.
        -12    1    3    3    0    0 -0.23313967879E+02 -0.26436912239E+02  0.10645673442E+02  0.36820942275E+02  0.00000000000E+00 0.  1.
         11    1    4    4    0    0  0.86091634658E+01 -0.64030202954E+01 -0.60096574659E+01  0.12297656183E+02  0.51100000000E-03 0. -1.
        -11    1    4    4    0    0 -0.50009522094E+01  0.28946770445E+01 -0.20411856026E+01  0.61282229984E+01  0.51100000000E-03 0.  1.
        -12    1    4    4    0    0  0.19705756623E+02  0.29945255490E+02 -0.25948303731E+01  0.35941178543E+02  0.00000000000E+00 0.  1.
</event>
<event>
 8    1  0.1253488E-006  0.9118800E+02  0.7816164E-02  0.1184000E+00
        -11   -1    0    0    0    0  0.00000000000E+00  0.00000000000E+00  0.45593999997E+02  0.45594000000E+02  0.51100000000E-03 0.  1.
         11   -1    0    0    0    0 -0.00000000000E+00 -0.00000000000E+00 -0.45593999997E+02  0.45594000000E+02  0.51100000000E-03 0. -1.
         23    2    1    2    0    0 -0.17763568394E-14 -0.71054273576E-14  0.17763568394E-14  0.91188000000E+02  0.91188000000E+02 0.  0.
    9900012    2    3    3    0    0  0.14522978386E+02  0.31658835582E+02 -0.11940720136E+02  0.54367087885E+02  0.40000008452E+02 0.  0.
        -12    1    3    3    0    0 -0.14522978386E+02 -0.31658835582E+02  0.11940720136E+02  0.36820912115E+02  0.00000000000E+00 0.  1.
         11    1    4    4    0    0  0.18263889698E+02  0.21980265501E+02  0.39232229714E+00  0.28580686756E+02  0.51100000000E-03 0. -1.
        -11    1    4    4    0    0  0.62562092778E+01  0.99955872581E+01 -0.10127272552E+02  0.15543923853E+02  0.51100000000E-03 0.  1.
        -12    1    4    4    0    0 -0.99971205898E+01 -0.31701717725E+00 -0.22057698811E+01  0.10242477276E+02  0.00000000000E+00 0.  1.
</event>
<event>
 8    1  0.1253488E-006  0.9118800E+02  0.7816164E-02  0.1184000E+00
        -11   -1    0    0    0    0  0.00000000000E+00  0.00000000000E+00  0.45593999997E+02  0.45594000000E+02  0.51100000000E-03 0. -1.
         11   -1    0    0    0    0 -0.00000000000E+00 -0.00000000000E+00 -0.45593999997E+02  0.45594000000E+02  0.51100000000E-03 0.  1.
         23    2    1    2    0    0  0.00000000000E+00  0.88817841970E-15  0.00000000000E+00  0.91188000000E+02  0.91188000000E+02 0.  0.
    9900012    2    3    3    0    0 -0.36286085776E+02 -0.46790382442E+01 -0.41481622631E+01  0.54367072934E+02  0.39999974367E+02 0.  0.
        -12    1    3    3    0    0  0.36286085776E+02  0.46790382442E+01  0.41481622631E+01  0.36820927066E+02  0.00000000000E+00 0.  1.
         11    1    4    4    0    0 -0.16081357537E+02  0.62857485797E+01  0.81018400270E+01  0.19072506587E+02  0.51100000000E-03 0. -1.
        -11    1    4    4    0    0 -0.20292073910E+01 -0.32698566642E+01 -0.14892011499E+02  0.15381211005E+02  0.51100000000E-03 0.  1.
        -12    1    4    4    0    0 -0.18175520849E+02 -0.76949301597E+01  0.26420092089E+01  0.19913355341E+02  0.00000000000E+00 0.  1.
</event>
<event>
 8    1  0.1253488E-006  0.9118800E+02  0.7816164E-02  0.1184000E+00
        -11   -1    0    0    0    0  0.00000000000E+00  0.00000000000E+00  0.45593999997E+02  0.45594000000E+02  0.51100000000E-03 0. -1.
         11   -1    0    0    0    0 -0.00000000000E+00 -0.00000000000E+00 -0.45593999997E+02  0.45594000000E+02  0.51100000000E-03 0.  1.
         23    2    1    2    0    0 -0.71054273576E-14  0.00000000000E+00  0.00000000000E+00  0.91188000000E+02  0.91188000000E+02 0.  0.
    9900012    2    3    3    0    0 -0.32308349958E+02  0.56515243422E+01 -0.16733829839E+02  0.54366942635E+02  0.39999677323E+02 0.  0.
         12    1    3    3    0    0  0.32308349958E+02 -0.56515243422E+01  0.16733829839E+02  0.36821057365E+02  0.00000000000E+00 0. -1.
         11    1    4    4    0    0 -0.76303394410E+01 -0.84474639118E+01 -0.24403618986E+01  0.11642039898E+02  0.51100000000E-03 0. -1.
        -11    1    4    4    0    0 -0.97447111754E+01  0.20979632884E+02 -0.44348798244E+01  0.23553610151E+02  0.51100000000E-03 0.  1.
        -12    1    4    4    0    0 -0.14933299342E+02 -0.68806446300E+01 -0.98585881161E+01  0.19171292586E+02  0.00000000000E+00 0.  1.
</event>
<event>
 8    1  0.1253488E-006  0.9118800E+02  0.7816164E-02  0.1184000E+00
        -11   -1    0    0    0    0  0.00000000000E+00  0.00000000000E+00  0.45593999997E+02  0.45594000000E+02  0.51100000000E-03 0. -1.
         11   -1    0    0    0    0 -0.00000000000E+00 -0.00000000000E+00 -0.45593999997E+02  0.45594000000E+02  0.51100000000E-03 0.  1.
         23    2    1    2    0    0  0.00000000000E+00  0.35527136788E-14  0.00000000000E+00  0.91188000000E+02  0.91188000000E+02 0.  0.
    9900012    2    3    3    0    0 -0.13009809824E+02  0.30094425624E+02 -0.16758603442E+02  0.54367076673E+02  0.39999982891E+02 0.  0.
         12    1    3    3    0    0  0.13009809824E+02 -0.30094425624E+02  0.16758603442E+02  0.36820923327E+02  0.00000000000E+00 0. -1.
         11    1    4    4    0    0 -0.19385016100E+01  0.44634500401E+01 -0.21903176161E+02  0.22437230243E+02  0.51100000000E-03 0. -1.
        -11    1    4    4    0    0 -0.61653622859E+01  0.99818939409E+00  0.22871586134E+01  0.66512531877E+01  0.51100000000E-03 0.  1.
         12    1    4    4    0    0 -0.49059459280E+01  0.24632786190E+02  0.28574141058E+01  0.25278593242E+02  0.00000000000E+00 0. -1.
</event>
<event>
 8    1  0.1253488E-006  0.9118800E+02  0.7816164E-02  0.1184000E+00
        -11   -1    0    0    0    0  0.00000000000E+00  0.00000000000E+00  0.45593999997E+02  0.45594000000E+02  0.51100000000E-03 0.  1.
         11   -1    0    0    0    0 -0.00000000000E+00 -0.00000000000E+00 -0.45593999997E+02  0.45594000000E+02  0.51100000000E-03 0. -1.
         23    2    1    2    0    0  0.00000000000E+00  0.00000000000E+00  0.35527136788E-14  0.91188000000E+02  0.91188000000E+02 0.  0.
    9900012    2    3    3    0    0  0.26812951114E+02 -0.21875478927E+02 -0.12582074514E+02  0.54367088485E+02  0.40000009818E+02 0.  0.
        -12    1    3    3    0    0 -0.26812951114E+02  0.21875478927E+02  0.12582074514E+02  0.36820911515E+02  0.00000000000E+00 0.  1.
         11    1    4    4    0    0  0.15253184895E+02 -0.12702565791E+02  0.90009425057E+01  0.21795224095E+02  0.51100000000E-03 0. -1.
        -11    1    4    4    0    0 -0.49666809491E+01  0.89434964377E-01 -0.73710096367E+01  0.88886276549E+01  0.51100000000E-03 0.  1.
         12    1    4    4    0    0  0.16526447169E+02 -0.92623481005E+01 -0.14212007383E+02  0.23683236734E+02  0.00000000000E+00 0. -1.
</event>
<event>
 8    1  0.1253488E-006  0.9118800E+02  0.7816164E-02  0.1184000E+00
        -11   -1    0    0    0    0  0.00000000000E+00  0.00000000000E+00  0.45593999997E+02  0.45594000000E+02  0.51100000000E-03 0. -1.
         11   -1    0    0    0    0 -0.00000000000E+00 -0.00000000000E+00 -0.45593999997E+02  0.45594000000E+02  0.51100000000E-03 0.  1.
         23    2    1    2    0    0  0.13322676296E-14  0.00000000000E+00 -0.17763568394E-14  0.91188000000E+02  0.91188000000E+02 0.  0.
    9900012    2    3    3    0    0  0.31503879053E+01 -0.34296447807E+02 -0.13023370694E+02  0.54367089359E+02  0.40000011813E+02 0.  0.
        -12    1    3    3    0    0 -0.31503879053E+01  0.34296447807E+02  0.13023370694E+02  0.36820910641E+02  0.00000000000E+00 0.  1.
         11    1    4    4    0    0  0.87987515499E+01 -0.39142786608E+02 -0.14025985589E+02  0.42500635810E+02  0.51100000000E-03 0. -1.
        -11    1    4    4    0    0 -0.65049578517E+01  0.23580297712E+01 -0.26116330499E+01  0.73956344219E+01  0.51100000000E-03 0.  1.
         12    1    4    4    0    0  0.85659420707E+00  0.24883090294E+01  0.36142479446E+01  0.44708191270E+01  0.00000000000E+00 0. -1.
</event>
<event>
 8    1  0.1253488E-006  0.9118800E+02  0.7816164E-02  0.1184000E+00
        -11   -1    0    0    0    0  0.00000000000E+00  0.00000000000E+00  0.45593999997E+02  0.45594000000E+02  0.51100000000E-03 0.  1.
         11   -1    0    0    0    0 -0.00000000000E+00 -0.00000000000E+00 -0.45593999997E+02  0.45594000000E+02  0.51100000000E-03 0. -1.
         23    2    1    2    0    0  0.00000000000E+00  0.00000000000E+00  0.00000000000E+00  0.91188000000E+02  0.91188000000E+02 0.  0.
    9900012    2    3    3    0    0  0.18666277339E+02 -0.29736469290E+02  0.11094675875E+02  0.54367090881E+02  0.40000015283E+02 0.  0.
         12    1    3    3    0    0 -0.18666277339E+02  0.29736469290E+02 -0.11094675875E+02  0.36820909119E+02  0.00000000000E+00 0. -1.
         11    1    4    4    0    0  0.79137549458E+01 -0.10135246063E+02 -0.12635096953E+02  0.18027656680E+02  0.51100000000E-03 0. -1.
        -11    1    4    4    0    0  0.33355550004E+00 -0.14422614959E+02  0.18814448017E+02  0.23708786050E+02  0.51100000000E-03 0.  1.
         12    1    4    4    0    0  0.10418966893E+02 -0.51786082676E+01  0.49153248118E+01  0.12630648151E+02  0.00000000000E+00 0. -1.
</event>
<event>
 8    1  0.1253488E-006  0.9118800E+02  0.7816164E-02  0.1184000E+00
        -11   -1    0    0    0    0  0.00000000000E+00  0.00000000000E+00  0.45593999997E+02  0.45594000000E+02  0.51100000000E-03 0.  1.
         11   -1    0    0    0    0 -0.00000000000E+00 -0.00000000000E+00 -0.45593999997E+02  0.45594000000E+02  0.51100000000E-03 0. -1.
         23    2    1    2    0    0  0.00000000000E+00  0.26645352591E-14 -0.35527136788E-14  0.91188000000E+02  0.91188000000E+02 0.  0.
    9900012    2    3    3    0    0  0.22015742285E+02 -0.48289759496E+01  0.29116425762E+02  0.54367106933E+02  0.40000051875E+02 0.  0.
         12    1    3    3    0    0 -0.22015742285E+02  0.48289759496E+01 -0.29116425762E+02  0.36820893067E+02  0.00000000000E+00 0. -1.
         11    1    4    4    0    0 -0.42990677833E+01 -0.16172648054E+02  0.74318508743E+01  0.18310350531E+02  0.51100000000E-03 0. -1.
        -11    1    4    4    0    0  0.17035928977E+02  0.66144596190E+01  0.12220820035E+02  0.21984594487E+02  0.51100000000E-03 0.  1.
         12    1    4    4    0    0  0.92788810912E+01  0.47292124858E+01  0.94637548535E+01  0.14072161915E+02  0.00000000000E+00 0. -1.
</event>
<event>
 8    1  0.1253488E-006  0.9118800E+02  0.7816164E-02  0.1184000E+00
        -11   -1    0    0    0    0  0.00000000000E+00  0.00000000000E+00  0.45593999997E+02  0.45594000000E+02  0.51100000000E-03 0.  1.
         11   -1    0    0    0    0 -0.00000000000E+00 -0.00000000000E+00 -0.45593999997E+02  0.45594000000E+02  0.51100000000E-03 0. -1.
         23    2    1    2    0    0  0.00000000000E+00  0.00000000000E+00  0.00000000000E+00  0.91188000000E+02  0.91188000000E+02 0.  0.
    9900012    2    3    3    0    0  0.21020898005E+02  0.10822017610E+02  0.28227410914E+02  0.54367069200E+02  0.39999965855E+02 0.  0.
         12    1    3    3    0    0 -0.21020898005E+02 -0.10822017610E+02 -0.28227410914E+02  0.36820930800E+02  0.00000000000E+00 0. -1.
         11    1    4    4    0    0  0.12402152186E+02  0.24269433166E+02  0.16861968220E+02  0.32049098857E+02  0.51100000000E-03 0. -1.
        -11    1    4    4    0    0  0.50854768432E+01 -0.49045535724E+01 -0.72038090136E+00  0.71018074722E+01  0.51100000000E-03 0.  1.
        -12    1    4    4    0    0  0.35332689761E+01 -0.85428619841E+01  0.12085823595E+02  0.15216162870E+02  0.00000000000E+00 0.  1.
</event>
<event>
 8    1  0.1253488E-006  0.9118800E+02  0.7816164E-02  0.1184000E+00
        -11   -1    0    0    0    0  0.00000000000E+00  0.00000000000E+00  0.45593999997E+02  0.45594000000E+02  0.51100000000E-03 0.  1.
         11   -1    0    0    0    0 -0.00000000000E+00 -0.00000000000E+00 -0.45593999997E+02  0.45594000000E+02  0.51100000000E-03 0. -1.
         23    2    1    2    0    0  0.17763568394E-14  0.00000000000E+00  0.00000000000E+00  0.91188000000E+02  0.91188000000E+02 0.  0.
    9900012    2    3    3    0    0  0.15601017577E+02  0.24816673153E+02  0.22282813950E+02  0.54367043829E+02  0.39999908018E+02 0.  0.
        -12    1    3    3    0    0 -0.15601017577E+02 -0.24816673153E+02 -0.22282813950E+02  0.36820956171E+02  0.00000000000E+00 0.  1.
         11    1    4    4    0    0  0.16833714944E+02  0.24630510828E+02  0.15852487006E+02  0.33783684924E+02  0.51100000000E-03 0. -1.
        -11    1    4    4    0    0  0.67796432006E+00 -0.39316662843E+01  0.12433000339E+02  0.13057455077E+02  0.51100000000E-03 0.  1.
        -12    1    4    4    0    0 -0.19106616877E+01  0.41178286093E+01 -0.60026733958E+01  0.75259038286E+01  0.00000000000E+00 0.  1.
</event>
<event>
 8    1  0.1253488E-006  0.9118800E+02  0.7816164E-02  0.1184000E+00
        -11   -1    0    0    0    0  0.00000000000E+00  0.00000000000E+00  0.45593999997E+02  0.45594000000E+02  0.51100000000E-03 0.  1.
         11   -1    0    0    0    0 -0.00000000000E+00 -0.00000000000E+00 -0.45593999997E+02  0.45594000000E+02  0.51100000000E-03 0. -1.
         23    2    1    2    0    0 -0.17763568394E-14  0.35527136788E-14 -0.35527136788E-14  0.91188000000E+02  0.91188000000E+02 0.  0.
    9900012    2    3    3    0    0  0.13676399305E+02 -0.15690458504E+02  0.30373409523E+02  0.54367103867E+02  0.40000044885E+02 0.  0.
         12    1    3    3    0    0 -0.13676399305E+02  0.15690458504E+02 -0.30373409523E+02  0.36820896133E+02  0.00000000000E+00 0. -1.
         11    1    4    4    0    0 -0.64853141590E+00 -0.52453058578E+01 -0.47595389448E+00  0.53066334818E+01  0.51100000000E-03 0. -1.
        -11    1    4    4    0    0  0.37206104923E+01 -0.21545259277E+02  0.12683142140E+02  0.25276535256E+02  0.51100000000E-03 0.  1.
         12    1    4    4    0    0  0.10604320229E+02  0.11100106630E+02  0.18166221278E+02  0.23783935129E+02  0.00000000000E+00 0. -1.
</event>
<event>
 8    1  0.1253488E-006  0.9118800E+02  0.7816164E-02  0.1184000E+00
        -11   -1    0    0    0    0  0.00000000000E+00  0.00000000000E+00  0.45593999997E+02  0.45594000000E+02  0.51100000000E-03 0.  1.
         11   -1    0    0    0    0 -0.00000000000E+00 -0.00000000000E+00 -0.45593999997E+02  0.45594000000E+02  0.51100000000E-03 0. -1.
         23    2    1    2    0    0 -0.17763568394E-14  0.00000000000E+00  0.00000000000E+00  0.91188000000E+02  0.91188000000E+02 0.  0.
    9900012    2    3    3    0    0 -0.10271267954E+02  0.25393448064E+02 -0.24605945549E+02  0.54367099599E+02  0.40000035157E+02 0.  0.
        -12    1    3    3    0    0  0.10271267954E+02 -0.25393448064E+02  0.24605945549E+02  0.36820900401E+02  0.00000000000E+00 0.  1.
         11    1    4    4    0    0  0.48124645973E+01 -0.17887645037E+01 -0.17576193748E+01  0.54266674929E+01  0.51100000000E-03 0. -1.
        -11    1    4    4    0    0  0.16971634373E+01  0.77279297607E+01  0.62794193342E+01  0.10101107343E+02  0.51100000000E-03 0.  1.
         12    1    4    4    0    0 -0.16780895988E+02  0.19454282807E+02 -0.29127745508E+02  0.38839324764E+02  0.00000000000E+00 0. -1.
</event>
<event>
 8    1  0.1253488E-006  0.9118800E+02  0.7816164E-02  0.1184000E+00
        -11   -1    0    0    0    0  0.00000000000E+00  0.00000000000E+00  0.45593999997E+02  0.45594000000E+02  0.51100000000E-03 0.  1.
         11   -1    0    0    0    0 -0.00000000000E+00 -0.00000000000E+00 -0.45593999997E+02  0.45594000000E+02  0.51100000000E-03 0. -1.
         23    2    1    2    0    0 -0.17763568394E-14 -0.17763568394E-14  0.00000000000E+00  0.91188000000E+02  0.91188000000E+02 0.  0.
    9900012    2    3    3    0    0 -0.13527091206E+02 -0.13080538093E+02 -0.31649590017E+02  0.54367092603E+02  0.40000019207E+02 0.  0.
        -12    1    3    3    0    0  0.13527091206E+02  0.13080538093E+02  0.31649590017E+02  0.36820907397E+02  0.00000000000E+00 0.  1.
         11    1    4    4    0    0  0.71192742830E+01 -0.13576276338E+01 -0.28579959461E+02  0.29484594319E+02  0.51100000000E-03 0. -1.
        -11    1    4    4    0    0 -0.10812033487E+02 -0.77895322558E+01 -0.47726670687E+01  0.14154689403E+02  0.51100000000E-03 0.  1.
         12    1    4    4    0    0 -0.98343320020E+01 -0.39333782037E+01  0.17030365130E+01  0.10727808881E+02  0.00000000000E+00 0. -1.
</event>
<event>
 8    1  0.1253488E-006  0.9118800E+02  0.7816164E-02  0.1184000E+00
        -11   -1    0    0    0    0  0.00000000000E+00  0.00000000000E+00  0.45593999997E+02  0.45594000000E+02  0.51100000000E-03 0. -1.
         11   -1    0    0    0    0 -0.00000000000E+00 -0.00000000000E+00 -0.45593999997E+02  0.45594000000E+02  0.51100000000E-03 0.  1.
         23    2    1    2    0    0  0.00000000000E+00  0.00000000000E+00  0.00000000000E+00  0.91188000000E+02  0.91188000000E+02 0.  0.
    9900012    2    3    3    0    0  0.46833417140E+01 -0.17342226146E+02 -0.32141754138E+02  0.54367097562E+02  0.40000030512E+02 0.  0.
         12    1    3    3    0    0 -0.46833417140E+01  0.17342226146E+02  0.32141754138E+02  0.36820902438E+02  0.00000000000E+00 0. -1.
         11    1    4    4    0    0  0.42623929643E+01 -0.16614824766E+02 -0.45562117166E+01  0.17747660726E+02  0.51100000000E-03 0. -1.
        -11    1    4    4    0    0  0.53248965591E+01  0.53760788970E+00  0.26434038116E+01  0.59691816508E+01  0.51100000000E-03 0.  1.
        -12    1    4    4    0    0 -0.49039478095E+01 -0.12650092699E+01 -0.30228946233E+02  0.30650255185E+02  0.00000000000E+00 0.  1.
</event>
<event>
 8    1  0.1253488E-006  0.9118800E+02  0.7816164E-02  0.1184000E+00
        -11   -1    0    0    0    0  0.00000000000E+00  0.00000000000E+00  0.45593999997E+02  0.45594000000E+02  0.51100000000E-03 0.  1.
         11   -1    0    0    0    0 -0.00000000000E+00 -0.00000000000E+00 -0.45593999997E+02  0.45594000000E+02  0.51100000000E-03 0. -1.
         23    2    1    2    0    0  0.00000000000E+00  0.00000000000E+00  0.00000000000E+00  0.91188000000E+02  0.91188000000E+02 0.  0.
    9900012    2    3    3    0    0 -0.10569406692E+02  0.29836968226E+02 -0.18810223622E+02  0.54367061073E+02  0.39999947329E+02 0.  0.
         12    1    3    3    0    0  0.10569406692E+02 -0.29836968226E+02  0.18810223622E+02  0.36820938927E+02  0.00000000000E+00 0. -1.
         11    1    4    4    0    0  0.82331248532E+01  0.20742805959E+02 -0.70867857206E+01  0.23415184732E+02  0.51100000000E-03 0. -1.
        -11    1    4    4    0    0 -0.11433959241E+02  0.11394317635E+02  0.88701604632E+00  0.16166406404E+02  0.51100000000E-03 0.  1.
         12    1    4    4    0    0 -0.73685723048E+01 -0.23001553682E+01 -0.12610453947E+02  0.14785469938E+02  0.00000000000E+00 0. -1.
</event>
<event>
 8    1  0.1253488E-006  0.9118800E+02  0.7816164E-02  0.1184000E+00
        -11   -1    0    0    0    0  0.00000000000E+00  0.00000000000E+00  0.45593999997E+02  0.45594000000E+02  0.51100000000E-03 0.  1.
         11   -1    0    0    0    0 -0.00000000000E+00 -0.00000000000E+00 -0.45593999997E+02  0.45594000000E+02  0.51100000000E-03 0. -1.
         23    2    1    2    0    0  0.00000000000E+00 -0.88817841970E-15  0.00000000000E+00  0.91188000000E+02  0.91188000000E+02 0.  0.
    9900012    2    3    3    0    0 -0.20021166804E+02 -0.44359452377E+01 -0.30581939035E+02  0.54367085760E+02  0.40000003606E+02 0.  0.
        -12    1    3    3    0    0  0.20021166804E+02  0.44359452377E+01  0.30581939035E+02  0.36820914240E+02  0.00000000000E+00 0.  1.
         11    1    4    4    0    0  0.67998045106E+00 -0.37126992298E+01 -0.94113366468E+01  0.10140008221E+02  0.51100000000E-03 0. -1.
        -11    1    4    4    0    0 -0.18397357309E+02  0.50974866002E+01 -0.28678681659E+02  0.34451616908E+02  0.51100000000E-03 0.  1.
        -12    1    4    4    0    0 -0.23037899460E+01 -0.58207326080E+01  0.75080792705E+01  0.97754606307E+01  0.00000000000E+00 0.  1.
</event>
<event>
 8    1  0.1253488E-006  0.9118800E+02  0.7816164E-02  0.1184000E+00
        -11   -1    0    0    0    0  0.00000000000E+00  0.00000000000E+00  0.45593999997E+02  0.45594000000E+02  0.51100000000E-03 0.  1.
         11   -1    0    0    0    0 -0.00000000000E+00 -0.00000000000E+00 -0.45593999997E+02  0.45594000000E+02  0.51100000000E-03 0. -1.
         23    2    1    2    0    0  0.00000000000E+00  0.35527136788E-14  0.88817841970E-15  0.91188000000E+02  0.91188000000E+02 0.  0.
    9900012    2    3    3    0    0 -0.34431536722E+02  0.10396788810E+02 -0.78839279883E+01  0.54367078514E+02  0.39999987088E+02 0.  0.
        -12    1    3    3    0    0  0.34431536722E+02 -0.10396788810E+02  0.78839279883E+01  0.36820921486E+02  0.00000000000E+00 0.  1.
         11    1    4    4    0    0 -0.21879341793E+02 -0.10290360701E+02  0.50475136134E+00  0.24183711354E+02  0.51100000000E-03 0. -1.
        -11    1    4    4    0    0  0.20017097894E+01  0.39489288930E+01  0.29027129641E+01  0.52940177839E+01  0.51100000000E-03 0.  1.
         12    1    4    4    0    0 -0.14553904718E+02  0.16738220618E+02 -0.11291392314E+02  0.24889349376E+02  0.00000000000E+00 0. -1.
</event>
<event>
 8    1  0.1253488E-006  0.9118800E+02  0.7816164E-02  0.1184000E+00
        -11   -1    0    0    0    0  0.00000000000E+00  0.00000000000E+00  0.45593999997E+02  0.45594000000E+02  0.51100000000E-03 0.  1.
         11   -1    0    0    0    0 -0.00000000000E+00 -0.00000000000E+00 -0.45593999997E+02  0.45594000000E+02  0.51100000000E-03 0. -1.
         23    2    1    2    0    0  0.17763568394E-14  0.35527136788E-14  0.35527136788E-14  0.91188000000E+02  0.91188000000E+02 0.  0.
    9900012    2    3    3    0    0  0.92782987502E+01  0.28049786230E+02  0.21975043594E+02  0.54367083713E+02  0.39999998940E+02 0.  0.
         12    1    3    3    0    0 -0.92782987502E+01 -0.28049786230E+02 -0.21975043594E+02  0.36820916287E+02  0.00000000000E+00 0. -1.
         11    1    4    4    0    0 -0.58961945438E+01  0.10973563154E+01  0.23766956098E+01  0.64512001414E+01  0.51100000000E-03 0. -1.
        -11    1    4    4    0    0  0.14757813440E+01  0.28764765175E+02  0.18098043879E+02  0.34016596518E+02  0.51100000000E-03 0.  1.
         12    1    4    4    0    0  0.13698711950E+02 -0.18123352602E+01  0.15003041053E+01  0.13899287053E+02  0.00000000000E+00 0. -1.
</event>
<event>
 8    1  0.1253488E-006  0.9118800E+02  0.7816164E-02  0.1184000E+00
        -11   -1    0    0    0    0  0.00000000000E+00  0.00000000000E+00  0.45593999997E+02  0.45594000000E+02  0.51100000000E-03 0.  1.
         11   -1    0    0    0    0 -0.00000000000E+00 -0.00000000000E+00 -0.45593999997E+02  0.45594000000E+02  0.51100000000E-03 0. -1.
         23    2    1    2    0    0 -0.71054273576E-14  0.17763568394E-14  0.00000000000E+00  0.91188000000E+02  0.91188000000E+02 0.  0.
    9900012    2    3    3    0    0  0.32481088111E+02 -0.77671282153E+01  0.15505819487E+02  0.54367084700E+02  0.40000001191E+02 0.  0.
         12    1    3    3    0    0 -0.32481088111E+02  0.77671282153E+01 -0.15505819487E+02  0.36820915300E+02  0.00000000000E+00 0. -1.
         11    1    4    4    0    0  0.16233894570E+02 -0.59370333798E+00  0.11685916662E+01  0.16286725371E+02  0.51100000000E-03 0. -1.
        -11    1    4    4    0    0  0.19025574313E+02  0.49169816548E+01  0.16286611302E+02  0.25522595763E+02  0.51100000000E-03 0.  1.
        -12    1    4    4    0    0 -0.27783807724E+01 -0.12090406532E+02 -0.19493834810E+01  0.12557763566E+02  0.00000000000E+00 0.  1.
</event>
<event>
 8    1  0.1253488E-006  0.9118800E+02  0.7816164E-02  0.1184000E+00
        -11   -1    0    0    0    0  0.00000000000E+00  0.00000000000E+00  0.45593999997E+02  0.45594000000E+02  0.51100000000E-03 0. -1.
         11   -1    0    0    0    0 -0.00000000000E+00 -0.00000000000E+00 -0.45593999997E+02  0.45594000000E+02  0.51100000000E-03 0.  1.
         23    2    1    2    0    0  0.00000000000E+00 -0.17763568394E-14  0.00000000000E+00  0.91188000000E+02  0.91188000000E+02 0.  0.
    9900012    2    3    3    0    0 -0.24331542085E+02  0.15355288788E+02 -0.22977652122E+02  0.54367063957E+02  0.39999953904E+02 0.  0.
         12    1    3    3    0    0  0.24331542085E+02 -0.15355288788E+02  0.22977652122E+02  0.36820936043E+02  0.00000000000E+00 0. -1.
         11    1    4    4    0    0 -0.77787273875E+01 -0.32696307232E+01 -0.24807976769E+01  0.87950805687E+01  0.51100000000E-03 0. -1.
        -11    1    4    4    0    0 -0.12641328031E+01 -0.76897175842E+01 -0.11397880898E+02  0.13807297980E+02  0.51100000000E-03 0.  1.
        -12    1    4    4    0    0 -0.15288681895E+02  0.26314637095E+02 -0.90989735473E+01  0.31764685409E+02  0.00000000000E+00 0.  1.
</event>
<event>
 8    1  0.1253488E-006  0.9118800E+02  0.7816164E-02  0.1184000E+00
        -11   -1    0    0    0    0  0.00000000000E+00  0.00000000000E+00  0.45593999997E+02  0.45594000000E+02  0.51100000000E-03 0.  1.
         11   -1    0    0    0    0 -0.00000000000E+00 -0.00000000000E+00 -0.45593999997E+02  0.45594000000E+02  0.51100000000E-03 0. -1.
         23    2    1    2    0    0  0.00000000000E+00  0.00000000000E+00  0.35527136788E-14  0.91188000000E+02  0.91188000000E+02 0.  0.
    9900012    2    3    3    0    0 -0.23029559936E+02 -0.19057255738E+02 -0.21499906246E+02  0.54367006047E+02  0.39999821885E+02 0.  0.
        -12    1    3    3    0    0  0.23029559936E+02  0.19057255738E+02  0.21499906246E+02  0.36820993953E+02  0.00000000000E+00 0.  1.
         11    1    4    4    0    0 -0.17672253729E+02 -0.23642822070E+02 -0.94360205681E+01  0.30989192821E+02  0.51100000000E-03 0. -1.
        -11    1    4    4    0    0 -0.30072857481E+01  0.10943752895E+02 -0.24440214978E+01  0.11609596735E+02  0.51100000000E-03 0.  1.
        -12    1    4    4    0    0 -0.23500204583E+01 -0.63581865637E+01 -0.96198641800E+01  0.11768216491E+02  0.00000000000E+00 0.  1.
</event>
<event>
 8    1  0.1253488E-006  0.9118800E+02  0.7816164E-02  0.1184000E+00
        -11   -1    0    0    0    0  0.00000000000E+00  0.00000000000E+00  0.45593999997E+02  0.45594000000E+02  0.51100000000E-03 0. -1.
         11   -1    0    0    0    0 -0.00000000000E+00 -0.00000000000E+00 -0.45593999997E+02  0.45594000000E+02  0.51100000000E-03 0.  1.
         23    2    1    2    0    0  0.17763568394E-14  0.22204460493E-15  0.00000000000E+00  0.91188000000E+02  0.91188000000E+02 0.  0.
    9900012    2    3    3    0    0 -0.50974100412E+01 -0.54156926699E+00  0.36462349925E+02  0.54367084090E+02  0.39999999800E+02 0.  0.
        -12    1    3    3    0    0  0.50974100412E+01  0.54156926699E+00 -0.36462349925E+02  0.36820915910E+02  0.00000000000E+00 0.  1.
         11    1    4    4    0    0 -0.11768108216E+02  0.25772708334E+01  0.17855310813E+02  0.21539331940E+02  0.51100000000E-03 0. -1.
        -11    1    4    4    0    0 -0.99861193105E+01 -0.10030947698E+01  0.49843186555E+01  0.11205900710E+02  0.51100000000E-03 0.  1.
         12    1    4    4    0    0  0.16656817486E+02 -0.21157453305E+01  0.13622720456E+02  0.21621851440E+02  0.00000000000E+00 0. -1.
</event>
<event>
 8    1  0.1253488E-006  0.9118800E+02  0.7816164E-02  0.1184000E+00
        -11   -1    0    0    0    0  0.00000000000E+00  0.00000000000E+00  0.45593999997E+02  0.45594000000E+02  0.51100000000E-03 0. -1.
         11   -1    0    0    0    0 -0.00000000000E+00 -0.00000000000E+00 -0.45593999997E+02  0.45594000000E+02  0.51100000000E-03 0.  1.
         23    2    1    2    0    0  0.35527136788E-14 -0.35527136788E-14  0.35527136788E-14  0.91188000000E+02  0.91188000000E+02 0.  0.
    9900012    2    3    3    0    0  0.16053918876E+02  0.17128293496E+02 -0.28366775936E+02  0.54367072169E+02  0.39999972623E+02 0.  0.
         12    1    3    3    0    0 -0.16053918876E+02 -0.17128293496E+02  0.28366775936E+02  0.36820927831E+02  0.00000000000E+00 0. -1.
         11    1    4    4    0    0  0.12503315907E+02  0.19509049509E+02 -0.21390963252E+02  0.31535840413E+02  0.51100000000E-03 0. -1.
        -11    1    4    4    0    0  0.90491908347E+01 -0.59091587807E+01 -0.10785181047E+02  0.15268468906E+02  0.51100000000E-03 0.  1.
        -12    1    4    4    0    0 -0.54985878663E+01  0.35284027671E+01  0.38093683624E+01  0.75627628504E+01  0.00000000000E+00 0.  1.
</event>
<event>
 8    1  0.1253488E-006  0.9118800E+02  0.7816164E-02  0.1184000E+00
        -11   -1    0    0    0    0  0.00000000000E+00  0.00000000000E+00  0.45593999997E+02  0.45594000000E+02  0.51100000000E-03 0.  1.
         11   -1    0    0    0    0 -0.00000000000E+00 -0.00000000000E+00 -0.45593999997E+02  0.45594000000E+02  0.51100000000E-03 0. -1.
         23    2    1    2    0    0  0.00000000000E+00 -0.71054273576E-14  0.22204460493E-15  0.91188000000E+02  0.91188000000E+02 0.  0.
    9900012    2    3    3    0    0  0.96489169411E+01 -0.35489478619E+02  0.17812707714E+01  0.54367114400E+02  0.40000068899E+02 0.  0.
         12    1    3    3    0    0 -0.96489169411E+01  0.35489478619E+02 -0.17812707714E+01  0.36820885600E+02  0.00000000000E+00 0. -1.
         11    1    4    4    0    0 -0.21312108692E+01  0.42243221019E+01 -0.17476613123E+01  0.50439347055E+01  0.51100000000E-03 0. -1.
        -11    1    4    4    0    0 -0.29474010411E+01 -0.32484424414E+02  0.42930987021E+01  0.32899174749E+02  0.51100000000E-03 0.  1.
        -12    1    4    4    0    0  0.14727528851E+02 -0.72293763062E+01 -0.76416661832E+00  0.16424004946E+02  0.00000000000E+00 0.  1.
</event>
<event>
 8    1  0.1253488E-006  0.9118800E+02  0.7816164E-02  0.1184000E+00
        -11   -1    0    0    0    0  0.00000000000E+00  0.00000000000E+00  0.45593999997E+02  0.45594000000E+02  0.51100000000E-03 0.  1.
         11   -1    0    0    0    0 -0.00000000000E+00 -0.00000000000E+00 -0.45593999997E+02  0.45594000000E+02  0.51100000000E-03 0. -1.
         23    2    1    2    0    0  0.00000000000E+00  0.00000000000E+00  0.00000000000E+00  0.91188000000E+02  0.91188000000E+02 0.  0.
    9900012    2    3    3    0    0 -0.35517837822E+02 -0.79451991771E+01 -0.55799822461E+01  0.54367092958E+02  0.40000020017E+02 0.  0.
         12    1    3    3    0    0  0.35517837822E+02  0.79451991771E+01  0.55799822461E+01  0.36820907042E+02  0.00000000000E+00 0. -1.
         11    1    4    4    0    0 -0.16528938942E+02 -0.22735832629E+02 -0.53727965960E+01  0.28618016203E+02  0.51100000000E-03 0. -1.
        -11    1    4    4    0    0 -0.13713465811E+02  0.14070358655E+02  0.24474790155E+01  0.19799603305E+02  0.51100000000E-03 0.  1.
         12    1    4    4    0    0 -0.52754330685E+01  0.72027479668E+00 -0.26546646656E+01  0.59494734497E+01  0.00000000000E+00 0. -1.
</event>
<event>
 8    1  0.1253488E-006  0.9118800E+02  0.7816164E-02  0.1184000E+00
        -11   -1    0    0    0    0  0.00000000000E+00  0.00000000000E+00  0.45593999997E+02  0.45594000000E+02  0.51100000000E-03 0. -1.
         11   -1    0    0    0    0 -0.00000000000E+00 -0.00000000000E+00 -0.45593999997E+02  0.45594000000E+02  0.51100000000E-03 0.  1.
         23    2    1    2    0    0  0.00000000000E+00  0.17763568394E-14  0.00000000000E+00  0.91188000000E+02  0.91188000000E+02 0.  0.
    9900012    2    3    3    0    0 -0.21922001183E+01 -0.94327675967E+01 -0.35524595471E+02  0.54367085709E+02  0.40000003490E+02 0.  0.
         12    1    3    3    0    0  0.21922001183E+01  0.94327675967E+01  0.35524595471E+02  0.36820914291E+02  0.00000000000E+00 0. -1.
         11    1    4    4    0    0  0.26130892680E+01  0.79646083530E+00  0.28207203697E+00  0.27462975585E+01  0.51100000000E-03 0. -1.
        -11    1    4    4    0    0  0.52874926296E+01 -0.20983249734E+02 -0.15931365181E+02  0.26871225214E+02  0.51100000000E-03 0.  1.
         12    1    4    4    0    0 -0.10092782016E+02  0.10754021302E+02 -0.19875302326E+02  0.24749562936E+02  0.00000000000E+00 0. -1.
</event>
<event>
 8    1  0.1253488E-006  0.9118800E+02  0.7816164E-02  0.1184000E+00
        -11   -1    0    0    0    0  0.00000000000E+00  0.00000000000E+00  0.45593999997E+02  0.45594000000E+02  0.51100000000E-03 0. -1.
         11   -1    0    0    0    0 -0.00000000000E+00 -0.00000000000E+00 -0.45593999997E+02  0.45594000000E+02  0.51100000000E-03 0.  1.
         23    2    1    2    0    0  0.00000000000E+00  0.88817841970E-15  0.44408920985E-15  0.91188000000E+02  0.91188000000E+02 0.  0.
    9900012    2    3    3    0    0  0.35882930083E+02  0.75196455308E+01  0.34130352367E+01  0.54367101725E+02  0.40000040002E+02 0.  0.
        -12    1    3    3    0    0 -0.35882930083E+02 -0.75196455308E+01 -0.34130352367E+01  0.36820898275E+02  0.00000000000E+00 0.  1.
         11    1    4    4    0    0  0.12258931274E+02 -0.64150596152E+00  0.13140385259E+02  0.17982287143E+02  0.51100000000E-03 0. -1.
        -11    1    4    4    0    0 -0.20259844880E+01  0.90625896301E+01 -0.13350733893E+01  0.93817676994E+01  0.51100000000E-03 0.  1.
        -12    1    4    4    0    0  0.25649983297E+02 -0.90143813779E+00 -0.83922766327E+01  0.27003046882E+02  0.00000000000E+00 0.  1.
</event>
<event>
 8    1  0.1253488E-006  0.9118800E+02  0.7816164E-02  0.1184000E+00
        -11   -1    0    0    0    0  0.00000000000E+00  0.00000000000E+00  0.45593999997E+02  0.45594000000E+02  0.51100000000E-03 0. -1.
         11   -1    0    0    0    0 -0.00000000000E+00 -0.00000000000E+00 -0.45593999997E+02  0.45594000000E+02  0.51100000000E-03 0.  1.
         23    2    1    2    0    0 -0.71054273576E-14  0.17763568394E-14  0.00000000000E+00  0.91188000000E+02  0.91188000000E+02 0.  0.
    9900012    2    3    3    0    0  0.24498961084E+02 -0.99568601369E+01  0.25621067154E+02  0.54367119509E+02  0.40000080545E+02 0.  0.
        -12    1    3    3    0    0 -0.24498961084E+02  0.99568601369E+01 -0.25621067154E+02  0.36820880491E+02  0.00000000000E+00 0.  1.
         11    1    4    4    0    0  0.47079548428E+01 -0.38524184488E+00 -0.15805610421E+01  0.49811066591E+01  0.51100000000E-03 0. -1.
        -11    1    4    4    0    0  0.63393810738E+01 -0.17498106288E+02  0.69652216676E+00  0.18624087077E+02  0.51100000000E-03 0.  1.
         12    1    4    4    0    0  0.13451625168E+02  0.79264879962E+01  0.26505106030E+02  0.30761925773E+02  0.00000000000E+00 0. -1.
</event>
<event>
 8    1  0.1253488E-006  0.9118800E+02  0.7816164E-02  0.1184000E+00
        -11   -1    0    0    0    0  0.00000000000E+00  0.00000000000E+00  0.45593999997E+02  0.45594000000E+02  0.51100000000E-03 0. -1.
         11   -1    0    0    0    0 -0.00000000000E+00 -0.00000000000E+00 -0.45593999997E+02  0.45594000000E+02  0.51100000000E-03 0.  1.
         23    2    1    2    0    0  0.00000000000E+00  0.00000000000E+00  0.88817841970E-15  0.91188000000E+02  0.91188000000E+02 0.  0.
    9900012    2    3    3    0    0  0.24126508315E+02 -0.27009947637E+02 -0.66448594933E+01  0.54367084306E+02  0.40000000293E+02 0.  0.
        -12    1    3    3    0    0 -0.24126508315E+02  0.27009947637E+02  0.66448594933E+01  0.36820915694E+02  0.00000000000E+00 0.  1.
         11    1    4    4    0    0  0.99401198317E+01  0.48783018515E+01  0.12800705968E+01  0.11146407144E+02  0.51100000000E-03 0. -1.
        -11    1    4    4    0    0  0.51329649256E+01 -0.29240230249E+02 -0.13114038455E+02  0.32454836293E+02  0.51100000000E-03 0.  1.
        -12    1    4    4    0    0  0.90534235574E+01 -0.26480192399E+01  0.51891083651E+01  0.10765840870E+02  0.00000000000E+00 0.  1.
</event>
<event>
 8    1  0.1253488E-006  0.9118800E+02  0.7816164E-02  0.1184000E+00
        -11   -1    0    0    0    0  0.00000000000E+00  0.00000000000E+00  0.45593999997E+02  0.45594000000E+02  0.51100000000E-03 0.  1.
         11   -1    0    0    0    0 -0.00000000000E+00 -0.00000000000E+00 -0.45593999997E+02  0.45594000000E+02  0.51100000000E-03 0. -1.
         23    2    1    2    0    0  0.00000000000E+00  0.00000000000E+00  0.71054273576E-14  0.91188000000E+02  0.91188000000E+02 0.  0.
    9900012    2    3    3    0    0 -0.12024093168E+02  0.28652174711E+00  0.34801125780E+02  0.54367091988E+02  0.40000017805E+02 0.  0.
         12    1    3    3    0    0  0.12024093168E+02 -0.28652174711E+00 -0.34801125780E+02  0.36820908012E+02  0.00000000000E+00 0. -1.
         11    1    4    4    0    0 -0.71863974125E+01  0.24681340515E+01 -0.43713053423E+00  0.76109839595E+01  0.51100000000E-03 0. -1.
        -11    1    4    4    0    0 -0.12440820273E+02 -0.71183166641E+01  0.34850124819E+02  0.37682564156E+02  0.51100000000E-03 0.  1.
         12    1    4    4    0    0  0.76031245168E+01  0.49367043597E+01  0.38813149551E+00  0.90735438728E+01  0.00000000000E+00 0. -1.
</event>
<event>
 8    1  0.1253488E-006  0.9118800E+02  0.7816164E-02  0.1184000E+00
        -11   -1    0    0    0    0  0.00000000000E+00  0.00000000000E+00  0.45593999997E+02  0.45594000000E+02  0.51100000000E-03 0.  1.
         11   -1    0    0    0    0 -0.00000000000E+00 -0.00000000000E+00 -0.45593999997E+02  0.45594000000E+02  0.51100000000E-03 0. -1.
         23    2    1    2    0    0 -0.35527136788E-14  0.00000000000E+00 -0.17763568394E-14  0.91188000000E+02  0.91188000000E+02 0.  0.
    9900012    2    3    3    0    0 -0.31591987586E+02  0.11622949200E+02  0.14920942495E+02  0.54367066380E+02  0.39999959426E+02 0.  0.
         12    1    3    3    0    0  0.31591987586E+02 -0.11622949200E+02 -0.14920942495E+02  0.36820933620E+02  0.00000000000E+00 0. -1.
         11    1    4    4    0    0 -0.11971243696E+02 -0.26185323620E+01 -0.50704664648E+01  0.13261863285E+02  0.51100000000E-03 0. -1.
        -11    1    4    4    0    0 -0.24651522298E+02  0.65201014062E+01  0.96774101560E+01  0.27273825209E+02  0.51100000000E-03 0.  1.
        -12    1    4    4    0    0  0.50307784081E+01  0.77213801558E+01  0.10313998804E+02  0.13831377886E+02  0.00000000000E+00 0.  1.
</event>
<event>
 8    1  0.1253488E-006  0.9118800E+02  0.7816164E-02  0.1184000E+00
        -11   -1    0    0    0    0  0.00000000000E+00  0.00000000000E+00  0.45593999997E+02  0.45594000000E+02  0.51100000000E-03 0.  1.
         11   -1    0    0    0    0 -0.00000000000E+00 -0.00000000000E+00 -0.45593999997E+02  0.45594000000E+02  0.51100000000E-03 0. -1.
         23    2    1    2    0    0  0.44408920985E-15  0.88817841970E-15 -0.71054273576E-14  0.91188000000E+02  0.91188000000E+02 0.  0.
    9900012    2    3    3    0    0  0.25894112779E+01  0.62713597375E+01 -0.36190402096E+02  0.54367079213E+02  0.39999988682E+02 0.  0.
        -12    1    3    3    0    0 -0.25894112779E+01 -0.62713597375E+01  0.36190402096E+02  0.36820920787E+02  0.00000000000E+00 0.  1.
         11    1    4    4    0    0 -0.54145701384E+01  0.93214182514E+01 -0.63842559567E+01  0.12528572639E+02  0.51100000000E-03 0. -1.
        -11    1    4    4    0    0 -0.77763486226E+01  0.64184590382E+01 -0.15666081759E+02  0.18630467849E+02  0.51100000000E-03 0.  1.
         12    1    4    4    0    0  0.15780330039E+02 -0.94685175520E+01 -0.14140064380E+02  0.23208038725E+02  0.00000000000E+00 0. -1.
</event>
<event>
 8    1  0.1253488E-006  0.9118800E+02  0.7816164E-02  0.1184000E+00
        -11   -1    0    0    0    0  0.00000000000E+00  0.00000000000E+00  0.45593999997E+02  0.45594000000E+02  0.51100000000E-03 0.  1.
         11   -1    0    0    0    0 -0.00000000000E+00 -0.00000000000E+00 -0.45593999997E+02  0.45594000000E+02  0.51100000000E-03 0. -1.
         23    2    1    2    0    0  0.17763568394E-14 -0.35527136788E-14  0.00000000000E+00  0.91188000000E+02  0.91188000000E+02 0.  0.
    9900012    2    3    3    0    0 -0.83802182430E+01  0.29841230460E+02 -0.19875934993E+02  0.54367083594E+02  0.39999998669E+02 0.  0.
        -12    1    3    3    0    0  0.83802182430E+01 -0.29841230460E+02  0.19875934993E+02  0.36820916406E+02  0.00000000000E+00 0.  1.
         11    1    4    4    0    0  0.36239344936E+01  0.49836316154E+01 -0.13829758253E+02  0.15140399562E+02  0.51100000000E-03 0. -1.
        -11    1    4    4    0    0 -0.41286990566E+00 -0.41696372077E+01  0.45859192852E+01  0.62118428791E+01  0.51100000000E-03 0.  1.
         12    1    4    4    0    0 -0.11591282831E+02  0.29027236052E+02 -0.10632096025E+02  0.33014841153E+02  0.00000000000E+00 0. -1.
</event>
<event>
 8    1  0.1253488E-006  0.9118800E+02  0.7816164E-02  0.1184000E+00
        -11   -1    0    0    0    0  0.00000000000E+00  0.00000000000E+00  0.45593999997E+02  0.45594000000E+02  0.51100000000E-03 0.  1.
         11   -1    0    0    0    0 -0.00000000000E+00 -0.00000000000E+00 -0.45593999997E+02  0.45594000000E+02  0.51100000000E-03 0. -1.
         23    2    1    2    0    0  0.22204460493E-15  0.00000000000E+00  0.00000000000E+00  0.91188000000E+02  0.91188000000E+02 0.  0.
    9900012    2    3    3    0    0  0.19528721423E+01 -0.26373149432E+02  0.25620712369E+02  0.54367114312E+02  0.40000068697E+02 0.  0.
         12    1    3    3    0    0 -0.19528721423E+01  0.26373149432E+02 -0.25620712369E+02  0.36820885688E+02  0.00000000000E+00 0. -1.
         11    1    4    4    0    0  0.32561680373E+01 -0.26015630227E+01  0.10823465410E+02  0.11598196592E+02  0.51100000000E-03 0. -1.
        -11    1    4    4    0    0  0.32607751979E+01 -0.27949801741E+02  0.20131627744E+02  0.34599226987E+02  0.51100000000E-03 0.  1.
         12    1    4    4    0    0 -0.45640710928E+01  0.41782153316E+01 -0.53343807851E+01  0.81696907321E+01  0.00000000000E+00 0. -1.
</event>
<event>
 8    1  0.1253488E-006  0.9118800E+02  0.7816164E-02  0.1184000E+00
        -11   -1    0    0    0    0  0.00000000000E+00  0.00000000000E+00  0.45593999997E+02  0.45594000000E+02  0.51100000000E-03 0. -1.
         11   -1    0    0    0    0 -0.00000000000E+00 -0.00000000000E+00 -0.45593999997E+02  0.45594000000E+02  0.51100000000E-03 0.  1.
         23    2    1    2    0    0  0.00000000000E+00 -0.53290705182E-14 -0.35527136788E-14  0.91188000000E+02  0.91188000000E+02 0.  0.
    9900012    2    3    3    0    0 -0.25293766720E+02 -0.10798187679E+02  0.24482730320E+02  0.54367087791E+02  0.40000008236E+02 0.  0.
        -12    1    3    3    0    0  0.25293766720E+02  0.10798187679E+02 -0.24482730320E+02  0.36820912209E+02  0.00000000000E+00 0.  1.
         11    1    4    4    0    0  0.23163584931E+01 -0.27842344640E+01  0.65648277857E+00  0.36808216635E+01  0.51100000000E-03 0. -1.
        -11    1    4    4    0    0 -0.56938877432E+01  0.13112382001E+02  0.74559775538E+01  0.16122857095E+02  0.51100000000E-03 0.  1.
        -12    1    4    4    0    0 -0.21916237470E+02 -0.21126335215E+02  0.16370269987E+02  0.34563409032E+02  0.00000000000E+00 0.  1.
</event>
<event>
 8    1  0.1253488E-006  0.9118800E+02  0.7816164E-02  0.1184000E+00
        -11   -1    0    0    0    0  0.00000000000E+00  0.00000000000E+00  0.45593999997E+02  0.45594000000E+02  0.51100000000E-03 0.  1.
         11   -1    0    0    0    0 -0.00000000000E+00 -0.00000000000E+00 -0.45593999997E+02  0.45594000000E+02  0.51100000000E-03 0. -1.
         23    2    1    2    0    0 -0.17763568394E-14  0.00000000000E+00  0.00000000000E+00  0.91188000000E+02  0.91188000000E+02 0.  0.
    9900012    2    3    3    0    0  0.25500834787E+01  0.32037141350E+02  0.17969400818E+02  0.54367072291E+02  0.39999972901E+02 0.  0.
         12    1    3    3    0    0 -0.25500834787E+01 -0.32037141350E+02 -0.17969400818E+02  0.36820927709E+02  0.00000000000E+00 0. -1.
         11    1    4    4    0    0 -0.54642630417E+01  0.33607305585E+01  0.77815580578E+01  0.10084905877E+02  0.51100000000E-03 0. -1.
        -11    1    4    4    0    0 -0.75673923357E+01  0.65227017418E+01  0.13715910354E+02  0.16968714208E+02  0.51100000000E-03 0.  1.
         12    1    4    4    0    0  0.15581738856E+02  0.22153709050E+02 -0.35280675940E+01  0.27313452206E+02  0.00000000000E+00 0. -1.
</event>
<event>
 8    1  0.1253488E-006  0.9118800E+02  0.7816164E-02  0.1184000E+00
        -11   -1    0    0    0    0  0.00000000000E+00  0.00000000000E+00  0.45593999997E+02  0.45594000000E+02  0.51100000000E-03 0. -1.
         11   -1    0    0    0    0 -0.00000000000E+00 -0.00000000000E+00 -0.45593999997E+02  0.45594000000E+02  0.51100000000E-03 0.  1.
         23    2    1    2    0    0 -0.14432899320E-14  0.71054273576E-14  0.00000000000E+00  0.91188000000E+02  0.91188000000E+02 0.  0.
    9900012    2    3    3    0    0  0.54082161619E+00  0.34987857300E+02 -0.11460217055E+02  0.54367092604E+02  0.40000019210E+02 0.  0.
         12    1    3    3    0    0 -0.54082161619E+00 -0.34987857300E+02  0.11460217055E+02  0.36820907396E+02  0.00000000000E+00 0. -1.
         11    1    4    4    0    0  0.13020160640E+02  0.15973934291E+00 -0.18745057434E+01  0.13155374255E+02  0.51100000000E-03 0. -1.
        -11    1    4    4    0    0 -0.15599751903E+02  0.22641723216E+02 -0.62341774108E+01  0.28193347759E+02  0.51100000000E-03 0.  1.
         12    1    4    4    0    0  0.31204128790E+01  0.12186394741E+02 -0.33515339013E+01  0.13018370590E+02  0.00000000000E+00 0. -1.
</event>
<event>
 8    1  0.1253488E-006  0.9118800E+02  0.7816164E-02  0.1184000E+00
        -11   -1    0    0    0    0  0.00000000000E+00  0.00000000000E+00  0.45593999997E+02  0.45594000000E+02  0.51100000000E-03 0.  1.
         11   -1    0    0    0    0 -0.00000000000E+00 -0.00000000000E+00 -0.45593999997E+02  0.45594000000E+02  0.51100000000E-03 0. -1.
         23    2    1    2    0    0  0.26645352591E-14  0.35527136788E-14  0.35527136788E-14  0.91188000000E+02  0.91188000000E+02 0.  0.
    9900012    2    3    3    0    0 -0.57193621261E+01  0.21263095121E+02 -0.29511848417E+02  0.54367088628E+02  0.40000010145E+02 0.  0.
        -12    1    3    3    0    0  0.57193621261E+01 -0.21263095121E+02  0.29511848417E+02  0.36820911372E+02  0.00000000000E+00 0.  1.
         11    1    4    4    0    0 -0.11817364801E+02  0.37437781089E+01 -0.96061544636E+01  0.15682607857E+02  0.51100000000E-03 0. -1.
        -11    1    4    4    0    0  0.12649186468E+02  0.91817252683E+01 -0.22845774701E+02  0.27680957699E+02  0.51100000000E-03 0.  1.
         12    1    4    4    0    0 -0.65511837926E+01  0.83375917442E+01  0.29400807477E+01  0.11003523071E+02  0.00000000000E+00 0. -1.
</event>
<event>
 8    1  0.1253488E-006  0.9118800E+02  0.7816164E-02  0.1184000E+00
        -11   -1    0    0    0    0  0.00000000000E+00  0.00000000000E+00  0.45593999997E+02  0.45594000000E+02  0.51100000000E-03 0.  1.
         11   -1    0    0    0    0 -0.00000000000E+00 -0.00000000000E+00 -0.45593999997E+02  0.45594000000E+02  0.51100000000E-03 0. -1.
         23    2    1    2    0    0  0.35527136788E-14 -0.17763568394E-14 -0.35527136788E-14  0.91188000000E+02  0.91188000000E+02 0.  0.
    9900012    2    3    3    0    0 -0.25808933854E+02  0.11107397640E+02  0.23797186435E+02  0.54367062597E+02  0.39999950802E+02 0.  0.
         12    1    3    3    0    0  0.25808933854E+02 -0.11107397640E+02 -0.23797186435E+02  0.36820937403E+02  0.00000000000E+00 0. -1.
         11    1    4    4    0    0 -0.14852869020E+02  0.43234511320E+01 -0.25137719674E+00  0.15471365116E+02  0.51100000000E-03 0. -1.
        -11    1    4    4    0    0 -0.18032493270E+02  0.11235937317E+02  0.21325412485E+02  0.30102995180E+02  0.51100000000E-03 0.  1.
        -12    1    4    4    0    0  0.70764284362E+01 -0.44519908083E+01  0.27231511474E+01  0.87927023003E+01  0.00000000000E+00 0.  1.
</event>
<event>
 8    1  0.1253488E-006  0.9118800E+02  0.7816164E-02  0.1184000E+00
        -11   -1    0    0    0    0  0.00000000000E+00  0.00000000000E+00  0.45593999997E+02  0.45594000000E+02  0.51100000000E-03 0. -1.
         11   -1    0    0    0    0 -0.00000000000E+00 -0.00000000000E+00 -0.45593999997E+02  0.45594000000E+02  0.51100000000E-03 0.  1.
         23    2    1    2    0    0  0.00000000000E+00 -0.35527136788E-14  0.00000000000E+00  0.91188000000E+02  0.91188000000E+02 0.  0.
    9900012    2    3    3    0    0  0.61550542658E+01 -0.24279999528E+02 -0.26988438074E+02  0.54367097516E+02  0.40000030407E+02 0.  0.
         12    1    3    3    0    0 -0.61550542658E+01  0.24279999528E+02  0.26988438074E+02  0.36820902484E+02  0.00000000000E+00 0. -1.
         11    1    4    4    0    0 -0.83963187490E+00  0.74387740541E+01 -0.51635922904E+01  0.90941204476E+01  0.51100000000E-03 0. -1.
        -11    1    4    4    0    0 -0.48025324254E+01 -0.22673613844E+02 -0.19371555065E+02  0.30206195198E+02  0.51100000000E-03 0.  1.
        -12    1    4    4    0    0  0.11797218566E+02 -0.90451597378E+01 -0.24532907187E+01  0.15066781870E+02  0.00000000000E+00 0.  1.
</event>
<event>
 8    1  0.1253488E-006  0.9118800E+02  0.7816164E-02  0.1184000E+00
        -11   -1    0    0    0    0  0.00000000000E+00  0.00000000000E+00  0.45593999997E+02  0.45594000000E+02  0.51100000000E-03 0.  1.
         11   -1    0    0    0    0 -0.00000000000E+00 -0.00000000000E+00 -0.45593999997E+02  0.45594000000E+02  0.51100000000E-03 0. -1.
         23    2    1    2    0    0  0.00000000000E+00  0.00000000000E+00  0.00000000000E+00  0.91188000000E+02  0.91188000000E+02 0.  0.
    9900012    2    3    3    0    0 -0.31808406679E+01  0.16442161310E+02  0.32792035166E+02  0.54367082219E+02  0.39999995535E+02 0.  0.
         12    1    3    3    0    0  0.31808406679E+01 -0.16442161310E+02 -0.32792035166E+02  0.36820917781E+02  0.00000000000E+00 0. -1.
         11    1    4    4    0    0 -0.33668454597E+01  0.34239257639E+01  0.37374761275E+00  0.48164928657E+01  0.51100000000E-03 0. -1.
        -11    1    4    4    0    0  0.17498913659E+01  0.78779061989E+01 -0.64387675283E+01  0.10323819711E+02  0.51100000000E-03 0.  1.
        -12    1    4    4    0    0 -0.15638865741E+01  0.51403293469E+01  0.38857055082E+02  0.39226769643E+02  0.00000000000E+00 0.  1.
</event>
<event>
 8    1  0.1253488E-006  0.9118800E+02  0.7816164E-02  0.1184000E+00
        -11   -1    0    0    0    0  0.00000000000E+00  0.00000000000E+00  0.45593999997E+02  0.45594000000E+02  0.51100000000E-03 0. -1.
         11   -1    0    0    0    0 -0.00000000000E+00 -0.00000000000E+00 -0.45593999997E+02  0.45594000000E+02  0.51100000000E-03 0.  1.
         23    2    1    2    0    0  0.00000000000E+00  0.00000000000E+00 -0.88817841970E-15  0.91188000000E+02  0.91188000000E+02 0.  0.
    9900012    2    3    3    0    0 -0.12540450304E+02  0.34190499031E+02  0.54338376767E+01  0.54367085974E+02  0.40000004095E+02 0.  0.
        -12    1    3    3    0    0  0.12540450304E+02 -0.34190499031E+02 -0.54338376767E+01  0.36820914026E+02  0.00000000000E+00 0.  1.
         11    1    4    4    0    0 -0.69494495769E+01  0.25379616322E+02 -0.56133423446E+01  0.26905935899E+02  0.51100000000E-03 0. -1.
        -11    1    4    4    0    0 -0.13374978163E+02 -0.10748793740E-01  0.60150389195E+01  0.14665294060E+02  0.51100000000E-03 0.  1.
        -12    1    4    4    0    0  0.77839774359E+01  0.88216315025E+01  0.50321411018E+01  0.12795856015E+02  0.00000000000E+00 0.  1.
</event>
<event>
 8    1  0.1253488E-006  0.9118800E+02  0.7816164E-02  0.1184000E+00
        -11   -1    0    0    0    0  0.00000000000E+00  0.00000000000E+00  0.45593999997E+02  0.45594000000E+02  0.51100000000E-03 0. -1.
         11   -1    0    0    0    0 -0.00000000000E+00 -0.00000000000E+00 -0.45593999997E+02  0.45594000000E+02  0.51100000000E-03 0.  1.
         23    2    1    2    0    0 -0.35527136788E-14 -0.17763568394E-14  0.35527136788E-14  0.91188000000E+02  0.91188000000E+02 0.  0.
    9900012    2    3    3    0    0 -0.29964606331E+02 -0.98379817280E+01  0.19003060425E+02  0.54367084441E+02  0.40000000601E+02 0.  0.
        -12    1    3    3    0    0  0.29964606331E+02  0.98379817280E+01 -0.19003060425E+02  0.36820915559E+02  0.00000000000E+00 0.  1.
         11    1    4    4    0    0  0.62320208874E+01  0.22068212403E+00 -0.27510698605E+01  0.68158030033E+01  0.51100000000E-03 0. -1.
        -11    1    4    4    0    0 -0.14119232373E+02 -0.46417584060E+01 -0.16143221524E+01  0.14950072915E+02  0.51100000000E-03 0.  1.
         12    1    4    4    0    0 -0.22077394846E+02 -0.54169054460E+01  0.23368452438E+02  0.32601208523E+02  0.00000000000E+00 0. -1.
</event>
<event>
 8    1  0.1253488E-006  0.9118800E+02  0.7816164E-02  0.1184000E+00
        -11   -1    0    0    0    0  0.00000000000E+00  0.00000000000E+00  0.45593999997E+02  0.45594000000E+02  0.51100000000E-03 0. -1.
         11   -1    0    0    0    0 -0.00000000000E+00 -0.00000000000E+00 -0.45593999997E+02  0.45594000000E+02  0.51100000000E-03 0.  1.
         23    2    1    2    0    0  0.17763568394E-14 -0.17763568394E-14  0.35527136788E-14  0.91188000000E+02  0.91188000000E+02 0.  0.
    9900012    2    3    3    0    0  0.11816177310E+02  0.15716484411E+02 -0.31131176327E+02  0.54367081109E+02  0.39999993005E+02 0.  0.
         12    1    3    3    0    0 -0.11816177310E+02 -0.15716484411E+02  0.31131176327E+02  0.36820918891E+02  0.00000000000E+00 0. -1.
         11    1    4    4    0    0  0.38795238340E+01 -0.20039251553E+01 -0.70500185210E+01  0.82927186504E+01  0.51100000000E-03 0. -1.
        -11    1    4    4    0    0  0.34892055556E+01 -0.10255719046E+02 -0.83046242561E+01  0.13649949188E+02  0.51100000000E-03 0.  1.
         12    1    4    4    0    0  0.44474479200E+01  0.27976128612E+02 -0.15776533550E+02  0.32424413271E+02  0.00000000000E+00 0. -1.
</event>
<event>
 8    1  0.1253488E-006  0.9118800E+02  0.7816164E-02  0.1184000E+00
        -11   -1    0    0    0    0  0.00000000000E+00  0.00000000000E+00  0.45593999997E+02  0.45594000000E+02  0.51100000000E-03 0.  1.
         11   -1    0    0    0    0 -0.00000000000E+00 -0.00000000000E+00 -0.45593999997E+02  0.45594000000E+02  0.51100000000E-03 0. -1.
         23    2    1    2    0    0  0.00000000000E+00  0.00000000000E+00 -0.35527136788E-14  0.91188000000E+02  0.91188000000E+02 0.  0.
    9900012    2    3    3    0    0 -0.53579606437E+01  0.17891728620E+02 -0.31732596921E+02  0.54367090144E+02  0.40000013602E+02 0.  0.
        -12    1    3    3    0    0  0.53579606437E+01 -0.17891728620E+02  0.31732596921E+02  0.36820909856E+02  0.00000000000E+00 0.  1.
         11    1    4    4    0    0 -0.10858274847E+02  0.53157409181E+01 -0.89143834183E+01  0.15020834403E+02  0.51100000000E-03 0. -1.
        -11    1    4    4    0    0 -0.81241235980E+01  0.10384584396E+02 -0.60886391653E+00  0.13198927715E+02  0.51100000000E-03 0.  1.
        -12    1    4    4    0    0  0.13624437802E+02  0.21914033061E+01 -0.22209349586E+02  0.26147328026E+02  0.00000000000E+00 0.  1.
</event>
<event>
 8    1  0.1253488E-006  0.9118800E+02  0.7816164E-02  0.1184000E+00
        -11   -1    0    0    0    0  0.00000000000E+00  0.00000000000E+00  0.45593999997E+02  0.45594000000E+02  0.51100000000E-03 0. -1.
         11   -1    0    0    0    0 -0.00000000000E+00 -0.00000000000E+00 -0.45593999997E+02  0.45594000000E+02  0.51100000000E-03 0.  1.
         23    2    1    2    0    0 -0.86042284408E-15  0.71054273576E-14  0.00000000000E+00  0.91188000000E+02  0.91188000000E+02 0.  0.
    9900012    2    3    3    0    0  0.22460993257E+00  0.36725104768E+02  0.26450169812E+01  0.54367083598E+02  0.39999998678E+02 0.  0.
         12    1    3    3    0    0 -0.22460993257E+00 -0.36725104768E+02 -0.26450169812E+01  0.36820916402E+02  0.00000000000E+00 0. -1.
         11    1    4    4    0    0 -0.12315103520E+01  0.23152213359E+02 -0.16827368009E+02  0.28647895482E+02  0.51100000000E-03 0.  1.
        -11    1    4    4    0    0  0.53372116796E+01  0.97350860690E+01  0.10913237857E+02  0.15567802994E+02  0.51100000000E-03 0. -1.
        -12    1    4    4    0    0 -0.38810913951E+01  0.38378053398E+01  0.85591471329E+01  0.10151385121E+02  0.00000000000E+00 0.  1.
</event>
<event>
 8    1  0.1253488E-006  0.9118800E+02  0.7816164E-02  0.1184000E+00
        -11   -1    0    0    0    0  0.00000000000E+00  0.00000000000E+00  0.45593999997E+02  0.45594000000E+02  0.51100000000E-03 0.  1.
         11   -1    0    0    0    0 -0.00000000000E+00 -0.00000000000E+00 -0.45593999997E+02  0.45594000000E+02  0.51100000000E-03 0. -1.
         23    2    1    2    0    0  0.00000000000E+00 -0.44408920985E-15  0.00000000000E+00  0.91188000000E+02  0.91188000000E+02 0.  0.
    9900012    2    3    3    0    0 -0.25237915284E+02  0.13237671428E+01 -0.26778156462E+02  0.54367158200E+02  0.40000168749E+02 0.  0.
        -12    1    3    3    0    0  0.25237915284E+02 -0.13237671428E+01  0.26778156462E+02  0.36820841800E+02  0.00000000000E+00 0.  1.
         11    1    4    4    0    0 -0.44021065459E+01  0.74605298786E+01 -0.53205427219E+01  0.10165934449E+02  0.51100000000E-03 0.  1.
        -11    1    4    4    0    0 -0.61794436423E+01 -0.24092906127E+01 -0.27220939513E+02  0.28017311671E+02  0.51100000000E-03 0. -1.
        -12    1    4    4    0    0 -0.14656365096E+02 -0.37274721230E+01  0.57633257738E+01  0.16183912081E+02  0.00000000000E+00 0.  1.
</event>
<event>
 8    1  0.1253488E-006  0.9118800E+02  0.7816164E-02  0.1184000E+00
        -11   -1    0    0    0    0  0.00000000000E+00  0.00000000000E+00  0.45593999997E+02  0.45594000000E+02  0.51100000000E-03 0.  1.
         11   -1    0    0    0    0 -0.00000000000E+00 -0.00000000000E+00 -0.45593999997E+02  0.45594000000E+02  0.51100000000E-03 0. -1.
         23    2    1    2    0    0 -0.15543122345E-14  0.17763568394E-14 -0.71054273576E-14  0.91188000000E+02  0.91188000000E+02 0.  0.
    9900012    2    3    3    0    0  0.89743497337E+00 -0.15892594430E+02  0.33202398523E+02  0.54367092693E+02  0.40000019412E+02 0.  0.
         12    1    3    3    0    0 -0.89743497337E+00  0.15892594430E+02 -0.33202398523E+02  0.36820907307E+02  0.00000000000E+00 0. -1.
         11    1    4    4    0    0 -0.31940327090E+01 -0.15385610068E+02  0.12341416764E+01  0.15762041366E+02  0.51100000000E-03 0. -1.
        -11    1    4    4    0    0 -0.53136368285E+01 -0.54861405791E+01  0.38762195237E+01  0.85649023845E+01  0.51100000000E-03 0.  1.
        -12    1    4    4    0    0  0.94051045109E+01  0.49791562172E+01  0.28092037323E+02  0.30040148942E+02  0.00000000000E+00 0.  1.
</event>
<event>
 8    1  0.1253488E-006  0.9118800E+02  0.7816164E-02  0.1184000E+00
        -11   -1    0    0    0    0  0.00000000000E+00  0.00000000000E+00  0.45593999997E+02  0.45594000000E+02  0.51100000000E-03 0.  1.
         11   -1    0    0    0    0 -0.00000000000E+00 -0.00000000000E+00 -0.45593999997E+02  0.45594000000E+02  0.51100000000E-03 0. -1.
         23    2    1    2    0    0  0.00000000000E+00 -0.35527136788E-14  0.00000000000E+00  0.91188000000E+02  0.91188000000E+02 0.  0.
    9900012    2    3    3    0    0 -0.17195659938E+02 -0.23008930540E+02  0.23036425478E+02  0.54367102345E+02  0.40000041416E+02 0.  0.
         12    1    3    3    0    0  0.17195659938E+02  0.23008930540E+02 -0.23036425478E+02  0.36820897655E+02  0.00000000000E+00 0. -1.
         11    1    4    4    0    0  0.32562714433E+00 -0.61186709060E+01  0.23103264270E+02  0.23901987091E+02  0.51100000000E-03 0. -1.
        -11    1    4    4    0    0 -0.84959187689E+01  0.26741262756E+01 -0.41482249498E+00  0.89164827723E+01  0.51100000000E-03 0.  1.
         12    1    4    4    0    0 -0.90253683136E+01 -0.19564385909E+02  0.34798370333E+00  0.21548632482E+02  0.00000000000E+00 0. -1.
</event>
<event>
 8    1  0.1253488E-006  0.9118800E+02  0.7816164E-02  0.1184000E+00
        -11   -1    0    0    0    0  0.00000000000E+00  0.00000000000E+00  0.45593999997E+02  0.45594000000E+02  0.51100000000E-03 0. -1.
         11   -1    0    0    0    0 -0.00000000000E+00 -0.00000000000E+00 -0.45593999997E+02  0.45594000000E+02  0.51100000000E-03 0.  1.
         23    2    1    2    0    0  0.00000000000E+00 -0.71054273576E-14 -0.17763568394E-14  0.91188000000E+02  0.91188000000E+02 0.  0.
    9900012    2    3    3    0    0  0.19279215028E+02  0.30022894525E+02  0.90949572914E+01  0.54367074212E+02  0.39999977282E+02 0.  0.
        -12    1    3    3    0    0 -0.19279215028E+02 -0.30022894525E+02 -0.90949572914E+01  0.36820925788E+02  0.00000000000E+00 0.  1.
         11    1    4    4    0    0  0.11331367584E+02  0.51129878777E+01  0.15847469595E+02  0.20141619329E+02  0.51100000000E-03 0. -1.
        -11    1    4    4    0    0  0.13388782280E+02  0.20411266802E+02 -0.10093322399E+02  0.26415042319E+02  0.51100000000E-03 0.  1.
         12    1    4    4    0    0 -0.54409348354E+01  0.44986398449E+01  0.33408100948E+01  0.78104125645E+01  0.00000000000E+00 0. -1.
</event>
<event>
 8    1  0.1253488E-006  0.9118800E+02  0.7816164E-02  0.1184000E+00
        -11   -1    0    0    0    0  0.00000000000E+00  0.00000000000E+00  0.45593999997E+02  0.45594000000E+02  0.51100000000E-03 0.  1.
         11   -1    0    0    0    0 -0.00000000000E+00 -0.00000000000E+00 -0.45593999997E+02  0.45594000000E+02  0.51100000000E-03 0. -1.
         23    2    1    2    0    0  0.00000000000E+00  0.00000000000E+00  0.35527136788E-14  0.91188000000E+02  0.91188000000E+02 0.  0.
    9900012    2    3    3    0    0  0.62809447272E+01  0.29834904666E+02 -0.20644823308E+02  0.54367074801E+02  0.39999978624E+02 0.  0.
         12    1    3    3    0    0 -0.62809447272E+01 -0.29834904666E+02  0.20644823308E+02  0.36820925199E+02  0.00000000000E+00 0. -1.
         11    1    4    4    0    0  0.15234601477E+01  0.87854008427E+01 -0.15226591648E+02  0.17645205929E+02  0.51100000000E-03 0. -1.
        -11    1    4    4    0    0  0.30169171029E+01 -0.38734375961E+01  0.72139984704E+01  0.87262295299E+01  0.51100000000E-03 0.  1.
        -12    1    4    4    0    0  0.17405674765E+01  0.24922941419E+02 -0.12632230130E+02  0.27995639342E+02  0.00000000000E+00 0.  1.
</event>
<event>
 8    1  0.1253488E-006  0.9118800E+02  0.7816164E-02  0.1184000E+00
        -11   -1    0    0    0    0  0.00000000000E+00  0.00000000000E+00  0.45593999997E+02  0.45594000000E+02  0.51100000000E-03 0.  1.
         11   -1    0    0    0    0 -0.00000000000E+00 -0.00000000000E+00 -0.45593999997E+02  0.45594000000E+02  0.51100000000E-03 0. -1.
         23    2    1    2    0    0  0.35527136788E-14 -0.35527136788E-14 -0.17763568394E-14  0.91188000000E+02  0.91188000000E+02 0.  0.
    9900012    2    3    3    0    0  0.26857300260E+02 -0.22561949858E+02 -0.11199255367E+02  0.54367089101E+02  0.40000011224E+02 0.  0.
         12    1    3    3    0    0 -0.26857300260E+02  0.22561949858E+02  0.11199255367E+02  0.36820910899E+02  0.00000000000E+00 0. -1.
         11    1    4    4    0    0  0.15670667954E+02 -0.20424651733E+01 -0.11404643934E+02  0.19488648019E+02  0.51100000000E-03 0. -1.
        -11    1    4    4    0    0 -0.41867457056E+00 -0.24452869688E+01 -0.10563405079E+02  0.10850817659E+02  0.51100000000E-03 0.  1.
        -12    1    4    4    0    0  0.11605306877E+02 -0.18074197716E+02  0.10768793646E+02  0.24027623423E+02  0.00000000000E+00 0.  1.
</event>
<event>
 8    1  0.1253488E-006  0.9118800E+02  0.7816164E-02  0.1184000E+00
        -11   -1    0    0    0    0  0.00000000000E+00  0.00000000000E+00  0.45593999997E+02  0.45594000000E+02  0.51100000000E-03 0.  1.
         11   -1    0    0    0    0 -0.00000000000E+00 -0.00000000000E+00 -0.45593999997E+02  0.45594000000E+02  0.51100000000E-03 0. -1.
         23    2    1    2    0    0  0.00000000000E+00  0.00000000000E+00  0.00000000000E+00  0.91188000000E+02  0.91188000000E+02 0.  0.
    9900012    2    3    3    0    0 -0.76768302642E+01 -0.64703999456E+01 -0.35425641739E+02  0.54367137830E+02  0.40000122311E+02 0.  0.
        -12    1    3    3    0    0  0.76768302642E+01  0.64703999456E+01  0.35425641739E+02  0.36820862170E+02  0.00000000000E+00 0.  1.
         11    1    4    4    0    0 -0.22845222722E+00  0.12854722094E+02 -0.19624636718E+02  0.23461083459E+02  0.51100000000E-03 0. -1.
        -11    1    4    4    0    0 -0.90298760788E+01 -0.21814536121E+02 -0.13909131141E+02  0.27402127244E+02  0.51100000000E-03 0.  1.
        -12    1    4    4    0    0  0.15814980419E+01  0.24894140815E+01 -0.18918738804E+01  0.35039271261E+01  0.00000000000E+00 0.  1.
</event>
<event>
 8    1  0.1253488E-006  0.9118800E+02  0.7816164E-02  0.1184000E+00
        -11   -1    0    0    0    0  0.00000000000E+00  0.00000000000E+00  0.45593999997E+02  0.45594000000E+02  0.51100000000E-03 0.  1.
         11   -1    0    0    0    0 -0.00000000000E+00 -0.00000000000E+00 -0.45593999997E+02  0.45594000000E+02  0.51100000000E-03 0. -1.
         23    2    1    2    0    0  0.35527136788E-14  0.00000000000E+00  0.00000000000E+00  0.91188000000E+02  0.91188000000E+02 0.  0.
    9900012    2    3    3    0    0  0.94315848488E+01  0.18013340726E+02  0.30697646228E+02  0.54367072244E+02  0.39999972794E+02 0.  0.
         12    1    3    3    0    0 -0.94315848488E+01 -0.18013340726E+02 -0.30697646228E+02  0.36820927756E+02  0.00000000000E+00 0. -1.
         11    1    4    4    0    0  0.97258382059E+01  0.44515358831E+01 -0.37710115942E+01  0.11341456222E+02  0.51100000000E-03 0. -1.
        -11    1    4    4    0    0 -0.53364691510E+01  0.14819279659E+02  0.34393317881E+02  0.37828418784E+02  0.51100000000E-03 0.  1.
        -12    1    4    4    0    0  0.50422157939E+01 -0.12574748155E+01  0.75339941697E-01  0.51971972380E+01  0.00000000000E+00 0.  1.
</event>
<event>
 8    1  0.1253488E-006  0.9118800E+02  0.7816164E-02  0.1184000E+00
        -11   -1    0    0    0    0  0.00000000000E+00  0.00000000000E+00  0.45593999997E+02  0.45594000000E+02  0.51100000000E-03 0. -1.
         11   -1    0    0    0    0 -0.00000000000E+00 -0.00000000000E+00 -0.45593999997E+02  0.45594000000E+02  0.51100000000E-03 0.  1.
         23    2    1    2    0    0  0.35527136788E-14  0.13322676296E-14 -0.35527136788E-14  0.91188000000E+02  0.91188000000E+02 0.  0.
    9900012    2    3    3    0    0  0.26697964309E+02  0.24869392693E+01 -0.25235155828E+02  0.54367092151E+02  0.40000018177E+02 0.  0.
         12    1    3    3    0    0 -0.26697964309E+02 -0.24869392693E+01  0.25235155828E+02  0.36820907849E+02  0.00000000000E+00 0. -1.
         11    1    4    4    0    0 -0.59660259825E+01  0.18422631314E+01 -0.64909229355E+01  0.90066353476E+01  0.51100000000E-03 0. -1.
        -11    1    4    4    0    0  0.11547071649E+02 -0.79475919684E+01  0.24526266326E+01  0.14230757514E+02  0.51100000000E-03 0.  1.
        -12    1    4    4    0    0  0.21116918642E+02  0.85922681063E+01 -0.21196859525E+02  0.31129699290E+02  0.00000000000E+00 0.  1.
</event>
<event>
 8    1  0.1253488E-006  0.9118800E+02  0.7816164E-02  0.1184000E+00
        -11   -1    0    0    0    0  0.00000000000E+00  0.00000000000E+00  0.45593999997E+02  0.45594000000E+02  0.51100000000E-03 0.  1.
         11   -1    0    0    0    0 -0.00000000000E+00 -0.00000000000E+00 -0.45593999997E+02  0.45594000000E+02  0.51100000000E-03 0. -1.
         23    2    1    2    0    0 -0.35527136788E-14  0.00000000000E+00  0.35527136788E-14  0.91188000000E+02  0.91188000000E+02 0.  0.
    9900012    2    3    3    0    0  0.18215634468E+02 -0.24576379279E+02 -0.20493232909E+02  0.54367077244E+02  0.39999984193E+02 0.  0.
        -12    1    3    3    0    0 -0.18215634468E+02  0.24576379279E+02  0.20493232909E+02  0.36820922756E+02  0.00000000000E+00 0.  1.
         11    1    4    4    0    0 -0.90486202827E+01 -0.79315746826E+01 -0.16472579463E+01  0.12144993412E+02  0.51100000000E-03 0. -1.
        -11    1    4    4    0    0  0.55217675160E+01  0.31671518375E+01  0.13937663606E+01  0.65163910404E+01  0.51100000000E-03 0.  1.
         12    1    4    4    0    0  0.21742487235E+02 -0.19811956434E+02 -0.20239741323E+02  0.35705692792E+02  0.00000000000E+00 0. -1.
</event>
<event>
 8    1  0.1253488E-006  0.9118800E+02  0.7816164E-02  0.1184000E+00
        -11   -1    0    0    0    0  0.00000000000E+00  0.00000000000E+00  0.45593999997E+02  0.45594000000E+02  0.51100000000E-03 0.  1.
         11   -1    0    0    0    0 -0.00000000000E+00 -0.00000000000E+00 -0.45593999997E+02  0.45594000000E+02  0.51100000000E-03 0. -1.
         23    2    1    2    0    0 -0.35527136788E-14  0.00000000000E+00  0.00000000000E+00  0.91188000000E+02  0.91188000000E+02 0.  0.
    9900012    2    3    3    0    0 -0.25189714496E+02  0.22581326187E+02 -0.14537631988E+02  0.54367071812E+02  0.39999971811E+02 0.  0.
         12    1    3    3    0    0  0.25189714496E+02 -0.22581326187E+02  0.14537631988E+02  0.36820928188E+02  0.00000000000E+00 0. -1.
         11    1    4    4    0    0  0.34433676494E+01 -0.55553630861E+00  0.22023980499E+01  0.41250404592E+01  0.51100000000E-03 0. -1.
        -11    1    4    4    0    0 -0.32517759867E+02  0.20878387536E+02 -0.66698255856E+01  0.39214772045E+02  0.51100000000E-03 0.  1.
        -12    1    4    4    0    0  0.38846777215E+01  0.22584749589E+01 -0.10070204453E+02  0.11027259309E+02  0.00000000000E+00 0.  1.
</event>
<event>
 8    1  0.1253488E-006  0.9118800E+02  0.7816164E-02  0.1184000E+00
        -11   -1    0    0    0    0  0.00000000000E+00  0.00000000000E+00  0.45593999997E+02  0.45594000000E+02  0.51100000000E-03 0. -1.
         11   -1    0    0    0    0 -0.00000000000E+00 -0.00000000000E+00 -0.45593999997E+02  0.45594000000E+02  0.51100000000E-03 0.  1.
         23    2    1    2    0    0  0.00000000000E+00  0.00000000000E+00  0.00000000000E+00  0.91188000000E+02  0.91188000000E+02 0.  0.
    9900012    2    3    3    0    0  0.73999724930E+01  0.95658700020E+01  0.34778033078E+02  0.54367122137E+02  0.40000086536E+02 0.  0.
        -12    1    3    3    0    0 -0.73999724930E+01 -0.95658700020E+01 -0.34778033078E+02  0.36820877863E+02  0.00000000000E+00 0.  1.
         11    1    4    4    0    0 -0.55744407632E+01  0.96397488591E+01  0.17543823799E+01  0.11272843727E+02  0.51100000000E-03 0. -1.
        -11    1    4    4    0    0 -0.39905555536E+01  0.37895193658E+01  0.21576037143E+02  0.22266799719E+02  0.51100000000E-03 0.  1.
        -12    1    4    4    0    0  0.16964968810E+02 -0.38633982229E+01  0.11447613556E+02  0.20827478692E+02  0.00000000000E+00 0.  1.
</event>
<event>
 8    1  0.1253488E-006  0.9118800E+02  0.7816164E-02  0.1184000E+00
        -11   -1    0    0    0    0  0.00000000000E+00  0.00000000000E+00  0.45593999997E+02  0.45594000000E+02  0.51100000000E-03 0. -1.
         11   -1    0    0    0    0 -0.00000000000E+00 -0.00000000000E+00 -0.45593999997E+02  0.45594000000E+02  0.51100000000E-03 0.  1.
         23    2    1    2    0    0  0.00000000000E+00  0.17763568394E-14 -0.88817841970E-15  0.91188000000E+02  0.91188000000E+02 0.  0.
    9900012    2    3    3    0    0  0.33437165475E+02  0.14555892411E+02  0.50854334103E+01  0.54367086488E+02  0.40000005268E+02 0.  0.
         12    1    3    3    0    0 -0.33437165475E+02 -0.14555892411E+02 -0.50854334103E+01  0.36820913512E+02  0.00000000000E+00 0. -1.
         11    1    4    4    0    0  0.11480843649E+02  0.15107442020E+02 -0.72675392652E+01  0.20318998560E+02  0.51100000000E-03 0. -1.
        -11    1    4    4    0    0  0.13465184372E+02 -0.89501181910E+01 -0.91800542471E+00  0.16194398415E+02  0.51100000000E-03 0.  1.
         12    1    4    4    0    0  0.84911374540E+01  0.83985685823E+01  0.13270978100E+02  0.17853689513E+02  0.00000000000E+00 0. -1.
</event>
<event>
 8    1  0.1253488E-006  0.9118800E+02  0.7816164E-02  0.1184000E+00
        -11   -1    0    0    0    0  0.00000000000E+00  0.00000000000E+00  0.45593999997E+02  0.45594000000E+02  0.51100000000E-03 0.  1.
         11   -1    0    0    0    0 -0.00000000000E+00 -0.00000000000E+00 -0.45593999997E+02  0.45594000000E+02  0.51100000000E-03 0. -1.
         23    2    1    2    0    0  0.00000000000E+00  0.00000000000E+00  0.00000000000E+00  0.91188000000E+02  0.91188000000E+02 0.  0.
    9900012    2    3    3    0    0 -0.34928818646E+02  0.57000759789E+01  0.10161966548E+02  0.54367098296E+02  0.40000032186E+02 0.  0.
         12    1    3    3    0    0  0.34928818646E+02 -0.57000759789E+01 -0.10161966548E+02  0.36820901704E+02  0.00000000000E+00 0. -1.
         11    1    4    4    0    0 -0.59176054629E+01  0.29615739073E+01 -0.96909687076E+01  0.11734728338E+02  0.51100000000E-03 0. -1.
        -11    1    4    4    0    0 -0.19208736289E+02  0.13131595977E+02  0.14258430483E+02  0.27289507193E+02  0.51100000000E-03 0.  1.
        -12    1    4    4    0    0 -0.98024768934E+01 -0.10393093905E+02  0.55945047725E+01  0.15342862765E+02  0.00000000000E+00 0.  1.
</event>
<event>
 8    1  0.1253488E-006  0.9118800E+02  0.7816164E-02  0.1184000E+00
        -11   -1    0    0    0    0  0.00000000000E+00  0.00000000000E+00  0.45593999997E+02  0.45594000000E+02  0.51100000000E-03 0. -1.
         11   -1    0    0    0    0 -0.00000000000E+00 -0.00000000000E+00 -0.45593999997E+02  0.45594000000E+02  0.51100000000E-03 0.  1.
         23    2    1    2    0    0  0.00000000000E+00  0.00000000000E+00  0.00000000000E+00  0.91188000000E+02  0.91188000000E+02 0.  0.
    9900012    2    3    3    0    0 -0.33407667214E+02 -0.10107403942E+02  0.11728091344E+02  0.54367082443E+02  0.39999996046E+02 0.  0.
        -12    1    3    3    0    0  0.33407667214E+02  0.10107403942E+02 -0.11728091344E+02  0.36820917557E+02  0.00000000000E+00 0.  1.
         11    1    4    4    0    0 -0.27403849326E+02 -0.96488285527E+01  0.16732277064E+01  0.29101040214E+02  0.51100000000E-03 0. -1.
        -11    1    4    4    0    0 -0.87359342775E+01  0.79445381858E+01  0.11298511717E+02  0.16342845590E+02  0.51100000000E-03 0.  1.
         12    1    4    4    0    0  0.27321163895E+01 -0.84031135749E+01 -0.12436480796E+01  0.89231966393E+01  0.00000000000E+00 0. -1.
</event>
<event>
 8    1  0.1253488E-006  0.9118800E+02  0.7816164E-02  0.1184000E+00
        -11   -1    0    0    0    0  0.00000000000E+00  0.00000000000E+00  0.45593999997E+02  0.45594000000E+02  0.51100000000E-03 0.  1.
         11   -1    0    0    0    0 -0.00000000000E+00 -0.00000000000E+00 -0.45593999997E+02  0.45594000000E+02  0.51100000000E-03 0. -1.
         23    2    1    2    0    0  0.00000000000E+00 -0.35527136788E-14 -0.35527136788E-14  0.91188000000E+02  0.91188000000E+02 0.  0.
    9900012    2    3    3    0    0 -0.16828180595E+02  0.15912842296E+02  0.28624707481E+02  0.54367080804E+02  0.39999992308E+02 0.  0.
         12    1    3    3    0    0  0.16828180595E+02 -0.15912842296E+02 -0.28624707481E+02  0.36820919196E+02  0.00000000000E+00 0. -1.
         11    1    4    4    0    0 -0.23471092550E+01  0.37214534525E+01  0.12245157616E+02  0.13011611082E+02  0.51100000000E-03 0. -1.
        -11    1    4    4    0    0 -0.22202479242E+02  0.15749666028E+02  0.18088893690E+02  0.32683484204E+02  0.51100000000E-03 0.  1.
        -12    1    4    4    0    0  0.77214079023E+01 -0.35582771848E+01 -0.17093438244E+01  0.86719855182E+01  0.00000000000E+00 0.  1.
</event>
<event>
 8    1  0.1253488E-006  0.9118800E+02  0.7816164E-02  0.1184000E+00
        -11   -1    0    0    0    0  0.00000000000E+00  0.00000000000E+00  0.45593999997E+02  0.45594000000E+02  0.51100000000E-03 0.  1.
         11   -1    0    0    0    0 -0.00000000000E+00 -0.00000000000E+00 -0.45593999997E+02  0.45594000000E+02  0.51100000000E-03 0. -1.
         23    2    1    2    0    0  0.71054273576E-14  0.44408920985E-15  0.00000000000E+00  0.91188000000E+02  0.91188000000E+02 0.  0.
    9900012    2    3    3    0    0  0.36506508042E+02  0.10608800248E+01  0.46828959121E+01  0.54367080539E+02  0.39999991705E+02 0.  0.
         12    1    3    3    0    0 -0.36506508042E+02 -0.10608800248E+01 -0.46828959121E+01  0.36820919461E+02  0.00000000000E+00 0. -1.
         11    1    4    4    0    0  0.16285436664E+02  0.46816026876E+01  0.88156136330E+01  0.19100991991E+02  0.51100000000E-03 0. -1.
        -11    1    4    4    0    0  0.23235890629E+02 -0.27836838334E+01  0.64139555378E+01  0.24265084687E+02  0.51100000000E-03 0.  1.
         12    1    4    4    0    0 -0.30148192504E+01 -0.83703882937E+00 -0.10546673259E+02  0.11001003861E+02  0.00000000000E+00 0. -1.
</event>
<event>
 8    1  0.1253488E-006  0.9118800E+02  0.7816164E-02  0.1184000E+00
        -11   -1    0    0    0    0  0.00000000000E+00  0.00000000000E+00  0.45593999997E+02  0.45594000000E+02  0.51100000000E-03 0. -1.
         11   -1    0    0    0    0 -0.00000000000E+00 -0.00000000000E+00 -0.45593999997E+02  0.45594000000E+02  0.51100000000E-03 0.  1.
         23    2    1    2    0    0 -0.88817841970E-15  0.00000000000E+00  0.17763568394E-14  0.91188000000E+02  0.91188000000E+02 0.  0.
    9900012    2    3    3    0    0  0.32858980385E+01 -0.35562457678E+02  0.89607003671E+01  0.54367086472E+02  0.40000005230E+02 0.  0.
        -12    1    3    3    0    0 -0.32858980385E+01  0.35562457678E+02 -0.89607003671E+01  0.36820913528E+02  0.00000000000E+00 0.  1.
         11    1    4    4    0    0  0.81345867687E+01 -0.13266238311E+02  0.17774318932E+02  0.23623949597E+02  0.51100000000E-03 0. -1.
        -11    1    4    4    0    0  0.65036070710E+01 -0.10160356350E+02 -0.71958336621E+01  0.14046699557E+02  0.51100000000E-03 0.  1.
         12    1    4    4    0    0 -0.11352295801E+02 -0.12135863017E+02 -0.16177849024E+01  0.16696437318E+02  0.00000000000E+00 0. -1.
</event>
<event>
 8    1  0.1253488E-006  0.9118800E+02  0.7816164E-02  0.1184000E+00
        -11   -1    0    0    0    0  0.00000000000E+00  0.00000000000E+00  0.45593999997E+02  0.45594000000E+02  0.51100000000E-03 0.  1.
         11   -1    0    0    0    0 -0.00000000000E+00 -0.00000000000E+00 -0.45593999997E+02  0.45594000000E+02  0.51100000000E-03 0. -1.
         23    2    1    2    0    0  0.00000000000E+00  0.17763568394E-14  0.00000000000E+00  0.91188000000E+02  0.91188000000E+02 0.  0.
    9900012    2    3    3    0    0 -0.15119989789E+02 -0.14028974471E+02 -0.30501714073E+02  0.54367071477E+02  0.39999971047E+02 0.  0.
        -12    1    3    3    0    0  0.15119989789E+02  0.14028974471E+02  0.30501714073E+02  0.36820928523E+02  0.00000000000E+00 0.  1.
         11    1    4    4    0    0 -0.72908381148E+01  0.73474993784E+01 -0.28356510790E+01  0.10732333616E+02  0.51100000000E-03 0. -1.
        -11    1    4    4    0    0 -0.52132837977E+01  0.32649568655E+01  0.43736492001E+00  0.61668111389E+01  0.51100000000E-03 0.  1.
        -12    1    4    4    0    0 -0.26158678762E+01 -0.24641430715E+02 -0.28103427914E+02  0.37467926723E+02  0.00000000000E+00 0.  1.
</event>
<event>
 8    1  0.1253488E-006  0.9118800E+02  0.7816164E-02  0.1184000E+00
        -11   -1    0    0    0    0  0.00000000000E+00  0.00000000000E+00  0.45593999997E+02  0.45594000000E+02  0.51100000000E-03 0.  1.
         11   -1    0    0    0    0 -0.00000000000E+00 -0.00000000000E+00 -0.45593999997E+02  0.45594000000E+02  0.51100000000E-03 0. -1.
         23    2    1    2    0    0 -0.35527136788E-14  0.17763568394E-14  0.35527136788E-14  0.91188000000E+02  0.91188000000E+02 0.  0.
    9900012    2    3    3    0    0 -0.28192694529E+02  0.12167085716E+02  0.20320319005E+02  0.54367063509E+02  0.39999952880E+02 0.  0.
         12    1    3    3    0    0  0.28192694529E+02 -0.12167085716E+02 -0.20320319005E+02  0.36820936491E+02  0.00000000000E+00 0. -1.
         11    1    4    4    0    0  0.32794962632E+01 -0.64743865537E+00  0.31322359605E+01  0.45809578612E+01  0.51100000000E-03 0. -1.
        -11    1    4    4    0    0  0.28804138935E+01  0.67189072876E+01  0.12639966123E+02  0.14601686313E+02  0.51100000000E-03 0.  1.
         12    1    4    4    0    0 -0.34352604686E+02  0.60956170840E+01  0.45481169211E+01  0.35184419334E+02  0.00000000000E+00 0. -1.
</event>
<event>
 8    1  0.1253488E-006  0.9118800E+02  0.7816164E-02  0.1184000E+00
        -11   -1    0    0    0    0  0.00000000000E+00  0.00000000000E+00  0.45593999997E+02  0.45594000000E+02  0.51100000000E-03 0.  1.
         11   -1    0    0    0    0 -0.00000000000E+00 -0.00000000000E+00 -0.45593999997E+02  0.45594000000E+02  0.51100000000E-03 0. -1.
         23    2    1    2    0    0 -0.11102230246E-15  0.00000000000E+00  0.71054273576E-14  0.91188000000E+02  0.91188000000E+02 0.  0.
    9900012    2    3    3    0    0  0.78903844052E+00  0.35350483523E+01  0.36642361597E+02  0.54367057427E+02  0.39999939017E+02 0.  0.
         12    1    3    3    0    0 -0.78903844052E+00 -0.35350483523E+01 -0.36642361597E+02  0.36820942573E+02  0.00000000000E+00 0. -1.
         11    1    4    4    0    0  0.23570698538E+01  0.97618592897E+01  0.36274056232E+02  0.37638501975E+02  0.51100000000E-03 0. -1.
        -11    1    4    4    0    0  0.46921548462E+00  0.38581126416E+01  0.42251030327E+01  0.57407919510E+01  0.51100000000E-03 0.  1.
         12    1    4    4    0    0 -0.20372468979E+01 -0.10084923579E+02 -0.38567976678E+01  0.10987763502E+02  0.00000000000E+00 0. -1.
</event>
<event>
 8    1  0.1253488E-006  0.9118800E+02  0.7816164E-02  0.1184000E+00
        -11   -1    0    0    0    0  0.00000000000E+00  0.00000000000E+00  0.45593999997E+02  0.45594000000E+02  0.51100000000E-03 0.  1.
         11   -1    0    0    0    0 -0.00000000000E+00 -0.00000000000E+00 -0.45593999997E+02  0.45594000000E+02  0.51100000000E-03 0. -1.
         23    2    1    2    0    0  0.00000000000E+00  0.00000000000E+00  0.00000000000E+00  0.91188000000E+02  0.91188000000E+02 0.  0.
    9900012    2    3    3    0    0  0.25104835189E+02 -0.10090452260E+02 -0.24974186099E+02  0.54367082738E+02  0.39999996719E+02 0.  0.
        -12    1    3    3    0    0 -0.25104835189E+02  0.10090452260E+02  0.24974186099E+02  0.36820917262E+02  0.00000000000E+00 0.  1.
         11    1    4    4    0    0 -0.26125352879E+01 -0.80137838451E+01 -0.11618830773E+02  0.14354208475E+02  0.51100000000E-03 0. -1.
        -11    1    4    4    0    0  0.18089815614E+02  0.11167952369E+02 -0.62118636012E+01  0.22148404880E+02  0.51100000000E-03 0.  1.
         12    1    4    4    0    0  0.96275548631E+01 -0.13244620783E+02 -0.71434917241E+01  0.17864469383E+02  0.00000000000E+00 0. -1.
</event>
<event>
 8    1  0.1253488E-006  0.9118800E+02  0.7816164E-02  0.1184000E+00
        -11   -1    0    0    0    0  0.00000000000E+00  0.00000000000E+00  0.45593999997E+02  0.45594000000E+02  0.51100000000E-03 0. -1.
         11   -1    0    0    0    0 -0.00000000000E+00 -0.00000000000E+00 -0.45593999997E+02  0.45594000000E+02  0.51100000000E-03 0.  1.
         23    2    1    2    0    0 -0.17763568394E-14  0.00000000000E+00  0.00000000000E+00  0.91188000000E+02  0.91188000000E+02 0.  0.
    9900012    2    3    3    0    0 -0.10356681364E+02  0.53350708403E+01  0.34929305673E+02  0.54367078983E+02  0.39999988158E+02 0.  0.
        -12    1    3    3    0    0  0.10356681364E+02 -0.53350708403E+01 -0.34929305673E+02  0.36820921017E+02  0.00000000000E+00 0.  1.
         11    1    4    4    0    0  0.17771224780E+01 -0.11752339245E+01  0.20461158644E+02  0.20571785348E+02  0.51100000000E-03 0. -1.
        -11    1    4    4    0    0  0.67491582693E+01  0.82607262112E+01  0.92686973909E+01  0.14131506872E+02  0.51100000000E-03 0.  1.
        -12    1    4    4    0    0 -0.18882962111E+02 -0.17504214465E+01  0.51994496377E+01  0.19663786763E+02  0.00000000000E+00 0.  1.
</event>
<event>
 8    1  0.1253488E-006  0.9118800E+02  0.7816164E-02  0.1184000E+00
        -11   -1    0    0    0    0  0.00000000000E+00  0.00000000000E+00  0.45593999997E+02  0.45594000000E+02  0.51100000000E-03 0.  1.
         11   -1    0    0    0    0 -0.00000000000E+00 -0.00000000000E+00 -0.45593999997E+02  0.45594000000E+02  0.51100000000E-03 0. -1.
         23    2    1    2    0    0  0.17763568394E-14 -0.35527136788E-14  0.35527136788E-14  0.91188000000E+02  0.91188000000E+02 0.  0.
    9900012    2    3    3    0    0  0.11608084849E+02  0.22712134527E+02 -0.26555413745E+02  0.54367099850E+02  0.40000035728E+02 0.  0.
        -12    1    3    3    0    0 -0.11608084849E+02 -0.22712134527E+02  0.26555413745E+02  0.36820900150E+02  0.00000000000E+00 0.  1.
         11    1    4    4    0    0  0.18761998520E+02  0.15618221492E+02 -0.11733001749E+02  0.27085139123E+02  0.51100000000E-03 0. -1.
        -11    1    4    4    0    0  0.70734511985E+01  0.17023774531E+01 -0.24667090118E+01  0.76822167673E+01  0.51100000000E-03 0.  1.
        -12    1    4    4    0    0 -0.14227364869E+02  0.53915355828E+01 -0.12355702985E+02  0.19599743960E+02  0.00000000000E+00 0.  1.
</event>
<event>
 8    1  0.1253488E-006  0.9118800E+02  0.7816164E-02  0.1184000E+00
        -11   -1    0    0    0    0  0.00000000000E+00  0.00000000000E+00  0.45593999997E+02  0.45594000000E+02  0.51100000000E-03 0.  1.
         11   -1    0    0    0    0 -0.00000000000E+00 -0.00000000000E+00 -0.45593999997E+02  0.45594000000E+02  0.51100000000E-03 0. -1.
         23    2    1    2    0    0 -0.88817841970E-15 -0.88817841970E-15  0.00000000000E+00  0.91188000000E+02  0.91188000000E+02 0.  0.
    9900012    2    3    3    0    0  0.66622134662E+01  0.40667902018E+01 -0.35984090295E+02  0.54367100702E+02  0.40000037669E+02 0.  0.
        -12    1    3    3    0    0 -0.66622134662E+01 -0.40667902018E+01  0.35984090295E+02  0.36820899298E+02  0.00000000000E+00 0.  1.
         11    1    4    4    0    0 -0.99759357588E+01  0.48206012135E+01 -0.67594983830E+01  0.12978763769E+02  0.51100000000E-03 0. -1.
        -11    1    4    4    0    0 -0.18235905870E+01  0.34450964150E+01  0.23650742108E+01  0.45593583125E+01  0.51100000000E-03 0.  1.
        -12    1    4    4    0    0  0.18461739812E+02 -0.41989074267E+01 -0.31589666122E+02  0.36828978620E+02  0.00000000000E+00 0.  1.
</event>
<event>
 8    1  0.1253488E-006  0.9118800E+02  0.7816164E-02  0.1184000E+00
        -11   -1    0    0    0    0  0.00000000000E+00  0.00000000000E+00  0.45593999997E+02  0.45594000000E+02  0.51100000000E-03 0.  1.
         11   -1    0    0    0    0 -0.00000000000E+00 -0.00000000000E+00 -0.45593999997E+02  0.45594000000E+02  0.51100000000E-03 0. -1.
         23    2    1    2    0    0  0.00000000000E+00  0.44408920985E-15  0.00000000000E+00  0.91188000000E+02  0.91188000000E+02 0.  0.
    9900012    2    3    3    0    0  0.32792152399E+02 -0.14359833922E+01  0.16685098606E+02  0.54367084439E+02  0.40000000596E+02 0.  0.
        -12    1    3    3    0    0 -0.32792152399E+02  0.14359833922E+01 -0.16685098606E+02  0.36820915561E+02  0.00000000000E+00 0.  1.
         11    1    4    4    0    0  0.30849073647E+02  0.27100438311E+01  0.17183207740E+02  0.35415707122E+02  0.51100000000E-03 0. -1.
        -11    1    4    4    0    0  0.26380251184E+01 -0.11356089087E+02  0.31269835409E+00  0.11662663349E+02  0.51100000000E-03 0.  1.
         12    1    4    4    0    0 -0.69494636688E+00  0.72100618632E+01 -0.81080748819E+00  0.72887139680E+01  0.00000000000E+00 0. -1.
</event>
<event>
 8    1  0.1253488E-006  0.9118800E+02  0.7816164E-02  0.1184000E+00
        -11   -1    0    0    0    0  0.00000000000E+00  0.00000000000E+00  0.45593999997E+02  0.45594000000E+02  0.51100000000E-03 0. -1.
         11   -1    0    0    0    0 -0.00000000000E+00 -0.00000000000E+00 -0.45593999997E+02  0.45594000000E+02  0.51100000000E-03 0.  1.
         23    2    1    2    0    0 -0.17763568394E-14  0.17763568394E-14 -0.71054273576E-14  0.91188000000E+02  0.91188000000E+02 0.  0.
    9900012    2    3    3    0    0 -0.10473773484E+02 -0.73046845091E+01 -0.34535802518E+02  0.54367082000E+02  0.39999995036E+02 0.  0.
         12    1    3    3    0    0  0.10473773484E+02  0.73046845091E+01  0.34535802518E+02  0.36820918000E+02  0.00000000000E+00 0. -1.
         11    1    4    4    0    0 -0.40768523901E+01  0.36404271245E+01  0.23533191948E+01  0.59507601660E+01  0.51100000000E-03 0. -1.
        -11    1    4    4    0    0 -0.45646503348E+01  0.94190550019E+01 -0.16509938517E+02  0.19548214750E+02  0.51100000000E-03 0.  1.
         12    1    4    4    0    0 -0.18322707594E+01 -0.20364166636E+02 -0.20379183196E+02  0.28868107085E+02  0.00000000000E+00 0. -1.
</event>
<event>
 8    1  0.1253488E-006  0.9118800E+02  0.7816164E-02  0.1184000E+00
        -11   -1    0    0    0    0  0.00000000000E+00  0.00000000000E+00  0.45593999997E+02  0.45594000000E+02  0.51100000000E-03 0. -1.
         11   -1    0    0    0    0 -0.00000000000E+00 -0.00000000000E+00 -0.45593999997E+02  0.45594000000E+02  0.51100000000E-03 0.  1.
         23    2    1    2    0    0  0.00000000000E+00  0.00000000000E+00 -0.35527136788E-14  0.91188000000E+02  0.91188000000E+02 0.  0.
    9900012    2    3    3    0    0  0.20582586853E+02 -0.14150015239E+02 -0.27053909459E+02  0.54367084343E+02  0.40000000376E+02 0.  0.
         12    1    3    3    0    0 -0.20582586853E+02  0.14150015239E+02  0.27053909459E+02  0.36820915657E+02  0.00000000000E+00 0. -1.
         11    1    4    4    0    0 -0.21320728441E+01  0.19912904221E+00 -0.30580060608E+01  0.37332008139E+01  0.51100000000E-03 0. -1.
        -11    1    4    4    0    0 -0.40591157855E+01 -0.17084594847E+02 -0.77223071053E+01  0.19183165259E+02  0.51100000000E-03 0.  1.
         12    1    4    4    0    0  0.26773775483E+02  0.27354505661E+01 -0.16273596293E+02  0.31450718270E+02  0.00000000000E+00 0. -1.
</event>
<event>
 8    1  0.1253488E-006  0.9118800E+02  0.7816164E-02  0.1184000E+00
        -11   -1    0    0    0    0  0.00000000000E+00  0.00000000000E+00  0.45593999997E+02  0.45594000000E+02  0.51100000000E-03 0.  1.
         11   -1    0    0    0    0 -0.00000000000E+00 -0.00000000000E+00 -0.45593999997E+02  0.45594000000E+02  0.51100000000E-03 0. -1.
         23    2    1    2    0    0  0.17763568394E-14  0.00000000000E+00 -0.35527136788E-14  0.91188000000E+02  0.91188000000E+02 0.  0.
    9900012    2    3    3    0    0  0.11603545396E+02 -0.21379469221E+02 -0.27641487718E+02  0.54367138886E+02  0.40000124719E+02 0.  0.
        -12    1    3    3    0    0 -0.11603545396E+02  0.21379469221E+02  0.27641487718E+02  0.36820861114E+02  0.00000000000E+00 0.  1.
         11    1    4    4    0    0 -0.50209535892E+01 -0.24929058154E+01 -0.64269311002E+00  0.56424825249E+01  0.51100000000E-03 0. -1.
        -11    1    4    4    0    0  0.15910934589E+01 -0.23783265612E+02 -0.11071137637E+02  0.26282035508E+02  0.51100000000E-03 0.  1.
        -12    1    4    4    0    0  0.15033405526E+02  0.48967022071E+01 -0.15927656970E+02  0.22442620854E+02  0.00000000000E+00 0.  1.
</event>
<event>
 8    1  0.1253488E-006  0.9118800E+02  0.7816164E-02  0.1184000E+00
        -11   -1    0    0    0    0  0.00000000000E+00  0.00000000000E+00  0.45593999997E+02  0.45594000000E+02  0.51100000000E-03 0.  1.
         11   -1    0    0    0    0 -0.00000000000E+00 -0.00000000000E+00 -0.45593999997E+02  0.45594000000E+02  0.51100000000E-03 0. -1.
         23    2    1    2    0    0  0.00000000000E+00 -0.17763568394E-14 -0.17763568394E-14  0.91188000000E+02  0.91188000000E+02 0.  0.
    9900012    2    3    3    0    0  0.32234883426E+02 -0.13061220663E+02 -0.12087045597E+02  0.54367083853E+02  0.39999999259E+02 0.  0.
        -12    1    3    3    0    0 -0.32234883426E+02  0.13061220663E+02  0.12087045597E+02  0.36820916147E+02  0.00000000000E+00 0.  1.
         11    1    4    4    0    0  0.58754838108E+01 -0.12189028329E+02 -0.10257962646E+02  0.16979974073E+02  0.51100000000E-03 0.  1.
        -11    1    4    4    0    0  0.31681715492E+02 -0.24276379859E+01 -0.20214504232E+01  0.31838825116E+02  0.51100000000E-03 0. -1.
        -12    1    4    4    0    0 -0.53223158767E+01  0.15554456520E+01  0.19236747222E+00  0.55482846639E+01  0.00000000000E+00 0.  1.
</event>
<event>
 8    1  0.1253488E-006  0.9118800E+02  0.7816164E-02  0.1184000E+00
        -11   -1    0    0    0    0  0.00000000000E+00  0.00000000000E+00  0.45593999997E+02  0.45594000000E+02  0.51100000000E-03 0.  1.
         11   -1    0    0    0    0 -0.00000000000E+00 -0.00000000000E+00 -0.45593999997E+02  0.45594000000E+02  0.51100000000E-03 0. -1.
         23    2    1    2    0    0  0.17763568394E-14  0.00000000000E+00 -0.35527136788E-14  0.91188000000E+02  0.91188000000E+02 0.  0.
    9900012    2    3    3    0    0 -0.11730549859E+02 -0.23315776583E+02 -0.25972061059E+02  0.54367092986E+02  0.40000020080E+02 0.  0.
        -12    1    3    3    0    0  0.11730549859E+02  0.23315776583E+02  0.25972061059E+02  0.36820907014E+02  0.00000000000E+00 0.  1.
         11    1    4    4    0    0  0.97605677983E+01 -0.11755714118E+02 -0.17312866507E+01  0.15377348663E+02  0.51100000000E-03 0. -1.
        -11    1    4    4    0    0 -0.15388744186E+02 -0.12425482796E+02 -0.75046870298E+01  0.21154819734E+02  0.51100000000E-03 0.  1.
        -12    1    4    4    0    0 -0.61023734716E+01  0.86542033078E+00 -0.16736087379E+02  0.17834924589E+02  0.00000000000E+00 0.  1.
</event>
<event>
 8    1  0.1253488E-006  0.9118800E+02  0.7816164E-02  0.1184000E+00
        -11   -1    0    0    0    0  0.00000000000E+00  0.00000000000E+00  0.45593999997E+02  0.45594000000E+02  0.51100000000E-03 0.  1.
         11   -1    0    0    0    0 -0.00000000000E+00 -0.00000000000E+00 -0.45593999997E+02  0.45594000000E+02  0.51100000000E-03 0. -1.
         23    2    1    2    0    0  0.00000000000E+00 -0.17763568394E-14  0.00000000000E+00  0.91188000000E+02  0.91188000000E+02 0.  0.
    9900012    2    3    3    0    0  0.57977580568E+01 -0.85203054777E+01 -0.35349261186E+02  0.54367083793E+02  0.39999999123E+02 0.  0.
        -12    1    3    3    0    0 -0.57977580568E+01  0.85203054777E+01  0.35349261186E+02  0.36820916207E+02  0.00000000000E+00 0.  1.
         11    1    4    4    0    0  0.37379401030E+01 -0.73693913972E+01 -0.22392729808E+02  0.23868692346E+02  0.51100000000E-03 0. -1.
        -11    1    4    4    0    0 -0.84093554203E+01 -0.10249877706E+02 -0.35046397452E+01  0.13713487943E+02  0.51100000000E-03 0.  1.
        -12    1    4    4    0    0  0.10469173374E+02  0.90989636252E+01 -0.94518916326E+01  0.16784903504E+02  0.00000000000E+00 0.  1.
</event>
<event>
 8    1  0.1253488E-006  0.9118800E+02  0.7816164E-02  0.1184000E+00
        -11   -1    0    0    0    0  0.00000000000E+00  0.00000000000E+00  0.45593999997E+02  0.45594000000E+02  0.51100000000E-03 0.  1.
         11   -1    0    0    0    0 -0.00000000000E+00 -0.00000000000E+00 -0.45593999997E+02  0.45594000000E+02  0.51100000000E-03 0. -1.
         23    2    1    2    0    0  0.00000000000E+00  0.00000000000E+00  0.17763568394E-14  0.91188000000E+02  0.91188000000E+02 0.  0.
    9900012    2    3    3    0    0  0.33021831277E+02 -0.68452873853E+01 -0.14781062699E+02  0.54367094053E+02  0.40000022513E+02 0.  0.
         12    1    3    3    0    0 -0.33021831277E+02  0.68452873853E+01  0.14781062699E+02  0.36820905947E+02  0.00000000000E+00 0. -1.
         11    1    4    4    0    0  0.15328343637E+02  0.18628149455E+01 -0.20346363143E+02  0.25542174762E+02  0.51100000000E-03 0.  1.
        -11    1    4    4    0    0  0.14745952762E+01 -0.11286516339E+02 -0.29998878086E+00  0.11386389938E+02  0.51100000000E-03 0. -1.
        -12    1    4    4    0    0  0.16218892364E+02  0.25784140078E+01  0.58652892253E+01  0.17438529353E+02  0.00000000000E+00 0.  1.
</event>
<event>
 8    1  0.1253488E-006  0.9118800E+02  0.7816164E-02  0.1184000E+00
        -11   -1    0    0    0    0  0.00000000000E+00  0.00000000000E+00  0.45593999997E+02  0.45594000000E+02  0.51100000000E-03 0.  1.
         11   -1    0    0    0    0 -0.00000000000E+00 -0.00000000000E+00 -0.45593999997E+02  0.45594000000E+02  0.51100000000E-03 0. -1.
         23    2    1    2    0    0  0.00000000000E+00 -0.88817841970E-15  0.00000000000E+00  0.91188000000E+02  0.91188000000E+02 0.  0.
    9900012    2    3    3    0    0 -0.28227999352E+02  0.10018638524E+01  0.23621073891E+02  0.54367098187E+02  0.40000031936E+02 0.  0.
         12    1    3    3    0    0  0.28227999352E+02 -0.10018638524E+01 -0.23621073891E+02  0.36820901813E+02  0.00000000000E+00 0. -1.
         11    1    4    4    0    0 -0.29361990276E+02 -0.48847110249E+01  0.25205407895E+02  0.39003839070E+02  0.51100000000E-03 0. -1.
        -11    1    4    4    0    0 -0.36076994436E+01 -0.18995413524E+00  0.43363624902E+01  0.56440781139E+01  0.51100000000E-03 0.  1.
         12    1    4    4    0    0  0.47416903674E+01  0.60765290126E+01 -0.59206964947E+01  0.97191810027E+01  0.00000000000E+00 0. -1.
</event>
<event>
 8    1  0.1253488E-006  0.9118800E+02  0.7816164E-02  0.1184000E+00
        -11   -1    0    0    0    0  0.00000000000E+00  0.00000000000E+00  0.45593999997E+02  0.45594000000E+02  0.51100000000E-03 0.  1.
         11   -1    0    0    0    0 -0.00000000000E+00 -0.00000000000E+00 -0.45593999997E+02  0.45594000000E+02  0.51100000000E-03 0. -1.
         23    2    1    2    0    0  0.00000000000E+00  0.35527136788E-14 -0.17763568394E-14  0.91188000000E+02  0.91188000000E+02 0.  0.
    9900012    2    3    3    0    0  0.32091202233E+02  0.16138336796E+02  0.80924703514E+01  0.54367092194E+02  0.40000018275E+02 0.  0.
         12    1    3    3    0    0 -0.32091202233E+02 -0.16138336796E+02 -0.80924703514E+01  0.36820907806E+02  0.00000000000E+00 0. -1.
         11    1    4    4    0    0  0.11787227130E+02  0.62423422961E+01 -0.89031783371E+01  0.16036587714E+02  0.51100000000E-03 0. -1.
        -11    1    4    4    0    0  0.76313067526E+01  0.17505798974E+02  0.63902856533E+01  0.20137665989E+02  0.51100000000E-03 0.  1.
        -12    1    4    4    0    0  0.12672668350E+02 -0.76098044747E+01  0.10605363035E+02  0.18192838491E+02  0.00000000000E+00 0.  1.
</event>
<event>
 8    1  0.1253488E-006  0.9118800E+02  0.7816164E-02  0.1184000E+00
        -11   -1    0    0    0    0  0.00000000000E+00  0.00000000000E+00  0.45593999997E+02  0.45594000000E+02  0.51100000000E-03 0.  1.
         11   -1    0    0    0    0 -0.00000000000E+00 -0.00000000000E+00 -0.45593999997E+02  0.45594000000E+02  0.51100000000E-03 0. -1.
         23    2    1    2    0    0  0.88817841970E-15  0.35527136788E-14  0.00000000000E+00  0.91188000000E+02  0.91188000000E+02 0.  0.
    9900012    2    3    3    0    0 -0.50761776681E+01  0.27513169043E+02 -0.23938244942E+02  0.54367060015E+02  0.39999944915E+02 0.  0.
        -12    1    3    3    0    0  0.50761776681E+01 -0.27513169043E+02  0.23938244942E+02  0.36820939985E+02  0.00000000000E+00 0.  1.
         11    1    4    4    0    0  0.46218709647E+01  0.22138219810E+02 -0.16463358881E+02  0.27973284639E+02  0.51100000000E-03 0. -1.
        -11    1    4    4    0    0  0.27952086690E+01  0.21031961256E+00  0.64214425577E+01  0.70065933681E+01  0.51100000000E-03 0.  1.
        -12    1    4    4    0    0 -0.12493257302E+02  0.51646296202E+01 -0.13896328618E+02  0.19387182007E+02  0.00000000000E+00 0.  1.
</event>
<event>
 8    1  0.1253488E-006  0.9118800E+02  0.7816164E-02  0.1184000E+00
        -11   -1    0    0    0    0  0.00000000000E+00  0.00000000000E+00  0.45593999997E+02  0.45594000000E+02  0.51100000000E-03 0. -1.
         11   -1    0    0    0    0 -0.00000000000E+00 -0.00000000000E+00 -0.45593999997E+02  0.45594000000E+02  0.51100000000E-03 0.  1.
         23    2    1    2    0    0 -0.35527136788E-14 -0.35527136788E-14  0.00000000000E+00  0.91188000000E+02  0.91188000000E+02 0.  0.
    9900012    2    3    3    0    0  0.22726243965E+02 -0.28392236328E+02 -0.57589780484E+01  0.54367257522E+02  0.40000395170E+02 0.  0.
         12    1    3    3    0    0 -0.22726243965E+02  0.28392236328E+02  0.57589780484E+01  0.36820742478E+02  0.00000000000E+00 0. -1.
         11    1    4    4    0    0  0.25756570019E+02 -0.87470288778E+01 -0.54826726649E+01  0.27748353341E+02  0.51100000000E-03 0. -1.
        -11    1    4    4    0    0  0.52554653040E+01 -0.12352119972E+02 -0.53752082869E+01  0.14459863338E+02  0.51100000000E-03 0.  1.
         12    1    4    4    0    0 -0.82857913576E+01 -0.72930874782E+01  0.50989029034E+01  0.12159040842E+02  0.00000000000E+00 0. -1.
</event>
<event>
 8    1  0.1253488E-006  0.9118800E+02  0.7816164E-02  0.1184000E+00
        -11   -1    0    0    0    0  0.00000000000E+00  0.00000000000E+00  0.45593999997E+02  0.45594000000E+02  0.51100000000E-03 0. -1.
         11   -1    0    0    0    0 -0.00000000000E+00 -0.00000000000E+00 -0.45593999997E+02  0.45594000000E+02  0.51100000000E-03 0.  1.
         23    2    1    2    0    0  0.00000000000E+00 -0.17763568394E-14  0.35527136788E-14  0.91188000000E+02  0.91188000000E+02 0.  0.
    9900012    2    3    3    0    0 -0.20130605755E+02  0.13301266779E+02  0.27813810415E+02  0.54367176601E+02  0.40000210697E+02 0.  0.
        -12    1    3    3    0    0  0.20130605755E+02 -0.13301266779E+02 -0.27813810415E+02  0.36820823399E+02  0.00000000000E+00 0.  1.
         11    1    4    4    0    0 -0.63991636972E+01  0.15679920216E+02  0.28914784808E+01  0.17180507619E+02  0.51100000000E-03 0. -1.
        -11    1    4    4    0    0 -0.11376879445E+02 -0.23122085934E+01  0.29684410772E+02  0.31873875473E+02  0.51100000000E-03 0.  1.
        -12    1    4    4    0    0 -0.23545626122E+01 -0.66444843303E-01 -0.47620788382E+01  0.53127935094E+01  0.00000000000E+00 0.  1.
</event>
<event>
 8    1  0.1253488E-006  0.9118800E+02  0.7816164E-02  0.1184000E+00
        -11   -1    0    0    0    0  0.00000000000E+00  0.00000000000E+00  0.45593999997E+02  0.45594000000E+02  0.51100000000E-03 0. -1.
         11   -1    0    0    0    0 -0.00000000000E+00 -0.00000000000E+00 -0.45593999997E+02  0.45594000000E+02  0.51100000000E-03 0.  1.
         23    2    1    2    0    0  0.00000000000E+00  0.00000000000E+00  0.00000000000E+00  0.91188000000E+02  0.91188000000E+02 0.  0.
    9900012    2    3    3    0    0  0.17768846742E+02 -0.21682106034E+02 -0.23873254753E+02  0.54367110153E+02  0.40000059216E+02 0.  0.
         12    1    3    3    0    0 -0.17768846742E+02  0.21682106034E+02  0.23873254753E+02  0.36820889847E+02  0.00000000000E+00 0. -1.
         11    1    4    4    0    0  0.28976808576E+01 -0.51978936493E+01  0.26692266904E+01  0.65222253968E+01  0.51100000000E-03 0. -1.
        -11    1    4    4    0    0  0.12378740850E+02 -0.26619035443E+02 -0.20136129664E+02  0.35598735807E+02  0.51100000000E-03 0.  1.
        -12    1    4    4    0    0  0.24924250341E+01  0.10134823058E+02 -0.64063517799E+01  0.12246148949E+02  0.00000000000E+00 0.  1.
</event>
<event>
 8    1  0.1253488E-006  0.9118800E+02  0.7816164E-02  0.1184000E+00
        -11   -1    0    0    0    0  0.00000000000E+00  0.00000000000E+00  0.45593999997E+02  0.45594000000E+02  0.51100000000E-03 0. -1.
         11   -1    0    0    0    0 -0.00000000000E+00 -0.00000000000E+00 -0.45593999997E+02  0.45594000000E+02  0.51100000000E-03 0.  1.
         23    2    1    2    0    0  0.17763568394E-14  0.00000000000E+00  0.00000000000E+00  0.91188000000E+02  0.91188000000E+02 0.  0.
    9900012    2    3    3    0    0 -0.22693772254E+01  0.35039523890E+02 -0.11084198823E+02  0.54367112300E+02  0.40000064111E+02 0.  0.
        -12    1    3    3    0    0  0.22693772254E+01 -0.35039523890E+02  0.11084198823E+02  0.36820887700E+02  0.00000000000E+00 0.  1.
         11    1    4    4    0    0 -0.16806931653E+02  0.27453714416E+02 -0.57338357028E+01  0.32696425782E+02  0.51100000000E-03 0. -1.
        -11    1    4    4    0    0  0.11462565365E+01 -0.63124367156E+00 -0.58070773432E+01  0.59526901609E+01  0.51100000000E-03 0.  1.
         12    1    4    4    0    0  0.13391297891E+02  0.82170531457E+01  0.45671422288E+00  0.15717996357E+02  0.00000000000E+00 0. -1.
</event>
<event>
 8    1  0.1253488E-006  0.9118800E+02  0.7816164E-02  0.1184000E+00
        -11   -1    0    0    0    0  0.00000000000E+00  0.00000000000E+00  0.45593999997E+02  0.45594000000E+02  0.51100000000E-03 0. -1.
         11   -1    0    0    0    0 -0.00000000000E+00 -0.00000000000E+00 -0.45593999997E+02  0.45594000000E+02  0.51100000000E-03 0.  1.
         23    2    1    2    0    0  0.17763568394E-14 -0.35527136788E-14  0.35527136788E-14  0.91188000000E+02  0.91188000000E+02 0.  0.
    9900012    2    3    3    0    0  0.93349715686E+01 -0.24019339112E+02  0.26300387614E+02  0.54367072062E+02  0.39999972379E+02 0.  0.
        -12    1    3    3    0    0 -0.93349715686E+01  0.24019339112E+02 -0.26300387614E+02  0.36820927938E+02  0.00000000000E+00 0.  1.
         11    1    4    4    0    0  0.11851648208E+02 -0.25704945302E+02  0.81318903671E+01  0.29450524943E+02  0.51100000000E-03 0.  1.
        -11    1    4    4    0    0 -0.82737778762E+01 -0.12674323482E+01  0.16061741458E+02  0.18111911109E+02  0.51100000000E-03 0. -1.
        -12    1    4    4    0    0  0.57571012369E+01  0.29530385379E+01  0.21067557890E+01  0.68046360089E+01  0.00000000000E+00 0.  1.
</event>
<event>
 8    1  0.1253488E-006  0.9118800E+02  0.7816164E-02  0.1184000E+00
        -11   -1    0    0    0    0  0.00000000000E+00  0.00000000000E+00  0.45593999997E+02  0.45594000000E+02  0.51100000000E-03 0.  1.
         11   -1    0    0    0    0 -0.00000000000E+00 -0.00000000000E+00 -0.45593999997E+02  0.45594000000E+02  0.51100000000E-03 0. -1.
         23    2    1    2    0    0  0.17763568394E-14  0.00000000000E+00  0.00000000000E+00  0.91188000000E+02  0.91188000000E+02 0.  0.
    9900012    2    3    3    0    0 -0.93247410813E+01  0.25525174695E+02  0.24845408284E+02  0.54367086755E+02  0.40000005875E+02 0.  0.
         12    1    3    3    0    0  0.93247410813E+01 -0.25525174695E+02 -0.24845408284E+02  0.36820913245E+02  0.00000000000E+00 0. -1.
         11    1    4    4    0    0 -0.24698198788E+01 -0.16107166614E+01  0.58726824711E+01  0.65713634859E+01  0.51100000000E-03 0. -1.
        -11    1    4    4    0    0 -0.16898415371E+02  0.27168119368E+02  0.19949618826E+02  0.37704780116E+02  0.51100000000E-03 0.  1.
         12    1    4    4    0    0  0.10043494168E+02 -0.32228012340E-01 -0.97689301284E+00  0.10090943153E+02  0.00000000000E+00 0. -1.
</event>
<event>
 8    1  0.1253488E-006  0.9118800E+02  0.7816164E-02  0.1184000E+00
        -11   -1    0    0    0    0  0.00000000000E+00  0.00000000000E+00  0.45593999997E+02  0.45594000000E+02  0.51100000000E-03 0. -1.
         11   -1    0    0    0    0 -0.00000000000E+00 -0.00000000000E+00 -0.45593999997E+02  0.45594000000E+02  0.51100000000E-03 0.  1.
         23    2    1    2    0    0  0.00000000000E+00  0.00000000000E+00  0.00000000000E+00  0.91188000000E+02  0.91188000000E+02 0.  0.
    9900012    2    3    3    0    0  0.25682491067E+02 -0.10224060802E+02  0.24324074033E+02  0.54367050199E+02  0.39999922538E+02 0.  0.
        -12    1    3    3    0    0 -0.25682491067E+02  0.10224060802E+02 -0.24324074033E+02  0.36820949801E+02  0.00000000000E+00 0.  1.
         11    1    4    4    0    0  0.10567853409E+02  0.12436212761E+01  0.38966642475E+01  0.11331818568E+02  0.51100000000E-03 0. -1.
        -11    1    4    4    0    0  0.19106203868E+02 -0.16851436347E+02  0.24373787758E+02  0.35257615676E+02  0.51100000000E-03 0.  1.
        -12    1    4    4    0    0 -0.39915662096E+01  0.53837542696E+01 -0.39463779720E+01  0.77776159547E+01  0.00000000000E+00 0.  1.
</event>
<event>
 8    1  0.1253488E-006  0.9118800E+02  0.7816164E-02  0.1184000E+00
        -11   -1    0    0    0    0  0.00000000000E+00  0.00000000000E+00  0.45593999997E+02  0.45594000000E+02  0.51100000000E-03 0. -1.
         11   -1    0    0    0    0 -0.00000000000E+00 -0.00000000000E+00 -0.45593999997E+02  0.45594000000E+02  0.51100000000E-03 0.  1.
         23    2    1    2    0    0  0.00000000000E+00  0.00000000000E+00  0.35527136788E-14  0.91188000000E+02  0.91188000000E+02 0.  0.
    9900012    2    3    3    0    0  0.18353700587E+02  0.26608908889E+02 -0.17632098528E+02  0.54367037818E+02  0.39999894313E+02 0.  0.
         12    1    3    3    0    0 -0.18353700587E+02 -0.26608908889E+02  0.17632098528E+02  0.36820962182E+02  0.00000000000E+00 0. -1.
         11    1    4    4    0    0  0.12815721625E+02  0.64941217629E+01  0.84705461363E+01  0.16678323967E+02  0.51100000000E-03 0. -1.
        -11    1    4    4    0    0  0.78926886296E+01  0.15188399025E+01 -0.10963788228E+02  0.13594339301E+02  0.51100000000E-03 0.  1.
         12    1    4    4    0    0 -0.23547096673E+01  0.18595947224E+02 -0.15138856436E+02  0.24094374550E+02  0.00000000000E+00 0. -1.
</event>
<event>
 8    1  0.1253488E-006  0.9118800E+02  0.7816164E-02  0.1184000E+00
        -11   -1    0    0    0    0  0.00000000000E+00  0.00000000000E+00  0.45593999997E+02  0.45594000000E+02  0.51100000000E-03 0. -1.
         11   -1    0    0    0    0 -0.00000000000E+00 -0.00000000000E+00 -0.45593999997E+02  0.45594000000E+02  0.51100000000E-03 0.  1.
         23    2    1    2    0    0 -0.35527136788E-14  0.00000000000E+00  0.00000000000E+00  0.91188000000E+02  0.91188000000E+02 0.  0.
    9900012    2    3    3    0    0  0.31249868083E+02 -0.81889844238E+01  0.17668227278E+02  0.54367082354E+02  0.39999995844E+02 0.  0.
        -12    1    3    3    0    0 -0.31249868083E+02  0.81889844238E+01 -0.17668227278E+02  0.36820917646E+02  0.00000000000E+00 0.  1.
         11    1    4    4    0    0  0.20043474361E+02 -0.11064287732E+02  0.70871760818E+01  0.23966380464E+02  0.51100000000E-03 0. -1.
        -11    1    4    4    0    0 -0.49318424306E+01 -0.77275248244E+01  0.28382500758E+01  0.95965292385E+01  0.51100000000E-03 0.  1.
        -12    1    4    4    0    0  0.16138236153E+02  0.10602828133E+02  0.77428011206E+01  0.20804172652E+02  0.00000000000E+00 0.  1.
</event>
<event>
 8    1  0.1253488E-006  0.9118800E+02  0.7816164E-02  0.1184000E+00
        -11   -1    0    0    0    0  0.00000000000E+00  0.00000000000E+00  0.45593999997E+02  0.45594000000E+02  0.51100000000E-03 0.  1.
         11   -1    0    0    0    0 -0.00000000000E+00 -0.00000000000E+00 -0.45593999997E+02  0.45594000000E+02  0.51100000000E-03 0. -1.
         23    2    1    2    0    0  0.13877787808E-15  0.00000000000E+00  0.00000000000E+00  0.91188000000E+02  0.91188000000E+02 0.  0.
    9900012    2    3    3    0    0 -0.22141069209E+00  0.22846403523E+02  0.28875089522E+02  0.54367109577E+02  0.40000057903E+02 0.  0.
         12    1    3    3    0    0  0.22141069209E+00 -0.22846403523E+02 -0.28875089522E+02  0.36820890423E+02  0.00000000000E+00 0. -1.
         11    1    4    4    0    0  0.38712222969E+01 -0.44470356701E+01 -0.22222156701E+01  0.63008516145E+01  0.51100000000E-03 0. -1.
        -11    1    4    4    0    0 -0.22363217253E+01  0.28460880373E+02  0.15832851377E+02  0.32645091966E+02  0.51100000000E-03 0.  1.
        -12    1    4    4    0    0 -0.18563112637E+01 -0.11674411800E+01  0.15264453816E+02  0.15421165997E+02  0.00000000000E+00 0.  1.
</event>
<event>
 8    1  0.1253488E-006  0.9118800E+02  0.7816164E-02  0.1184000E+00
        -11   -1    0    0    0    0  0.00000000000E+00  0.00000000000E+00  0.45593999997E+02  0.45594000000E+02  0.51100000000E-03 0. -1.
         11   -1    0    0    0    0 -0.00000000000E+00 -0.00000000000E+00 -0.45593999997E+02  0.45594000000E+02  0.51100000000E-03 0.  1.
         23    2    1    2    0    0  0.00000000000E+00  0.00000000000E+00 -0.17763568394E-14  0.91188000000E+02  0.91188000000E+02 0.  0.
    9900012    2    3    3    0    0 -0.22370181840E+02 -0.27797383455E+02 -0.90916777583E+01  0.54367106924E+02  0.40000051854E+02 0.  0.
         12    1    3    3    0    0  0.22370181840E+02  0.27797383455E+02  0.90916777583E+01  0.36820893076E+02  0.00000000000E+00 0. -1.
         11    1    4    4    0    0  0.83891808520E+01 -0.81668419004E+01  0.52840089923E+01  0.12845092965E+02  0.51100000000E-03 0. -1.
        -11    1    4    4    0    0 -0.74005049401E+01 -0.11245087058E+02 -0.14506257903E+01  0.13539710918E+02  0.51100000000E-03 0.  1.
         12    1    4    4    0    0 -0.23358857752E+02 -0.83854544963E+01 -0.12925060960E+02  0.27982303040E+02  0.00000000000E+00 0. -1.
</event>
<event>
 8    1  0.1253488E-006  0.9118800E+02  0.7816164E-02  0.1184000E+00
        -11   -1    0    0    0    0  0.00000000000E+00  0.00000000000E+00  0.45593999997E+02  0.45594000000E+02  0.51100000000E-03 0. -1.
         11   -1    0    0    0    0 -0.00000000000E+00 -0.00000000000E+00 -0.45593999997E+02  0.45594000000E+02  0.51100000000E-03 0.  1.
         23    2    1    2    0    0 -0.88817841970E-15  0.00000000000E+00  0.00000000000E+00  0.91188000000E+02  0.91188000000E+02 0.  0.
    9900012    2    3    3    0    0 -0.68834948760E+01  0.42864196134E+01 -0.35916894805E+02  0.54367092526E+02  0.40000019031E+02 0.  0.
         12    1    3    3    0    0  0.68834948760E+01 -0.42864196134E+01  0.35916894805E+02  0.36820907474E+02  0.00000000000E+00 0. -1.
         11    1    4    4    0    0 -0.72671531277E+01  0.10582251654E+02 -0.65181946962E+01  0.14397306242E+02  0.51100000000E-03 0. -1.
        -11    1    4    4    0    0 -0.96918065566E+01 -0.27972232471E+01 -0.27294098977E+02  0.29098512186E+02  0.51100000000E-03 0.  1.
         12    1    4    4    0    0  0.10075464808E+02 -0.34986087940E+01 -0.21046011316E+01  0.10871274098E+02  0.00000000000E+00 0. -1.
</event>
<event>
 8    1  0.1253488E-006  0.9118800E+02  0.7816164E-02  0.1184000E+00
        -11   -1    0    0    0    0  0.00000000000E+00  0.00000000000E+00  0.45593999997E+02  0.45594000000E+02  0.51100000000E-03 0. -1.
         11   -1    0    0    0    0 -0.00000000000E+00 -0.00000000000E+00 -0.45593999997E+02  0.45594000000E+02  0.51100000000E-03 0.  1.
         23    2    1    2    0    0  0.66613381478E-15 -0.71054273576E-14  0.00000000000E+00  0.91188000000E+02  0.91188000000E+02 0.  0.
    9900012    2    3    3    0    0  0.18448361535E+01 -0.36479157554E+02 -0.46526441018E+01  0.54367089455E+02  0.40000012030E+02 0.  0.
        -12    1    3    3    0    0 -0.18448361535E+01  0.36479157554E+02  0.46526441018E+01  0.36820910545E+02  0.00000000000E+00 0.  1.
         11    1    4    4    0    0  0.39050960354E+01  0.29052014824E+01  0.33156641527E+01  0.58892783712E+01  0.51100000000E-03 0.  1.
        -11    1    4    4    0    0  0.11467477848E+02 -0.12741549773E+02  0.13045727618E+01  0.17191627298E+02  0.51100000000E-03 0. -1.
         12    1    4    4    0    0 -0.13527737730E+02 -0.26642809263E+02 -0.92728810162E+01  0.31286183786E+02  0.00000000000E+00 0. -1.
</event>
<event>
 8    1  0.1253488E-006  0.9118800E+02  0.7816164E-02  0.1184000E+00
        -11   -1    0    0    0    0  0.00000000000E+00  0.00000000000E+00  0.45593999997E+02  0.45594000000E+02  0.51100000000E-03 0. -1.
         11   -1    0    0    0    0 -0.00000000000E+00 -0.00000000000E+00 -0.45593999997E+02  0.45594000000E+02  0.51100000000E-03 0.  1.
         23    2    1    2    0    0  0.00000000000E+00  0.00000000000E+00  0.00000000000E+00  0.91188000000E+02  0.91188000000E+02 0.  0.
    9900012    2    3    3    0    0 -0.12570084676E+02 -0.34110487024E+02  0.58520956143E+01  0.54367090494E+02  0.40000014399E+02 0.  0.
        -12    1    3    3    0    0  0.12570084676E+02  0.34110487024E+02 -0.58520956143E+01  0.36820909506E+02  0.00000000000E+00 0.  1.
         11    1    4    4    0    0 -0.14829914498E+02 -0.23806946628E+02  0.16623921299E+02  0.32604475634E+02  0.51100000000E-03 0. -1.
        -11    1    4    4    0    0 -0.46844885655E+01 -0.33438712768E+01 -0.10444770548E+02  0.11925566666E+02  0.51100000000E-03 0.  1.
        -12    1    4    4    0    0  0.69443183866E+01 -0.69596691193E+01 -0.32705513633E+00  0.98370481938E+01  0.00000000000E+00 0.  1.
</event>
<event>
 8    1  0.1253488E-006  0.9118800E+02  0.7816164E-02  0.1184000E+00
        -11   -1    0    0    0    0  0.00000000000E+00  0.00000000000E+00  0.45593999997E+02  0.45594000000E+02  0.51100000000E-03 0.  1.
         11   -1    0    0    0    0 -0.00000000000E+00 -0.00000000000E+00 -0.45593999997E+02  0.45594000000E+02  0.51100000000E-03 0. -1.
         23    2    1    2    0    0 -0.35527136788E-14 -0.17763568394E-14 -0.35527136788E-14  0.91188000000E+02  0.91188000000E+02 0.  0.
    9900012    2    3    3    0    0  0.21535178449E+02 -0.20542782067E+01  0.29795924697E+02  0.54367067117E+02  0.39999961108E+02 0.  0.
         12    1    3    3    0    0 -0.21535178449E+02  0.20542782067E+01 -0.29795924697E+02  0.36820932883E+02  0.00000000000E+00 0. -1.
         11    1    4    4    0    0 -0.69144995885E+00 -0.12639594310E+02  0.10499028253E+02  0.16445882217E+02  0.51100000000E-03 0. -1.
        -11    1    4    4    0    0  0.80542764371E+01 -0.64510704727E+01  0.43956384179E+01  0.11216475228E+02  0.51100000000E-03 0.  1.
         12    1    4    4    0    0  0.14172351971E+02  0.17036386576E+02  0.14901258026E+02  0.26704709673E+02  0.00000000000E+00 0. -1.
</event>
<event>
 8    1  0.1253488E-006  0.9118800E+02  0.7816164E-02  0.1184000E+00
        -11   -1    0    0    0    0  0.00000000000E+00  0.00000000000E+00  0.45593999997E+02  0.45594000000E+02  0.51100000000E-03 0.  1.
         11   -1    0    0    0    0 -0.00000000000E+00 -0.00000000000E+00 -0.45593999997E+02  0.45594000000E+02  0.51100000000E-03 0. -1.
         23    2    1    2    0    0 -0.17763568394E-14  0.17763568394E-14  0.00000000000E+00  0.91188000000E+02  0.91188000000E+02 0.  0.
    9900012    2    3    3    0    0 -0.15638204662E+02  0.14865784294E+02 -0.29836805313E+02  0.54367082860E+02  0.39999996996E+02 0.  0.
        -12    1    3    3    0    0  0.15638204662E+02 -0.14865784294E+02  0.29836805313E+02  0.36820917140E+02  0.00000000000E+00 0.  1.
         11    1    4    4    0    0  0.90278080723E+01  0.82550611231E+01 -0.14873744661E+02  0.19258131613E+02  0.51100000000E-03 0. -1.
        -11    1    4    4    0    0 -0.53726515154E+01 -0.43858091674E+01  0.19388612010E+01  0.72013810743E+01  0.51100000000E-03 0.  1.
         12    1    4    4    0    0 -0.19293361218E+02  0.10996532339E+02 -0.16901921853E+02  0.27907570172E+02  0.00000000000E+00 0. -1.
</event>
<event>
 8    1  0.1253488E-006  0.9118800E+02  0.7816164E-02  0.1184000E+00
        -11   -1    0    0    0    0  0.00000000000E+00  0.00000000000E+00  0.45593999997E+02  0.45594000000E+02  0.51100000000E-03 0.  1.
         11   -1    0    0    0    0 -0.00000000000E+00 -0.00000000000E+00 -0.45593999997E+02  0.45594000000E+02  0.51100000000E-03 0. -1.
         23    2    1    2    0    0  0.44408920985E-15  0.35527136788E-14 -0.35527136788E-14  0.91188000000E+02  0.91188000000E+02 0.  0.
    9900012    2    3    3    0    0  0.25027680524E+01 -0.19730764885E+02 -0.30987492205E+02  0.54366924458E+02  0.39999635886E+02 0.  0.
        -12    1    3    3    0    0 -0.25027680524E+01  0.19730764885E+02  0.30987492205E+02  0.36821075542E+02  0.00000000000E+00 0.  1.
         11    1    4    4    0    0  0.78017485251E+01 -0.17290429206E+02 -0.32711769290E+02  0.37813834407E+02  0.51100000000E-03 0. -1.
        -11    1    4    4    0    0 -0.82568833134E+01 -0.59655682524E+01  0.45462620883E+01  0.11154937286E+02  0.51100000000E-03 0.  1.
        -12    1    4    4    0    0  0.29579028407E+01  0.35252325739E+01 -0.28219850033E+01  0.53981527650E+01  0.00000000000E+00 0.  1.
</event>
<event>
 8    1  0.1253488E-006  0.9118800E+02  0.7816164E-02  0.1184000E+00
        -11   -1    0    0    0    0  0.00000000000E+00  0.00000000000E+00  0.45593999997E+02  0.45594000000E+02  0.51100000000E-03 0.  1.
         11   -1    0    0    0    0 -0.00000000000E+00 -0.00000000000E+00 -0.45593999997E+02  0.45594000000E+02  0.51100000000E-03 0. -1.
         23    2    1    2    0    0 -0.71054273576E-14  0.00000000000E+00  0.44408920985E-15  0.91188000000E+02  0.91188000000E+02 0.  0.
    9900012    2    3    3    0    0  0.34260527017E+02 -0.13470479403E+02 -0.73577402963E+00  0.54367097101E+02  0.40000029462E+02 0.  0.
         12    1    3    3    0    0 -0.34260527017E+02  0.13470479403E+02  0.73577402963E+00  0.36820902899E+02  0.00000000000E+00 0. -1.
         11    1    4    4    0    0  0.96886047446E+01  0.26839766091E+00 -0.53149706512E+01  0.11053959132E+02  0.51100000000E-03 0. -1.
        -11    1    4    4    0    0  0.78279480456E+01 -0.21965500326E+02  0.73569886559E+01  0.24451692325E+02  0.51100000000E-03 0.  1.
        -12    1    4    4    0    0  0.16743974227E+02  0.82266232625E+01 -0.27777920343E+01  0.18861445645E+02  0.00000000000E+00 0.  1.
</event>
<event>
 8    1  0.1253488E-006  0.9118800E+02  0.7816164E-02  0.1184000E+00
        -11   -1    0    0    0    0  0.00000000000E+00  0.00000000000E+00  0.45593999997E+02  0.45594000000E+02  0.51100000000E-03 0.  1.
         11   -1    0    0    0    0 -0.00000000000E+00 -0.00000000000E+00 -0.45593999997E+02  0.45594000000E+02  0.51100000000E-03 0. -1.
         23    2    1    2    0    0  0.17763568394E-14 -0.88817841970E-15  0.00000000000E+00  0.91188000000E+02  0.91188000000E+02 0.  0.
    9900012    2    3    3    0    0 -0.97790113961E+01 -0.33682048012E+01  0.35338360640E+02  0.54367168937E+02  0.40000193225E+02 0.  0.
         12    1    3    3    0    0  0.97790113961E+01  0.33682048012E+01 -0.35338360640E+02  0.36820831063E+02  0.00000000000E+00 0. -1.
         11    1    4    4    0    0  0.77280771759E+01  0.17433176602E+01  0.91398778784E+01  0.12095441339E+02  0.51100000000E-03 0. -1.
        -11    1    4    4    0    0  0.33753018832E+00  0.76982195689E+01  0.16597200891E+02  0.18298731891E+02  0.51100000000E-03 0.  1.
        -12    1    4    4    0    0 -0.17844618760E+02 -0.12809742030E+02  0.96012818709E+01  0.23972995707E+02  0.00000000000E+00 0.  1.
</event>
<event>
 8    1  0.1253488E-006  0.9118800E+02  0.7816164E-02  0.1184000E+00
        -11   -1    0    0    0    0  0.00000000000E+00  0.00000000000E+00  0.45593999997E+02  0.45594000000E+02  0.51100000000E-03 0. -1.
         11   -1    0    0    0    0 -0.00000000000E+00 -0.00000000000E+00 -0.45593999997E+02  0.45594000000E+02  0.51100000000E-03 0.  1.
         23    2    1    2    0    0 -0.17763568394E-14 -0.88817841970E-15  0.00000000000E+00  0.91188000000E+02  0.91188000000E+02 0.  0.
    9900012    2    3    3    0    0 -0.90055580214E+01 -0.41672226987E+01 -0.35458644672E+02  0.54367064348E+02  0.39999954794E+02 0.  0.
         12    1    3    3    0    0  0.90055580214E+01  0.41672226987E+01  0.35458644672E+02  0.36820935652E+02  0.00000000000E+00 0. -1.
         11    1    4    4    0    0  0.37249099450E+01  0.10880880415E+01 -0.19335152742E+00  0.38853924845E+01  0.51100000000E-03 0. -1.
        -11    1    4    4    0    0 -0.99613952363E+01  0.60997232475E+01 -0.36877553169E+02  0.38683199800E+02  0.51100000000E-03 0.  1.
         12    1    4    4    0    0 -0.27690727301E+01 -0.11355033988E+02  0.16122600245E+01  0.11798472063E+02  0.00000000000E+00 0. -1.
</event>
<event>
 8    1  0.1253488E-006  0.9118800E+02  0.7816164E-02  0.1184000E+00
        -11   -1    0    0    0    0  0.00000000000E+00  0.00000000000E+00  0.45593999997E+02  0.45594000000E+02  0.51100000000E-03 0.  1.
         11   -1    0    0    0    0 -0.00000000000E+00 -0.00000000000E+00 -0.45593999997E+02  0.45594000000E+02  0.51100000000E-03 0. -1.
         23    2    1    2    0    0  0.71054273576E-14 -0.17763568394E-14  0.00000000000E+00  0.91188000000E+02  0.91188000000E+02 0.  0.
    9900012    2    3    3    0    0  0.32190993123E+02 -0.12766202728E+02 -0.12511738861E+02  0.54367087740E+02  0.40000008121E+02 0.  0.
        -12    1    3    3    0    0 -0.32190993123E+02  0.12766202728E+02  0.12511738861E+02  0.36820912260E+02  0.00000000000E+00 0.  1.
         11    1    4    4    0    0  0.13568439895E+02 -0.10390976481E+02 -0.94351967793E+01  0.19521728713E+02  0.51100000000E-03 0. -1.
        -11    1    4    4    0    0  0.74764386861E+01 -0.12210251062E+02  0.79136926246E+01  0.16358908816E+02  0.51100000000E-03 0.  1.
        -12    1    4    4    0    0  0.11146114542E+02  0.98350248154E+01 -0.10990234706E+02  0.18486450211E+02  0.00000000000E+00 0.  1.
</event>
<event>
 8    1  0.1253488E-006  0.9118800E+02  0.7816164E-02  0.1184000E+00
        -11   -1    0    0    0    0  0.00000000000E+00  0.00000000000E+00  0.45593999997E+02  0.45594000000E+02  0.51100000000E-03 0.  1.
         11   -1    0    0    0    0 -0.00000000000E+00 -0.00000000000E+00 -0.45593999997E+02  0.45594000000E+02  0.51100000000E-03 0. -1.
         23    2    1    2    0    0  0.00000000000E+00  0.00000000000E+00  0.17763568394E-14  0.91188000000E+02  0.91188000000E+02 0.  0.
    9900012    2    3    3    0    0  0.31122761945E+02  0.12337459257E+02 -0.15327762113E+02  0.54367088775E+02  0.40000010481E+02 0.  0.
        -12    1    3    3    0    0 -0.31122761945E+02 -0.12337459257E+02  0.15327762113E+02  0.36820911225E+02  0.00000000000E+00 0.  1.
         11    1    4    4    0    0  0.21687978757E+02  0.14130057544E+02 -0.21297832474E+02  0.33520510395E+02  0.51100000000E-03 0. -1.
        -11    1    4    4    0    0  0.53635901988E+00  0.72595846744E+01  0.20980685451E+01  0.75756941942E+01  0.51100000000E-03 0.  1.
         12    1    4    4    0    0  0.88984241677E+01 -0.90521829612E+01  0.38720018156E+01  0.13270884186E+02  0.00000000000E+00 0. -1.
</event>
<event>
 8    1  0.1253488E-006  0.9118800E+02  0.7816164E-02  0.1184000E+00
        -11   -1    0    0    0    0  0.00000000000E+00  0.00000000000E+00  0.45593999997E+02  0.45594000000E+02  0.51100000000E-03 0. -1.
         11   -1    0    0    0    0 -0.00000000000E+00 -0.00000000000E+00 -0.45593999997E+02  0.45594000000E+02  0.51100000000E-03 0.  1.
         23    2    1    2    0    0  0.00000000000E+00  0.88817841970E-15  0.17763568394E-14  0.91188000000E+02  0.91188000000E+02 0.  0.
    9900012    2    3    3    0    0 -0.34802206214E+02  0.77530707615E+01 -0.91911365151E+01  0.54367073151E+02  0.39999974861E+02 0.  0.
         12    1    3    3    0    0  0.34802206214E+02 -0.77530707615E+01  0.91911365151E+01  0.36820926849E+02  0.00000000000E+00 0. -1.
         11    1    4    4    0    0 -0.84548793432E+01 -0.77923683944E+01 -0.17313373031E+02  0.20783620375E+02  0.51100000000E-03 0. -1.
        -11    1    4    4    0    0  0.17475152828E+00 -0.62844841280E+00  0.17558598496E+01  0.18731069315E+01  0.51100000000E-03 0.  1.
        -12    1    4    4    0    0 -0.26522078399E+02  0.16173887569E+02  0.63663766664E+01  0.31710345844E+02  0.00000000000E+00 0.  1.
</event>
<event>
 8    1  0.1253488E-006  0.9118800E+02  0.7816164E-02  0.1184000E+00
        -11   -1    0    0    0    0  0.00000000000E+00  0.00000000000E+00  0.45593999997E+02  0.45594000000E+02  0.51100000000E-03 0. -1.
         11   -1    0    0    0    0 -0.00000000000E+00 -0.00000000000E+00 -0.45593999997E+02  0.45594000000E+02  0.51100000000E-03 0.  1.
         23    2    1    2    0    0  0.35527136788E-14 -0.35527136788E-14 -0.35527136788E-14  0.91188000000E+02  0.91188000000E+02 0.  0.
    9900012    2    3    3    0    0  0.25202128134E+02 -0.19662228146E+02 -0.18276480469E+02  0.54367079093E+02  0.39999988408E+02 0.  0.
         12    1    3    3    0    0 -0.25202128134E+02  0.19662228146E+02  0.18276480469E+02  0.36820920907E+02  0.00000000000E+00 0. -1.
         11    1    4    4    0    0  0.15411428672E+02 -0.60998196019E+01  0.44305891881E+01  0.17156632936E+02  0.51100000000E-03 0.  1.
        -11    1    4    4    0    0 -0.42316527316E+01 -0.14630322798E+02 -0.97154105368E+01  0.18064950379E+02  0.51100000000E-03 0. -1.
         12    1    4    4    0    0  0.14022352193E+02  0.10679142542E+01 -0.12991659121E+02  0.19145495778E+02  0.00000000000E+00 0. -1.
</event>
<event>
 8    1  0.1253488E-006  0.9118800E+02  0.7816164E-02  0.1184000E+00
        -11   -1    0    0    0    0  0.00000000000E+00  0.00000000000E+00  0.45593999997E+02  0.45594000000E+02  0.51100000000E-03 0.  1.
         11   -1    0    0    0    0 -0.00000000000E+00 -0.00000000000E+00 -0.45593999997E+02  0.45594000000E+02  0.51100000000E-03 0. -1.
         23    2    1    2    0    0  0.00000000000E+00  0.00000000000E+00  0.00000000000E+00  0.91188000000E+02  0.91188000000E+02 0.  0.
    9900012    2    3    3    0    0 -0.23386196463E+02 -0.20142544856E+02  0.20078269695E+02  0.54367174205E+02  0.40000205234E+02 0.  0.
         12    1    3    3    0    0  0.23386196463E+02  0.20142544856E+02 -0.20078269695E+02  0.36820825795E+02  0.00000000000E+00 0. -1.
         11    1    4    4    0    0 -0.47504032194E+01  0.57877795869E+01  0.67389374150E+01  0.10073628991E+02  0.51100000000E-03 0. -1.
        -11    1    4    4    0    0 -0.20433581822E+02 -0.92582909814E+01 -0.66960884308E+00  0.22443163641E+02  0.51100000000E-03 0.  1.
        -12    1    4    4    0    0  0.17977885775E+01 -0.16672033462E+02  0.14008941123E+02  0.21850381573E+02  0.00000000000E+00 0.  1.
</event>
<event>
 8    1  0.1253488E-006  0.9118800E+02  0.7816164E-02  0.1184000E+00
        -11   -1    0    0    0    0  0.00000000000E+00  0.00000000000E+00  0.45593999997E+02  0.45594000000E+02  0.51100000000E-03 0. -1.
         11   -1    0    0    0    0 -0.00000000000E+00 -0.00000000000E+00 -0.45593999997E+02  0.45594000000E+02  0.51100000000E-03 0.  1.
         23    2    1    2    0    0  0.35527136788E-14  0.00000000000E+00  0.35527136788E-14  0.91188000000E+02  0.91188000000E+02 0.  0.
    9900012    2    3    3    0    0  0.17163543975E+02  0.21367831887E+02  0.24588771604E+02  0.54367093298E+02  0.40000020792E+02 0.  0.
        -12    1    3    3    0    0 -0.17163543975E+02 -0.21367831887E+02 -0.24588771604E+02  0.36820906702E+02  0.00000000000E+00 0.  1.
         11    1    4    4    0    0  0.20042991474E+02 -0.51173573944E+00  0.22668615907E+02  0.30263005933E+02  0.51100000000E-03 0. -1.
        -11    1    4    4    0    0 -0.47451838462E+01  0.12194947433E+02 -0.24560073988E+01  0.13314108503E+02  0.51100000000E-03 0.  1.
         12    1    4    4    0    0  0.18657363469E+01  0.96846201939E+01  0.43761630959E+01  0.10789978863E+02  0.00000000000E+00 0. -1.
</event>
<event>
 8    1  0.1253488E-006  0.9118800E+02  0.7816164E-02  0.1184000E+00
        -11   -1    0    0    0    0  0.00000000000E+00  0.00000000000E+00  0.45593999997E+02  0.45594000000E+02  0.51100000000E-03 0.  1.
         11   -1    0    0    0    0 -0.00000000000E+00 -0.00000000000E+00 -0.45593999997E+02  0.45594000000E+02  0.51100000000E-03 0. -1.
         23    2    1    2    0    0  0.00000000000E+00  0.00000000000E+00  0.00000000000E+00  0.91188000000E+02  0.91188000000E+02 0.  0.
    9900012    2    3    3    0    0 -0.24482057648E+02 -0.10523291980E+02  0.25410190804E+02  0.54366965014E+02  0.39999728341E+02 0.  0.
         12    1    3    3    0    0  0.24482057648E+02  0.10523291980E+02 -0.25410190804E+02  0.36821034986E+02  0.00000000000E+00 0. -1.
         11    1    4    4    0    0  0.59142084810E+01 -0.50125734955E+01 -0.83041027031E+00  0.77970081751E+01  0.51100000000E-03 0. -1.
        -11    1    4    4    0    0 -0.28612088911E+02  0.32632143589E+01  0.15913548442E+02  0.32901994227E+02  0.51100000000E-03 0.  1.
        -12    1    4    4    0    0 -0.17841772175E+01 -0.87739328437E+01  0.10327052632E+02  0.13667962612E+02  0.00000000000E+00 0.  1.
</event>
<event>
 8    1  0.1253488E-006  0.9118800E+02  0.7816164E-02  0.1184000E+00
        -11   -1    0    0    0    0  0.00000000000E+00  0.00000000000E+00  0.45593999997E+02  0.45594000000E+02  0.51100000000E-03 0.  1.
         11   -1    0    0    0    0 -0.00000000000E+00 -0.00000000000E+00 -0.45593999997E+02  0.45594000000E+02  0.51100000000E-03 0. -1.
         23    2    1    2    0    0 -0.35527136788E-14  0.00000000000E+00  0.00000000000E+00  0.91188000000E+02  0.91188000000E+02 0.  0.
    9900012    2    3    3    0    0  0.26325612493E+02  0.20183747492E+02 -0.15979944251E+02  0.54367079938E+02  0.39999990335E+02 0.  0.
        -12    1    3    3    0    0 -0.26325612493E+02 -0.20183747492E+02  0.15979944251E+02  0.36820920062E+02  0.00000000000E+00 0.  1.
         11    1    4    4    0    0  0.94455685745E+01  0.25360697654E+01 -0.93003905239E+01  0.13496209828E+02  0.51100000000E-03 0. -1.
        -11    1    4    4    0    0  0.94269599801E+01 -0.69811110226E+01 -0.93500033301E+01  0.15000868245E+02  0.51100000000E-03 0.  1.
         12    1    4    4    0    0  0.74530839379E+01  0.24628788749E+02  0.26704496030E+01  0.25870001866E+02  0.00000000000E+00 0. -1.
</event>
<event>
 8    1  0.1253488E-006  0.9118800E+02  0.7816164E-02  0.1184000E+00
        -11   -1    0    0    0    0  0.00000000000E+00  0.00000000000E+00  0.45593999997E+02  0.45594000000E+02  0.51100000000E-03 0.  1.
         11   -1    0    0    0    0 -0.00000000000E+00 -0.00000000000E+00 -0.45593999997E+02  0.45594000000E+02  0.51100000000E-03 0. -1.
         23    2    1    2    0    0  0.00000000000E+00  0.00000000000E+00  0.00000000000E+00  0.91188000000E+02  0.91188000000E+02 0.  0.
    9900012    2    3    3    0    0 -0.36274613053E+02  0.25061999862E+01 -0.58014210075E+01  0.54367013101E+02  0.39999837966E+02 0.  0.
        -12    1    3    3    0    0  0.36274613053E+02 -0.25061999862E+01  0.58014210075E+01  0.36820986899E+02  0.00000000000E+00 0.  1.
         11    1    4    4    0    0 -0.29778728395E+02 -0.16037421325E+01 -0.34541297763E+01  0.30021253578E+02  0.51100000000E-03 0. -1.
        -11    1    4    4    0    0 -0.38611978573E+00  0.18573429828E+01 -0.12303636380E+02  0.12449027266E+02  0.51100000000E-03 0.  1.
         12    1    4    4    0    0 -0.61097648724E+01  0.22525991358E+01  0.99563451489E+01  0.11896732257E+02  0.00000000000E+00 0. -1.
</event>
<event>
 8    1  0.1253488E-006  0.9118800E+02  0.7816164E-02  0.1184000E+00
        -11   -1    0    0    0    0  0.00000000000E+00  0.00000000000E+00  0.45593999997E+02  0.45594000000E+02  0.51100000000E-03 0. -1.
         11   -1    0    0    0    0 -0.00000000000E+00 -0.00000000000E+00 -0.45593999997E+02  0.45594000000E+02  0.51100000000E-03 0.  1.
         23    2    1    2    0    0  0.00000000000E+00 -0.35527136788E-14  0.00000000000E+00  0.91188000000E+02  0.91188000000E+02 0.  0.
    9900012    2    3    3    0    0  0.82827387832E+01  0.17967917023E+02 -0.31053903895E+02  0.54366881725E+02  0.39999538466E+02 0.  0.
        -12    1    3    3    0    0 -0.82827387832E+01 -0.17967917023E+02  0.31053903895E+02  0.36821118275E+02  0.00000000000E+00 0.  1.
         11    1    4    4    0    0  0.21309560554E+01 -0.55100251128E+00 -0.30711295475E+01  0.37784142753E+01  0.51100000000E-03 0. -1.
        -11    1    4    4    0    0  0.14223301216E+02 -0.15777623683E+01  0.10715958014E+01  0.14350607980E+02  0.51100000000E-03 0.  1.
        -12    1    4    4    0    0 -0.80715184879E+01  0.20096681902E+02 -0.29054370149E+02  0.36237859470E+02  0.00000000000E+00 0.  1.
</event>
<event>
 8    1  0.1253488E-006  0.9118800E+02  0.7816164E-02  0.1184000E+00
        -11   -1    0    0    0    0  0.00000000000E+00  0.00000000000E+00  0.45593999997E+02  0.45594000000E+02  0.51100000000E-03 0. -1.
         11   -1    0    0    0    0 -0.00000000000E+00 -0.00000000000E+00 -0.45593999997E+02  0.45594000000E+02  0.51100000000E-03 0.  1.
         23    2    1    2    0    0  0.00000000000E+00  0.00000000000E+00  0.17763568394E-14  0.91188000000E+02  0.91188000000E+02 0.  0.
    9900012    2    3    3    0    0 -0.27764621684E+02 -0.19327227508E+02 -0.14538330324E+02  0.54367095761E+02  0.40000026406E+02 0.  0.
         12    1    3    3    0    0  0.27764621684E+02  0.19327227508E+02  0.14538330324E+02  0.36820904239E+02  0.00000000000E+00 0. -1.
         11    1    4    4    0    0  0.17799712705E+01 -0.11889226429E+02 -0.25227156669E+01  0.12283570222E+02  0.51100000000E-03 0. -1.
        -11    1    4    4    0    0 -0.17987323706E+01 -0.11715629986E+02 -0.89204419789E+00  0.11886427858E+02  0.51100000000E-03 0.  1.
         12    1    4    4    0    0 -0.27745860584E+02  0.42776289067E+01 -0.11123570459E+02  0.30197097681E+02  0.00000000000E+00 0. -1.
</event>
<event>
 8    1  0.1253488E-006  0.9118800E+02  0.7816164E-02  0.1184000E+00
        -11   -1    0    0    0    0  0.00000000000E+00  0.00000000000E+00  0.45593999997E+02  0.45594000000E+02  0.51100000000E-03 0.  1.
         11   -1    0    0    0    0 -0.00000000000E+00 -0.00000000000E+00 -0.45593999997E+02  0.45594000000E+02  0.51100000000E-03 0. -1.
         23    2    1    2    0    0  0.00000000000E+00  0.00000000000E+00 -0.35527136788E-14  0.91188000000E+02  0.91188000000E+02 0.  0.
    9900012    2    3    3    0    0 -0.11041270752E+02  0.19744103501E+02 -0.29052360752E+02  0.54367096316E+02  0.40000027672E+02 0.  0.
        -12    1    3    3    0    0  0.11041270752E+02 -0.19744103501E+02  0.29052360752E+02  0.36820903684E+02  0.00000000000E+00 0.  1.
         11    1    4    4    0    0 -0.45488261536E+01  0.15599691187E+02 -0.34769999089E+02  0.38379617265E+02  0.51100000000E-03 0. -1.
        -11    1    4    4    0    0 -0.82318033598E+01 -0.70443037778E+00 -0.39672353326E-01  0.82619841968E+01  0.51100000000E-03 0.  1.
        -12    1    4    4    0    0  0.17393587615E+01  0.48488426919E+01  0.57573106908E+01  0.77254948542E+01  0.00000000000E+00 0.  1.
</event>
<event>
 8    1  0.1253488E-006  0.9118800E+02  0.7816164E-02  0.1184000E+00
        -11   -1    0    0    0    0  0.00000000000E+00  0.00000000000E+00  0.45593999997E+02  0.45594000000E+02  0.51100000000E-03 0. -1.
         11   -1    0    0    0    0 -0.00000000000E+00 -0.00000000000E+00 -0.45593999997E+02  0.45594000000E+02  0.51100000000E-03 0.  1.
         23    2    1    2    0    0  0.88817841970E-15 -0.35527136788E-14  0.35527136788E-14  0.91188000000E+02  0.91188000000E+02 0.  0.
    9900012    2    3    3    0    0  0.61086546228E+01 -0.24842693245E+02  0.26482182625E+02  0.54367067563E+02  0.39999962123E+02 0.  0.
        -12    1    3    3    0    0 -0.61086546228E+01  0.24842693245E+02 -0.26482182625E+02  0.36820932437E+02  0.00000000000E+00 0.  1.
         11    1    4    4    0    0  0.21293705708E+01 -0.10939661492E+02  0.15459010506E+02  0.19057581658E+02  0.51100000000E-03 0. -1.
        -11    1    4    4    0    0 -0.50021971283E+01 -0.20335469927E+02  0.19840908776E+01  0.21035444615E+02  0.51100000000E-03 0.  1.
         12    1    4    4    0    0  0.89814811803E+01  0.64324381737E+01  0.90390812414E+01  0.14274041290E+02  0.00000000000E+00 0. -1.
</event>
<event>
 8    1  0.1253488E-006  0.9118800E+02  0.7816164E-02  0.1184000E+00
        -11   -1    0    0    0    0  0.00000000000E+00  0.00000000000E+00  0.45593999997E+02  0.45594000000E+02  0.51100000000E-03 0.  1.
         11   -1    0    0    0    0 -0.00000000000E+00 -0.00000000000E+00 -0.45593999997E+02  0.45594000000E+02  0.51100000000E-03 0. -1.
         23    2    1    2    0    0  0.35527136788E-14  0.17763568394E-14  0.00000000000E+00  0.91188000000E+02  0.91188000000E+02 0.  0.
    9900012    2    3    3    0    0 -0.17349188346E+02 -0.82667739357E+01  0.31407757089E+02  0.54367067191E+02  0.39999961276E+02 0.  0.
         12    1    3    3    0    0  0.17349188346E+02  0.82667739357E+01 -0.31407757089E+02  0.36820932809E+02  0.00000000000E+00 0. -1.
         11    1    4    4    0    0  0.49734524419E+01  0.89044233972E+01  0.89209408594E+01  0.13550172372E+02  0.51100000000E-03 0. -1.
        -11    1    4    4    0    0 -0.14053887938E+02 -0.39189343434E+01  0.20366629244E+02  0.25053331108E+02  0.51100000000E-03 0.  1.
         12    1    4    4    0    0 -0.82687528499E+01 -0.13252262989E+02  0.21201869850E+01  0.15763563711E+02  0.00000000000E+00 0. -1.
</event>
<event>
 8    1  0.1253488E-006  0.9118800E+02  0.7816164E-02  0.1184000E+00
        -11   -1    0    0    0    0  0.00000000000E+00  0.00000000000E+00  0.45593999997E+02  0.45594000000E+02  0.51100000000E-03 0.  1.
         11   -1    0    0    0    0 -0.00000000000E+00 -0.00000000000E+00 -0.45593999997E+02  0.45594000000E+02  0.51100000000E-03 0. -1.
         23    2    1    2    0    0  0.17763568394E-14  0.00000000000E+00 -0.88817841970E-15  0.91188000000E+02  0.91188000000E+02 0.  0.
    9900012    2    3    3    0    0 -0.14595327914E+02  0.33391900711E+02 -0.52664758410E+01  0.54367103789E+02  0.40000044707E+02 0.  0.
         12    1    3    3    0    0  0.14595327914E+02 -0.33391900711E+02  0.52664758410E+01  0.36820896211E+02  0.00000000000E+00 0. -1.
         11    1    4    4    0    0  0.27597075492E+01  0.92334652711E+01 -0.15864822234E+02  0.18562474281E+02  0.51100000000E-03 0. -1.
        -11    1    4    4    0    0 -0.85217933627E+01  0.35637689135E+00  0.71033907873E+00  0.85587702664E+01  0.51100000000E-03 0.  1.
        -12    1    4    4    0    0 -0.88332421002E+01  0.23802058549E+02  0.98880073139E+01  0.27245859241E+02  0.00000000000E+00 0.  1.
</event>
<event>
 8    1  0.1253488E-006  0.9118800E+02  0.7816164E-02  0.1184000E+00
        -11   -1    0    0    0    0  0.00000000000E+00  0.00000000000E+00  0.45593999997E+02  0.45594000000E+02  0.51100000000E-03 0. -1.
         11   -1    0    0    0    0 -0.00000000000E+00 -0.00000000000E+00 -0.45593999997E+02  0.45594000000E+02  0.51100000000E-03 0.  1.
         23    2    1    2    0    0 -0.35527136788E-14 -0.35527136788E-14 -0.35527136788E-14  0.91188000000E+02  0.91188000000E+02 0.  0.
    9900012    2    3    3    0    0 -0.21872623495E+02 -0.24279744409E+02 -0.16966573885E+02  0.54367051119E+02  0.39999924635E+02 0.  0.
         12    1    3    3    0    0  0.21872623495E+02  0.24279744409E+02  0.16966573885E+02  0.36820948881E+02  0.00000000000E+00 0. -1.
         11    1    4    4    0    0 -0.13174926236E+01 -0.11291246408E+02  0.37688993639E+01  0.11976336457E+02  0.51100000000E-03 0. -1.
        -11    1    4    4    0    0  0.27104805662E+01  0.17047455749E+01 -0.13588703615E+02  0.13960864177E+02  0.51100000000E-03 0.  1.
        -12    1    4    4    0    0 -0.23265611438E+02 -0.14693243575E+02 -0.71467696337E+01  0.28429850484E+02  0.00000000000E+00 0.  1.
</event>
<event>
 8    1  0.1253488E-006  0.9118800E+02  0.7816164E-02  0.1184000E+00
        -11   -1    0    0    0    0  0.00000000000E+00  0.00000000000E+00  0.45593999997E+02  0.45594000000E+02  0.51100000000E-03 0.  1.
         11   -1    0    0    0    0 -0.00000000000E+00 -0.00000000000E+00 -0.45593999997E+02  0.45594000000E+02  0.51100000000E-03 0. -1.
         23    2    1    2    0    0  0.71054273576E-14  0.00000000000E+00 -0.17763568394E-14  0.91188000000E+02  0.91188000000E+02 0.  0.
    9900012    2    3    3    0    0  0.32192492731E+02  0.91908049090E+01 -0.15328113226E+02  0.54367101883E+02  0.40000040363E+02 0.  0.
        -12    1    3    3    0    0 -0.32192492731E+02 -0.91908049090E+01  0.15328113226E+02  0.36820898117E+02  0.00000000000E+00 0.  1.
         11    1    4    4    0    0 -0.58753835185E+01  0.58330362369E+00  0.58563623650E+01  0.83160901281E+01  0.51100000000E-03 0.  1.
        -11    1    4    4    0    0  0.83353460640E+01  0.59859799021E+01 -0.95420697929E+01  0.14012888553E+02  0.51100000000E-03 0. -1.
        -12    1    4    4    0    0  0.29732530185E+02  0.26215213832E+01 -0.11642405798E+02  0.32038123202E+02  0.00000000000E+00 0.  1.
</event>
<event>
 8    1  0.1253488E-006  0.9118800E+02  0.7816164E-02  0.1184000E+00
        -11   -1    0    0    0    0  0.00000000000E+00  0.00000000000E+00  0.45593999997E+02  0.45594000000E+02  0.51100000000E-03 0. -1.
         11   -1    0    0    0    0 -0.00000000000E+00 -0.00000000000E+00 -0.45593999997E+02  0.45594000000E+02  0.51100000000E-03 0.  1.
         23    2    1    2    0    0  0.00000000000E+00  0.17763568394E-14  0.00000000000E+00  0.91188000000E+02  0.91188000000E+02 0.  0.
    9900012    2    3    3    0    0 -0.32734760452E+02  0.12866634697E+02 -0.10893311622E+02  0.54367094683E+02  0.40000023949E+02 0.  0.
        -12    1    3    3    0    0  0.32734760452E+02 -0.12866634697E+02  0.10893311622E+02  0.36820905317E+02  0.00000000000E+00 0.  1.
         11    1    4    4    0    0 -0.28333075055E+02 -0.54399979178E+00  0.54469544392E+01  0.28857033645E+02  0.51100000000E-03 0. -1.
        -11    1    4    4    0    0 -0.42982943407E+01 -0.14140367831E+01 -0.56194269313E+01  0.72147621971E+01  0.51100000000E-03 0.  1.
         12    1    4    4    0    0 -0.10339105603E+00  0.14824671272E+02 -0.10720839130E+02  0.18295298841E+02  0.00000000000E+00 0. -1.
</event>
<event>
 8    1  0.1253488E-006  0.9118800E+02  0.7816164E-02  0.1184000E+00
        -11   -1    0    0    0    0  0.00000000000E+00  0.00000000000E+00  0.45593999997E+02  0.45594000000E+02  0.51100000000E-03 0.  1.
         11   -1    0    0    0    0 -0.00000000000E+00 -0.00000000000E+00 -0.45593999997E+02  0.45594000000E+02  0.51100000000E-03 0. -1.
         23    2    1    2    0    0 -0.35527136788E-14 -0.35527136788E-14 -0.13322676296E-14  0.91188000000E+02  0.91188000000E+02 0.  0.
    9900012    2    3    3    0    0 -0.30221539423E+02 -0.20807548646E+02 -0.30798098595E+01  0.54367071786E+02  0.39999971750E+02 0.  0.
         12    1    3    3    0    0  0.30221539423E+02  0.20807548646E+02  0.30798098595E+01  0.36820928214E+02  0.00000000000E+00 0. -1.
         11    1    4    4    0    0 -0.25451747060E+02 -0.16039701980E+02  0.40839548170E+01  0.30360206771E+02  0.51100000000E-03 0. -1.
        -11    1    4    4    0    0 -0.46222181305E+00 -0.25332005666E+01  0.78325325122E+01  0.82449572425E+01  0.51100000000E-03 0.  1.
         12    1    4    4    0    0 -0.43075705505E+01 -0.22346460998E+01 -0.14996297189E+02  0.15761907772E+02  0.00000000000E+00 0. -1.
</event>
<event>
 8    1  0.1253488E-006  0.9118800E+02  0.7816164E-02  0.1184000E+00
        -11   -1    0    0    0    0  0.00000000000E+00  0.00000000000E+00  0.45593999997E+02  0.45594000000E+02  0.51100000000E-03 0. -1.
         11   -1    0    0    0    0 -0.00000000000E+00 -0.00000000000E+00 -0.45593999997E+02  0.45594000000E+02  0.51100000000E-03 0.  1.
         23    2    1    2    0    0  0.17763568394E-14  0.71054273576E-14  0.44408920985E-15  0.91188000000E+02  0.91188000000E+02 0.  0.
    9900012    2    3    3    0    0  0.28513748070E+01 -0.36531428561E+02 -0.36193078799E+01  0.54367149921E+02  0.40000149875E+02 0.  0.
        -12    1    3    3    0    0 -0.28513748070E+01  0.36531428561E+02  0.36193078799E+01  0.36820850079E+02  0.00000000000E+00 0.  1.
         11    1    4    4    0    0 -0.25922775797E+01 -0.22680410462E+02 -0.13089503598E+02  0.26314559211E+02  0.51100000000E-03 0. -1.
        -11    1    4    4    0    0  0.10638845871E+02 -0.14612608606E+02  0.10200527467E+01  0.18103974138E+02  0.51100000000E-03 0.  1.
        -12    1    4    4    0    0 -0.51951934841E+01  0.76159050705E+00  0.84501429718E+01  0.99486165713E+01  0.00000000000E+00 0.  1.
</event>
<event>
 8    1  0.1253488E-006  0.9118800E+02  0.7816164E-02  0.1184000E+00
        -11   -1    0    0    0    0  0.00000000000E+00  0.00000000000E+00  0.45593999997E+02  0.45594000000E+02  0.51100000000E-03 0.  1.
         11   -1    0    0    0    0 -0.00000000000E+00 -0.00000000000E+00 -0.45593999997E+02  0.45594000000E+02  0.51100000000E-03 0. -1.
         23    2    1    2    0    0 -0.17763568394E-14  0.88817841970E-15  0.71054273576E-14  0.91188000000E+02  0.91188000000E+02 0.  0.
    9900012    2    3    3    0    0 -0.10859051687E+02  0.70464889445E+01  0.34470384041E+02  0.54367090371E+02  0.40000014118E+02 0.  0.
         12    1    3    3    0    0  0.10859051687E+02 -0.70464889445E+01 -0.34470384041E+02  0.36820909629E+02  0.00000000000E+00 0. -1.
         11    1    4    4    0    0 -0.13350996262E+02  0.99171519679E+01  0.52828325384E+01  0.17450138230E+02  0.51100000000E-03 0. -1.
        -11    1    4    4    0    0 -0.33147375857E+01  0.65926150069E+01  0.21458681695E+01  0.76847126396E+01  0.51100000000E-03 0.  1.
        -12    1    4    4    0    0  0.58066821605E+01 -0.94632780303E+01  0.27041683333E+02  0.29232239501E+02  0.00000000000E+00 0.  1.
</event>
<event>
 8    1  0.1253488E-006  0.9118800E+02  0.7816164E-02  0.1184000E+00
        -11   -1    0    0    0    0  0.00000000000E+00  0.00000000000E+00  0.45593999997E+02  0.45594000000E+02  0.51100000000E-03 0.  1.
         11   -1    0    0    0    0 -0.00000000000E+00 -0.00000000000E+00 -0.45593999997E+02  0.45594000000E+02  0.51100000000E-03 0. -1.
         23    2    1    2    0    0 -0.35527136788E-14  0.00000000000E+00  0.35527136788E-14  0.91188000000E+02  0.91188000000E+02 0.  0.
    9900012    2    3    3    0    0  0.15062601415E+02 -0.17151191216E+02 -0.28891802655E+02  0.54367060547E+02  0.39999946129E+02 0.  0.
        -12    1    3    3    0    0 -0.15062601415E+02  0.17151191216E+02  0.28891802655E+02  0.36820939453E+02  0.00000000000E+00 0.  1.
         11    1    4    4    0    0  0.13270892029E+02 -0.84665964902E+01 -0.26894134317E+02  0.31162385857E+02  0.51100000000E-03 0. -1.
        -11    1    4    4    0    0  0.54596703714E+01 -0.14255729244E+02 -0.47523004915E+01  0.15988063580E+02  0.51100000000E-03 0.  1.
        -12    1    4    4    0    0 -0.36679609855E+01  0.55711345175E+01  0.27546321537E+01  0.72166111095E+01  0.00000000000E+00 0.  1.
</event>
<event>
 8    1  0.1253488E-006  0.9118800E+02  0.7816164E-02  0.1184000E+00
        -11   -1    0    0    0    0  0.00000000000E+00  0.00000000000E+00  0.45593999997E+02  0.45594000000E+02  0.51100000000E-03 0. -1.
         11   -1    0    0    0    0 -0.00000000000E+00 -0.00000000000E+00 -0.45593999997E+02  0.45594000000E+02  0.51100000000E-03 0.  1.
         23    2    1    2    0    0  0.71054273576E-14  0.00000000000E+00  0.17763568394E-14  0.91188000000E+02  0.91188000000E+02 0.  0.
    9900012    2    3    3    0    0  0.34914577085E+02  0.51900633925E+01 -0.10479376572E+02  0.54367057802E+02  0.39999939870E+02 0.  0.
         12    1    3    3    0    0 -0.34914577085E+02 -0.51900633925E+01  0.10479376572E+02  0.36820942198E+02  0.00000000000E+00 0. -1.
         11    1    4    4    0    0  0.59617044705E+01 -0.30176145171E+01  0.81733975627E+01  0.10557099296E+02  0.51100000000E-03 0. -1.
        -11    1    4    4    0    0  0.19812507115E+02  0.13906770297E+02 -0.21813049030E+02  0.32584395138E+02  0.51100000000E-03 0.  1.
        -12    1    4    4    0    0  0.91403654999E+01 -0.56990923872E+01  0.31602748954E+01  0.11225563368E+02  0.00000000000E+00 0.  1.
</event>
<event>
 8    1  0.1253488E-006  0.9118800E+02  0.7816164E-02  0.1184000E+00
        -11   -1    0    0    0    0  0.00000000000E+00  0.00000000000E+00  0.45593999997E+02  0.45594000000E+02  0.51100000000E-03 0. -1.
         11   -1    0    0    0    0 -0.00000000000E+00 -0.00000000000E+00 -0.45593999997E+02  0.45594000000E+02  0.51100000000E-03 0.  1.
         23    2    1    2    0    0 -0.71054273576E-14 -0.17763568394E-14  0.17763568394E-14  0.91188000000E+02  0.91188000000E+02 0.  0.
    9900012    2    3    3    0    0 -0.29809672787E+02 -0.15866302734E+02  0.14677353083E+02  0.54367070521E+02  0.39999968868E+02 0.  0.
        -12    1    3    3    0    0  0.29809672787E+02  0.15866302734E+02 -0.14677353083E+02  0.36820929479E+02  0.00000000000E+00 0.  1.
         11    1    4    4    0    0 -0.21052055001E+02 -0.38491797335E+01  0.20722299122E+02  0.29789576794E+02  0.51100000000E-03 0. -1.
        -11    1    4    4    0    0 -0.51096091111E+01 -0.72799763610E+01  0.62739263737E+01  0.10884315022E+02  0.51100000000E-03 0.  1.
        -12    1    4    4    0    0 -0.36480086751E+01 -0.47371466391E+01 -0.12318872412E+02  0.13693178706E+02  0.00000000000E+00 0.  1.
</event>
<event>
 8    1  0.1253488E-006  0.9118800E+02  0.7816164E-02  0.1184000E+00
        -11   -1    0    0    0    0  0.00000000000E+00  0.00000000000E+00  0.45593999997E+02  0.45594000000E+02  0.51100000000E-03 0.  1.
         11   -1    0    0    0    0 -0.00000000000E+00 -0.00000000000E+00 -0.45593999997E+02  0.45594000000E+02  0.51100000000E-03 0. -1.
         23    2    1    2    0    0  0.00000000000E+00  0.00000000000E+00  0.00000000000E+00  0.91188000000E+02  0.91188000000E+02 0.  0.
    9900012    2    3    3    0    0  0.93954549145E+01 -0.80647372067E+01  0.34676574825E+02  0.54367090168E+02  0.40000013657E+02 0.  0.
         12    1    3    3    0    0 -0.93954549145E+01  0.80647372067E+01 -0.34676574825E+02  0.36820909832E+02  0.00000000000E+00 0. -1.
         11    1    4    4    0    0 -0.57080964257E+01 -0.24334796173E+01 -0.51657005595E+01  0.80739488718E+01  0.51100000000E-03 0. -1.
        -11    1    4    4    0    0  0.11883246581E+01  0.54561471408E+01  0.71422417133E+01  0.90660506322E+01  0.51100000000E-03 0.  1.
        -12    1    4    4    0    0  0.13915226682E+02 -0.11087404730E+02  0.32700033671E+02  0.37227090664E+02  0.00000000000E+00 0.  1.
</event>
<event>
 8    1  0.1253488E-006  0.9118800E+02  0.7816164E-02  0.1184000E+00
        -11   -1    0    0    0    0  0.00000000000E+00  0.00000000000E+00  0.45593999997E+02  0.45594000000E+02  0.51100000000E-03 0.  1.
         11   -1    0    0    0    0 -0.00000000000E+00 -0.00000000000E+00 -0.45593999997E+02  0.45594000000E+02  0.51100000000E-03 0. -1.
         23    2    1    2    0    0  0.17763568394E-14  0.00000000000E+00  0.00000000000E+00  0.91188000000E+02  0.91188000000E+02 0.  0.
    9900012    2    3    3    0    0 -0.11076227444E+02 -0.23328320030E+02  0.26246654363E+02  0.54367079383E+02  0.39999989069E+02 0.  0.
         12    1    3    3    0    0  0.11076227444E+02  0.23328320030E+02 -0.26246654363E+02  0.36820920617E+02  0.00000000000E+00 0. -1.
         11    1    4    4    0    0  0.46421552112E+01  0.43373395381E+01  0.67276267532E+00  0.63886406341E+01  0.51100000000E-03 0. -1.
        -11    1    4    4    0    0 -0.21929327080E+02 -0.16515260010E+02  0.14325099680E+02  0.30965427181E+02  0.51100000000E-03 0.  1.
         12    1    4    4    0    0  0.62109444250E+01 -0.11150399558E+02  0.11248792008E+02  0.17013011568E+02  0.00000000000E+00 0. -1.
</event>
<event>
 8    1  0.1253488E-006  0.9118800E+02  0.7816164E-02  0.1184000E+00
        -11   -1    0    0    0    0  0.00000000000E+00  0.00000000000E+00  0.45593999997E+02  0.45594000000E+02  0.51100000000E-03 0. -1.
         11   -1    0    0    0    0 -0.00000000000E+00 -0.00000000000E+00 -0.45593999997E+02  0.45594000000E+02  0.51100000000E-03 0.  1.
         23    2    1    2    0    0 -0.35527136788E-14  0.00000000000E+00 -0.35527136788E-14  0.91188000000E+02  0.91188000000E+02 0.  0.
    9900012    2    3    3    0    0 -0.17541482273E+02 -0.16773702802E+02  0.27689697789E+02  0.54367081086E+02  0.39999992951E+02 0.  0.
        -12    1    3    3    0    0  0.17541482273E+02  0.16773702802E+02 -0.27689697789E+02  0.36820918914E+02  0.00000000000E+00 0.  1.
         11    1    4    4    0    0  0.12911635517E+01  0.26189294404E+01  0.37374703977E+01  0.47428451341E+01  0.51100000000E-03 0. -1.
        -11    1    4    4    0    0  0.47353946899E+00 -0.18178341420E+02 -0.80907915400E+00  0.18202498338E+02  0.51100000000E-03 0.  1.
         12    1    4    4    0    0 -0.19306185294E+02 -0.12142908218E+01  0.24761306546E+02  0.31421737613E+02  0.00000000000E+00 0. -1.
</event>
<event>
 8    1  0.1253488E-006  0.9118800E+02  0.7816164E-02  0.1184000E+00
        -11   -1    0    0    0    0  0.00000000000E+00  0.00000000000E+00  0.45593999997E+02  0.45594000000E+02  0.51100000000E-03 0. -1.
         11   -1    0    0    0    0 -0.00000000000E+00 -0.00000000000E+00 -0.45593999997E+02  0.45594000000E+02  0.51100000000E-03 0.  1.
         23    2    1    2    0    0  0.17763568394E-14  0.00000000000E+00  0.00000000000E+00  0.91188000000E+02  0.91188000000E+02 0.  0.
    9900012    2    3    3    0    0  0.12050161544E+02  0.21040977352E+02  0.27710082767E+02  0.54367111796E+02  0.40000062962E+02 0.  0.
        -12    1    3    3    0    0 -0.12050161544E+02 -0.21040977352E+02 -0.27710082767E+02  0.36820888204E+02  0.00000000000E+00 0.  1.
         11    1    4    4    0    0  0.23607959663E+01  0.19727690959E+02  0.17248588664E+02  0.26311004529E+02  0.51100000000E-03 0. -1.
        -11    1    4    4    0    0  0.15548505620E+02 -0.57396626477E+01  0.87020717752E+01  0.18719663666E+02  0.51100000000E-03 0.  1.
        -12    1    4    4    0    0 -0.58591400416E+01  0.70529490405E+01  0.17594223275E+01  0.93364436014E+01  0.00000000000E+00 0.  1.
</event>
<event>
 8    1  0.1253488E-006  0.9118800E+02  0.7816164E-02  0.1184000E+00
        -11   -1    0    0    0    0  0.00000000000E+00  0.00000000000E+00  0.45593999997E+02  0.45594000000E+02  0.51100000000E-03 0. -1.
         11   -1    0    0    0    0 -0.00000000000E+00 -0.00000000000E+00 -0.45593999997E+02  0.45594000000E+02  0.51100000000E-03 0.  1.
         23    2    1    2    0    0  0.00000000000E+00 -0.17763568394E-14  0.00000000000E+00  0.91188000000E+02  0.91188000000E+02 0.  0.
    9900012    2    3    3    0    0 -0.58141242793E+01  0.55645235734E+01 -0.35930654060E+02  0.54367083867E+02  0.39999999291E+02 0.  0.
         12    1    3    3    0    0  0.58141242793E+01 -0.55645235734E+01  0.35930654060E+02  0.36820916133E+02  0.00000000000E+00 0. -1.
         11    1    4    4    0    0 -0.11630432188E+02 -0.11271915435E+02 -0.25148820950E+02  0.29912977550E+02  0.51100000000E-03 0. -1.
        -11    1    4    4    0    0 -0.16342010143E+01  0.83228619017E+01 -0.10001722690E+02  0.13113927719E+02  0.51100000000E-03 0.  1.
         12    1    4    4    0    0  0.74505089233E+01  0.85135771071E+01 -0.78011041997E+00  0.11340178598E+02  0.00000000000E+00 0. -1.
</event>
<event>
 8    1  0.1253488E-006  0.9118800E+02  0.7816164E-02  0.1184000E+00
        -11   -1    0    0    0    0  0.00000000000E+00  0.00000000000E+00  0.45593999997E+02  0.45594000000E+02  0.51100000000E-03 0.  1.
         11   -1    0    0    0    0 -0.00000000000E+00 -0.00000000000E+00 -0.45593999997E+02  0.45594000000E+02  0.51100000000E-03 0. -1.
         23    2    1    2    0    0  0.00000000000E+00  0.00000000000E+00  0.17763568394E-14  0.91188000000E+02  0.91188000000E+02 0.  0.
    9900012    2    3    3    0    0  0.31251196006E+02 -0.11105685375E+02 -0.15993942536E+02  0.54367086142E+02  0.40000004479E+02 0.  0.
        -12    1    3    3    0    0 -0.31251196006E+02  0.11105685375E+02  0.15993942536E+02  0.36820913858E+02  0.00000000000E+00 0.  1.
         11    1    4    4    0    0  0.47665911472E+01 -0.69619423631E+01 -0.17160784257E+02  0.19122801814E+02  0.51100000000E-03 0. -1.
        -11    1    4    4    0    0  0.13698107083E+02 -0.13566938720E+02  0.16778270282E+01  0.19352391782E+02  0.51100000000E-03 0.  1.
         12    1    4    4    0    0  0.12786497776E+02  0.94231957081E+01 -0.51098530716E+00  0.15891892547E+02  0.00000000000E+00 0. -1.
</event>
<event>
 8    1  0.1253488E-006  0.9118800E+02  0.7816164E-02  0.1184000E+00
        -11   -1    0    0    0    0  0.00000000000E+00  0.00000000000E+00  0.45593999997E+02  0.45594000000E+02  0.51100000000E-03 0.  1.
         11   -1    0    0    0    0 -0.00000000000E+00 -0.00000000000E+00 -0.45593999997E+02  0.45594000000E+02  0.51100000000E-03 0. -1.
         23    2    1    2    0    0 -0.35527136788E-14 -0.71054273576E-14  0.00000000000E+00  0.91188000000E+02  0.91188000000E+02 0.  0.
    9900012    2    3    3    0    0 -0.25063920866E+02 -0.26849574377E+02 -0.25835663165E+01  0.54367155518E+02  0.40000162635E+02 0.  0.
        -12    1    3    3    0    0  0.25063920866E+02  0.26849574377E+02  0.25835663165E+01  0.36820844482E+02  0.00000000000E+00 0.  1.
         11    1    4    4    0    0 -0.11851060248E+02  0.77648313963E+01  0.85309704116E+00  0.14193942738E+02  0.51100000000E-03 0. -1.
        -11    1    4    4    0    0 -0.14632624523E+02 -0.20567970095E+02 -0.56932107009E+01  0.25876007084E+02  0.51100000000E-03 0.  1.
        -12    1    4    4    0    0  0.14197639051E+01 -0.14046435679E+02  0.22565473433E+01  0.14297205697E+02  0.00000000000E+00 0.  1.
</event>
<event>
 8    1  0.1253488E-006  0.9118800E+02  0.7816164E-02  0.1184000E+00
        -11   -1    0    0    0    0  0.00000000000E+00  0.00000000000E+00  0.45593999997E+02  0.45594000000E+02  0.51100000000E-03 0.  1.
         11   -1    0    0    0    0 -0.00000000000E+00 -0.00000000000E+00 -0.45593999997E+02  0.45594000000E+02  0.51100000000E-03 0. -1.
         23    2    1    2    0    0  0.00000000000E+00 -0.17763568394E-14  0.35527136788E-14  0.91188000000E+02  0.91188000000E+02 0.  0.
    9900012    2    3    3    0    0  0.23507584851E+02 -0.15401128860E+02 -0.23790286719E+02  0.54367094826E+02  0.40000024274E+02 0.  0.
        -12    1    3    3    0    0 -0.23507584851E+02  0.15401128860E+02  0.23790286719E+02  0.36820905174E+02  0.00000000000E+00 0.  1.
         11    1    4    4    0    0  0.55674341814E+01 -0.62288378085E+01  0.20133855999E+01  0.85935129978E+01  0.51100000000E-03 0.  1.
        -11    1    4    4    0    0  0.25693856172E+02 -0.13248604883E+02 -0.21410791531E+02  0.35973904022E+02  0.51100000000E-03 0. -1.
        -12    1    4    4    0    0 -0.77537055028E+01  0.40763138315E+01 -0.43928807882E+01  0.97996778057E+01  0.00000000000E+00 0.  1.
</event>
<event>
 8    1  0.1253488E-006  0.9118800E+02  0.7816164E-02  0.1184000E+00
        -11   -1    0    0    0    0  0.00000000000E+00  0.00000000000E+00  0.45593999997E+02  0.45594000000E+02  0.51100000000E-03 0. -1.
         11   -1    0    0    0    0 -0.00000000000E+00 -0.00000000000E+00 -0.45593999997E+02  0.45594000000E+02  0.51100000000E-03 0.  1.
         23    2    1    2    0    0  0.00000000000E+00  0.00000000000E+00  0.00000000000E+00  0.91188000000E+02  0.91188000000E+02 0.  0.
    9900012    2    3    3    0    0  0.26401625772E+02  0.19551354277E+02 -0.16627598450E+02  0.54367104740E+02  0.40000046877E+02 0.  0.
         12    1    3    3    0    0 -0.26401625772E+02 -0.19551354277E+02  0.16627598450E+02  0.36820895260E+02  0.00000000000E+00 0. -1.
         11    1    4    4    0    0  0.44087761588E+01  0.15220162591E+02 -0.28114251865E+00  0.15848334230E+02  0.51100000000E-03 0. -1.
        -11    1    4    4    0    0  0.27830188800E+02  0.64519076322E+00 -0.14422759050E+02  0.31352059878E+02  0.51100000000E-03 0.  1.
        -12    1    4    4    0    0 -0.58373391864E+01  0.36860009234E+01 -0.19236968819E+01  0.71667106316E+01  0.00000000000E+00 0.  1.
</event>
<event>
 8    1  0.1253488E-006  0.9118800E+02  0.7816164E-02  0.1184000E+00
        -11   -1    0    0    0    0  0.00000000000E+00  0.00000000000E+00  0.45593999997E+02  0.45594000000E+02  0.51100000000E-03 0.  1.
         11   -1    0    0    0    0 -0.00000000000E+00 -0.00000000000E+00 -0.45593999997E+02  0.45594000000E+02  0.51100000000E-03 0. -1.
         23    2    1    2    0    0  0.00000000000E+00  0.00000000000E+00 -0.88817841970E-15  0.91188000000E+02  0.91188000000E+02 0.  0.
    9900012    2    3    3    0    0 -0.34018306544E+02  0.12710274056E+02  0.60814621934E+01  0.54367076205E+02  0.39999981824E+02 0.  0.
         12    1    3    3    0    0  0.34018306544E+02 -0.12710274056E+02 -0.60814621934E+01  0.36820923795E+02  0.00000000000E+00 0. -1.
         11    1    4    4    0    0 -0.17343543519E+02  0.39022118892E+00 -0.97346851693E+01  0.19892583290E+02  0.51100000000E-03 0. -1.
        -11    1    4    4    0    0  0.55395204351E+01  0.23514470628E+01  0.50327718431E+01  0.78450227932E+01  0.51100000000E-03 0.  1.
        -12    1    4    4    0    0 -0.22214283461E+02  0.99686058041E+01  0.10783375520E+02  0.26629470121E+02  0.00000000000E+00 0.  1.
</event>
<event>
 8    1  0.1253488E-006  0.9118800E+02  0.7816164E-02  0.1184000E+00
        -11   -1    0    0    0    0  0.00000000000E+00  0.00000000000E+00  0.45593999997E+02  0.45594000000E+02  0.51100000000E-03 0.  1.
         11   -1    0    0    0    0 -0.00000000000E+00 -0.00000000000E+00 -0.45593999997E+02  0.45594000000E+02  0.51100000000E-03 0. -1.
         23    2    1    2    0    0  0.13322676296E-14 -0.71054273576E-14  0.66613381478E-15  0.91188000000E+02  0.91188000000E+02 0.  0.
    9900012    2    3    3    0    0 -0.25495826891E+01  0.36694333339E+02 -0.16745416111E+01  0.54367101577E+02  0.40000039665E+02 0.  0.
        -12    1    3    3    0    0  0.25495826891E+01 -0.36694333339E+02  0.16745416111E+01  0.36820898423E+02  0.00000000000E+00 0.  1.
         11    1    4    4    0    0  0.17762853027E+01  0.58971793290E+01  0.17739725966E+01  0.64092817499E+01  0.51100000000E-03 0.  1.
        -11    1    4    4    0    0  0.64350901536E+01  0.34877735072E+02  0.13423137494E+01  0.35491810260E+02  0.51100000000E-03 0. -1.
         12    1    4    4    0    0 -0.10760958145E+02 -0.40805810622E+01 -0.47908279571E+01  0.12466009567E+02  0.00000000000E+00 0. -1.
</event>
<event>
 8    1  0.1253488E-006  0.9118800E+02  0.7816164E-02  0.1184000E+00
        -11   -1    0    0    0    0  0.00000000000E+00  0.00000000000E+00  0.45593999997E+02  0.45594000000E+02  0.51100000000E-03 0. -1.
         11   -1    0    0    0    0 -0.00000000000E+00 -0.00000000000E+00 -0.45593999997E+02  0.45594000000E+02  0.51100000000E-03 0.  1.
         23    2    1    2    0    0  0.00000000000E+00  0.00000000000E+00  0.35527136788E-14  0.91188000000E+02  0.91188000000E+02 0.  0.
    9900012    2    3    3    0    0  0.18822153508E+02 -0.18000084698E+02 -0.26028894440E+02  0.54367083966E+02  0.39999999518E+02 0.  0.
         12    1    3    3    0    0 -0.18822153508E+02  0.18000084698E+02  0.26028894440E+02  0.36820916034E+02  0.00000000000E+00 0. -1.
         11    1    4    4    0    0 -0.43364706542E+01 -0.61481316925E+01  0.15448108643E+01  0.76805560938E+01  0.51100000000E-03 0. -1.
        -11    1    4    4    0    0  0.18815936214E+02 -0.19663837656E+02 -0.25945681293E+02  0.37601653487E+02  0.51100000000E-03 0.  1.
        -12    1    4    4    0    0  0.43426879483E+01  0.78118846507E+01 -0.16280240113E+01  0.90848743851E+01  0.00000000000E+00 0.  1.
</event>
<event>
 8    1  0.1253488E-006  0.9118800E+02  0.7816164E-02  0.1184000E+00
        -11   -1    0    0    0    0  0.00000000000E+00  0.00000000000E+00  0.45593999997E+02  0.45594000000E+02  0.51100000000E-03 0. -1.
         11   -1    0    0    0    0 -0.00000000000E+00 -0.00000000000E+00 -0.45593999997E+02  0.45594000000E+02  0.51100000000E-03 0.  1.
         23    2    1    2    0    0  0.00000000000E+00  0.00000000000E+00  0.44408920985E-15  0.91188000000E+02  0.91188000000E+02 0.  0.
    9900012    2    3    3    0    0  0.76049209738E+01 -0.35905989239E+02 -0.29505107371E+01  0.54367076602E+02  0.39999982730E+02 0.  0.
        -12    1    3    3    0    0 -0.76049209738E+01  0.35905989239E+02  0.29505107371E+01  0.36820923398E+02  0.00000000000E+00 0.  1.
         11    1    4    4    0    0  0.10685853304E+02 -0.17898155577E+02  0.63789247227E+01  0.21799589784E+02  0.51100000000E-03 0. -1.
        -11    1    4    4    0    0 -0.51399665200E+00 -0.24074227928E+01 -0.15427032389E+02  0.15622202330E+02  0.51100000000E-03 0.  1.
         12    1    4    4    0    0 -0.25669356780E+01 -0.15600410869E+02  0.60975969288E+01  0.16945284488E+02  0.00000000000E+00 0. -1.
</event>
<event>
 8    1  0.1253488E-006  0.9118800E+02  0.7816164E-02  0.1184000E+00
        -11   -1    0    0    0    0  0.00000000000E+00  0.00000000000E+00  0.45593999997E+02  0.45594000000E+02  0.51100000000E-03 0.  1.
         11   -1    0    0    0    0 -0.00000000000E+00 -0.00000000000E+00 -0.45593999997E+02  0.45594000000E+02  0.51100000000E-03 0. -1.
         23    2    1    2    0    0 -0.35527136788E-14  0.00000000000E+00  0.00000000000E+00  0.91188000000E+02  0.91188000000E+02 0.  0.
    9900012    2    3    3    0    0 -0.11892170159E+02  0.22501202501E+02  0.26609198054E+02  0.54367119428E+02  0.40000080359E+02 0.  0.
         12    1    3    3    0    0  0.11892170159E+02 -0.22501202501E+02 -0.26609198054E+02  0.36820880572E+02  0.00000000000E+00 0. -1.
         11    1    4    4    0    0 -0.22015783327E+02  0.21980556557E+02  0.12465150378E+02  0.33514467865E+02  0.51100000000E-03 0. -1.
        -11    1    4    4    0    0  0.10322084756E+02  0.84685409123E-01  0.15941933997E+02  0.18992047419E+02  0.51100000000E-03 0.  1.
         12    1    4    4    0    0 -0.19847158864E+00  0.43596053450E+00 -0.17978863212E+01  0.18606041446E+01  0.00000000000E+00 0. -1.
</event>
<event>
 8    1  0.1253488E-006  0.9118800E+02  0.7816164E-02  0.1184000E+00
        -11   -1    0    0    0    0  0.00000000000E+00  0.00000000000E+00  0.45593999997E+02  0.45594000000E+02  0.51100000000E-03 0.  1.
         11   -1    0    0    0    0 -0.00000000000E+00 -0.00000000000E+00 -0.45593999997E+02  0.45594000000E+02  0.51100000000E-03 0. -1.
         23    2    1    2    0    0  0.00000000000E+00  0.00000000000E+00  0.71054273576E-14  0.91188000000E+02  0.91188000000E+02 0.  0.
    9900012    2    3    3    0    0 -0.48437652580E+01  0.20555726345E+02  0.30162542802E+02  0.54367096484E+02  0.40000028054E+02 0.  0.
         12    1    3    3    0    0  0.48437652580E+01 -0.20555726345E+02 -0.30162542802E+02  0.36820903516E+02  0.00000000000E+00 0. -1.
         11    1    4    4    0    0 -0.29914107318E+01 -0.23884486673E+01 -0.61253276632E+01  0.72230785988E+01  0.51100000000E-03 0. -1.
        -11    1    4    4    0    0  0.58165674161E+01  0.21417225463E+02  0.25246705401E+02  0.33614373963E+02  0.51100000000E-03 0.  1.
         12    1    4    4    0    0 -0.76689219423E+01  0.15269495496E+01  0.11041165064E+02  0.13529643922E+02  0.00000000000E+00 0. -1.
</event>
<event>
 8    1  0.1253488E-006  0.9118800E+02  0.7816164E-02  0.1184000E+00
        -11   -1    0    0    0    0  0.00000000000E+00  0.00000000000E+00  0.45593999997E+02  0.45594000000E+02  0.51100000000E-03 0.  1.
         11   -1    0    0    0    0 -0.00000000000E+00 -0.00000000000E+00 -0.45593999997E+02  0.45594000000E+02  0.51100000000E-03 0. -1.
         23    2    1    2    0    0  0.00000000000E+00  0.00000000000E+00  0.44408920985E-14  0.91188000000E+02  0.91188000000E+02 0.  0.
    9900012    2    3    3    0    0  0.65592737656E+01 -0.35981162797E+02  0.42562107741E+01  0.54367034794E+02  0.39999887419E+02 0.  0.
        -12    1    3    3    0    0 -0.65592737656E+01  0.35981162797E+02 -0.42562107741E+01  0.36820965206E+02  0.00000000000E+00 0.  1.
         11    1    4    4    0    0  0.56658320711E+01 -0.57657845111E+01 -0.57975198270E+00  0.81044454905E+01  0.51100000000E-03 0. -1.
        -11    1    4    4    0    0  0.55887408004E+01 -0.20765239569E+02  0.18934667252E+02  0.28652239394E+02  0.51100000000E-03 0.  1.
        -12    1    4    4    0    0 -0.46952991059E+01 -0.94501387172E+01 -0.14098704495E+02  0.17610349909E+02  0.00000000000E+00 0.  1.
</event>
<event>
 8    1  0.1253488E-006  0.9118800E+02  0.7816164E-02  0.1184000E+00
        -11   -1    0    0    0    0  0.00000000000E+00  0.00000000000E+00  0.45593999997E+02  0.45594000000E+02  0.51100000000E-03 0. -1.
         11   -1    0    0    0    0 -0.00000000000E+00 -0.00000000000E+00 -0.45593999997E+02  0.45594000000E+02  0.51100000000E-03 0.  1.
         23    2    1    2    0    0  0.35527136788E-14  0.35527136788E-14  0.88817841970E-15  0.91188000000E+02  0.91188000000E+02 0.  0.
    9900012    2    3    3    0    0 -0.29522114573E+02 -0.21847891746E+02 -0.26257003965E+01  0.54367083048E+02  0.39999997425E+02 0.  0.
         12    1    3    3    0    0  0.29522114573E+02  0.21847891746E+02  0.26257003965E+01  0.36820916952E+02  0.00000000000E+00 0. -1.
         11    1    4    4    0    0  0.61186254969E+01  0.21770101375E+01 -0.47467728344E+00  0.65117025343E+01  0.51100000000E-03 0. -1.
        -11    1    4    4    0    0 -0.19689700031E+01 -0.18602873024E+01  0.61298022050E+01  0.67016406240E+01  0.51100000000E-03 0.  1.
        -12    1    4    4    0    0 -0.33671770067E+02 -0.22164614581E+02 -0.82808253180E+01  0.41153739890E+02  0.00000000000E+00 0.  1.
</event>
<event>
 8    1  0.1253488E-006  0.9118800E+02  0.7816164E-02  0.1184000E+00
        -11   -1    0    0    0    0  0.00000000000E+00  0.00000000000E+00  0.45593999997E+02  0.45594000000E+02  0.51100000000E-03 0. -1.
         11   -1    0    0    0    0 -0.00000000000E+00 -0.00000000000E+00 -0.45593999997E+02  0.45594000000E+02  0.51100000000E-03 0.  1.
         23    2    1    2    0    0  0.00000000000E+00  0.00000000000E+00 -0.88817841970E-15  0.91188000000E+02  0.91188000000E+02 0.  0.
    9900012    2    3    3    0    0 -0.34289570602E+02  0.12552818391E+02  0.47362398704E+01  0.54367083801E+02  0.39999999141E+02 0.  0.
        -12    1    3    3    0    0  0.34289570602E+02 -0.12552818391E+02 -0.47362398704E+01  0.36820916199E+02  0.00000000000E+00 0.  1.
         11    1    4    4    0    0 -0.24845491016E+02  0.13262670977E+02 -0.59635080647E+01  0.28788197129E+02  0.51100000000E-03 0. -1.
        -11    1    4    4    0    0 -0.39575535115E+00 -0.95772758145E+01  0.10287040024E+01  0.96404909891E+01  0.51100000000E-03 0.  1.
         12    1    4    4    0    0 -0.90483242349E+01  0.88674232291E+01  0.96710439327E+01  0.15938395683E+02  0.00000000000E+00 0. -1.
</event>
<event>
 8    1  0.1253488E-006  0.9118800E+02  0.7816164E-02  0.1184000E+00
        -11   -1    0    0    0    0  0.00000000000E+00  0.00000000000E+00  0.45593999997E+02  0.45594000000E+02  0.51100000000E-03 0.  1.
         11   -1    0    0    0    0 -0.00000000000E+00 -0.00000000000E+00 -0.45593999997E+02  0.45594000000E+02  0.51100000000E-03 0. -1.
         23    2    1    2    0    0  0.17763568394E-14  0.00000000000E+00 -0.35527136788E-14  0.91188000000E+02  0.91188000000E+02 0.  0.
    9900012    2    3    3    0    0  0.55521149218E+01 -0.18984110455E+02 -0.31057301296E+02  0.54367103845E+02  0.40000044836E+02 0.  0.
        -12    1    3    3    0    0 -0.55521149218E+01  0.18984110455E+02  0.31057301296E+02  0.36820896155E+02  0.00000000000E+00 0.  1.
         11    1    4    4    0    0 -0.11982681156E+01  0.39808509844E+01 -0.25208662062E+01  0.48618708053E+01  0.51100000000E-03 0. -1.
        -11    1    4    4    0    0  0.19300582420E+02 -0.90179556610E+01 -0.18565433257E+02  0.28257942571E+02  0.51100000000E-03 0.  1.
         12    1    4    4    0    0 -0.12550199383E+02 -0.13947005779E+02 -0.99710018321E+01  0.21247290469E+02  0.00000000000E+00 0. -1.
</event>
<event>
 8    1  0.1253488E-006  0.9118800E+02  0.7816164E-02  0.1184000E+00
        -11   -1    0    0    0    0  0.00000000000E+00  0.00000000000E+00  0.45593999997E+02  0.45594000000E+02  0.51100000000E-03 0.  1.
         11   -1    0    0    0    0 -0.00000000000E+00 -0.00000000000E+00 -0.45593999997E+02  0.45594000000E+02  0.51100000000E-03 0. -1.
         23    2    1    2    0    0  0.00000000000E+00  0.17763568394E-14  0.00000000000E+00  0.91188000000E+02  0.91188000000E+02 0.  0.
    9900012    2    3    3    0    0 -0.22212705159E+02  0.15372991661E+02 -0.25021146069E+02  0.54366934104E+02  0.39999657876E+02 0.  0.
        -12    1    3    3    0    0  0.22212705159E+02 -0.15372991661E+02  0.25021146069E+02  0.36821065896E+02  0.00000000000E+00 0.  1.
         11    1    4    4    0    0 -0.13945190612E+02 -0.39462169377E+01 -0.15834882039E+02  0.21465890589E+02  0.51100000000E-03 0. -1.
        -11    1    4    4    0    0 -0.13649439880E+01  0.54759242846E+01 -0.15269591090E+02  0.16279104127E+02  0.51100000000E-03 0.  1.
        -12    1    4    4    0    0 -0.69025705589E+01  0.13843284314E+02  0.60833270593E+01  0.16621939388E+02  0.00000000000E+00 0.  1.
</event>
<event>
 8    1  0.1253488E-006  0.9118800E+02  0.7816164E-02  0.1184000E+00
        -11   -1    0    0    0    0  0.00000000000E+00  0.00000000000E+00  0.45593999997E+02  0.45594000000E+02  0.51100000000E-03 0. -1.
         11   -1    0    0    0    0 -0.00000000000E+00 -0.00000000000E+00 -0.45593999997E+02  0.45594000000E+02  0.51100000000E-03 0.  1.
         23    2    1    2    0    0  0.00000000000E+00  0.00000000000E+00 -0.35527136788E-14  0.91188000000E+02  0.91188000000E+02 0.  0.
    9900012    2    3    3    0    0  0.28883732454E+02  0.10655756070E+02  0.20198084903E+02  0.54367112292E+02  0.40000064091E+02 0.  0.
        -12    1    3    3    0    0 -0.28883732454E+02 -0.10655756070E+02 -0.20198084903E+02  0.36820887708E+02  0.00000000000E+00 0.  1.
         11    1    4    4    0    0  0.41178290509E+01  0.57682263754E+01  0.33491652082E+00  0.70951477044E+01  0.51100000000E-03 0. -1.
        -11    1    4    4    0    0 -0.14223390317E+01  0.45402882822E+01 -0.78258254409E+01  0.91586467395E+01  0.51100000000E-03 0.  1.
        -12    1    4    4    0    0  0.26188242435E+02  0.34724141196E+00  0.27688993823E+02  0.38113317848E+02  0.00000000000E+00 0.  1.
</event>
<event>
 8    1  0.1253488E-006  0.9118800E+02  0.7816164E-02  0.1184000E+00
        -11   -1    0    0    0    0  0.00000000000E+00  0.00000000000E+00  0.45593999997E+02  0.45594000000E+02  0.51100000000E-03 0.  1.
         11   -1    0    0    0    0 -0.00000000000E+00 -0.00000000000E+00 -0.45593999997E+02  0.45594000000E+02  0.51100000000E-03 0. -1.
         23    2    1    2    0    0  0.00000000000E+00  0.88817841970E-15 -0.35527136788E-14  0.91188000000E+02  0.91188000000E+02 0.  0.
    9900012    2    3    3    0    0  0.19423596319E+02 -0.22309391855E+01  0.31201390669E+02  0.54367082531E+02  0.39999996246E+02 0.  0.
         12    1    3    3    0    0 -0.19423596319E+02  0.22309391855E+01 -0.31201390669E+02  0.36820917469E+02  0.00000000000E+00 0. -1.
         11    1    4    4    0    0  0.13812128808E+02  0.10532759039E+02  0.23643375245E+02  0.29338082903E+02  0.51100000000E-03 0. -1.
        -11    1    4    4    0    0  0.68734895629E+01 -0.73931277718E+01  0.13541655930E+02  0.16890223285E+02  0.51100000000E-03 0.  1.
         12    1    4    4    0    0 -0.12620220516E+01 -0.53705704531E+01 -0.59836405065E+01  0.81387763430E+01  0.00000000000E+00 0. -1.
</event>
<event>
 8    1  0.1253488E-006  0.9118800E+02  0.7816164E-02  0.1184000E+00
        -11   -1    0    0    0    0  0.00000000000E+00  0.00000000000E+00  0.45593999997E+02  0.45594000000E+02  0.51100000000E-03 0.  1.
         11   -1    0    0    0    0 -0.00000000000E+00 -0.00000000000E+00 -0.45593999997E+02  0.45594000000E+02  0.51100000000E-03 0. -1.
         23    2    1    2    0    0  0.00000000000E+00  0.00000000000E+00  0.00000000000E+00  0.91188000000E+02  0.91188000000E+02 0.  0.
    9900012    2    3    3    0    0 -0.35235933198E+02 -0.28651933779E+01  0.10295612781E+02  0.54367082521E+02  0.39999996224E+02 0.  0.
         12    1    3    3    0    0  0.35235933198E+02  0.28651933779E+01 -0.10295612781E+02  0.36820917479E+02  0.00000000000E+00 0. -1.
         11    1    4    4    0    0 -0.30664372596E+02 -0.14722507569E+02  0.17360674566E+01  0.34059798976E+02  0.51100000000E-03 0.  1.
        -11    1    4    4    0    0 -0.51165811597E+01  0.21055534491E+01 -0.20371964219E+01  0.58960094651E+01  0.51100000000E-03 0. -1.
         12    1    4    4    0    0  0.54502055726E+00  0.97517607423E+01  0.10596741746E+02  0.14411274080E+02  0.00000000000E+00 0. -1.
</event>
<event>
 8    1  0.1253488E-006  0.9118800E+02  0.7816164E-02  0.1184000E+00
        -11   -1    0    0    0    0  0.00000000000E+00  0.00000000000E+00  0.45593999997E+02  0.45594000000E+02  0.51100000000E-03 0. -1.
         11   -1    0    0    0    0 -0.00000000000E+00 -0.00000000000E+00 -0.45593999997E+02  0.45594000000E+02  0.51100000000E-03 0.  1.
         23    2    1    2    0    0 -0.71054273576E-14  0.35527136788E-14  0.00000000000E+00  0.91188000000E+02  0.91188000000E+02 0.  0.
    9900012    2    3    3    0    0 -0.19295886717E+02  0.21854234842E+02  0.22490937563E+02  0.54367067133E+02  0.39999961143E+02 0.  0.
        -12    1    3    3    0    0  0.19295886717E+02 -0.21854234842E+02 -0.22490937563E+02  0.36820932867E+02  0.00000000000E+00 0.  1.
         11    1    4    4    0    0 -0.63471125517E+00  0.77782198726E+01  0.11093977533E+01  0.78825329939E+01  0.51100000000E-03 0. -1.
        -11    1    4    4    0    0 -0.14790815211E+02  0.18978260632E+02 -0.15380339588E+00  0.24061717456E+02  0.51100000000E-03 0.  1.
         12    1    4    4    0    0 -0.38703602511E+01 -0.49022456619E+01  0.21535343205E+02  0.22422816683E+02  0.00000000000E+00 0. -1.
</event>
<event>
 8    1  0.1253488E-006  0.9118800E+02  0.7816164E-02  0.1184000E+00
        -11   -1    0    0    0    0  0.00000000000E+00  0.00000000000E+00  0.45593999997E+02  0.45594000000E+02  0.51100000000E-03 0.  1.
         11   -1    0    0    0    0 -0.00000000000E+00 -0.00000000000E+00 -0.45593999997E+02  0.45594000000E+02  0.51100000000E-03 0. -1.
         23    2    1    2    0    0  0.00000000000E+00  0.17763568394E-14  0.17763568394E-14  0.91188000000E+02  0.91188000000E+02 0.  0.
    9900012    2    3    3    0    0 -0.31244297189E+02  0.15519556405E+02  0.11777808397E+02  0.54367088706E+02  0.40000010324E+02 0.  0.
         12    1    3    3    0    0  0.31244297189E+02 -0.15519556405E+02 -0.11777808397E+02  0.36820911294E+02  0.00000000000E+00 0. -1.
         11    1    4    4    0    0 -0.32499779840E+01 -0.64748224418E+01  0.95873025298E+00  0.73078619656E+01  0.51100000000E-03 0. -1.
        -11    1    4    4    0    0 -0.20529664170E+02  0.10778359926E+02  0.20110406128E+02  0.30693135853E+02  0.51100000000E-03 0.  1.
         12    1    4    4    0    0 -0.74646550346E+01  0.11216018922E+02 -0.92913279833E+01  0.16366090887E+02  0.00000000000E+00 0. -1.
</event>
<event>
 8    1  0.1253488E-006  0.9118800E+02  0.7816164E-02  0.1184000E+00
        -11   -1    0    0    0    0  0.00000000000E+00  0.00000000000E+00  0.45593999997E+02  0.45594000000E+02  0.51100000000E-03 0. -1.
         11   -1    0    0    0    0 -0.00000000000E+00 -0.00000000000E+00 -0.45593999997E+02  0.45594000000E+02  0.51100000000E-03 0.  1.
         23    2    1    2    0    0  0.00000000000E+00  0.00000000000E+00  0.00000000000E+00  0.91188000000E+02  0.91188000000E+02 0.  0.
    9900012    2    3    3    0    0  0.28836284780E+02  0.21687752797E+02  0.73420084790E+01  0.54366877939E+02  0.39999529836E+02 0.  0.
        -12    1    3    3    0    0 -0.28836284780E+02 -0.21687752797E+02 -0.73420084790E+01  0.36821122061E+02  0.00000000000E+00 0.  1.
         11    1    4    4    0    0  0.33427005624E+01  0.80178501856E+01  0.35914761070E+01  0.93999079537E+01  0.51100000000E-03 0. -1.
        -11    1    4    4    0    0  0.33501581478E+02  0.84376352098E+01  0.61830559754E+01  0.35096721085E+02  0.51100000000E-03 0.  1.
        -12    1    4    4    0    0 -0.80079972605E+01  0.52322674019E+01 -0.24325236035E+01  0.98702489012E+01  0.00000000000E+00 0.  1.
</event>
<event>
 8    1  0.1253488E-006  0.9118800E+02  0.7816164E-02  0.1184000E+00
        -11   -1    0    0    0    0  0.00000000000E+00  0.00000000000E+00  0.45593999997E+02  0.45594000000E+02  0.51100000000E-03 0.  1.
         11   -1    0    0    0    0 -0.00000000000E+00 -0.00000000000E+00 -0.45593999997E+02  0.45594000000E+02  0.51100000000E-03 0. -1.
         23    2    1    2    0    0  0.00000000000E+00 -0.88817841970E-15  0.00000000000E+00  0.91188000000E+02  0.91188000000E+02 0.  0.
    9900012    2    3    3    0    0  0.34042396661E+02 -0.60080559372E+01  0.12680609501E+02  0.54367090671E+02  0.40000014802E+02 0.  0.
         12    1    3    3    0    0 -0.34042396661E+02  0.60080559372E+01 -0.12680609501E+02  0.36820909329E+02  0.00000000000E+00 0. -1.
         11    1    4    4    0    0  0.79831610486E+01 -0.71767795141E+01  0.12511838737E+02  0.16485846456E+02  0.51100000000E-03 0.  1.
        -11    1    4    4    0    0  0.13245707847E+02  0.12843002630E+02 -0.61249504889E+01  0.19439817687E+02  0.51100000000E-03 0. -1.
         12    1    4    4    0    0  0.12813527765E+02 -0.11674279053E+02  0.62937212526E+01  0.18441426528E+02  0.00000000000E+00 0. -1.
</event>
<event>
 8    1  0.1253488E-006  0.9118800E+02  0.7816164E-02  0.1184000E+00
        -11   -1    0    0    0    0  0.00000000000E+00  0.00000000000E+00  0.45593999997E+02  0.45594000000E+02  0.51100000000E-03 0. -1.
         11   -1    0    0    0    0 -0.00000000000E+00 -0.00000000000E+00 -0.45593999997E+02  0.45594000000E+02  0.51100000000E-03 0.  1.
         23    2    1    2    0    0  0.00000000000E+00  0.00000000000E+00  0.71054273576E-14  0.91188000000E+02  0.91188000000E+02 0.  0.
    9900012    2    3    3    0    0  0.73879256473E+01  0.77773347959E+01  0.35223726824E+02  0.54367091358E+02  0.40000016368E+02 0.  0.
        -12    1    3    3    0    0 -0.73879256473E+01 -0.77773347959E+01 -0.35223726824E+02  0.36820908642E+02  0.00000000000E+00 0.  1.
         11    1    4    4    0    0 -0.38248666586E+01  0.19794958469E+01  0.70729651573E+00  0.43644332262E+01  0.51100000000E-03 0. -1.
        -11    1    4    4    0    0  0.39024094509E+01 -0.60892208844E+00 -0.66334576612E+01  0.77202555940E+01  0.51100000000E-03 0.  1.
        -12    1    4    4    0    0  0.73103828550E+01  0.64067610375E+01  0.41149887969E+02  0.42282402538E+02  0.00000000000E+00 0.  1.
</event>
<event>
 8    1  0.1253488E-006  0.9118800E+02  0.7816164E-02  0.1184000E+00
        -11   -1    0    0    0    0  0.00000000000E+00  0.00000000000E+00  0.45593999997E+02  0.45594000000E+02  0.51100000000E-03 0.  1.
         11   -1    0    0    0    0 -0.00000000000E+00 -0.00000000000E+00 -0.45593999997E+02  0.45594000000E+02  0.51100000000E-03 0. -1.
         23    2    1    2    0    0  0.00000000000E+00  0.00000000000E+00  0.00000000000E+00  0.91188000000E+02  0.91188000000E+02 0.  0.
    9900012    2    3    3    0    0  0.93312810777E+01  0.28567779045E+02 -0.21274273676E+02  0.54367006986E+02  0.39999824025E+02 0.  0.
        -12    1    3    3    0    0 -0.93312810777E+01 -0.28567779045E+02  0.21274273676E+02  0.36820993014E+02  0.00000000000E+00 0.  1.
         11    1    4    4    0    0  0.50358615950E+01  0.12880709044E+02 -0.51319093738E+01  0.14751578273E+02  0.51100000000E-03 0. -1.
        -11    1    4    4    0    0  0.11532710911E+02  0.16733462116E+02 -0.22216242789E+02  0.30109360990E+02  0.51100000000E-03 0.  1.
        -12    1    4    4    0    0 -0.72372914281E+01 -0.10463921142E+01  0.60738784863E+01  0.95060677222E+01  0.00000000000E+00 0.  1.
</event>
<event>
 8    1  0.1253488E-006  0.9118800E+02  0.7816164E-02  0.1184000E+00
        -11   -1    0    0    0    0  0.00000000000E+00  0.00000000000E+00  0.45593999997E+02  0.45594000000E+02  0.51100000000E-03 0. -1.
         11   -1    0    0    0    0 -0.00000000000E+00 -0.00000000000E+00 -0.45593999997E+02  0.45594000000E+02  0.51100000000E-03 0.  1.
         23    2    1    2    0    0 -0.35527136788E-14 -0.88817841970E-15  0.35527136788E-14  0.91188000000E+02  0.91188000000E+02 0.  0.
    9900012    2    3    3    0    0 -0.29798139744E+02 -0.75858720338E+01 -0.20255988196E+02  0.54367086860E+02  0.40000006114E+02 0.  0.
         12    1    3    3    0    0  0.29798139744E+02  0.75858720338E+01  0.20255988196E+02  0.36820913140E+02  0.00000000000E+00 0. -1.
         11    1    4    4    0    0 -0.11446656831E+02  0.14360068022E+02 -0.72417582494E+01  0.19740328493E+02  0.51100000000E-03 0. -1.
        -11    1    4    4    0    0 -0.14348318693E+02 -0.76208494993E+01 -0.10992699216E+02  0.19616091169E+02  0.51100000000E-03 0.  1.
         12    1    4    4    0    0 -0.40031642190E+01 -0.14325090557E+02 -0.20215307308E+01  0.15010667198E+02  0.00000000000E+00 0. -1.
</event>
<event>
 8    1  0.1253488E-006  0.9118800E+02  0.7816164E-02  0.1184000E+00
        -11   -1    0    0    0    0  0.00000000000E+00  0.00000000000E+00  0.45593999997E+02  0.45594000000E+02  0.51100000000E-03 0. -1.
         11   -1    0    0    0    0 -0.00000000000E+00 -0.00000000000E+00 -0.45593999997E+02  0.45594000000E+02  0.51100000000E-03 0.  1.
         23    2    1    2    0    0  0.00000000000E+00  0.00000000000E+00  0.35527136788E-14  0.91188000000E+02  0.91188000000E+02 0.  0.
    9900012    2    3    3    0    0 -0.12685099975E+02 -0.28241767342E+02  0.19931656429E+02  0.54367080512E+02  0.39999991642E+02 0.  0.
        -12    1    3    3    0    0  0.12685099975E+02  0.28241767342E+02 -0.19931656429E+02  0.36820919488E+02  0.00000000000E+00 0.  1.
         11    1    4    4    0    0 -0.16187427442E+02 -0.42520539911E+01  0.22972709742E+02  0.28422845802E+02  0.51100000000E-03 0. -1.
        -11    1    4    4    0    0  0.58962625894E+01 -0.19425911118E+02 -0.77870103791E+00  0.20315961972E+02  0.51100000000E-03 0.  1.
         12    1    4    4    0    0 -0.23939351229E+01 -0.45638022323E+01 -0.22623522752E+01  0.56282727373E+01  0.00000000000E+00 0. -1.
</event>
<event>
 8    1  0.1253488E-006  0.9118800E+02  0.7816164E-02  0.1184000E+00
        -11   -1    0    0    0    0  0.00000000000E+00  0.00000000000E+00  0.45593999997E+02  0.45594000000E+02  0.51100000000E-03 0. -1.
         11   -1    0    0    0    0 -0.00000000000E+00 -0.00000000000E+00 -0.45593999997E+02  0.45594000000E+02  0.51100000000E-03 0.  1.
         23    2    1    2    0    0  0.17763568394E-14  0.71054273576E-14  0.35527136788E-14  0.91188000000E+02  0.91188000000E+02 0.  0.
    9900012    2    3    3    0    0  0.14552403904E+02  0.16610405065E+02  0.29463578572E+02  0.54367075540E+02  0.39999980309E+02 0.  0.
        -12    1    3    3    0    0 -0.14552403904E+02 -0.16610405065E+02 -0.29463578572E+02  0.36820924460E+02  0.00000000000E+00 0.  1.
         11    1    4    4    0    0  0.25893909562E+01 -0.77121264613E+00  0.17653303619E+02  0.17858858962E+02  0.51100000000E-03 0. -1.
        -11    1    4    4    0    0 -0.23663322526E+00 -0.27163582588E+01 -0.62778603145E+01  0.68444231213E+01  0.51100000000E-03 0.  1.
         12    1    4    4    0    0  0.12199646173E+02  0.20097975970E+02  0.18088135267E+02  0.29663793457E+02  0.00000000000E+00 0. -1.
</event>
<event>
 8    1  0.1253488E-006  0.9118800E+02  0.7816164E-02  0.1184000E+00
        -11   -1    0    0    0    0  0.00000000000E+00  0.00000000000E+00  0.45593999997E+02  0.45594000000E+02  0.51100000000E-03 0. -1.
         11   -1    0    0    0    0 -0.00000000000E+00 -0.00000000000E+00 -0.45593999997E+02  0.45594000000E+02  0.51100000000E-03 0.  1.
         23    2    1    2    0    0 -0.88817841970E-15  0.00000000000E+00  0.00000000000E+00  0.91188000000E+02  0.91188000000E+02 0.  0.
    9900012    2    3    3    0    0 -0.67540312342E+01  0.17739955333E+02 -0.31550834136E+02  0.54367107999E+02  0.40000054304E+02 0.  0.
         12    1    3    3    0    0  0.67540312342E+01 -0.17739955333E+02  0.31550834136E+02  0.36820892001E+02  0.00000000000E+00 0. -1.
         11    1    4    4    0    0 -0.14219973821E+02  0.20008730507E+02 -0.12561768695E+02  0.27574535082E+02  0.51100000000E-03 0. -1.
        -11    1    4    4    0    0  0.12934250796E+01 -0.17323126944E+01 -0.20337222520E+02  0.20451808619E+02  0.51100000000E-03 0.  1.
         12    1    4    4    0    0  0.61725175072E+01 -0.53646247943E+00  0.13481570792E+01  0.63407642977E+01  0.00000000000E+00 0. -1.
</event>
<event>
 8    1  0.1253488E-006  0.9118800E+02  0.7816164E-02  0.1184000E+00
        -11   -1    0    0    0    0  0.00000000000E+00  0.00000000000E+00  0.45593999997E+02  0.45594000000E+02  0.51100000000E-03 0.  1.
         11   -1    0    0    0    0 -0.00000000000E+00 -0.00000000000E+00 -0.45593999997E+02  0.45594000000E+02  0.51100000000E-03 0. -1.
         23    2    1    2    0    0  0.17763568394E-14  0.00000000000E+00  0.00000000000E+00  0.91188000000E+02  0.91188000000E+02 0.  0.
    9900012    2    3    3    0    0 -0.49828732617E+01  0.36428295798E+02  0.19815602613E+01  0.54367131708E+02  0.40000108354E+02 0.  0.
         12    1    3    3    0    0  0.49828732617E+01 -0.36428295798E+02 -0.19815602613E+01  0.36820868292E+02  0.00000000000E+00 0. -1.
         11    1    4    4    0    0  0.75433931425E+01  0.53431910499E+01 -0.36031752612E+01  0.99214587094E+01  0.51100000000E-03 0. -1.
        -11    1    4    4    0    0 -0.18722910485E+02  0.22185315494E+02  0.12475490697E+02  0.31597048422E+02  0.51100000000E-03 0.  1.
        -12    1    4    4    0    0  0.61966440808E+01  0.88997892544E+01 -0.68907551742E+01  0.12848624577E+02  0.00000000000E+00 0.  1.
</event>
<event>
 8    1  0.1253488E-006  0.9118800E+02  0.7816164E-02  0.1184000E+00
        -11   -1    0    0    0    0  0.00000000000E+00  0.00000000000E+00  0.45593999997E+02  0.45594000000E+02  0.51100000000E-03 0.  1.
         11   -1    0    0    0    0 -0.00000000000E+00 -0.00000000000E+00 -0.45593999997E+02  0.45594000000E+02  0.51100000000E-03 0. -1.
         23    2    1    2    0    0  0.00000000000E+00  0.17763568394E-14  0.88817841970E-15  0.91188000000E+02  0.91188000000E+02 0.  0.
    9900012    2    3    3    0    0 -0.35289675525E+02 -0.79874800003E+01  0.68277010859E+01  0.54367101891E+02  0.40000040381E+02 0.  0.
         12    1    3    3    0    0  0.35289675525E+02  0.79874800003E+01 -0.68277010859E+01  0.36820898109E+02  0.00000000000E+00 0. -1.
         11    1    4    4    0    0 -0.10281344308E+02 -0.47204172974E+01 -0.10221985560E+02  0.15247208574E+02  0.51100000000E-03 0. -1.
        -11    1    4    4    0    0 -0.20678433663E+02  0.48441369584E+01  0.20288559617E+02  0.29371566748E+02  0.51100000000E-03 0.  1.
        -12    1    4    4    0    0 -0.43298975536E+01 -0.81111996613E+01 -0.32388729708E+01  0.97483265688E+01  0.00000000000E+00 0.  1.
</event>
<event>
 8    1  0.1253488E-006  0.9118800E+02  0.7816164E-02  0.1184000E+00
        -11   -1    0    0    0    0  0.00000000000E+00  0.00000000000E+00  0.45593999997E+02  0.45594000000E+02  0.51100000000E-03 0.  1.
         11   -1    0    0    0    0 -0.00000000000E+00 -0.00000000000E+00 -0.45593999997E+02  0.45594000000E+02  0.51100000000E-03 0. -1.
         23    2    1    2    0    0  0.00000000000E+00  0.00000000000E+00  0.00000000000E+00  0.91188000000E+02  0.91188000000E+02 0.  0.
    9900012    2    3    3    0    0  0.17050381829E+02  0.23966552747E+02  0.22151049840E+02  0.54367079587E+02  0.39999989534E+02 0.  0.
         12    1    3    3    0    0 -0.17050381829E+02 -0.23966552747E+02 -0.22151049840E+02  0.36820920413E+02  0.00000000000E+00 0. -1.
         11    1    4    4    0    0  0.21864262559E+01 -0.43136487593E+01 -0.29878191053E+01  0.56846361940E+01  0.51100000000E-03 0. -1.
        -11    1    4    4    0    0 -0.71443698016E+01  0.33680028848E+01  0.19008069589E+01  0.81239479719E+01  0.51100000000E-03 0.  1.
         12    1    4    4    0    0  0.22008325374E+02  0.24912198621E+02  0.23238061986E+02  0.40558495421E+02  0.00000000000E+00 0. -1.
</event>
<event>
 8    1  0.1253488E-006  0.9118800E+02  0.7816164E-02  0.1184000E+00
        -11   -1    0    0    0    0  0.00000000000E+00  0.00000000000E+00  0.45593999997E+02  0.45594000000E+02  0.51100000000E-03 0. -1.
         11   -1    0    0    0    0 -0.00000000000E+00 -0.00000000000E+00 -0.45593999997E+02  0.45594000000E+02  0.51100000000E-03 0.  1.
         23    2    1    2    0    0  0.00000000000E+00  0.22204460493E-15 -0.71054273576E-14  0.91188000000E+02  0.91188000000E+02 0.  0.
    9900012    2    3    3    0    0 -0.17456012297E+02 -0.17056000440E+01 -0.32375276246E+02  0.54367082726E+02  0.39999996691E+02 0.  0.
         12    1    3    3    0    0  0.17456012297E+02  0.17056000440E+01  0.32375276246E+02  0.36820917274E+02  0.00000000000E+00 0. -1.
         11    1    4    4    0    0  0.16511824834E+00 -0.21486929220E+01 -0.11556523121E+02  0.11755737842E+02  0.51100000000E-03 0.  1.
        -11    1    4    4    0    0  0.79521297421E+01 -0.21769312066E+01 -0.13610201431E+02  0.15912667287E+02  0.51100000000E-03 0. -1.
         12    1    4    4    0    0 -0.25573260288E+02  0.26200240845E+01 -0.72085516946E+01  0.26698677598E+02  0.00000000000E+00 0. -1.
</event>
<event>
 8    1  0.1253488E-006  0.9118800E+02  0.7816164E-02  0.1184000E+00
        -11   -1    0    0    0    0  0.00000000000E+00  0.00000000000E+00  0.45593999997E+02  0.45594000000E+02  0.51100000000E-03 0.  1.
         11   -1    0    0    0    0 -0.00000000000E+00 -0.00000000000E+00 -0.45593999997E+02  0.45594000000E+02  0.51100000000E-03 0. -1.
         23    2    1    2    0    0  0.00000000000E+00  0.17763568394E-14 -0.88817841970E-15  0.91188000000E+02  0.91188000000E+02 0.  0.
    9900012    2    3    3    0    0  0.32817556657E+02  0.15519737748E+02 -0.61578631075E+01  0.54367169445E+02  0.40000194383E+02 0.  0.
        -12    1    3    3    0    0 -0.32817556657E+02 -0.15519737748E+02  0.61578631075E+01  0.36820830555E+02  0.00000000000E+00 0.  1.
         11    1    4    4    0    0  0.20894590979E+02  0.10110357220E+02  0.55231072604E+01  0.23860175384E+02  0.51100000000E-03 0. -1.
        -11    1    4    4    0    0 -0.76111714726E+01 -0.32347656490E+00 -0.48619250228E+01  0.90373050996E+01  0.51100000000E-03 0.  1.
        -12    1    4    4    0    0  0.19534137151E+02  0.57328570929E+01 -0.68190453451E+01  0.21469688961E+02  0.00000000000E+00 0.  1.
</event>
<event>
 8    1  0.1253488E-006  0.9118800E+02  0.7816164E-02  0.1184000E+00
        -11   -1    0    0    0    0  0.00000000000E+00  0.00000000000E+00  0.45593999997E+02  0.45594000000E+02  0.51100000000E-03 0.  1.
         11   -1    0    0    0    0 -0.00000000000E+00 -0.00000000000E+00 -0.45593999997E+02  0.45594000000E+02  0.51100000000E-03 0. -1.
         23    2    1    2    0    0 -0.35527136788E-14  0.00000000000E+00  0.00000000000E+00  0.91188000000E+02  0.91188000000E+02 0.  0.
    9900012    2    3    3    0    0  0.29746828362E+02  0.12041719081E+02  0.18052772443E+02  0.54367090330E+02  0.40000014026E+02 0.  0.
         12    1    3    3    0    0 -0.29746828362E+02 -0.12041719081E+02 -0.18052772443E+02  0.36820909670E+02  0.00000000000E+00 0. -1.
         11    1    4    4    0    0  0.10404699723E+02  0.19365806040E+02  0.34902405434E+01  0.22259245252E+02  0.51100000000E-03 0. -1.
        -11    1    4    4    0    0  0.65308422875E+01  0.52318222014E+01  0.10996910765E+02  0.13818679791E+02  0.51100000000E-03 0.  1.
         12    1    4    4    0    0  0.12811286352E+02 -0.12555909160E+02  0.35656211340E+01  0.18289165287E+02  0.00000000000E+00 0. -1.
</event>
<event>
 8    1  0.1253488E-006  0.9118800E+02  0.7816164E-02  0.1184000E+00
        -11   -1    0    0    0    0  0.00000000000E+00  0.00000000000E+00  0.45593999997E+02  0.45594000000E+02  0.51100000000E-03 0. -1.
         11   -1    0    0    0    0 -0.00000000000E+00 -0.00000000000E+00 -0.45593999997E+02  0.45594000000E+02  0.51100000000E-03 0.  1.
         23    2    1    2    0    0  0.88817841970E-15  0.71054273576E-14 -0.22204460493E-15  0.91188000000E+02  0.91188000000E+02 0.  0.
    9900012    2    3    3    0    0 -0.41034494692E+01 -0.36562152573E+02 -0.14659530356E+01  0.54367104891E+02  0.40000047219E+02 0.  0.
        -12    1    3    3    0    0  0.41034494692E+01  0.36562152573E+02  0.14659530356E+01  0.36820895109E+02  0.00000000000E+00 0.  1.
         11    1    4    4    0    0  0.16189765000E+00 -0.10197756237E+01  0.31944659608E+01  0.33571961824E+01  0.51100000000E-03 0. -1.
        -11    1    4    4    0    0 -0.38296765127E+01  0.63586347755E+01 -0.52680057566E+01  0.91022273819E+01  0.51100000000E-03 0.  1.
         12    1    4    4    0    0 -0.43567060648E+00 -0.41901011725E+02  0.60758676021E+00  0.41907681326E+02  0.00000000000E+00 0. -1.
</event>
<event>
 8    1  0.1253488E-006  0.9118800E+02  0.7816164E-02  0.1184000E+00
        -11   -1    0    0    0    0  0.00000000000E+00  0.00000000000E+00  0.45593999997E+02  0.45594000000E+02  0.51100000000E-03 0.  1.
         11   -1    0    0    0    0 -0.00000000000E+00 -0.00000000000E+00 -0.45593999997E+02  0.45594000000E+02  0.51100000000E-03 0. -1.
         23    2    1    2    0    0  0.00000000000E+00  0.00000000000E+00  0.00000000000E+00  0.91188000000E+02  0.91188000000E+02 0.  0.
    9900012    2    3    3    0    0 -0.75825182297E+01  0.33990993899E+02  0.11953932629E+02  0.54367098948E+02  0.40000033672E+02 0.  0.
         12    1    3    3    0    0  0.75825182297E+01 -0.33990993899E+02 -0.11953932629E+02  0.36820901052E+02  0.00000000000E+00 0. -1.
         11    1    4    4    0    0 -0.57739686891E+01  0.29418253750E+01  0.44359173809E+01  0.78530512689E+01  0.51100000000E-03 0. -1.
        -11    1    4    4    0    0  0.27952794345E+01  0.36016023499E+02  0.12369360279E+02  0.38183355140E+02  0.51100000000E-03 0.  1.
        -12    1    4    4    0    0 -0.46038289751E+01 -0.49668549745E+01 -0.48513450309E+01  0.83306925390E+01  0.00000000000E+00 0.  1.
</event>
<event>
 8    1  0.1253488E-006  0.9118800E+02  0.7816164E-02  0.1184000E+00
        -11   -1    0    0    0    0  0.00000000000E+00  0.00000000000E+00  0.45593999997E+02  0.45594000000E+02  0.51100000000E-03 0.  1.
         11   -1    0    0    0    0 -0.00000000000E+00 -0.00000000000E+00 -0.45593999997E+02  0.45594000000E+02  0.51100000000E-03 0. -1.
         23    2    1    2    0    0  0.35527136788E-14  0.00000000000E+00  0.71054273576E-14  0.91188000000E+02  0.91188000000E+02 0.  0.
    9900012    2    3    3    0    0 -0.17936724096E+02 -0.14430444844E+02 -0.28737024451E+02  0.54367076818E+02  0.39999983221E+02 0.  0.
        -12    1    3    3    0    0  0.17936724096E+02  0.14430444844E+02  0.28737024451E+02  0.36820923182E+02  0.00000000000E+00 0.  1.
         11    1    4    4    0    0 -0.81250864630E+01  0.23659900815E+01 -0.21807130543E+02  0.23391577156E+02  0.51100000000E-03 0. -1.
        -11    1    4    4    0    0  0.22610723448E+01 -0.17918426205E+02 -0.44254312511E+01  0.18594808088E+02  0.51100000000E-03 0.  1.
        -12    1    4    4    0    0 -0.12072709978E+02  0.11219912792E+01 -0.25044626573E+01  0.12380691574E+02  0.00000000000E+00 0.  1.
</event>
<event>
 8    1  0.1253488E-006  0.9118800E+02  0.7816164E-02  0.1184000E+00
        -11   -1    0    0    0    0  0.00000000000E+00  0.00000000000E+00  0.45593999997E+02  0.45594000000E+02  0.51100000000E-03 0.  1.
         11   -1    0    0    0    0 -0.00000000000E+00 -0.00000000000E+00 -0.45593999997E+02  0.45594000000E+02  0.51100000000E-03 0. -1.
         23    2    1    2    0    0  0.71054273576E-14 -0.35527136788E-14  0.35527136788E-14  0.91188000000E+02  0.91188000000E+02 0.  0.
    9900012    2    3    3    0    0  0.11777842377E+02 -0.30607595024E+02  0.16740072827E+02  0.54367184114E+02  0.40000227825E+02 0.  0.
         12    1    3    3    0    0 -0.11777842377E+02  0.30607595024E+02 -0.16740072827E+02  0.36820815886E+02  0.00000000000E+00 0. -1.
         11    1    4    4    0    0 -0.19202647974E+01 -0.11300940658E+02  0.35144589839E+01  0.11989582931E+02  0.51100000000E-03 0. -1.
        -11    1    4    4    0    0  0.16293860993E+02 -0.26733987799E+02  0.14331561306E+02  0.34432392589E+02  0.51100000000E-03 0.  1.
         12    1    4    4    0    0 -0.25957538182E+01  0.74273334331E+01 -0.11059474624E+01  0.79452085939E+01  0.00000000000E+00 0. -1.
</event>
<event>
 8    1  0.1253488E-006  0.9118800E+02  0.7816164E-02  0.1184000E+00
        -11   -1    0    0    0    0  0.00000000000E+00  0.00000000000E+00  0.45593999997E+02  0.45594000000E+02  0.51100000000E-03 0.  1.
         11   -1    0    0    0    0 -0.00000000000E+00 -0.00000000000E+00 -0.45593999997E+02  0.45594000000E+02  0.51100000000E-03 0. -1.
         23    2    1    2    0    0 -0.35527136788E-14 -0.35527136788E-14  0.00000000000E+00  0.91188000000E+02  0.91188000000E+02 0.  0.
    9900012    2    3    3    0    0  0.21382678924E+02 -0.23916508905E+02  0.18070976776E+02  0.54367101616E+02  0.40000039754E+02 0.  0.
        -12    1    3    3    0    0 -0.21382678924E+02  0.23916508905E+02 -0.18070976776E+02  0.36820898384E+02  0.00000000000E+00 0.  1.
         11    1    4    4    0    0  0.25635530459E+02 -0.12038163575E+02  0.12205838451E+01  0.28347621229E+02  0.51100000000E-03 0. -1.
        -11    1    4    4    0    0  0.22399851446E+01 -0.44046701204E+01 -0.15039787043E+01  0.51653271456E+01  0.51100000000E-03 0.  1.
        -12    1    4    4    0    0 -0.64928366796E+01 -0.74736752095E+01  0.18354371635E+02  0.20854153241E+02  0.00000000000E+00 0.  1.
</event>
<event>
 8    1  0.1253488E-006  0.9118800E+02  0.7816164E-02  0.1184000E+00
        -11   -1    0    0    0    0  0.00000000000E+00  0.00000000000E+00  0.45593999997E+02  0.45594000000E+02  0.51100000000E-03 0.  1.
         11   -1    0    0    0    0 -0.00000000000E+00 -0.00000000000E+00 -0.45593999997E+02  0.45594000000E+02  0.51100000000E-03 0. -1.
         23    2    1    2    0    0  0.00000000000E+00 -0.17763568394E-14  0.00000000000E+00  0.91188000000E+02  0.91188000000E+02 0.  0.
    9900012    2    3    3    0    0  0.34487940695E+02 -0.11935765654E+02  0.48887197316E+01  0.54367080189E+02  0.39999990906E+02 0.  0.
         12    1    3    3    0    0 -0.34487940695E+02  0.11935765654E+02 -0.48887197316E+01  0.36820919811E+02  0.00000000000E+00 0. -1.
         11    1    4    4    0    0  0.12581568203E+02  0.44402852396E+01 -0.81263697860E+01  0.15622095814E+02  0.51100000000E-03 0. -1.
        -11    1    4    4    0    0  0.15079708793E+02 -0.27393043687E+01 -0.40561355899E+01  0.15854136428E+02  0.51100000000E-03 0.  1.
         12    1    4    4    0    0  0.68266636989E+01 -0.13636746525E+02  0.17071225108E+02  0.22890847946E+02  0.00000000000E+00 0. -1.
</event>
<event>
 8    1  0.1253488E-006  0.9118800E+02  0.7816164E-02  0.1184000E+00
        -11   -1    0    0    0    0  0.00000000000E+00  0.00000000000E+00  0.45593999997E+02  0.45594000000E+02  0.51100000000E-03 0.  1.
         11   -1    0    0    0    0 -0.00000000000E+00 -0.00000000000E+00 -0.45593999997E+02  0.45594000000E+02  0.51100000000E-03 0. -1.
         23    2    1    2    0    0 -0.26645352591E-14  0.35527136788E-14  0.00000000000E+00  0.91188000000E+02  0.91188000000E+02 0.  0.
    9900012    2    3    3    0    0 -0.78194727098E+01  0.22037644856E+02  0.28442545403E+02  0.54367077507E+02  0.39999984792E+02 0.  0.
         12    1    3    3    0    0  0.78194727098E+01 -0.22037644856E+02 -0.28442545403E+02  0.36820922493E+02  0.00000000000E+00 0. -1.
         11    1    4    4    0    0  0.77739741663E+01  0.60712639475E+01 -0.64254353844E+01  0.11772049116E+02  0.51100000000E-03 0. -1.
        -11    1    4    4    0    0 -0.14327661710E+02  0.12256811169E+02  0.21179112963E+02  0.28356059957E+02  0.51100000000E-03 0.  1.
         12    1    4    4    0    0 -0.12657851659E+01  0.37095697400E+01  0.13688867824E+02  0.14238968433E+02  0.00000000000E+00 0. -1.
</event>
<event>
 8    1  0.1253488E-006  0.9118800E+02  0.7816164E-02  0.1184000E+00
        -11   -1    0    0    0    0  0.00000000000E+00  0.00000000000E+00  0.45593999997E+02  0.45594000000E+02  0.51100000000E-03 0. -1.
         11   -1    0    0    0    0 -0.00000000000E+00 -0.00000000000E+00 -0.45593999997E+02  0.45594000000E+02  0.51100000000E-03 0.  1.
         23    2    1    2    0    0  0.00000000000E+00  0.00000000000E+00  0.00000000000E+00  0.91188000000E+02  0.91188000000E+02 0.  0.
    9900012    2    3    3    0    0  0.30008169958E+02 -0.12474797230E+02 -0.17310954919E+02  0.54367082163E+02  0.39999995408E+02 0.  0.
        -12    1    3    3    0    0 -0.30008169958E+02  0.12474797230E+02  0.17310954919E+02  0.36820917837E+02  0.00000000000E+00 0.  1.
         11    1    4    4    0    0  0.58162205086E+01  0.31228363560E+01  0.41054678464E+01  0.77740204792E+01  0.51100000000E-03 0. -1.
        -11    1    4    4    0    0  0.18652440874E+02  0.54391975245E+01 -0.78478459830E+01  0.20954405434E+02  0.51100000000E-03 0.  1.
        -12    1    4    4    0    0  0.55395085752E+01 -0.21036831110E+02 -0.13568576782E+02  0.25638656250E+02  0.00000000000E+00 0.  1.
</event>
<event>
 8    1  0.1253488E-006  0.9118800E+02  0.7816164E-02  0.1184000E+00
        -11   -1    0    0    0    0  0.00000000000E+00  0.00000000000E+00  0.45593999997E+02  0.45594000000E+02  0.51100000000E-03 0.  1.
         11   -1    0    0    0    0 -0.00000000000E+00 -0.00000000000E+00 -0.45593999997E+02  0.45594000000E+02  0.51100000000E-03 0. -1.
         23    2    1    2    0    0  0.71054273576E-14  0.00000000000E+00  0.15543122345E-14  0.91188000000E+02  0.91188000000E+02 0.  0.
    9900012    2    3    3    0    0  0.33184187332E+02  0.15944269334E+02 -0.60623901144E+00  0.54367115448E+02  0.40000071287E+02 0.  0.
        -12    1    3    3    0    0 -0.33184187332E+02 -0.15944269334E+02  0.60623901144E+00  0.36820884552E+02  0.00000000000E+00 0.  1.
         11    1    4    4    0    0  0.18276345341E+02  0.80042392563E+01 -0.27505342325E+01  0.20140955387E+02  0.51100000000E-03 0. -1.
        -11    1    4    4    0    0  0.12609913061E+02  0.15017170859E+02  0.11139330329E+02  0.22552383653E+02  0.51100000000E-03 0.  1.
         12    1    4    4    0    0  0.22979289302E+01 -0.70771407816E+01 -0.89950351081E+01  0.11673776407E+02  0.00000000000E+00 0. -1.
</event>
<event>
 8    1  0.1253488E-006  0.9118800E+02  0.7816164E-02  0.1184000E+00
        -11   -1    0    0    0    0  0.00000000000E+00  0.00000000000E+00  0.45593999997E+02  0.45594000000E+02  0.51100000000E-03 0. -1.
         11   -1    0    0    0    0 -0.00000000000E+00 -0.00000000000E+00 -0.45593999997E+02  0.45594000000E+02  0.51100000000E-03 0.  1.
         23    2    1    2    0    0 -0.17763568394E-14  0.00000000000E+00  0.71054273576E-14  0.91188000000E+02  0.91188000000E+02 0.  0.
    9900012    2    3    3    0    0 -0.97601996585E+01  0.14119062428E+02 -0.32575610229E+02  0.54367084707E+02  0.40000001206E+02 0.  0.
         12    1    3    3    0    0  0.97601996585E+01 -0.14119062428E+02  0.32575610229E+02  0.36820915293E+02  0.00000000000E+00 0. -1.
         11    1    4    4    0    0 -0.92335968859E+01 -0.15321511064E+01 -0.84570246299E+00  0.93979791115E+01  0.51100000000E-03 0. -1.
        -11    1    4    4    0    0  0.11679301481E+02  0.15324435657E+02 -0.22746519243E+02  0.29810208809E+02  0.51100000000E-03 0.  1.
        -12    1    4    4    0    0 -0.12205904254E+02  0.32677787721E+00 -0.89833885230E+01  0.15158896787E+02  0.00000000000E+00 0.  1.
</event>
<event>
 8    1  0.1253488E-006  0.9118800E+02  0.7816164E-02  0.1184000E+00
        -11   -1    0    0    0    0  0.00000000000E+00  0.00000000000E+00  0.45593999997E+02  0.45594000000E+02  0.51100000000E-03 0.  1.
         11   -1    0    0    0    0 -0.00000000000E+00 -0.00000000000E+00 -0.45593999997E+02  0.45594000000E+02  0.51100000000E-03 0. -1.
         23    2    1    2    0    0  0.00000000000E+00 -0.35527136788E-14  0.00000000000E+00  0.91188000000E+02  0.91188000000E+02 0.  0.
    9900012    2    3    3    0    0 -0.19754800412E+02 -0.26666583803E+02  0.15950514463E+02  0.54367112685E+02  0.40000064988E+02 0.  0.
         12    1    3    3    0    0  0.19754800412E+02  0.26666583803E+02 -0.15950514463E+02  0.36820887315E+02  0.00000000000E+00 0. -1.
         11    1    4    4    0    0 -0.12254768547E+02 -0.23231572490E+02 -0.71303808079E+01  0.27216312080E+02  0.51100000000E-03 0. -1.
        -11    1    4    4    0    0 -0.10192854156E+02 -0.42861357912E+00  0.17619533314E+02  0.20359910115E+02  0.51100000000E-03 0.  1.
        -12    1    4    4    0    0  0.26928222906E+01 -0.30063977338E+01  0.54613619575E+01  0.67908904904E+01  0.00000000000E+00 0.  1.
</event>
<event>
 8    1  0.1253488E-006  0.9118800E+02  0.7816164E-02  0.1184000E+00
        -11   -1    0    0    0    0  0.00000000000E+00  0.00000000000E+00  0.45593999997E+02  0.45594000000E+02  0.51100000000E-03 0. -1.
         11   -1    0    0    0    0 -0.00000000000E+00 -0.00000000000E+00 -0.45593999997E+02  0.45594000000E+02  0.51100000000E-03 0.  1.
         23    2    1    2    0    0  0.00000000000E+00  0.17763568394E-14  0.26645352591E-14  0.91188000000E+02  0.91188000000E+02 0.  0.
    9900012    2    3    3    0    0  0.35217806668E+02  0.92677740852E+01  0.54399860905E+01  0.54367095724E+02  0.40000026322E+02 0.  0.
        -12    1    3    3    0    0 -0.35217806668E+02 -0.92677740852E+01 -0.54399860905E+01  0.36820904276E+02  0.00000000000E+00 0.  1.
         11    1    4    4    0    0 -0.40090143249E+01 -0.18292672207E+01 -0.33309325324E+01  0.55239049791E+01  0.51100000000E-03 0. -1.
        -11    1    4    4    0    0  0.18029304653E+02  0.16016580958E+02  0.11841920200E+02  0.26866666450E+02  0.51100000000E-03 0.  1.
         12    1    4    4    0    0  0.21197516341E+02 -0.49195396521E+01 -0.30710015776E+01  0.21976524295E+02  0.00000000000E+00 0. -1.
</event>
<event>
 8    1  0.1253488E-006  0.9118800E+02  0.7816164E-02  0.1184000E+00
        -11   -1    0    0    0    0  0.00000000000E+00  0.00000000000E+00  0.45593999997E+02  0.45594000000E+02  0.51100000000E-03 0.  1.
         11   -1    0    0    0    0 -0.00000000000E+00 -0.00000000000E+00 -0.45593999997E+02  0.45594000000E+02  0.51100000000E-03 0. -1.
         23    2    1    2    0    0  0.35527136788E-14  0.00000000000E+00  0.00000000000E+00  0.91188000000E+02  0.91188000000E+02 0.  0.
    9900012    2    3    3    0    0  0.27691905373E+02 -0.22223232424E+02  0.97501159646E+01  0.54367103163E+02  0.40000043281E+02 0.  0.
         12    1    3    3    0    0 -0.27691905373E+02  0.22223232424E+02 -0.97501159646E+01  0.36820896837E+02  0.00000000000E+00 0. -1.
         11    1    4    4    0    0  0.19779336032E+02  0.40573233859E+01  0.14039215691E+01  0.20239935844E+02  0.51100000000E-03 0. -1.
        -11    1    4    4    0    0  0.13249220482E+02 -0.14020655132E+02  0.76056192065E+01  0.20735622911E+02  0.51100000000E-03 0.  1.
         12    1    4    4    0    0 -0.53366511415E+01 -0.12259900678E+02  0.74057518894E+00  0.13391544408E+02  0.00000000000E+00 0. -1.
</event>
<event>
 8    1  0.1253488E-006  0.9118800E+02  0.7816164E-02  0.1184000E+00
        -11   -1    0    0    0    0  0.00000000000E+00  0.00000000000E+00  0.45593999997E+02  0.45594000000E+02  0.51100000000E-03 0. -1.
         11   -1    0    0    0    0 -0.00000000000E+00 -0.00000000000E+00 -0.45593999997E+02  0.45594000000E+02  0.51100000000E-03 0.  1.
         23    2    1    2    0    0  0.00000000000E+00  0.22204460493E-15 -0.17763568394E-14  0.91188000000E+02  0.91188000000E+02 0.  0.
    9900012    2    3    3    0    0  0.35096465404E+02  0.10977394065E+01 -0.11082168911E+02  0.54367063246E+02  0.39999952283E+02 0.  0.
        -12    1    3    3    0    0 -0.35096465404E+02 -0.10977394065E+01  0.11082168911E+02  0.36820936754E+02  0.00000000000E+00 0.  1.
         11    1    4    4    0    0  0.19070706713E+02 -0.28368048034E+01  0.99909938954E+01  0.21715415614E+02  0.51100000000E-03 0. -1.
        -11    1    4    4    0    0  0.27352379568E+01  0.24511848669E+01  0.32436738690E+01  0.49001279944E+01  0.51100000000E-03 0.  1.
         12    1    4    4    0    0  0.13290520735E+02  0.14833593430E+01 -0.24316836675E+02  0.27751519638E+02  0.00000000000E+00 0. -1.
</event>
<event>
 8    1  0.1253488E-006  0.9118800E+02  0.7816164E-02  0.1184000E+00
        -11   -1    0    0    0    0  0.00000000000E+00  0.00000000000E+00  0.45593999997E+02  0.45594000000E+02  0.51100000000E-03 0. -1.
         11   -1    0    0    0    0 -0.00000000000E+00 -0.00000000000E+00 -0.45593999997E+02  0.45594000000E+02  0.51100000000E-03 0.  1.
         23    2    1    2    0    0  0.00000000000E+00  0.35527136788E-14  0.00000000000E+00  0.91188000000E+02  0.91188000000E+02 0.  0.
    9900012    2    3    3    0    0  0.20132480847E+02 -0.27544800089E+02 -0.13847275089E+02  0.54367084417E+02  0.40000000546E+02 0.  0.
         12    1    3    3    0    0 -0.20132480847E+02  0.27544800089E+02  0.13847275089E+02  0.36820915583E+02  0.00000000000E+00 0. -1.
         11    1    4    4    0    0  0.26851616266E+01 -0.17355772886E+02 -0.23156704944E+01  0.17714267570E+02  0.51100000000E-03 0. -1.
        -11    1    4    4    0    0  0.21540290326E+02  0.36379375144E-02 -0.12002547521E+01  0.21573704649E+02  0.51100000000E-03 0.  1.
         12    1    4    4    0    0 -0.40929711058E+01 -0.10192665140E+02 -0.10331349842E+02  0.15079112198E+02  0.00000000000E+00 0. -1.
</event>
<event>
 8    1  0.1253488E-006  0.9118800E+02  0.7816164E-02  0.1184000E+00
        -11   -1    0    0    0    0  0.00000000000E+00  0.00000000000E+00  0.45593999997E+02  0.45594000000E+02  0.51100000000E-03 0.  1.
         11   -1    0    0    0    0 -0.00000000000E+00 -0.00000000000E+00 -0.45593999997E+02  0.45594000000E+02  0.51100000000E-03 0. -1.
         23    2    1    2    0    0 -0.17763568394E-14  0.00000000000E+00  0.00000000000E+00  0.91188000000E+02  0.91188000000E+02 0.  0.
    9900012    2    3    3    0    0  0.13348822857E+02 -0.11202306939E+02  0.32436033231E+02  0.54367095555E+02  0.40000025936E+02 0.  0.
         12    1    3    3    0    0 -0.13348822857E+02  0.11202306939E+02 -0.32436033231E+02  0.36820904445E+02  0.00000000000E+00 0. -1.
         11    1    4    4    0    0  0.67786652372E+00 -0.59313187552E+01  0.49681892851E+01  0.77667850642E+01  0.51100000000E-03 0. -1.
        -11    1    4    4    0    0  0.15622454256E+02 -0.18398957912E+02  0.16450724708E+02  0.29209742774E+02  0.51100000000E-03 0.  1.
         12    1    4    4    0    0 -0.29514979235E+01  0.13127969729E+02  0.11017119238E+02  0.17390567716E+02  0.00000000000E+00 0. -1.
</event>
<event>
 8    1  0.1253488E-006  0.9118800E+02  0.7816164E-02  0.1184000E+00
        -11   -1    0    0    0    0  0.00000000000E+00  0.00000000000E+00  0.45593999997E+02  0.45594000000E+02  0.51100000000E-03 0.  1.
         11   -1    0    0    0    0 -0.00000000000E+00 -0.00000000000E+00 -0.45593999997E+02  0.45594000000E+02  0.51100000000E-03 0. -1.
         23    2    1    2    0    0 -0.35527136788E-14  0.35527136788E-14  0.00000000000E+00  0.91188000000E+02  0.91188000000E+02 0.  0.
    9900012    2    3    3    0    0  0.18037824602E+02 -0.25488759115E+02 -0.19512571883E+02  0.54367076341E+02  0.39999982135E+02 0.  0.
        -12    1    3    3    0    0 -0.18037824602E+02  0.25488759115E+02  0.19512571883E+02  0.36820923659E+02  0.00000000000E+00 0.  1.
         11    1    4    4    0    0  0.17714504550E+01  0.53337992397E+00 -0.14374129664E+02  0.14492692459E+02  0.51100000000E-03 0. -1.
        -11    1    4    4    0    0  0.15971271081E+02 -0.28772671675E+02 -0.99021713408E+01  0.34365697037E+02  0.51100000000E-03 0.  1.
        -12    1    4    4    0    0  0.29510306614E+00  0.27505326362E+01  0.47637291224E+01  0.55086868448E+01  0.00000000000E+00 0.  1.
</event>
<event>
 8    1  0.1253488E-006  0.9118800E+02  0.7816164E-02  0.1184000E+00
        -11   -1    0    0    0    0  0.00000000000E+00  0.00000000000E+00  0.45593999997E+02  0.45594000000E+02  0.51100000000E-03 0.  1.
         11   -1    0    0    0    0 -0.00000000000E+00 -0.00000000000E+00 -0.45593999997E+02  0.45594000000E+02  0.51100000000E-03 0. -1.
         23    2    1    2    0    0  0.00000000000E+00  0.88817841970E-15  0.88817841970E-15  0.91188000000E+02  0.91188000000E+02 0.  0.
    9900012    2    3    3    0    0 -0.35333868601E+02 -0.75118322053E+01 -0.71323417824E+01  0.54367079416E+02  0.39999989144E+02 0.  0.
        -12    1    3    3    0    0  0.35333868601E+02  0.75118322053E+01  0.71323417824E+01  0.36820920584E+02  0.00000000000E+00 0.  1.
         11    1    4    4    0    0  0.17740022821E+01 -0.13310998684E+02  0.30291897403E+01  0.13766109138E+02  0.51100000000E-03 0. -1.
        -11    1    4    4    0    0 -0.25834461743E+01 -0.26156584959E+01 -0.13702467273E+00  0.36789454365E+01  0.51100000000E-03 0.  1.
         12    1    4    4    0    0 -0.34524424708E+02  0.84148249744E+01 -0.10024506850E+02  0.36922024841E+02  0.00000000000E+00 0. -1.
</event>
<event>
 8    1  0.1253488E-006  0.9118800E+02  0.7816164E-02  0.1184000E+00
        -11   -1    0    0    0    0  0.00000000000E+00  0.00000000000E+00  0.45593999997E+02  0.45594000000E+02  0.51100000000E-03 0. -1.
         11   -1    0    0    0    0 -0.00000000000E+00 -0.00000000000E+00 -0.45593999997E+02  0.45594000000E+02  0.51100000000E-03 0.  1.
         23    2    1    2    0    0  0.17763568394E-14  0.00000000000E+00  0.00000000000E+00  0.91188000000E+02  0.91188000000E+02 0.  0.
    9900012    2    3    3    0    0  0.14345800502E+02 -0.33761305538E+02  0.31857078404E+01  0.54367129857E+02  0.40000104134E+02 0.  0.
        -12    1    3    3    0    0 -0.14345800502E+02  0.33761305538E+02 -0.31857078404E+01  0.36820870143E+02  0.00000000000E+00 0.  1.
         11    1    4    4    0    0  0.35570026481E+01 -0.26786578745E+01  0.88539201496E+01  0.99105690111E+01  0.51100000000E-03 0. -1.
        -11    1    4    4    0    0  0.20398357835E+02 -0.22590845339E+02 -0.42312813076E-02  0.30437465625E+02  0.51100000000E-03 0.  1.
        -12    1    4    4    0    0 -0.96095599806E+01 -0.84918023240E+01 -0.56639810279E+01  0.14019095221E+02  0.00000000000E+00 0.  1.
</event>
<event>
 8    1  0.1253488E-006  0.9118800E+02  0.7816164E-02  0.1184000E+00
        -11   -1    0    0    0    0  0.00000000000E+00  0.00000000000E+00  0.45593999997E+02  0.45594000000E+02  0.51100000000E-03 0.  1.
         11   -1    0    0    0    0 -0.00000000000E+00 -0.00000000000E+00 -0.45593999997E+02  0.45594000000E+02  0.51100000000E-03 0. -1.
         23    2    1    2    0    0  0.88817841970E-15  0.00000000000E+00  0.71054273576E-14  0.91188000000E+02  0.91188000000E+02 0.  0.
    9900012    2    3    3    0    0  0.75773481981E+01 -0.12463711957E+02  0.33808529866E+02  0.54367122591E+02  0.40000087571E+02 0.  0.
         12    1    3    3    0    0 -0.75773481981E+01  0.12463711957E+02 -0.33808529866E+02  0.36820877409E+02  0.00000000000E+00 0. -1.
         11    1    4    4    0    0  0.19134927935E+01 -0.12493029515E+02 -0.46884904349E+01  0.13480325811E+02  0.51100000000E-03 0. -1.
        -11    1    4    4    0    0  0.83267880724E+01 -0.14375342025E+01  0.35922498152E+02  0.36902950803E+02  0.51100000000E-03 0.  1.
         12    1    4    4    0    0 -0.26629326678E+01  0.14668517610E+01  0.25745221488E+01  0.39838459780E+01  0.00000000000E+00 0. -1.
</event>
<event>
 8    1  0.1253488E-006  0.9118800E+02  0.7816164E-02  0.1184000E+00
        -11   -1    0    0    0    0  0.00000000000E+00  0.00000000000E+00  0.45593999997E+02  0.45594000000E+02  0.51100000000E-03 0. -1.
         11   -1    0    0    0    0 -0.00000000000E+00 -0.00000000000E+00 -0.45593999997E+02  0.45594000000E+02  0.51100000000E-03 0.  1.
         23    2    1    2    0    0 -0.35527136788E-14  0.88817841970E-15  0.00000000000E+00  0.91188000000E+02  0.91188000000E+02 0.  0.
    9900012    2    3    3    0    0  0.29430920467E+02  0.64495237747E+01  0.21166096339E+02  0.54367094651E+02  0.40000023877E+02 0.  0.
        -12    1    3    3    0    0 -0.29430920467E+02 -0.64495237747E+01 -0.21166096339E+02  0.36820905349E+02  0.00000000000E+00 0.  1.
         11    1    4    4    0    0  0.69220743923E+01  0.37663754958E+01  0.12758726395E+02  0.14996192775E+02  0.51100000000E-03 0. -1.
        -11    1    4    4    0    0  0.14098406214E+02  0.15941532329E+02 -0.56159073256E+00  0.21288797411E+02  0.51100000000E-03 0.  1.
        -12    1    4    4    0    0  0.84104398601E+01 -0.13258384051E+02  0.89689606771E+01  0.18082104465E+02  0.00000000000E+00 0.  1.
</event>
<event>
 8    1  0.1253488E-006  0.9118800E+02  0.7816164E-02  0.1184000E+00
        -11   -1    0    0    0    0  0.00000000000E+00  0.00000000000E+00  0.45593999997E+02  0.45594000000E+02  0.51100000000E-03 0.  1.
         11   -1    0    0    0    0 -0.00000000000E+00 -0.00000000000E+00 -0.45593999997E+02  0.45594000000E+02  0.51100000000E-03 0. -1.
         23    2    1    2    0    0 -0.44408920985E-15  0.00000000000E+00  0.35527136788E-14  0.91188000000E+02  0.91188000000E+02 0.  0.
    9900012    2    3    3    0    0 -0.30222909470E+01  0.23032830001E+02  0.28568051240E+02  0.54367094904E+02  0.40000024454E+02 0.  0.
         12    1    3    3    0    0  0.30222909470E+01 -0.23032830001E+02 -0.28568051240E+02  0.36820905096E+02  0.00000000000E+00 0. -1.
         11    1    4    4    0    0  0.48691966279E+01  0.12397897413E+02  0.20985228769E+02  0.24855517753E+02  0.51100000000E-03 0. -1.
        -11    1    4    4    0    0 -0.94126094853E+01 -0.41970176209E+01  0.10054791291E+02  0.14398298594E+02  0.51100000000E-03 0.  1.
         12    1    4    4    0    0  0.15211219103E+01  0.14831950210E+02 -0.24719688205E+01  0.15113278557E+02  0.00000000000E+00 0. -1.
</event>
<event>
 8    1  0.1253488E-006  0.9118800E+02  0.7816164E-02  0.1184000E+00
        -11   -1    0    0    0    0  0.00000000000E+00  0.00000000000E+00  0.45593999997E+02  0.45594000000E+02  0.51100000000E-03 0.  1.
         11   -1    0    0    0    0 -0.00000000000E+00 -0.00000000000E+00 -0.45593999997E+02  0.45594000000E+02  0.51100000000E-03 0. -1.
         23    2    1    2    0    0  0.00000000000E+00  0.00000000000E+00  0.00000000000E+00  0.91188000000E+02  0.91188000000E+02 0.  0.
    9900012    2    3    3    0    0 -0.99777828515E+01 -0.32951376320E+02  0.13054932910E+02  0.54367073540E+02  0.39999975750E+02 0.  0.
         12    1    3    3    0    0  0.99777828515E+01  0.32951376320E+02 -0.13054932910E+02  0.36820926460E+02  0.00000000000E+00 0. -1.
         11    1    4    4    0    0 -0.18755549329E+02 -0.44795737693E+01  0.20319931400E+01  0.19389848070E+02  0.51100000000E-03 0. -1.
        -11    1    4    4    0    0  0.12725115836E+01 -0.51011554836E+01 -0.36311008265E+01  0.63895200501E+01  0.51100000000E-03 0.  1.
         12    1    4    4    0    0  0.75052548942E+01 -0.23370647068E+02  0.14654040597E+02  0.28587705420E+02  0.00000000000E+00 0. -1.
</event>
<event>
 8    1  0.1253488E-006  0.9118800E+02  0.7816164E-02  0.1184000E+00
        -11   -1    0    0    0    0  0.00000000000E+00  0.00000000000E+00  0.45593999997E+02  0.45594000000E+02  0.51100000000E-03 0. -1.
         11   -1    0    0    0    0 -0.00000000000E+00 -0.00000000000E+00 -0.45593999997E+02  0.45594000000E+02  0.51100000000E-03 0.  1.
         23    2    1    2    0    0 -0.71054273576E-14  0.17763568394E-14 -0.14210854715E-13  0.91188000000E+02  0.91188000000E+02 0.  0.
    9900012    2    3    3    0    0 -0.23594485714E+02  0.10475579707E+02 -0.26255315726E+02  0.54367093844E+02  0.40000022035E+02 0.  0.
         12    1    3    3    0    0  0.23594485714E+02 -0.10475579707E+02  0.26255315726E+02  0.36820906156E+02  0.00000000000E+00 0. -1.
         11    1    4    4    0    0 -0.87307609946E+01  0.39829397962E+01 -0.33144950499E+02  0.34506198585E+02  0.51100000000E-03 0.  1.
        -11    1    4    4    0    0 -0.80381972361E+01  0.35981303556E+01 -0.11996344340E+01  0.88880976536E+01  0.51100000000E-03 0. -1.
        -12    1    4    4    0    0 -0.68255274830E+01  0.28945095556E+01  0.80892692065E+01  0.10972797605E+02  0.00000000000E+00 0.  1.
</event>
<event>
 8    1  0.1253488E-006  0.9118800E+02  0.7816164E-02  0.1184000E+00
        -11   -1    0    0    0    0  0.00000000000E+00  0.00000000000E+00  0.45593999997E+02  0.45594000000E+02  0.51100000000E-03 0. -1.
         11   -1    0    0    0    0 -0.00000000000E+00 -0.00000000000E+00 -0.45593999997E+02  0.45594000000E+02  0.51100000000E-03 0.  1.
         23    2    1    2    0    0  0.00000000000E+00 -0.35527136788E-14  0.35527136788E-14  0.91188000000E+02  0.91188000000E+02 0.  0.
    9900012    2    3    3    0    0  0.89518792945E+01 -0.19095913390E+02  0.30182618622E+02  0.54367074998E+02  0.39999979074E+02 0.  0.
        -12    1    3    3    0    0 -0.89518792945E+01  0.19095913390E+02 -0.30182618622E+02  0.36820925002E+02  0.00000000000E+00 0.  1.
         11    1    4    4    0    0  0.12209655306E+02 -0.15009662069E+02  0.19509168331E+02  0.27476777238E+02  0.51100000000E-03 0. -1.
        -11    1    4    4    0    0 -0.21452007397E+01  0.97004538630E+01  0.94403508548E+00  0.99795738319E+01  0.51100000000E-03 0.  1.
         12    1    4    4    0    0 -0.11125752719E+01 -0.13786705184E+02  0.97294152049E+01  0.16910723929E+02  0.00000000000E+00 0. -1.
</event>
<event>
 8    1  0.1253488E-006  0.9118800E+02  0.7816164E-02  0.1184000E+00
        -11   -1    0    0    0    0  0.00000000000E+00  0.00000000000E+00  0.45593999997E+02  0.45594000000E+02  0.51100000000E-03 0. -1.
         11   -1    0    0    0    0 -0.00000000000E+00 -0.00000000000E+00 -0.45593999997E+02  0.45594000000E+02  0.51100000000E-03 0.  1.
         23    2    1    2    0    0 -0.17763568394E-14  0.00000000000E+00 -0.35527136788E-14  0.91188000000E+02  0.91188000000E+02 0.  0.
    9900012    2    3    3    0    0  0.14982437780E+02  0.15455382298E+02  0.29873694832E+02  0.54367083027E+02  0.39999997377E+02 0.  0.
        -12    1    3    3    0    0 -0.14982437780E+02 -0.15455382298E+02 -0.29873694832E+02  0.36820916973E+02  0.00000000000E+00 0.  1.
         11    1    4    4    0    0 -0.19998501749E+01  0.43889133530E+01  0.83810459918E+00  0.48953427585E+01  0.51100000000E-03 0. -1.
        -11    1    4    4    0    0 -0.45269942658E+01  0.22268526357E+01 -0.57369597687E+01  0.76397157926E+01  0.51100000000E-03 0.  1.
         12    1    4    4    0    0  0.21509282220E+02  0.88396163091E+01  0.34772550002E+02  0.41832024476E+02  0.00000000000E+00 0. -1.
</event>
<event>
 8    1  0.1253488E-006  0.9118800E+02  0.7816164E-02  0.1184000E+00
        -11   -1    0    0    0    0  0.00000000000E+00  0.00000000000E+00  0.45593999997E+02  0.45594000000E+02  0.51100000000E-03 0. -1.
         11   -1    0    0    0    0 -0.00000000000E+00 -0.00000000000E+00 -0.45593999997E+02  0.45594000000E+02  0.51100000000E-03 0.  1.
         23    2    1    2    0    0  0.15543122345E-14  0.00000000000E+00  0.00000000000E+00  0.91188000000E+02  0.91188000000E+02 0.  0.
    9900012    2    3    3    0    0  0.70379584324E+00  0.52925268328E+01 -0.36431761058E+02  0.54367090415E+02  0.40000014220E+02 0.  0.
         12    1    3    3    0    0 -0.70379584324E+00 -0.52925268328E+01  0.36431761058E+02  0.36820909585E+02  0.00000000000E+00 0. -1.
         11    1    4    4    0    0  0.87954197400E+00  0.15730459032E+02 -0.10935520999E+02  0.19178283428E+02  0.51100000000E-03 0. -1.
        -11    1    4    4    0    0 -0.65834784221E+01 -0.71313346400E+01 -0.11217933673E+01  0.97701864108E+01  0.51100000000E-03 0.  1.
        -12    1    4    4    0    0  0.64077322914E+01 -0.33065975591E+01 -0.24374446691E+02  0.25418620577E+02  0.00000000000E+00 0.  1.
</event>
<event>
 8    1  0.1253488E-006  0.9118800E+02  0.7816164E-02  0.1184000E+00
        -11   -1    0    0    0    0  0.00000000000E+00  0.00000000000E+00  0.45593999997E+02  0.45594000000E+02  0.51100000000E-03 0.  1.
         11   -1    0    0    0    0 -0.00000000000E+00 -0.00000000000E+00 -0.45593999997E+02  0.45594000000E+02  0.51100000000E-03 0. -1.
         23    2    1    2    0    0  0.00000000000E+00  0.00000000000E+00  0.00000000000E+00  0.91188000000E+02  0.91188000000E+02 0.  0.
    9900012    2    3    3    0    0  0.51157071794E+01 -0.20352396122E+02 -0.30255393581E+02  0.54367091150E+02  0.40000015894E+02 0.  0.
        -12    1    3    3    0    0 -0.51157071794E+01  0.20352396122E+02  0.30255393581E+02  0.36820908850E+02  0.00000000000E+00 0.  1.
         11    1    4    4    0    0 -0.67188546099E+01  0.36831680464E+01 -0.13897422037E+02  0.15869690408E+02  0.51100000000E-03 0. -1.
        -11    1    4    4    0    0  0.11609345777E+02 -0.10289613459E+01 -0.74097209053E+01  0.13810852073E+02  0.51100000000E-03 0.  1.
        -12    1    4    4    0    0  0.22521601204E+00 -0.23006602822E+02 -0.89482506388E+01  0.24686548669E+02  0.00000000000E+00 0.  1.
</event>
<event>
 8    1  0.1253488E-006  0.9118800E+02  0.7816164E-02  0.1184000E+00
        -11   -1    0    0    0    0  0.00000000000E+00  0.00000000000E+00  0.45593999997E+02  0.45594000000E+02  0.51100000000E-03 0.  1.
         11   -1    0    0    0    0 -0.00000000000E+00 -0.00000000000E+00 -0.45593999997E+02  0.45594000000E+02  0.51100000000E-03 0. -1.
         23    2    1    2    0    0 -0.17763568394E-14  0.71054273576E-14 -0.30531133177E-15  0.91188000000E+02  0.91188000000E+02 0.  0.
    9900012    2    3    3    0    0  0.75658537914E+01 -0.36034781209E+02 -0.17849490518E+00  0.54367089354E+02  0.40000011799E+02 0.  0.
         12    1    3    3    0    0 -0.75658537914E+01  0.36034781209E+02  0.17849490518E+00  0.36820910646E+02  0.00000000000E+00 0. -1.
         11    1    4    4    0    0  0.25753180118E+01 -0.18792422443E+02  0.31982090776E+00  0.18970758809E+02  0.51100000000E-03 0. -1.
        -11    1    4    4    0    0  0.79766602849E+00 -0.25462354886E+02 -0.34517035122E+01  0.25707626200E+02  0.51100000000E-03 0.  1.
         12    1    4    4    0    0  0.41928697512E+01  0.82199961199E+01  0.29533876993E+01  0.96887043439E+01  0.00000000000E+00 0. -1.
</event>
<event>
 8    1  0.1253488E-006  0.9118800E+02  0.7816164E-02  0.1184000E+00
        -11   -1    0    0    0    0  0.00000000000E+00  0.00000000000E+00  0.45593999997E+02  0.45594000000E+02  0.51100000000E-03 0.  1.
         11   -1    0    0    0    0 -0.00000000000E+00 -0.00000000000E+00 -0.45593999997E+02  0.45594000000E+02  0.51100000000E-03 0. -1.
         23    2    1    2    0    0 -0.44408920985E-15  0.00000000000E+00  0.00000000000E+00  0.91188000000E+02  0.91188000000E+02 0.  0.
    9900012    2    3    3    0    0  0.24418978412E+01  0.28663624800E+02  0.22982943514E+02  0.54367055630E+02  0.39999934919E+02 0.  0.
         12    1    3    3    0    0 -0.24418978412E+01 -0.28663624800E+02 -0.22982943514E+02  0.36820944370E+02  0.00000000000E+00 0. -1.
         11    1    4    4    0    0  0.14388163703E+00  0.10754027863E+02  0.35437879319E+01  0.11323791343E+02  0.51100000000E-03 0. -1.
        -11    1    4    4    0    0  0.13160993277E+02  0.19287588063E+02  0.33612368888E+01  0.23590691194E+02  0.51100000000E-03 0.  1.
         12    1    4    4    0    0 -0.10862977073E+02 -0.13779911260E+01  0.16077918693E+02  0.19452573093E+02  0.00000000000E+00 0. -1.
</event>
<event>
 8    1  0.1253488E-006  0.9118800E+02  0.7816164E-02  0.1184000E+00
        -11   -1    0    0    0    0  0.00000000000E+00  0.00000000000E+00  0.45593999997E+02  0.45594000000E+02  0.51100000000E-03 0. -1.
         11   -1    0    0    0    0 -0.00000000000E+00 -0.00000000000E+00 -0.45593999997E+02  0.45594000000E+02  0.51100000000E-03 0.  1.
         23    2    1    2    0    0 -0.35527136788E-14  0.00000000000E+00 -0.11102230246E-14  0.91188000000E+02  0.91188000000E+02 0.  0.
    9900012    2    3    3    0    0  0.29141407626E+02  0.22440952335E+02 -0.17212226758E+01  0.54367074053E+02  0.39999976918E+02 0.  0.
         12    1    3    3    0    0 -0.29141407626E+02 -0.22440952335E+02  0.17212226758E+01  0.36820925947E+02  0.00000000000E+00 0. -1.
         11    1    4    4    0    0  0.10326878498E+01 -0.53067159386E+01  0.11237690962E+02  0.12470500257E+02  0.51100000000E-03 0. -1.
        -11    1    4    4    0    0  0.12910910167E+02  0.94365477997E+01 -0.41453069835E+01  0.16520399692E+02  0.51100000000E-03 0.  1.
        -12    1    4    4    0    0  0.15197809609E+02  0.18311120474E+02 -0.88136066542E+01  0.25376174104E+02  0.00000000000E+00 0.  1.
</event>
<event>
 8    1  0.1253488E-006  0.9118800E+02  0.7816164E-02  0.1184000E+00
        -11   -1    0    0    0    0  0.00000000000E+00  0.00000000000E+00  0.45593999997E+02  0.45594000000E+02  0.51100000000E-03 0. -1.
         11   -1    0    0    0    0 -0.00000000000E+00 -0.00000000000E+00 -0.45593999997E+02  0.45594000000E+02  0.51100000000E-03 0.  1.
         23    2    1    2    0    0  0.00000000000E+00 -0.35527136788E-14 -0.35527136788E-14  0.91188000000E+02  0.91188000000E+02 0.  0.
    9900012    2    3    3    0    0 -0.22726826766E+02  0.23495417490E+02  0.16948043954E+02  0.54367088934E+02  0.40000010843E+02 0.  0.
        -12    1    3    3    0    0  0.22726826766E+02 -0.23495417490E+02 -0.16948043954E+02  0.36820911066E+02  0.00000000000E+00 0.  1.
         11    1    4    4    0    0 -0.10372592011E+02 -0.56904529635E+01  0.12664151877E+02  0.17330685589E+02  0.51100000000E-03 0. -1.
        -11    1    4    4    0    0 -0.12009303269E+02  0.23323479069E+02 -0.43527261014E+01  0.26592372321E+02  0.51100000000E-03 0.  1.
        -12    1    4    4    0    0 -0.34493148644E+00  0.58623913840E+01  0.86366181782E+01  0.10444031024E+02  0.00000000000E+00 0.  1.
</event>
<event>
 8    1  0.1253488E-006  0.9118800E+02  0.7816164E-02  0.1184000E+00
        -11   -1    0    0    0    0  0.00000000000E+00  0.00000000000E+00  0.45593999997E+02  0.45594000000E+02  0.51100000000E-03 0. -1.
         11   -1    0    0    0    0 -0.00000000000E+00 -0.00000000000E+00 -0.45593999997E+02  0.45594000000E+02  0.51100000000E-03 0.  1.
         23    2    1    2    0    0  0.88817841970E-15 -0.22204460493E-15  0.00000000000E+00  0.91188000000E+02  0.91188000000E+02 0.  0.
    9900012    2    3    3    0    0  0.59168649830E+01 -0.10730691152E+01 -0.36326610106E+02  0.54367036266E+02  0.39999890775E+02 0.  0.
         12    1    3    3    0    0 -0.59168649830E+01  0.10730691152E+01  0.36326610106E+02  0.36820963734E+02  0.00000000000E+00 0. -1.
         11    1    4    4    0    0 -0.46835634143E+01  0.87750224860E+01 -0.14775437883E+01  0.10055840183E+02  0.51100000000E-03 0. -1.
        -11    1    4    4    0    0  0.14279187821E+02  0.47905385819E+00 -0.27860627550E+02  0.31310369930E+02  0.51100000000E-03 0.  1.
        -12    1    4    4    0    0 -0.36787594236E+01 -0.10327145459E+02 -0.69884387669E+01  0.13000826152E+02  0.00000000000E+00 0.  1.
</event>
<event>
 8    1  0.1253488E-006  0.9118800E+02  0.7816164E-02  0.1184000E+00
        -11   -1    0    0    0    0  0.00000000000E+00  0.00000000000E+00  0.45593999997E+02  0.45594000000E+02  0.51100000000E-03 0.  1.
         11   -1    0    0    0    0 -0.00000000000E+00 -0.00000000000E+00 -0.45593999997E+02  0.45594000000E+02  0.51100000000E-03 0. -1.
         23    2    1    2    0    0 -0.35527136788E-14  0.35527136788E-14  0.00000000000E+00  0.91188000000E+02  0.91188000000E+02 0.  0.
    9900012    2    3    3    0    0 -0.28349092427E+02  0.22093710164E+02  0.79985957930E+01  0.54367073818E+02  0.39999976382E+02 0.  0.
         12    1    3    3    0    0  0.28349092427E+02 -0.22093710164E+02 -0.79985957930E+01  0.36820926182E+02  0.00000000000E+00 0. -1.
         11    1    4    4    0    0 -0.17939970428E+02  0.77727230759E+01 -0.15332464657E+02  0.24846372686E+02  0.51100000000E-03 0. -1.
        -11    1    4    4    0    0 -0.55206012753E+01  0.81849939746E+01  0.15893469600E+02  0.18710252296E+02  0.51100000000E-03 0.  1.
         12    1    4    4    0    0 -0.48885207241E+01  0.61359931138E+01  0.74375908504E+01  0.10810448835E+02  0.00000000000E+00 0. -1.
</event>
<event>
 8    1  0.1253488E-006  0.9118800E+02  0.7816164E-02  0.1184000E+00
        -11   -1    0    0    0    0  0.00000000000E+00  0.00000000000E+00  0.45593999997E+02  0.45594000000E+02  0.51100000000E-03 0.  1.
         11   -1    0    0    0    0 -0.00000000000E+00 -0.00000000000E+00 -0.45593999997E+02  0.45594000000E+02  0.51100000000E-03 0. -1.
         23    2    1    2    0    0  0.00000000000E+00 -0.35527136788E-14 -0.35527136788E-14  0.91188000000E+02  0.91188000000E+02 0.  0.
    9900012    2    3    3    0    0 -0.19995043667E+02 -0.17196376822E+02 -0.25695567228E+02  0.54367091235E+02  0.40000016089E+02 0.  0.
        -12    1    3    3    0    0  0.19995043667E+02  0.17196376822E+02  0.25695567228E+02  0.36820908765E+02  0.00000000000E+00 0.  1.
         11    1    4    4    0    0 -0.21365181894E+02 -0.21628996822E+02 -0.21575991243E+02  0.37280127404E+02  0.51100000000E-03 0. -1.
        -11    1    4    4    0    0  0.88488366840E+00 -0.25659463425E+01  0.49353032984E+01  0.56324345223E+01  0.51100000000E-03 0.  1.
        -12    1    4    4    0    0  0.48525455833E+00  0.69985663429E+01 -0.90548792836E+01  0.11454529309E+02  0.00000000000E+00 0.  1.
</event>
<event>
 8    1  0.1253488E-006  0.9118800E+02  0.7816164E-02  0.1184000E+00
        -11   -1    0    0    0    0  0.00000000000E+00  0.00000000000E+00  0.45593999997E+02  0.45594000000E+02  0.51100000000E-03 0. -1.
         11   -1    0    0    0    0 -0.00000000000E+00 -0.00000000000E+00 -0.45593999997E+02  0.45594000000E+02  0.51100000000E-03 0.  1.
         23    2    1    2    0    0  0.00000000000E+00  0.35527136788E-14  0.71054273576E-14  0.91188000000E+02  0.91188000000E+02 0.  0.
    9900012    2    3    3    0    0 -0.19163998855E+02 -0.25407619481E+02 -0.18519895114E+02  0.54366912362E+02  0.39999608311E+02 0.  0.
         12    1    3    3    0    0  0.19163998855E+02  0.25407619481E+02  0.18519895114E+02  0.36821087638E+02  0.00000000000E+00 0. -1.
         11    1    4    4    0    0 -0.41822966003E+01  0.19333464712E+01 -0.16357539146E+00  0.46104436446E+01  0.51100000000E-03 0. -1.
        -11    1    4    4    0    0 -0.13271130022E+02 -0.25246638780E+02 -0.27862761112E+02  0.39872912093E+02  0.51100000000E-03 0.  1.
        -12    1    4    4    0    0 -0.17105722327E+01 -0.20943271720E+01  0.95064413894E+01  0.98835566248E+01  0.00000000000E+00 0.  1.
</event>
<event>
 8    1  0.1253488E-006  0.9118800E+02  0.7816164E-02  0.1184000E+00
        -11   -1    0    0    0    0  0.00000000000E+00  0.00000000000E+00  0.45593999997E+02  0.45594000000E+02  0.51100000000E-03 0.  1.
         11   -1    0    0    0    0 -0.00000000000E+00 -0.00000000000E+00 -0.45593999997E+02  0.45594000000E+02  0.51100000000E-03 0. -1.
         23    2    1    2    0    0  0.00000000000E+00  0.13322676296E-14  0.00000000000E+00  0.91188000000E+02  0.91188000000E+02 0.  0.
    9900012    2    3    3    0    0 -0.32633208692E+02 -0.38220406235E+01 -0.16620598693E+02  0.54367100975E+02  0.40000038293E+02 0.  0.
        -12    1    3    3    0    0  0.32633208692E+02  0.38220406235E+01  0.16620598693E+02  0.36820899025E+02  0.00000000000E+00 0.  1.
         11    1    4    4    0    0 -0.31216066745E+02 -0.99739020044E+01 -0.12105934200E+02  0.34935300017E+02  0.51100000000E-03 0. -1.
        -11    1    4    4    0    0 -0.19369073895E+01  0.10579739716E+02 -0.82980510725E+01  0.13584555737E+02  0.51100000000E-03 0.  1.
        -12    1    4    4    0    0  0.51976544206E+00 -0.44278783355E+01  0.37833865793E+01  0.58472452212E+01  0.00000000000E+00 0.  1.
</event>
<event>
 8    1  0.1253488E-006  0.9118800E+02  0.7816164E-02  0.1184000E+00
        -11   -1    0    0    0    0  0.00000000000E+00  0.00000000000E+00  0.45593999997E+02  0.45594000000E+02  0.51100000000E-03 0.  1.
         11   -1    0    0    0    0 -0.00000000000E+00 -0.00000000000E+00 -0.45593999997E+02  0.45594000000E+02  0.51100000000E-03 0. -1.
         23    2    1    2    0    0 -0.17763568394E-14 -0.17763568394E-14  0.00000000000E+00  0.91188000000E+02  0.91188000000E+02 0.  0.
    9900012    2    3    3    0    0 -0.11049253978E+02 -0.10299585685E+02  0.33579932376E+02  0.54367091034E+02  0.40000015629E+02 0.  0.
         12    1    3    3    0    0  0.11049253978E+02  0.10299585685E+02 -0.33579932376E+02  0.36820908966E+02  0.00000000000E+00 0. -1.
         11    1    4    4    0    0  0.42523256179E+01  0.11092242186E+01 -0.27539087217E+01  0.51861994790E+01  0.51100000000E-03 0. -1.
        -11    1    4    4    0    0  0.13514317112E+01 -0.97427103327E+01  0.29511748932E+02  0.31107717653E+02  0.51100000000E-03 0.  1.
        -12    1    4    4    0    0 -0.16653011307E+02 -0.16660995708E+01  0.68220921654E+01  0.18073173902E+02  0.00000000000E+00 0.  1.
</event>
<event>
 8    1  0.1253488E-006  0.9118800E+02  0.7816164E-02  0.1184000E+00
        -11   -1    0    0    0    0  0.00000000000E+00  0.00000000000E+00  0.45593999997E+02  0.45594000000E+02  0.51100000000E-03 0. -1.
         11   -1    0    0    0    0 -0.00000000000E+00 -0.00000000000E+00 -0.45593999997E+02  0.45594000000E+02  0.51100000000E-03 0.  1.
         23    2    1    2    0    0  0.00000000000E+00 -0.88817841970E-15  0.22204460493E-15  0.91188000000E+02  0.91188000000E+02 0.  0.
    9900012    2    3    3    0    0  0.36782296480E+02 -0.11157477644E+01  0.12640902731E+01  0.54367079973E+02  0.39999990414E+02 0.  0.
        -12    1    3    3    0    0 -0.36782296480E+02  0.11157477644E+01 -0.12640902731E+01  0.36820920027E+02  0.00000000000E+00 0.  1.
         11    1    4    4    0    0  0.41802032976E+01 -0.94527112534E+01 -0.13750176651E+01  0.10426817515E+02  0.51100000000E-03 0. -1.
        -11    1    4    4    0    0 -0.37653579949E+01  0.53543348212E+01  0.35358423032E+01  0.74396910730E+01  0.51100000000E-03 0.  1.
        -12    1    4    4    0    0  0.36367451177E+02  0.29826286678E+01 -0.89673436502E+00  0.36500571385E+02  0.00000000000E+00 0.  1.
</event>
<event>
 8    1  0.1253488E-006  0.9118800E+02  0.7816164E-02  0.1184000E+00
        -11   -1    0    0    0    0  0.00000000000E+00  0.00000000000E+00  0.45593999997E+02  0.45594000000E+02  0.51100000000E-03 0.  1.
         11   -1    0    0    0    0 -0.00000000000E+00 -0.00000000000E+00 -0.45593999997E+02  0.45594000000E+02  0.51100000000E-03 0. -1.
         23    2    1    2    0    0  0.00000000000E+00 -0.35527136788E-14  0.00000000000E+00  0.91188000000E+02  0.91188000000E+02 0.  0.
    9900012    2    3    3    0    0  0.16390703035E+02  0.22462028940E+02  0.24136739680E+02  0.54367080777E+02  0.39999992246E+02 0.  0.
         12    1    3    3    0    0 -0.16390703035E+02 -0.22462028940E+02 -0.24136739680E+02  0.36820919223E+02  0.00000000000E+00 0. -1.
         11    1    4    4    0    0  0.11553568298E+02  0.19451039981E+02  0.27355840902E+01  0.22788403133E+02  0.51100000000E-03 0. -1.
        -11    1    4    4    0    0  0.59334925782E+01  0.12337826662E+02  0.14366690403E+02  0.19845152917E+02  0.51100000000E-03 0.  1.
         12    1    4    4    0    0 -0.10963578405E+01 -0.93268377031E+01  0.70344651867E+01  0.11733524727E+02  0.00000000000E+00 0. -1.
</event>
<event>
 8    1  0.1253488E-006  0.9118800E+02  0.7816164E-02  0.1184000E+00
        -11   -1    0    0    0    0  0.00000000000E+00  0.00000000000E+00  0.45593999997E+02  0.45594000000E+02  0.51100000000E-03 0.  1.
         11   -1    0    0    0    0 -0.00000000000E+00 -0.00000000000E+00 -0.45593999997E+02  0.45594000000E+02  0.51100000000E-03 0. -1.
         23    2    1    2    0    0  0.71054273576E-14  0.00000000000E+00  0.00000000000E+00  0.91188000000E+02  0.91188000000E+02 0.  0.
    9900012    2    3    3    0    0  0.34998901994E+02 -0.17836474108E+01 -0.11299304981E+02  0.54367097893E+02  0.40000031268E+02 0.  0.
        -12    1    3    3    0    0 -0.34998901994E+02  0.17836474108E+01  0.11299304981E+02  0.36820902107E+02  0.00000000000E+00 0.  1.
         11    1    4    4    0    0  0.18235726145E+02 -0.60624861096E+01  0.54148422275E+01  0.19965369080E+02  0.51100000000E-03 0.  1.
        -11    1    4    4    0    0  0.19599287057E+02  0.52592984705E+01 -0.20978643363E+02  0.29187253231E+02  0.51100000000E-03 0. -1.
        -12    1    4    4    0    0 -0.28361112084E+01 -0.98045977168E+00  0.42644961547E+01  0.52144755828E+01  0.00000000000E+00 0.  1.
</event>
<event>
 8    1  0.1253488E-006  0.9118800E+02  0.7816164E-02  0.1184000E+00
        -11   -1    0    0    0    0  0.00000000000E+00  0.00000000000E+00  0.45593999997E+02  0.45594000000E+02  0.51100000000E-03 0. -1.
         11   -1    0    0    0    0 -0.00000000000E+00 -0.00000000000E+00 -0.45593999997E+02  0.45594000000E+02  0.51100000000E-03 0.  1.
         23    2    1    2    0    0 -0.88817841970E-15  0.35527136788E-14 -0.71054273576E-14  0.91188000000E+02  0.91188000000E+02 0.  0.
    9900012    2    3    3    0    0 -0.49434745366E+01  0.11305212609E+02 -0.34691949109E+02  0.54367121336E+02  0.40000084710E+02 0.  0.
         12    1    3    3    0    0  0.49434745366E+01 -0.11305212609E+02  0.34691949109E+02  0.36820878664E+02  0.00000000000E+00 0. -1.
         11    1    4    4    0    0 -0.97354869630E+01  0.21223975139E+01 -0.40525895246E+01  0.10756754145E+02  0.51100000000E-03 0. -1.
        -11    1    4    4    0    0 -0.75464298280E+01 -0.58036438990E+01 -0.18243446982E+02  0.20578003881E+02  0.51100000000E-03 0.  1.
        -12    1    4    4    0    0  0.12338442254E+02  0.14986458994E+02 -0.12395912602E+02  0.23032363311E+02  0.00000000000E+00 0.  1.
</event>
<event>
 8    1  0.1253488E-006  0.9118800E+02  0.7816164E-02  0.1184000E+00
        -11   -1    0    0    0    0  0.00000000000E+00  0.00000000000E+00  0.45593999997E+02  0.45594000000E+02  0.51100000000E-03 0.  1.
         11   -1    0    0    0    0 -0.00000000000E+00 -0.00000000000E+00 -0.45593999997E+02  0.45594000000E+02  0.51100000000E-03 0. -1.
         23    2    1    2    0    0  0.00000000000E+00  0.88817841970E-15  0.35527136788E-14  0.91188000000E+02  0.91188000000E+02 0.  0.
    9900012    2    3    3    0    0 -0.18738021656E+02  0.44548229902E+01 -0.31381831049E+02  0.54367106157E+02  0.40000050106E+02 0.  0.
        -12    1    3    3    0    0  0.18738021656E+02 -0.44548229902E+01  0.31381831049E+02  0.36820893843E+02  0.00000000000E+00 0.  1.
         11    1    4    4    0    0 -0.14182977715E+02 -0.11578116309E+02 -0.18559757545E+02  0.26070562604E+02  0.51100000000E-03 0. -1.
        -11    1    4    4    0    0 -0.10431597891E+02  0.94442681239E+01 -0.13423537793E+02  0.19447462614E+02  0.51100000000E-03 0.  1.
        -12    1    4    4    0    0  0.58765539500E+01  0.65886711751E+01  0.60146428909E+00  0.88490809394E+01  0.00000000000E+00 0.  1.
</event>
<event>
 8    1  0.1253488E-006  0.9118800E+02  0.7816164E-02  0.1184000E+00
        -11   -1    0    0    0    0  0.00000000000E+00  0.00000000000E+00  0.45593999997E+02  0.45594000000E+02  0.51100000000E-03 0.  1.
         11   -1    0    0    0    0 -0.00000000000E+00 -0.00000000000E+00 -0.45593999997E+02  0.45594000000E+02  0.51100000000E-03 0. -1.
         23    2    1    2    0    0  0.00000000000E+00  0.00000000000E+00  0.00000000000E+00  0.91188000000E+02  0.91188000000E+02 0.  0.
    9900012    2    3    3    0    0 -0.34866125234E+02  0.64621180077E+01  0.99183765987E+01  0.54367084037E+02  0.39999999680E+02 0.  0.
         12    1    3    3    0    0  0.34866125234E+02 -0.64621180077E+01 -0.99183765987E+01  0.36820915963E+02  0.00000000000E+00 0. -1.
         11    1    4    4    0    0  0.13557131200E+01  0.66587226189E+01  0.21686653329E+01  0.71329975863E+01  0.51100000000E-03 0.  1.
        -11    1    4    4    0    0 -0.46968171573E+01  0.11012020709E+02  0.67871499784E+01  0.13761907448E+02  0.51100000000E-03 0. -1.
        -12    1    4    4    0    0 -0.31525021196E+02 -0.11208625320E+02  0.96256128747E+00  0.33472179003E+02  0.00000000000E+00 0.  1.
</event>
<event>
 8    1  0.1253488E-006  0.9118800E+02  0.7816164E-02  0.1184000E+00
        -11   -1    0    0    0    0  0.00000000000E+00  0.00000000000E+00  0.45593999997E+02  0.45594000000E+02  0.51100000000E-03 0.  1.
         11   -1    0    0    0    0 -0.00000000000E+00 -0.00000000000E+00 -0.45593999997E+02  0.45594000000E+02  0.51100000000E-03 0. -1.
         23    2    1    2    0    0  0.17763568394E-14  0.00000000000E+00 -0.17763568394E-14  0.91188000000E+02  0.91188000000E+02 0.  0.
    9900012    2    3    3    0    0 -0.69527415983E+01 -0.33890225335E+02  0.12605242774E+02  0.54367080207E+02  0.39999990948E+02 0.  0.
         12    1    3    3    0    0  0.69527415983E+01  0.33890225335E+02 -0.12605242774E+02  0.36820919793E+02  0.00000000000E+00 0. -1.
         11    1    4    4    0    0  0.24567058388E+01 -0.94158929652E+01 -0.74641997161E+01  0.12264123351E+02  0.51100000000E-03 0. -1.
        -11    1    4    4    0    0  0.63314281168E+00 -0.25970137240E+02  0.10096476620E+02  0.27870912050E+02  0.51100000000E-03 0.  1.
         12    1    4    4    0    0 -0.10042590249E+02  0.14958048700E+01  0.99729658699E+01  0.14232044806E+02  0.00000000000E+00 0. -1.
</event>
<event>
 8    1  0.1253488E-006  0.9118800E+02  0.7816164E-02  0.1184000E+00
        -11   -1    0    0    0    0  0.00000000000E+00  0.00000000000E+00  0.45593999997E+02  0.45594000000E+02  0.51100000000E-03 0. -1.
         11   -1    0    0    0    0 -0.00000000000E+00 -0.00000000000E+00 -0.45593999997E+02  0.45594000000E+02  0.51100000000E-03 0.  1.
         23    2    1    2    0    0  0.88817841970E-15  0.00000000000E+00 -0.88817841970E-15  0.91188000000E+02  0.91188000000E+02 0.  0.
    9900012    2    3    3    0    0 -0.78892946254E+01  0.35523571475E+02  0.56226413565E+01  0.54367092952E+02  0.40000020002E+02 0.  0.
         12    1    3    3    0    0  0.78892946254E+01 -0.35523571475E+02 -0.56226413565E+01  0.36820907048E+02  0.00000000000E+00 0. -1.
         11    1    4    4    0    0 -0.47652627771E+00 -0.55086527500E+01 -0.78053449158E+00  0.55840457347E+01  0.51100000000E-03 0. -1.
        -11    1    4    4    0    0 -0.44570518263E-01  0.51800675580E+01  0.10741478912E+02  0.11925370263E+02  0.51100000000E-03 0.  1.
        -12    1    4    4    0    0 -0.73681978294E+01  0.35852156667E+02 -0.43383030637E+01  0.36857676954E+02  0.00000000000E+00 0.  1.
</event>
<event>
 8    1  0.1253488E-006  0.9118800E+02  0.7816164E-02  0.1184000E+00
        -11   -1    0    0    0    0  0.00000000000E+00  0.00000000000E+00  0.45593999997E+02  0.45594000000E+02  0.51100000000E-03 0.  1.
         11   -1    0    0    0    0 -0.00000000000E+00 -0.00000000000E+00 -0.45593999997E+02  0.45594000000E+02  0.51100000000E-03 0. -1.
         23    2    1    2    0    0  0.00000000000E+00 -0.35527136788E-14  0.63837823916E-15  0.91188000000E+02  0.91188000000E+02 0.  0.
    9900012    2    3    3    0    0  0.27454950524E+02  0.24534905904E+02  0.21620105311E+00  0.54367045926E+02  0.39999912798E+02 0.  0.
        -12    1    3    3    0    0 -0.27454950524E+02 -0.24534905904E+02 -0.21620105311E+00  0.36820954074E+02  0.00000000000E+00 0.  1.
         11    1    4    4    0    0 -0.63566984947E+00  0.42282201616E+01 -0.75381727169E+01  0.86663700627E+01  0.51100000000E-03 0.  1.
        -11    1    4    4    0    0  0.26072381018E+02  0.13547476545E+02 -0.62324004870E+01  0.30035745185E+02  0.51100000000E-03 0. -1.
         12    1    4    4    0    0  0.20182393553E+01  0.67592091971E+01  0.13986774257E+02  0.15664930679E+02  0.00000000000E+00 0. -1.
</event>
<event>
 8    1  0.1253488E-006  0.9118800E+02  0.7816164E-02  0.1184000E+00
        -11   -1    0    0    0    0  0.00000000000E+00  0.00000000000E+00  0.45593999997E+02  0.45594000000E+02  0.51100000000E-03 0. -1.
         11   -1    0    0    0    0 -0.00000000000E+00 -0.00000000000E+00 -0.45593999997E+02  0.45594000000E+02  0.51100000000E-03 0.  1.
         23    2    1    2    0    0  0.00000000000E+00  0.00000000000E+00 -0.71054273576E-14  0.91188000000E+02  0.91188000000E+02 0.  0.
    9900012    2    3    3    0    0 -0.18770452207E+02 -0.16529134656E+02 -0.27023177005E+02  0.54366888339E+02  0.39999553543E+02 0.  0.
         12    1    3    3    0    0  0.18770452207E+02  0.16529134656E+02  0.27023177005E+02  0.36821111661E+02  0.00000000000E+00 0. -1.
         11    1    4    4    0    0 -0.16133456712E+02 -0.93645726234E+00  0.12838164408E+01  0.16211525610E+02  0.51100000000E-03 0. -1.
        -11    1    4    4    0    0  0.19604515453E+01  0.44834452724E+01 -0.42024018981E+01  0.64501809081E+01  0.51100000000E-03 0.  1.
         12    1    4    4    0    0 -0.45974470403E+01 -0.20076122666E+02 -0.24104591548E+02  0.31705181821E+02  0.00000000000E+00 0. -1.
</event>
<event>
 8    1  0.1253488E-006  0.9118800E+02  0.7816164E-02  0.1184000E+00
        -11   -1    0    0    0    0  0.00000000000E+00  0.00000000000E+00  0.45593999997E+02  0.45594000000E+02  0.51100000000E-03 0. -1.
         11   -1    0    0    0    0 -0.00000000000E+00 -0.00000000000E+00 -0.45593999997E+02  0.45594000000E+02  0.51100000000E-03 0.  1.
         23    2    1    2    0    0  0.00000000000E+00 -0.35527136788E-14  0.00000000000E+00  0.91188000000E+02  0.91188000000E+02 0.  0.
    9900012    2    3    3    0    0 -0.20822955657E+02  0.25731385061E+02  0.16126843979E+02  0.54367153239E+02  0.40000157439E+02 0.  0.
        -12    1    3    3    0    0  0.20822955657E+02 -0.25731385061E+02 -0.16126843979E+02  0.36820846761E+02  0.00000000000E+00 0.  1.
         11    1    4    4    0    0  0.45604611557E+01 -0.73116184356E+01  0.28452719181E+01  0.90748632304E+01  0.51100000000E-03 0. -1.
        -11    1    4    4    0    0 -0.10121920034E+02  0.14637939247E+02 -0.29108085229E+00  0.17799080282E+02  0.51100000000E-03 0.  1.
         12    1    4    4    0    0 -0.15261496779E+02  0.18405064249E+02  0.13572652914E+02  0.27493209727E+02  0.00000000000E+00 0. -1.
</event>
<event>
 8    1  0.1253488E-006  0.9118800E+02  0.7816164E-02  0.1184000E+00
        -11   -1    0    0    0    0  0.00000000000E+00  0.00000000000E+00  0.45593999997E+02  0.45594000000E+02  0.51100000000E-03 0. -1.
         11   -1    0    0    0    0 -0.00000000000E+00 -0.00000000000E+00 -0.45593999997E+02  0.45594000000E+02  0.51100000000E-03 0.  1.
         23    2    1    2    0    0  0.00000000000E+00 -0.35527136788E-14 -0.35527136788E-14  0.91188000000E+02  0.91188000000E+02 0.  0.
    9900012    2    3    3    0    0  0.11965778840E+02  0.31909538008E+02  0.13942116309E+02  0.54367067281E+02  0.39999961481E+02 0.  0.
        -12    1    3    3    0    0 -0.11965778840E+02 -0.31909538008E+02 -0.13942116309E+02  0.36820932719E+02  0.00000000000E+00 0.  1.
         11    1    4    4    0    0  0.23070466915E+01  0.30237675464E+02 -0.13337760347E+01  0.30354875072E+02  0.51100000000E-03 0. -1.
        -11    1    4    4    0    0  0.10151446375E+02  0.19119626913E+01  0.17523040115E+01  0.10477501346E+02  0.51100000000E-03 0.  1.
         12    1    4    4    0    0 -0.49271422720E+00 -0.24010014686E+00  0.13523588332E+02  0.13534690863E+02  0.00000000000E+00 0. -1.
</event>
<event>
 8    1  0.1253488E-006  0.9118800E+02  0.7816164E-02  0.1184000E+00
        -11   -1    0    0    0    0  0.00000000000E+00  0.00000000000E+00  0.45593999997E+02  0.45594000000E+02  0.51100000000E-03 0. -1.
         11   -1    0    0    0    0 -0.00000000000E+00 -0.00000000000E+00 -0.45593999997E+02  0.45594000000E+02  0.51100000000E-03 0.  1.
         23    2    1    2    0    0  0.00000000000E+00 -0.17763568394E-14  0.00000000000E+00  0.91188000000E+02  0.91188000000E+02 0.  0.
    9900012    2    3    3    0    0 -0.97973683786E+01 -0.12404075145E+02  0.33255535685E+02  0.54367079845E+02  0.39999990123E+02 0.  0.
        -12    1    3    3    0    0  0.97973683786E+01  0.12404075145E+02 -0.33255535685E+02  0.36820920155E+02  0.00000000000E+00 0.  1.
         11    1    4    4    0    0  0.79358564012E+01 -0.10174018119E+02  0.23465851413E+02  0.26779369751E+02  0.51100000000E-03 0. -1.
        -11    1    4    4    0    0  0.14247294217E+01 -0.36357291787E+01 -0.26345492142E+01  0.47105445979E+01  0.51100000000E-03 0.  1.
        -12    1    4    4    0    0 -0.19157954201E+02  0.14056721526E+01  0.12424233487E+02  0.22877165496E+02  0.00000000000E+00 0.  1.
</event>
<event>
 8    1  0.1253488E-006  0.9118800E+02  0.7816164E-02  0.1184000E+00
        -11   -1    0    0    0    0  0.00000000000E+00  0.00000000000E+00  0.45593999997E+02  0.45594000000E+02  0.51100000000E-03 0. -1.
         11   -1    0    0    0    0 -0.00000000000E+00 -0.00000000000E+00 -0.45593999997E+02  0.45594000000E+02  0.51100000000E-03 0.  1.
         23    2    1    2    0    0 -0.17763568394E-14 -0.44408920985E-15  0.00000000000E+00  0.91188000000E+02  0.91188000000E+02 0.  0.
    9900012    2    3    3    0    0  0.76120059101E+01 -0.34338230691E+01 -0.35861481976E+02  0.54367086590E+02  0.40000005499E+02 0.  0.
         12    1    3    3    0    0 -0.76120059101E+01  0.34338230691E+01  0.35861481976E+02  0.36820913410E+02  0.00000000000E+00 0. -1.
         11    1    4    4    0    0  0.68680653182E+01 -0.11527967578E+02 -0.42733391030E+01  0.14082818789E+02  0.51100000000E-03 0. -1.
        -11    1    4    4    0    0  0.11315569238E+02  0.85898330628E+01 -0.20643985490E+02  0.25059957629E+02  0.51100000000E-03 0.  1.
        -12    1    4    4    0    0 -0.10571628646E+02 -0.49568855368E+00 -0.10944157383E+02  0.15224310171E+02  0.00000000000E+00 0.  1.
</event>
<event>
 8    1  0.1253488E-006  0.9118800E+02  0.7816164E-02  0.1184000E+00
        -11   -1    0    0    0    0  0.00000000000E+00  0.00000000000E+00  0.45593999997E+02  0.45594000000E+02  0.51100000000E-03 0. -1.
         11   -1    0    0    0    0 -0.00000000000E+00 -0.00000000000E+00 -0.45593999997E+02  0.45594000000E+02  0.51100000000E-03 0.  1.
         23    2    1    2    0    0  0.00000000000E+00  0.11102230246E-15 -0.17763568394E-14  0.91188000000E+02  0.91188000000E+02 0.  0.
    9900012    2    3    3    0    0  0.33580764044E+02 -0.64940587936E+00  0.15089443161E+02  0.54367072028E+02  0.39999972303E+02 0.  0.
        -12    1    3    3    0    0 -0.33580764044E+02  0.64940587936E+00 -0.15089443161E+02  0.36820927972E+02  0.00000000000E+00 0.  1.
         11    1    4    4    0    0  0.38629270060E+01  0.89956458858E+01  0.64889289925E+01  0.11745213906E+02  0.51100000000E-03 0. -1.
        -11    1    4    4    0    0  0.35607930685E+01  0.69972191799E+01 -0.44043917043E+01  0.90021658546E+01  0.51100000000E-03 0.  1.
        -12    1    4    4    0    0  0.26157043970E+02 -0.16642270945E+02  0.13004905873E+02  0.33619692268E+02  0.00000000000E+00 0.  1.
</event>
<event>
 8    1  0.1253488E-006  0.9118800E+02  0.7816164E-02  0.1184000E+00
        -11   -1    0    0    0    0  0.00000000000E+00  0.00000000000E+00  0.45593999997E+02  0.45594000000E+02  0.51100000000E-03 0.  1.
         11   -1    0    0    0    0 -0.00000000000E+00 -0.00000000000E+00 -0.45593999997E+02  0.45594000000E+02  0.51100000000E-03 0. -1.
         23    2    1    2    0    0  0.00000000000E+00  0.00000000000E+00  0.00000000000E+00  0.91188000000E+02  0.91188000000E+02 0.  0.
    9900012    2    3    3    0    0 -0.11262300238E+02 -0.13423776542E+02  0.32384293350E+02  0.54367086933E+02  0.40000006281E+02 0.  0.
         12    1    3    3    0    0  0.11262300238E+02  0.13423776542E+02 -0.32384293350E+02  0.36820913067E+02  0.00000000000E+00 0. -1.
         11    1    4    4    0    0 -0.10297821083E+02 -0.70748813290E+01  0.34380850075E+01  0.12958375425E+02  0.51100000000E-03 0. -1.
        -11    1    4    4    0    0 -0.31631178860E+01  0.10916570663E+02  0.16399426742E+02  0.19952895217E+02  0.51100000000E-03 0.  1.
         12    1    4    4    0    0  0.21986387311E+01 -0.17265465876E+02  0.12546781600E+02  0.21455816291E+02  0.00000000000E+00 0. -1.
</event>
<event>
 8    1  0.1253488E-006  0.9118800E+02  0.7816164E-02  0.1184000E+00
        -11   -1    0    0    0    0  0.00000000000E+00  0.00000000000E+00  0.45593999997E+02  0.45594000000E+02  0.51100000000E-03 0.  1.
         11   -1    0    0    0    0 -0.00000000000E+00 -0.00000000000E+00 -0.45593999997E+02  0.45594000000E+02  0.51100000000E-03 0. -1.
         23    2    1    2    0    0 -0.35527136788E-14  0.00000000000E+00 -0.35527136788E-14  0.91188000000E+02  0.91188000000E+02 0.  0.
    9900012    2    3    3    0    0  0.26699877376E+02 -0.17178340447E+02  0.18649426805E+02  0.54367082677E+02  0.39999996578E+02 0.  0.
         12    1    3    3    0    0 -0.26699877376E+02  0.17178340447E+02 -0.18649426805E+02  0.36820917323E+02  0.00000000000E+00 0. -1.
         11    1    4    4    0    0  0.26675400503E+02 -0.17883588859E+02  0.16610378114E+02  0.36156664721E+02  0.51100000000E-03 0. -1.
        -11    1    4    4    0    0 -0.54448879578E+01 -0.17280884536E+01  0.79553457583E+01  0.97939073393E+01  0.51100000000E-03 0.  1.
         12    1    4    4    0    0  0.54693648313E+01  0.24333368661E+01 -0.59162970668E+01  0.84165106157E+01  0.00000000000E+00 0. -1.
</event>
<event>
 8    1  0.1253488E-006  0.9118800E+02  0.7816164E-02  0.1184000E+00
        -11   -1    0    0    0    0  0.00000000000E+00  0.00000000000E+00  0.45593999997E+02  0.45594000000E+02  0.51100000000E-03 0.  1.
         11   -1    0    0    0    0 -0.00000000000E+00 -0.00000000000E+00 -0.45593999997E+02  0.45594000000E+02  0.51100000000E-03 0. -1.
         23    2    1    2    0    0 -0.35527136788E-14 -0.17763568394E-14  0.00000000000E+00  0.91188000000E+02  0.91188000000E+02 0.  0.
    9900012    2    3    3    0    0 -0.15503542133E+02 -0.15097553929E+02 -0.29790616860E+02  0.54367125401E+02  0.40000093977E+02 0.  0.
        -12    1    3    3    0    0  0.15503542133E+02  0.15097553929E+02  0.29790616860E+02  0.36820874599E+02  0.00000000000E+00 0.  1.
         11    1    4    4    0    0  0.12957064679E+02 -0.63803966525E+01 -0.91897640125E+01  0.17118608279E+02  0.51100000000E-03 0. -1.
        -11    1    4    4    0    0 -0.18522040803E+02 -0.82468016001E+01 -0.17621086807E+02  0.26862211984E+02  0.51100000000E-03 0.  1.
         12    1    4    4    0    0 -0.99385660087E+01 -0.47035567627E+00 -0.29797660407E+01  0.10386305138E+02  0.00000000000E+00 0. -1.
</event>
<event>
 8    1  0.1253488E-006  0.9118800E+02  0.7816164E-02  0.1184000E+00
        -11   -1    0    0    0    0  0.00000000000E+00  0.00000000000E+00  0.45593999997E+02  0.45594000000E+02  0.51100000000E-03 0.  1.
         11   -1    0    0    0    0 -0.00000000000E+00 -0.00000000000E+00 -0.45593999997E+02  0.45594000000E+02  0.51100000000E-03 0. -1.
         23    2    1    2    0    0 -0.17763568394E-14  0.35527136788E-14  0.00000000000E+00  0.91188000000E+02  0.91188000000E+02 0.  0.
    9900012    2    3    3    0    0 -0.10557665117E+02 -0.30234560243E+02  0.18171050937E+02  0.54367081788E+02  0.39999994553E+02 0.  0.
         12    1    3    3    0    0  0.10557665117E+02  0.30234560243E+02 -0.18171050937E+02  0.36820918212E+02  0.00000000000E+00 0. -1.
         11    1    4    4    0    0 -0.76160225868E+01 -0.10559482385E+02 -0.41571740207E+01  0.13667061293E+02  0.51100000000E-03 0. -1.
        -11    1    4    4    0    0 -0.13704472682E+02 -0.87213708183E+01  0.38883446879E+01  0.16703116629E+02  0.51100000000E-03 0.  1.
        -12    1    4    4    0    0  0.10762830152E+02 -0.10953707039E+02  0.18439880270E+02  0.23996903866E+02  0.00000000000E+00 0.  1.
</event>
<event>
 8    1  0.1253488E-006  0.9118800E+02  0.7816164E-02  0.1184000E+00
        -11   -1    0    0    0    0  0.00000000000E+00  0.00000000000E+00  0.45593999997E+02  0.45594000000E+02  0.51100000000E-03 0. -1.
         11   -1    0    0    0    0 -0.00000000000E+00 -0.00000000000E+00 -0.45593999997E+02  0.45594000000E+02  0.51100000000E-03 0.  1.
         23    2    1    2    0    0  0.00000000000E+00 -0.22204460493E-14 -0.17763568394E-14  0.91188000000E+02  0.91188000000E+02 0.  0.
    9900012    2    3    3    0    0  0.35621495841E+02  0.18249074977E+01  0.91404962539E+01  0.54367218842E+02  0.40000306993E+02 0.  0.
        -12    1    3    3    0    0 -0.35621495841E+02 -0.18249074977E+01 -0.91404962539E+01  0.36820781158E+02  0.00000000000E+00 0.  1.
         11    1    4    4    0    0  0.11579763800E+01  0.11599287264E+01  0.52624979024E+01  0.55118262292E+01  0.51100000000E-03 0. -1.
        -11    1    4    4    0    0  0.28070755642E+02  0.15164888829E+02 -0.19655925268E+01  0.31965680499E+02  0.51100000000E-03 0.  1.
        -12    1    4    4    0    0  0.63927638190E+01 -0.14499910058E+02  0.58435908782E+01  0.16889712114E+02  0.00000000000E+00 0.  1.
</event>
<event>
 8    1  0.1253488E-006  0.9118800E+02  0.7816164E-02  0.1184000E+00
        -11   -1    0    0    0    0  0.00000000000E+00  0.00000000000E+00  0.45593999997E+02  0.45594000000E+02  0.51100000000E-03 0. -1.
         11   -1    0    0    0    0 -0.00000000000E+00 -0.00000000000E+00 -0.45593999997E+02  0.45594000000E+02  0.51100000000E-03 0.  1.
         23    2    1    2    0    0 -0.71054273576E-14  0.13322676296E-14  0.00000000000E+00  0.91188000000E+02  0.91188000000E+02 0.  0.
    9900012    2    3    3    0    0  0.32572936636E+02 -0.15872546654E+01  0.17095706254E+02  0.54367098996E+02  0.40000033780E+02 0.  0.
        -12    1    3    3    0    0 -0.32572936636E+02  0.15872546654E+01 -0.17095706254E+02  0.36820901004E+02  0.00000000000E+00 0.  1.
         11    1    4    4    0    0  0.25903951634E+02 -0.14695807669E+02  0.16959208087E+01  0.29830481406E+02  0.51100000000E-03 0. -1.
        -11    1    4    4    0    0  0.52833320808E+01  0.97919585588E+01  0.28546938712E+01  0.11486745738E+02  0.51100000000E-03 0.  1.
        -12    1    4    4    0    0  0.13856529216E+01  0.33165944449E+01  0.12545091574E+02  0.13049871851E+02  0.00000000000E+00 0.  1.
</event>
<event>
 8    1  0.1253488E-006  0.9118800E+02  0.7816164E-02  0.1184000E+00
        -11   -1    0    0    0    0  0.00000000000E+00  0.00000000000E+00  0.45593999997E+02  0.45594000000E+02  0.51100000000E-03 0. -1.
         11   -1    0    0    0    0 -0.00000000000E+00 -0.00000000000E+00 -0.45593999997E+02  0.45594000000E+02  0.51100000000E-03 0.  1.
         23    2    1    2    0    0  0.71054273576E-14 -0.35527136788E-14  0.55511151231E-15  0.91188000000E+02  0.91188000000E+02 0.  0.
    9900012    2    3    3    0    0  0.32318261320E+02 -0.17624621555E+02  0.82546272511E+00  0.54367099842E+02  0.40000035710E+02 0.  0.
        -12    1    3    3    0    0 -0.32318261320E+02  0.17624621555E+02 -0.82546272511E+00  0.36820900158E+02  0.00000000000E+00 0.  1.
         11    1    4    4    0    0  0.59337539545E+01  0.55200433390E+01 -0.44940509112E+01  0.92669740644E+01  0.51100000000E-03 0. -1.
        -11    1    4    4    0    0  0.16023749112E+02 -0.18206532803E+02 -0.97650037677E+01  0.26145624321E+02  0.51100000000E-03 0.  1.
         12    1    4    4    0    0  0.10360758254E+02 -0.49381320906E+01  0.15084517404E+02  0.18954501456E+02  0.00000000000E+00 0. -1.
</event>
<event>
 8    1  0.1253488E-006  0.9118800E+02  0.7816164E-02  0.1184000E+00
        -11   -1    0    0    0    0  0.00000000000E+00  0.00000000000E+00  0.45593999997E+02  0.45594000000E+02  0.51100000000E-03 0.  1.
         11   -1    0    0    0    0 -0.00000000000E+00 -0.00000000000E+00 -0.45593999997E+02  0.45594000000E+02  0.51100000000E-03 0. -1.
         23    2    1    2    0    0  0.00000000000E+00 -0.44408920985E-15 -0.17763568394E-14  0.91188000000E+02  0.91188000000E+02 0.  0.
    9900012    2    3    3    0    0 -0.33211339266E+02 -0.29803782960E+01  0.15617351733E+02  0.54367117532E+02  0.40000076037E+02 0.  0.
         12    1    3    3    0    0  0.33211339266E+02  0.29803782960E+01 -0.15617351733E+02  0.36820882468E+02  0.00000000000E+00 0. -1.
         11    1    4    4    0    0 -0.49600597175E+01 -0.22107229024E+01 -0.10914148100E+02  0.12190492901E+02  0.51100000000E-03 0. -1.
        -11    1    4    4    0    0 -0.22819106382E+02 -0.75429653305E+01  0.20683945292E+02  0.31708571951E+02  0.51100000000E-03 0.  1.
        -12    1    4    4    0    0 -0.54321731663E+01  0.67733099368E+01  0.58475545410E+01  0.10468052680E+02  0.00000000000E+00 0.  1.
</event>
<event>
 8    1  0.1253488E-006  0.9118800E+02  0.7816164E-02  0.1184000E+00
        -11   -1    0    0    0    0  0.00000000000E+00  0.00000000000E+00  0.45593999997E+02  0.45594000000E+02  0.51100000000E-03 0. -1.
         11   -1    0    0    0    0 -0.00000000000E+00 -0.00000000000E+00 -0.45593999997E+02  0.45594000000E+02  0.51100000000E-03 0.  1.
         23    2    1    2    0    0  0.27755575616E-16  0.00000000000E+00  0.71054273576E-14  0.91188000000E+02  0.91188000000E+02 0.  0.
    9900012    2    3    3    0    0 -0.23269494962E+00  0.13164177033E+02  0.34386474199E+02  0.54367091378E+02  0.40000016415E+02 0.  0.
        -12    1    3    3    0    0  0.23269494962E+00 -0.13164177033E+02 -0.34386474199E+02  0.36820908622E+02  0.00000000000E+00 0.  1.
         11    1    4    4    0    0  0.19155339132E+01 -0.33298522163E+01 -0.32729216024E+01  0.50467020946E+01  0.51100000000E-03 0. -1.
        -11    1    4    4    0    0  0.70651324133E+00  0.36093447957E+01 -0.41102553658E+01  0.55154990933E+01  0.51100000000E-03 0.  1.
         12    1    4    4    0    0 -0.28547421041E+01  0.12884684454E+02  0.41769651167E+02  0.43804890190E+02  0.00000000000E+00 0. -1.
</event>
<event>
 8    1  0.1253488E-006  0.9118800E+02  0.7816164E-02  0.1184000E+00
        -11   -1    0    0    0    0  0.00000000000E+00  0.00000000000E+00  0.45593999997E+02  0.45594000000E+02  0.51100000000E-03 0.  1.
         11   -1    0    0    0    0 -0.00000000000E+00 -0.00000000000E+00 -0.45593999997E+02  0.45594000000E+02  0.51100000000E-03 0. -1.
         23    2    1    2    0    0  0.71054273576E-14  0.00000000000E+00  0.00000000000E+00  0.91188000000E+02  0.91188000000E+02 0.  0.
    9900012    2    3    3    0    0 -0.33786107041E+02 -0.12976536471E+02 -0.67740540434E+01  0.54367091049E+02  0.40000015665E+02 0.  0.
        -12    1    3    3    0    0  0.33786107041E+02  0.12976536471E+02  0.67740540434E+01  0.36820908951E+02  0.00000000000E+00 0.  1.
         11    1    4    4    0    0 -0.36599784169E+02 -0.14237641401E+02 -0.16955886183E+02  0.42775655581E+02  0.51100000000E-03 0. -1.
        -11    1    4    4    0    0  0.14249138440E+01  0.36168620866E+00  0.21207993966E+00  0.14853196755E+01  0.51100000000E-03 0.  1.
         12    1    4    4    0    0  0.13887632837E+01  0.89941872096E+00  0.99697522002E+01  0.10106115793E+02  0.00000000000E+00 0. -1.
</event>
<event>
 8    1  0.1253488E-006  0.9118800E+02  0.7816164E-02  0.1184000E+00
        -11   -1    0    0    0    0  0.00000000000E+00  0.00000000000E+00  0.45593999997E+02  0.45594000000E+02  0.51100000000E-03 0.  1.
         11   -1    0    0    0    0 -0.00000000000E+00 -0.00000000000E+00 -0.45593999997E+02  0.45594000000E+02  0.51100000000E-03 0. -1.
         23    2    1    2    0    0  0.35527136788E-14  0.00000000000E+00  0.00000000000E+00  0.91188000000E+02  0.91188000000E+02 0.  0.
    9900012    2    3    3    0    0 -0.19168065349E+02  0.29560823848E+02 -0.10701635971E+02  0.54367054218E+02  0.39999931702E+02 0.  0.
        -12    1    3    3    0    0  0.19168065349E+02 -0.29560823848E+02  0.10701635971E+02  0.36820945782E+02  0.00000000000E+00 0.  1.
         11    1    4    4    0    0  0.10615667778E+02  0.39201137297E+01 -0.10736033949E+01  0.11367159652E+02  0.51100000000E-03 0. -1.
        -11    1    4    4    0    0 -0.40645396509E+01 -0.11968880984E+01 -0.31221845812E+01  0.52631796961E+01  0.51100000000E-03 0.  1.
         12    1    4    4    0    0 -0.25719193476E+02  0.26837598217E+02 -0.65058479950E+01  0.37736714871E+02  0.00000000000E+00 0. -1.
</event>
<event>
 8    1  0.1253488E-006  0.9118800E+02  0.7816164E-02  0.1184000E+00
        -11   -1    0    0    0    0  0.00000000000E+00  0.00000000000E+00  0.45593999997E+02  0.45594000000E+02  0.51100000000E-03 0.  1.
         11   -1    0    0    0    0 -0.00000000000E+00 -0.00000000000E+00 -0.45593999997E+02  0.45594000000E+02  0.51100000000E-03 0. -1.
         23    2    1    2    0    0  0.17763568394E-14  0.00000000000E+00 -0.71054273576E-14  0.91188000000E+02  0.91188000000E+02 0.  0.
    9900012    2    3    3    0    0  0.93765111220E+01 -0.14901129177E+02 -0.32339086061E+02  0.54367094269E+02  0.40000023005E+02 0.  0.
        -12    1    3    3    0    0 -0.93765111220E+01  0.14901129177E+02  0.32339086061E+02  0.36820905731E+02  0.00000000000E+00 0.  1.
         11    1    4    4    0    0 -0.10533819688E+01 -0.50919674205E+01 -0.25420323476E+02  0.25946687489E+02  0.51100000000E-03 0. -1.
        -11    1    4    4    0    0  0.12120171615E+02 -0.16606637718E+02 -0.50211370975E+01  0.21163430589E+02  0.51100000000E-03 0.  1.
        -12    1    4    4    0    0 -0.16902785237E+01  0.67974759621E+01 -0.18976254882E+01  0.72569761910E+01  0.00000000000E+00 0.  1.
</event>
<event>
 8    1  0.1253488E-006  0.9118800E+02  0.7816164E-02  0.1184000E+00
        -11   -1    0    0    0    0  0.00000000000E+00  0.00000000000E+00  0.45593999997E+02  0.45594000000E+02  0.51100000000E-03 0.  1.
         11   -1    0    0    0    0 -0.00000000000E+00 -0.00000000000E+00 -0.45593999997E+02  0.45594000000E+02  0.51100000000E-03 0. -1.
         23    2    1    2    0    0  0.17763568394E-14  0.00000000000E+00 -0.88817841970E-15  0.91188000000E+02  0.91188000000E+02 0.  0.
    9900012    2    3    3    0    0  0.13642456686E+02 -0.33877106470E+02  0.46909646905E+01  0.54367080444E+02  0.39999991488E+02 0.  0.
        -12    1    3    3    0    0 -0.13642456686E+02  0.33877106470E+02 -0.46909646905E+01  0.36820919556E+02  0.00000000000E+00 0.  1.
         11    1    4    4    0    0  0.15185275717E+02 -0.16267638742E+02  0.21594828946E+01  0.22358265484E+02  0.51100000000E-03 0. -1.
        -11    1    4    4    0    0  0.89452475063E+01 -0.38844136960E+01  0.92817012739E+01  0.13463138620E+02  0.51100000000E-03 0.  1.
         12    1    4    4    0    0 -0.10488066537E+02 -0.13725054032E+02 -0.67502194780E+01  0.18545676339E+02  0.00000000000E+00 0. -1.
</event>
<event>
 8    1  0.1253488E-006  0.9118800E+02  0.7816164E-02  0.1184000E+00
        -11   -1    0    0    0    0  0.00000000000E+00  0.00000000000E+00  0.45593999997E+02  0.45594000000E+02  0.51100000000E-03 0. -1.
         11   -1    0    0    0    0 -0.00000000000E+00 -0.00000000000E+00 -0.45593999997E+02  0.45594000000E+02  0.51100000000E-03 0.  1.
         23    2    1    2    0    0  0.00000000000E+00  0.35527136788E-14  0.00000000000E+00  0.91188000000E+02  0.91188000000E+02 0.  0.
    9900012    2    3    3    0    0 -0.23169085182E+02 -0.22719209697E+02  0.17401429288E+02  0.54367099160E+02  0.40000034156E+02 0.  0.
        -12    1    3    3    0    0  0.23169085182E+02  0.22719209697E+02 -0.17401429288E+02  0.36820900840E+02  0.00000000000E+00 0.  1.
         11    1    4    4    0    0  0.36654918070E+01  0.12646554707E+01  0.12406235582E+02  0.12998071596E+02  0.51100000000E-03 0.  1.
        -11    1    4    4    0    0 -0.25194828935E+02 -0.10790706931E+02  0.59264529763E+01  0.28041783222E+02  0.51100000000E-03 0. -1.
         12    1    4    4    0    0 -0.16397480540E+01 -0.13193158236E+02 -0.93125927061E+00  0.13327244342E+02  0.00000000000E+00 0. -1.
</event>
<event>
 8    1  0.1253488E-006  0.9118800E+02  0.7816164E-02  0.1184000E+00
        -11   -1    0    0    0    0  0.00000000000E+00  0.00000000000E+00  0.45593999997E+02  0.45594000000E+02  0.51100000000E-03 0. -1.
         11   -1    0    0    0    0 -0.00000000000E+00 -0.00000000000E+00 -0.45593999997E+02  0.45594000000E+02  0.51100000000E-03 0.  1.
         23    2    1    2    0    0 -0.35527136788E-14  0.00000000000E+00  0.00000000000E+00  0.91188000000E+02  0.91188000000E+02 0.  0.
    9900012    2    3    3    0    0  0.29085913209E+02 -0.91824428385E+01 -0.20626884896E+02  0.54367136564E+02  0.40000119424E+02 0.  0.
         12    1    3    3    0    0 -0.29085913209E+02  0.91824428385E+01  0.20626884896E+02  0.36820863436E+02  0.00000000000E+00 0. -1.
         11    1    4    4    0    0  0.19606376295E+02 -0.16232037330E+01 -0.29531514504E+01  0.19893865525E+02  0.51100000000E-03 0. -1.
        -11    1    4    4    0    0  0.18648829642E+02 -0.31904705138E+01 -0.83303347097E+01  0.20672504099E+02  0.51100000000E-03 0.  1.
         12    1    4    4    0    0 -0.91692927286E+01 -0.43687685918E+01 -0.93433987364E+01  0.13800766939E+02  0.00000000000E+00 0. -1.
</event>
<event>
 8    1  0.1253488E-006  0.9118800E+02  0.7816164E-02  0.1184000E+00
        -11   -1    0    0    0    0  0.00000000000E+00  0.00000000000E+00  0.45593999997E+02  0.45594000000E+02  0.51100000000E-03 0.  1.
         11   -1    0    0    0    0 -0.00000000000E+00 -0.00000000000E+00 -0.45593999997E+02  0.45594000000E+02  0.51100000000E-03 0. -1.
         23    2    1    2    0    0 -0.35527136788E-14  0.00000000000E+00  0.00000000000E+00  0.91188000000E+02  0.91188000000E+02 0.  0.
    9900012    2    3    3    0    0 -0.24267951596E+02  0.17121452689E+02 -0.21764590154E+02  0.54367149909E+02  0.40000149847E+02 0.  0.
        -12    1    3    3    0    0  0.24267951596E+02 -0.17121452689E+02  0.21764590154E+02  0.36820850091E+02  0.00000000000E+00 0.  1.
         11    1    4    4    0    0 -0.70619042152E+01  0.55471930942E+01 -0.16106040984E+02  0.18440347036E+02  0.51100000000E-03 0. -1.
        -11    1    4    4    0    0 -0.29466332205E+01 -0.94600983050E+01 -0.75730222644E-01  0.99086751185E+01  0.51100000000E-03 0.  1.
         12    1    4    4    0    0 -0.14259414160E+02  0.21034357900E+02 -0.55828189480E+01  0.26018127755E+02  0.00000000000E+00 0. -1.
</event>
<event>
 8    1  0.1253488E-006  0.9118800E+02  0.7816164E-02  0.1184000E+00
        -11   -1    0    0    0    0  0.00000000000E+00  0.00000000000E+00  0.45593999997E+02  0.45594000000E+02  0.51100000000E-03 0.  1.
         11   -1    0    0    0    0 -0.00000000000E+00 -0.00000000000E+00 -0.45593999997E+02  0.45594000000E+02  0.51100000000E-03 0. -1.
         23    2    1    2    0    0 -0.35527136788E-14  0.00000000000E+00  0.00000000000E+00  0.91188000000E+02  0.91188000000E+02 0.  0.
    9900012    2    3    3    0    0  0.23575999662E+02  0.90071894732E+01  0.26810827002E+02  0.54367113715E+02  0.40000067337E+02 0.  0.
         12    1    3    3    0    0 -0.23575999662E+02 -0.90071894732E+01 -0.26810827002E+02  0.36820886285E+02  0.00000000000E+00 0. -1.
         11    1    4    4    0    0  0.31219492844E+01  0.11896316372E+02  0.25613662541E+02  0.28413528813E+02  0.51100000000E-03 0. -1.
        -11    1    4    4    0    0  0.15083658805E+01  0.27575275244E+01  0.49186039126E+01  0.58371046236E+01  0.51100000000E-03 0.  1.
         12    1    4    4    0    0  0.18945684497E+02 -0.56466544230E+01 -0.37214394520E+01  0.20116480279E+02  0.00000000000E+00 0. -1.
</event>
<event>
 8    1  0.1253488E-006  0.9118800E+02  0.7816164E-02  0.1184000E+00
        -11   -1    0    0    0    0  0.00000000000E+00  0.00000000000E+00  0.45593999997E+02  0.45594000000E+02  0.51100000000E-03 0. -1.
         11   -1    0    0    0    0 -0.00000000000E+00 -0.00000000000E+00 -0.45593999997E+02  0.45594000000E+02  0.51100000000E-03 0.  1.
         23    2    1    2    0    0  0.35527136788E-14  0.11102230246E-14  0.00000000000E+00  0.91188000000E+02  0.91188000000E+02 0.  0.
    9900012    2    3    3    0    0  0.30682693287E+02 -0.15082228581E+01  0.20299691068E+02  0.54367083920E+02  0.39999999412E+02 0.  0.
        -12    1    3    3    0    0 -0.30682693287E+02  0.15082228581E+01 -0.20299691068E+02  0.36820916080E+02  0.00000000000E+00 0.  1.
         11    1    4    4    0    0 -0.64392874560E+01  0.11618722802E+01  0.37447423627E+01  0.75390626580E+01  0.51100000000E-03 0. -1.
        -11    1    4    4    0    0  0.25168333777E+02  0.93441820718E+01  0.96804423819E+01  0.28538916039E+02  0.51100000000E-03 0.  1.
         12    1    4    4    0    0  0.11953646966E+02 -0.12014277210E+02  0.68745063232E+01  0.18289105223E+02  0.00000000000E+00 0. -1.
</event>
<event>
 8    1  0.1253488E-006  0.9118800E+02  0.7816164E-02  0.1184000E+00
        -11   -1    0    0    0    0  0.00000000000E+00  0.00000000000E+00  0.45593999997E+02  0.45594000000E+02  0.51100000000E-03 0.  1.
         11   -1    0    0    0    0 -0.00000000000E+00 -0.00000000000E+00 -0.45593999997E+02  0.45594000000E+02  0.51100000000E-03 0. -1.
         23    2    1    2    0    0 -0.88817841970E-15  0.10658141036E-13  0.00000000000E+00  0.91188000000E+02  0.91188000000E+02 0.  0.
    9900012    2    3    3    0    0 -0.50121904183E+01  0.27276061149E+02 -0.24221379836E+02  0.54367071091E+02  0.39999970165E+02 0.  0.
         12    1    3    3    0    0  0.50121904183E+01 -0.27276061149E+02  0.24221379836E+02  0.36820928909E+02  0.00000000000E+00 0. -1.
         11    1    4    4    0    0  0.96075601075E-01 -0.63286590679E+00  0.29616404376E+01  0.30300270823E+01  0.51100000000E-03 0. -1.
        -11    1    4    4    0    0  0.53348782617E+01 -0.43775379660E+01 -0.12675916093E+02  0.14432692533E+02  0.51100000000E-03 0.  1.
        -12    1    4    4    0    0 -0.10443144281E+02  0.32286465022E+02 -0.14507104180E+02  0.36904351475E+02  0.00000000000E+00 0.  1.
</event>
<event>
 8    1  0.1253488E-006  0.9118800E+02  0.7816164E-02  0.1184000E+00
        -11   -1    0    0    0    0  0.00000000000E+00  0.00000000000E+00  0.45593999997E+02  0.45594000000E+02  0.51100000000E-03 0. -1.
         11   -1    0    0    0    0 -0.00000000000E+00 -0.00000000000E+00 -0.45593999997E+02  0.45594000000E+02  0.51100000000E-03 0.  1.
         23    2    1    2    0    0  0.35527136788E-14 -0.35527136788E-14  0.00000000000E+00  0.91188000000E+02  0.91188000000E+02 0.  0.
    9900012    2    3    3    0    0  0.29992764054E+02  0.10867630945E+02  0.18387720345E+02  0.54367088041E+02  0.40000008808E+02 0.  0.
        -12    1    3    3    0    0 -0.29992764054E+02 -0.10867630945E+02 -0.18387720345E+02  0.36820911959E+02  0.00000000000E+00 0.  1.
         11    1    4    4    0    0  0.14469097038E+02 -0.43029832786E+01  0.19988995374E+02  0.25048560248E+02  0.51100000000E-03 0. -1.
        -11    1    4    4    0    0  0.72703526795E+01  0.14616389754E+02  0.66570439015E+01  0.17629892549E+02  0.51100000000E-03 0.  1.
         12    1    4    4    0    0  0.82533143369E+01  0.55422446919E+00 -0.82583189301E+01  0.11688635244E+02  0.00000000000E+00 0. -1.
</event>
<event>
 8    1  0.1253488E-006  0.9118800E+02  0.7816164E-02  0.1184000E+00
        -11   -1    0    0    0    0  0.00000000000E+00  0.00000000000E+00  0.45593999997E+02  0.45594000000E+02  0.51100000000E-03 0. -1.
         11   -1    0    0    0    0 -0.00000000000E+00 -0.00000000000E+00 -0.45593999997E+02  0.45594000000E+02  0.51100000000E-03 0.  1.
         23    2    1    2    0    0  0.00000000000E+00 -0.17763568394E-14  0.71054273576E-14  0.91188000000E+02  0.91188000000E+02 0.  0.
    9900012    2    3    3    0    0 -0.19292743836E+02  0.11291929262E+02 -0.29258556685E+02  0.54367071570E+02  0.39999971257E+02 0.  0.
         12    1    3    3    0    0  0.19292743836E+02 -0.11291929262E+02  0.29258556685E+02  0.36820928430E+02  0.00000000000E+00 0. -1.
         11    1    4    4    0    0 -0.11715604734E+02  0.28625367302E+01 -0.16938785345E+02  0.20793555734E+02  0.51100000000E-03 0.  1.
        -11    1    4    4    0    0  0.10687755039E+02  0.61809853810E+01 -0.21007508205E+01  0.12523811014E+02  0.51100000000E-03 0. -1.
         12    1    4    4    0    0 -0.18264894141E+02  0.22484071511E+01 -0.10219020519E+02  0.21049704821E+02  0.00000000000E+00 0. -1.
</event>
<event>
 8    1  0.1253488E-006  0.9118800E+02  0.7816164E-02  0.1184000E+00
        -11   -1    0    0    0    0  0.00000000000E+00  0.00000000000E+00  0.45593999997E+02  0.45594000000E+02  0.51100000000E-03 0. -1.
         11   -1    0    0    0    0 -0.00000000000E+00 -0.00000000000E+00 -0.45593999997E+02  0.45594000000E+02  0.51100000000E-03 0.  1.
         23    2    1    2    0    0  0.35527136788E-14  0.00000000000E+00  0.35527136788E-14  0.91188000000E+02  0.91188000000E+02 0.  0.
    9900012    2    3    3    0    0  0.25093919804E+02 -0.13356989719E+02  0.23402268093E+02  0.54367080167E+02  0.39999990857E+02 0.  0.
        -12    1    3    3    0    0 -0.25093919804E+02  0.13356989719E+02 -0.23402268093E+02  0.36820919833E+02  0.00000000000E+00 0.  1.
         11    1    4    4    0    0  0.51006604572E+01 -0.10527792972E+02  0.62714030759E+00  0.11715138377E+02  0.51100000000E-03 0.  1.
        -11    1    4    4    0    0 -0.27222457197E+01 -0.77306249105E+00  0.19388003311E+02  0.19593440740E+02  0.51100000000E-03 0. -1.
         12    1    4    4    0    0  0.22715505066E+02 -0.20561342564E+01  0.33871244740E+01  0.23058501050E+02  0.00000000000E+00 0. -1.
</event>
<event>
 8    1  0.1253488E-006  0.9118800E+02  0.7816164E-02  0.1184000E+00
        -11   -1    0    0    0    0  0.00000000000E+00  0.00000000000E+00  0.45593999997E+02  0.45594000000E+02  0.51100000000E-03 0.  1.
         11   -1    0    0    0    0 -0.00000000000E+00 -0.00000000000E+00 -0.45593999997E+02  0.45594000000E+02  0.51100000000E-03 0. -1.
         23    2    1    2    0    0  0.35527136788E-14  0.44408920985E-15  0.00000000000E+00  0.91188000000E+02  0.91188000000E+02 0.  0.
    9900012    2    3    3    0    0 -0.28960692101E+02 -0.39164616247E+01  0.22399096357E+02  0.54367083712E+02  0.39999998939E+02 0.  0.
        -12    1    3    3    0    0  0.28960692101E+02  0.39164616247E+01 -0.22399096357E+02  0.36820916288E+02  0.00000000000E+00 0.  1.
         11    1    4    4    0    0 -0.14439526558E+02 -0.19375398524E+01  0.11388958052E+02  0.18492224141E+02  0.51100000000E-03 0.  1.
        -11    1    4    4    0    0 -0.19271238237E+02 -0.74495209946E+01 -0.22311260630E+01  0.20781095014E+02  0.51100000000E-03 0. -1.
        -12    1    4    4    0    0  0.47500726934E+01  0.54705992223E+01  0.13241264368E+02  0.15093764557E+02  0.00000000000E+00 0.  1.
</event>
<event>
 8    1  0.1253488E-006  0.9118800E+02  0.7816164E-02  0.1184000E+00
        -11   -1    0    0    0    0  0.00000000000E+00  0.00000000000E+00  0.45593999997E+02  0.45594000000E+02  0.51100000000E-03 0.  1.
         11   -1    0    0    0    0 -0.00000000000E+00 -0.00000000000E+00 -0.45593999997E+02  0.45594000000E+02  0.51100000000E-03 0. -1.
         23    2    1    2    0    0 -0.44408920985E-15  0.00000000000E+00  0.00000000000E+00  0.91188000000E+02  0.91188000000E+02 0.  0.
    9900012    2    3    3    0    0 -0.21800618788E+01 -0.36432422063E+02  0.48688250044E+01  0.54367088766E+02  0.40000010459E+02 0.  0.
         12    1    3    3    0    0  0.21800618788E+01  0.36432422063E+02 -0.48688250044E+01  0.36820911234E+02  0.00000000000E+00 0. -1.
         11    1    4    4    0    0 -0.11459073778E+02 -0.99667053425E+01 -0.11728540340E+02  0.19188648884E+02  0.51100000000E-03 0. -1.
        -11    1    4    4    0    0 -0.12117585056E+01 -0.13770511219E+02  0.38422680134E+01  0.14347765041E+02  0.51100000000E-03 0.  1.
         12    1    4    4    0    0  0.10490770405E+02 -0.12695205502E+02  0.12755097331E+02  0.20830674841E+02  0.00000000000E+00 0. -1.
</event>
<event>
 8    1  0.1253488E-006  0.9118800E+02  0.7816164E-02  0.1184000E+00
        -11   -1    0    0    0    0  0.00000000000E+00  0.00000000000E+00  0.45593999997E+02  0.45594000000E+02  0.51100000000E-03 0.  1.
         11   -1    0    0    0    0 -0.00000000000E+00 -0.00000000000E+00 -0.45593999997E+02  0.45594000000E+02  0.51100000000E-03 0. -1.
         23    2    1    2    0    0  0.00000000000E+00  0.17763568394E-14  0.88817841970E-15  0.91188000000E+02  0.91188000000E+02 0.  0.
    9900012    2    3    3    0    0  0.35434158845E+02  0.73665427838E+01  0.67775002443E+01  0.54367081011E+02  0.39999992780E+02 0.  0.
        -12    1    3    3    0    0 -0.35434158845E+02 -0.73665427838E+01 -0.67775002443E+01  0.36820918989E+02  0.00000000000E+00 0.  1.
         11    1    4    4    0    0  0.26033775937E+02  0.17664833887E+02  0.79383281336E+01  0.32447201722E+02  0.51100000000E-03 0.  1.
        -11    1    4    4    0    0  0.78396747882E+01 -0.11607095131E+02 -0.70554567058E+01  0.15683259475E+02  0.51100000000E-03 0. -1.
        -12    1    4    4    0    0  0.15607081204E+01  0.13088040278E+01  0.58946288165E+01  0.62366198141E+01  0.00000000000E+00 0.  1.
</event>
<event>
 8    1  0.1253488E-006  0.9118800E+02  0.7816164E-02  0.1184000E+00
        -11   -1    0    0    0    0  0.00000000000E+00  0.00000000000E+00  0.45593999997E+02  0.45594000000E+02  0.51100000000E-03 0.  1.
         11   -1    0    0    0    0 -0.00000000000E+00 -0.00000000000E+00 -0.45593999997E+02  0.45594000000E+02  0.51100000000E-03 0. -1.
         23    2    1    2    0    0 -0.44408920985E-15  0.00000000000E+00  0.00000000000E+00  0.91188000000E+02  0.91188000000E+02 0.  0.
    9900012    2    3    3    0    0  0.35571392872E+01  0.34528376997E+02 -0.12284617215E+02  0.54367165164E+02  0.40000184623E+02 0.  0.
        -12    1    3    3    0    0 -0.35571392872E+01 -0.34528376997E+02  0.12284617215E+02  0.36820834836E+02  0.00000000000E+00 0.  1.
         11    1    4    4    0    0  0.36838813206E+01  0.59119310916E+01 -0.11469479683E+02  0.13419048970E+02  0.51100000000E-03 0. -1.
        -11    1    4    4    0    0 -0.87594956652E+01  0.36160412814E+01  0.86755818451E+01  0.12847966355E+02  0.51100000000E-03 0.  1.
        -12    1    4    4    0    0  0.86327536319E+01  0.25000404624E+02 -0.94907193772E+01  0.28100149838E+02  0.00000000000E+00 0.  1.
</event>
<event>
 8    1  0.1253488E-006  0.9118800E+02  0.7816164E-02  0.1184000E+00
        -11   -1    0    0    0    0  0.00000000000E+00  0.00000000000E+00  0.45593999997E+02  0.45594000000E+02  0.51100000000E-03 0. -1.
         11   -1    0    0    0    0 -0.00000000000E+00 -0.00000000000E+00 -0.45593999997E+02  0.45594000000E+02  0.51100000000E-03 0.  1.
         23    2    1    2    0    0  0.00000000000E+00  0.00000000000E+00  0.00000000000E+00  0.91188000000E+02  0.91188000000E+02 0.  0.
    9900012    2    3    3    0    0  0.23513792991E+02  0.11921226347E+02  0.25705380890E+02  0.54367072457E+02  0.39999973280E+02 0.  0.
        -12    1    3    3    0    0 -0.23513792991E+02 -0.11921226347E+02 -0.25705380890E+02  0.36820927543E+02  0.00000000000E+00 0.  1.
         11    1    4    4    0    0  0.60420191887E+01 -0.20927375310E+01  0.10021354465E+02  0.11887518321E+02  0.51100000000E-03 0. -1.
        -11    1    4    4    0    0  0.13235168553E+02  0.30948975531E+01  0.24365789406E+02  0.27900533528E+02  0.51100000000E-03 0.  1.
        -12    1    4    4    0    0  0.42366052499E+01  0.10919066325E+02 -0.86817629813E+01  0.14579020609E+02  0.00000000000E+00 0.  1.
</event>
<event>
 8    1  0.1253488E-006  0.9118800E+02  0.7816164E-02  0.1184000E+00
        -11   -1    0    0    0    0  0.00000000000E+00  0.00000000000E+00  0.45593999997E+02  0.45594000000E+02  0.51100000000E-03 0.  1.
         11   -1    0    0    0    0 -0.00000000000E+00 -0.00000000000E+00 -0.45593999997E+02  0.45594000000E+02  0.51100000000E-03 0. -1.
         23    2    1    2    0    0  0.00000000000E+00  0.00000000000E+00 -0.88817841970E-15  0.91188000000E+02  0.91188000000E+02 0.  0.
    9900012    2    3    3    0    0 -0.28466231919E+01  0.36481943602E+02  0.40919593738E+01  0.54367087408E+02  0.40000007365E+02 0.  0.
        -12    1    3    3    0    0  0.28466231919E+01 -0.36481943602E+02 -0.40919593738E+01  0.36820912592E+02  0.00000000000E+00 0.  1.
         11    1    4    4    0    0  0.15366261981E+02  0.29759599358E+02 -0.15399292827E+00  0.33492976507E+02  0.51100000000E-03 0. -1.
        -11    1    4    4    0    0 -0.28538451838E-01 -0.71772924480E+00  0.49342375375E+00  0.87144533618E+00  0.51100000000E-03 0.  1.
         12    1    4    4    0    0 -0.18184346721E+02  0.74400734884E+01  0.37525285484E+01  0.20002665565E+02  0.00000000000E+00 0. -1.
</event>
<event>
 8    1  0.1253488E-006  0.9118800E+02  0.7816164E-02  0.1184000E+00
        -11   -1    0    0    0    0  0.00000000000E+00  0.00000000000E+00  0.45593999997E+02  0.45594000000E+02  0.51100000000E-03 0.  1.
         11   -1    0    0    0    0 -0.00000000000E+00 -0.00000000000E+00 -0.45593999997E+02  0.45594000000E+02  0.51100000000E-03 0. -1.
         23    2    1    2    0    0  0.17763568394E-14  0.13322676296E-14  0.00000000000E+00  0.91188000000E+02  0.91188000000E+02 0.  0.
    9900012    2    3    3    0    0 -0.11608400706E+02  0.32591498829E+01  0.34790770107E+02  0.54367153873E+02  0.40000158883E+02 0.  0.
         12    1    3    3    0    0  0.11608400706E+02 -0.32591498829E+01 -0.34790770107E+02  0.36820846127E+02  0.00000000000E+00 0. -1.
         11    1    4    4    0    0  0.31201022858E+00  0.66977973051E+01  0.71121806123E+00  0.67426753232E+01  0.51100000000E-03 0. -1.
        -11    1    4    4    0    0 -0.64705599960E+01 -0.15951824568E+02  0.98976811819E+01  0.19856811092E+02  0.51100000000E-03 0.  1.
         12    1    4    4    0    0 -0.54498509384E+01  0.12513177146E+02  0.24181870864E+02  0.27767667457E+02  0.00000000000E+00 0. -1.
</event>
<event>
 8    1  0.1253488E-006  0.9118800E+02  0.7816164E-02  0.1184000E+00
        -11   -1    0    0    0    0  0.00000000000E+00  0.00000000000E+00  0.45593999997E+02  0.45594000000E+02  0.51100000000E-03 0. -1.
         11   -1    0    0    0    0 -0.00000000000E+00 -0.00000000000E+00 -0.45593999997E+02  0.45594000000E+02  0.51100000000E-03 0.  1.
         23    2    1    2    0    0 -0.44408920985E-15 -0.17763568394E-14  0.00000000000E+00  0.91188000000E+02  0.91188000000E+02 0.  0.
    9900012    2    3    3    0    0  0.37817511787E+01 -0.12311217445E+02 -0.34495110914E+02  0.54367076683E+02  0.39999982914E+02 0.  0.
         12    1    3    3    0    0 -0.37817511787E+01  0.12311217445E+02  0.34495110914E+02  0.36820923317E+02  0.00000000000E+00 0. -1.
         11    1    4    4    0    0 -0.83064129408E+01  0.89809204864E+01 -0.13908268299E+02  0.18522779383E+02  0.51100000000E-03 0. -1.
        -11    1    4    4    0    0  0.86867460955E+01 -0.16939811900E+02 -0.55572777211E+01  0.19831795705E+02  0.51100000000E-03 0.  1.
        -12    1    4    4    0    0  0.34014180239E+01 -0.43523260315E+01 -0.15029564893E+02  0.16012501595E+02  0.00000000000E+00 0.  1.
</event>
<event>
 8    1  0.1253488E-006  0.9118800E+02  0.7816164E-02  0.1184000E+00
        -11   -1    0    0    0    0  0.00000000000E+00  0.00000000000E+00  0.45593999997E+02  0.45594000000E+02  0.51100000000E-03 0.  1.
         11   -1    0    0    0    0 -0.00000000000E+00 -0.00000000000E+00 -0.45593999997E+02  0.45594000000E+02  0.51100000000E-03 0. -1.
         23    2    1    2    0    0  0.17763568394E-14  0.00000000000E+00  0.17763568394E-14  0.91188000000E+02  0.91188000000E+02 0.  0.
    9900012    2    3    3    0    0 -0.10168751003E+02 -0.34290163777E+02 -0.87496994393E+01  0.54367135410E+02  0.40000116795E+02 0.  0.
        -12    1    3    3    0    0  0.10168751003E+02  0.34290163777E+02  0.87496994393E+01  0.36820864590E+02  0.00000000000E+00 0.  1.
         11    1    4    4    0    0 -0.82861746373E+01 -0.24977535924E+02 -0.15618987060E+02  0.30602136330E+02  0.51100000000E-03 0. -1.
        -11    1    4    4    0    0 -0.76534099814E+01 -0.13015813347E+02  0.17341796651E+01  0.15198469029E+02  0.51100000000E-03 0.  1.
         12    1    4    4    0    0  0.57708336152E+01  0.37031854936E+01  0.51351079553E+01  0.85665300517E+01  0.00000000000E+00 0. -1.
</event>
<event>
 8    1  0.1253488E-006  0.9118800E+02  0.7816164E-02  0.1184000E+00
        -11   -1    0    0    0    0  0.00000000000E+00  0.00000000000E+00  0.45593999997E+02  0.45594000000E+02  0.51100000000E-03 0. -1.
         11   -1    0    0    0    0 -0.00000000000E+00 -0.00000000000E+00 -0.45593999997E+02  0.45594000000E+02  0.51100000000E-03 0.  1.
         23    2    1    2    0    0 -0.53290705182E-14  0.00000000000E+00  0.71054273576E-14  0.91188000000E+02  0.91188000000E+02 0.  0.
    9900012    2    3    3    0    0 -0.14100486793E+02  0.68820615069E+01  0.33310544429E+02  0.54367097397E+02  0.40000030135E+02 0.  0.
        -12    1    3    3    0    0  0.14100486793E+02 -0.68820615069E+01 -0.33310544429E+02  0.36820902603E+02  0.00000000000E+00 0.  1.
         11    1    4    4    0    0  0.28394841966E+01  0.10465058235E+02 -0.38607603221E+00  0.10850307338E+02  0.51100000000E-03 0. -1.
        -11    1    4    4    0    0  0.26075441759E+00  0.43275326172E+01 -0.56514224349E+00  0.43720610054E+01  0.51100000000E-03 0.  1.
        -12    1    4    4    0    0 -0.17200725407E+02 -0.79105293450E+01  0.34261762704E+02  0.39144729054E+02  0.00000000000E+00 0.  1.
</event>
<event>
 8    1  0.1253488E-006  0.9118800E+02  0.7816164E-02  0.1184000E+00
        -11   -1    0    0    0    0  0.00000000000E+00  0.00000000000E+00  0.45593999997E+02  0.45594000000E+02  0.51100000000E-03 0.  1.
         11   -1    0    0    0    0 -0.00000000000E+00 -0.00000000000E+00 -0.45593999997E+02  0.45594000000E+02  0.51100000000E-03 0. -1.
         23    2    1    2    0    0  0.00000000000E+00  0.00000000000E+00  0.00000000000E+00  0.91188000000E+02  0.91188000000E+02 0.  0.
    9900012    2    3    3    0    0  0.18517940044E+02 -0.16100478821E+02 -0.27452519775E+02  0.54367077093E+02  0.39999983849E+02 0.  0.
        -12    1    3    3    0    0 -0.18517940044E+02  0.16100478821E+02  0.27452519775E+02  0.36820922907E+02  0.00000000000E+00 0.  1.
         11    1    4    4    0    0  0.12672211034E+02 -0.35286788481E+01 -0.10330308324E+02  0.16725781812E+02  0.51100000000E-03 0. -1.
        -11    1    4    4    0    0 -0.12313424896E+01  0.30792207943E+01 -0.19958368307E+02  0.20232011041E+02  0.51100000000E-03 0.  1.
         12    1    4    4    0    0  0.70770714994E+01 -0.15651020767E+02  0.28361568552E+01  0.17409284240E+02  0.00000000000E+00 0. -1.
</event>
<event>
 8    1  0.1253488E-006  0.9118800E+02  0.7816164E-02  0.1184000E+00
        -11   -1    0    0    0    0  0.00000000000E+00  0.00000000000E+00  0.45593999997E+02  0.45594000000E+02  0.51100000000E-03 0.  1.
         11   -1    0    0    0    0 -0.00000000000E+00 -0.00000000000E+00 -0.45593999997E+02  0.45594000000E+02  0.51100000000E-03 0. -1.
         23    2    1    2    0    0 -0.35527136788E-14  0.35527136788E-14  0.17763568394E-14  0.91188000000E+02  0.91188000000E+02 0.  0.
    9900012    2    3    3    0    0  0.20850686304E+02 -0.28014773632E+02 -0.11670535664E+02  0.54367081167E+02  0.39999993137E+02 0.  0.
         12    1    3    3    0    0 -0.20850686304E+02  0.28014773632E+02  0.11670535664E+02  0.36820918833E+02  0.00000000000E+00 0. -1.
         11    1    4    4    0    0  0.22620886896E+02 -0.22392605452E+02 -0.22461352127E+02  0.38956971681E+02  0.51100000000E-03 0. -1.
        -11    1    4    4    0    0  0.15268828282E+01 -0.13629801893E+01  0.97012250547E+01  0.99147795735E+01  0.51100000000E-03 0.  1.
         12    1    4    4    0    0 -0.32970834200E+01 -0.42591879906E+01  0.10895914079E+01  0.54953299131E+01  0.00000000000E+00 0. -1.
</event>
<event>
 8    1  0.1253488E-006  0.9118800E+02  0.7816164E-02  0.1184000E+00
        -11   -1    0    0    0    0  0.00000000000E+00  0.00000000000E+00  0.45593999997E+02  0.45594000000E+02  0.51100000000E-03 0. -1.
         11   -1    0    0    0    0 -0.00000000000E+00 -0.00000000000E+00 -0.45593999997E+02  0.45594000000E+02  0.51100000000E-03 0.  1.
         23    2    1    2    0    0 -0.35527136788E-14  0.00000000000E+00  0.00000000000E+00  0.91188000000E+02  0.91188000000E+02 0.  0.
    9900012    2    3    3    0    0 -0.29496255804E+02 -0.11128326802E+02  0.19023962019E+02  0.54367083461E+02  0.39999998366E+02 0.  0.
        -12    1    3    3    0    0  0.29496255804E+02  0.11128326802E+02 -0.19023962019E+02  0.36820916539E+02  0.00000000000E+00 0.  1.
         11    1    4    4    0    0 -0.11932600326E+02 -0.13138614634E+02  0.37083979416E+01  0.18131805222E+02  0.51100000000E-03 0. -1.
        -11    1    4    4    0    0 -0.10698494596E+02 -0.82500111772E+01 -0.32916176352E+01  0.13905222687E+02  0.51100000000E-03 0.  1.
        -12    1    4    4    0    0 -0.68651608813E+01  0.10260299009E+02  0.18607181713E+02  0.22330055552E+02  0.00000000000E+00 0.  1.
</event>
<event>
 8    1  0.1253488E-006  0.9118800E+02  0.7816164E-02  0.1184000E+00
        -11   -1    0    0    0    0  0.00000000000E+00  0.00000000000E+00  0.45593999997E+02  0.45594000000E+02  0.51100000000E-03 0.  1.
         11   -1    0    0    0    0 -0.00000000000E+00 -0.00000000000E+00 -0.45593999997E+02  0.45594000000E+02  0.51100000000E-03 0. -1.
         23    2    1    2    0    0 -0.35527136788E-14  0.00000000000E+00  0.00000000000E+00  0.91188000000E+02  0.91188000000E+02 0.  0.
    9900012    2    3    3    0    0  0.18943543757E+02 -0.21330018158E+02 -0.23279840931E+02  0.54367102150E+02  0.40000040970E+02 0.  0.
        -12    1    3    3    0    0 -0.18943543757E+02  0.21330018158E+02  0.23279840931E+02  0.36820897850E+02  0.00000000000E+00 0.  1.
         11    1    4    4    0    0 -0.35860157075E+01  0.15176804022E+01 -0.16307114814E+02  0.16765585474E+02  0.51100000000E-03 0. -1.
        -11    1    4    4    0    0  0.14054849611E+02 -0.89483062183E+01  0.49975908813E+01  0.17395025055E+02  0.51100000000E-03 0.  1.
        -12    1    4    4    0    0  0.84747098533E+01 -0.13899392342E+02 -0.11970316998E+02  0.20206491621E+02  0.00000000000E+00 0.  1.
</event>
<event>
 8    1  0.1253488E-006  0.9118800E+02  0.7816164E-02  0.1184000E+00
        -11   -1    0    0    0    0  0.00000000000E+00  0.00000000000E+00  0.45593999997E+02  0.45594000000E+02  0.51100000000E-03 0.  1.
         11   -1    0    0    0    0 -0.00000000000E+00 -0.00000000000E+00 -0.45593999997E+02  0.45594000000E+02  0.51100000000E-03 0. -1.
         23    2    1    2    0    0  0.35527136788E-14  0.88817841970E-15 -0.35527136788E-14  0.91188000000E+02  0.91188000000E+02 0.  0.
    9900012    2    3    3    0    0  0.30336771183E+02  0.74655842292E+01 -0.19486529086E+02  0.54367089507E+02  0.40000012149E+02 0.  0.
        -12    1    3    3    0    0 -0.30336771183E+02 -0.74655842292E+01  0.19486529086E+02  0.36820910493E+02  0.00000000000E+00 0.  1.
         11    1    4    4    0    0  0.28978826330E+02 -0.22544715663E+01 -0.26601939666E+02  0.39402007713E+02  0.51100000000E-03 0. -1.
        -11    1    4    4    0    0  0.38310511394E+01  0.97229983765E+01  0.45387033308E+01  0.11393571804E+02  0.51100000000E-03 0.  1.
         12    1    4    4    0    0 -0.24731062866E+01 -0.29425810923E-02  0.25767072494E+01  0.35715099906E+01  0.00000000000E+00 0. -1.
</event>
<event>
 8    1  0.1253488E-006  0.9118800E+02  0.7816164E-02  0.1184000E+00
        -11   -1    0    0    0    0  0.00000000000E+00  0.00000000000E+00  0.45593999997E+02  0.45594000000E+02  0.51100000000E-03 0. -1.
         11   -1    0    0    0    0 -0.00000000000E+00 -0.00000000000E+00 -0.45593999997E+02  0.45594000000E+02  0.51100000000E-03 0.  1.
         23    2    1    2    0    0  0.00000000000E+00  0.00000000000E+00  0.00000000000E+00  0.91188000000E+02  0.91188000000E+02 0.  0.
    9900012    2    3    3    0    0 -0.27181126651E+02 -0.23933853725E+02  0.66435400861E+01  0.54367087124E+02  0.40000006716E+02 0.  0.
         12    1    3    3    0    0  0.27181126651E+02  0.23933853725E+02 -0.66435400861E+01  0.36820912876E+02  0.00000000000E+00 0. -1.
         11    1    4    4    0    0 -0.50313077174E+01 -0.20455307129E+02  0.15547289267E+02  0.26181135401E+02  0.51100000000E-03 0. -1.
        -11    1    4    4    0    0 -0.13766393836E+02 -0.53518341132E+01  0.13240770632E+01  0.14829325944E+02  0.51100000000E-03 0.  1.
         12    1    4    4    0    0 -0.83834250974E+01  0.18732875171E+01 -0.10227826245E+02  0.13356625778E+02  0.00000000000E+00 0. -1.
</event>
<event>
 8    1  0.1253488E-006  0.9118800E+02  0.7816164E-02  0.1184000E+00
        -11   -1    0    0    0    0  0.00000000000E+00  0.00000000000E+00  0.45593999997E+02  0.45594000000E+02  0.51100000000E-03 0.  1.
         11   -1    0    0    0    0 -0.00000000000E+00 -0.00000000000E+00 -0.45593999997E+02  0.45594000000E+02  0.51100000000E-03 0. -1.
         23    2    1    2    0    0  0.00000000000E+00  0.00000000000E+00  0.00000000000E+00  0.91188000000E+02  0.91188000000E+02 0.  0.
    9900012    2    3    3    0    0 -0.10876634703E+02  0.33373635379E+02  0.11121210342E+02  0.54367054326E+02  0.39999931946E+02 0.  0.
         12    1    3    3    0    0  0.10876634703E+02 -0.33373635379E+02 -0.11121210342E+02  0.36820945674E+02  0.00000000000E+00 0. -1.
         11    1    4    4    0    0  0.10129914482E+02  0.46358464813E+00  0.15472587767E+01  0.10257879319E+02  0.51100000000E-03 0. -1.
        -11    1    4    4    0    0 -0.12132069767E+02  0.17209925804E+02 -0.41313411892E+01  0.21457787475E+02  0.51100000000E-03 0.  1.
        -12    1    4    4    0    0 -0.88744794180E+01  0.15700124927E+02  0.13705292754E+02  0.22651387532E+02  0.00000000000E+00 0.  1.
</event>
<event>
 8    1  0.1253488E-006  0.9118800E+02  0.7816164E-02  0.1184000E+00
        -11   -1    0    0    0    0  0.00000000000E+00  0.00000000000E+00  0.45593999997E+02  0.45594000000E+02  0.51100000000E-03 0.  1.
         11   -1    0    0    0    0 -0.00000000000E+00 -0.00000000000E+00 -0.45593999997E+02  0.45594000000E+02  0.51100000000E-03 0. -1.
         23    2    1    2    0    0  0.00000000000E+00  0.00000000000E+00  0.00000000000E+00  0.91188000000E+02  0.91188000000E+02 0.  0.
    9900012    2    3    3    0    0 -0.12728456220E+02 -0.99333484368E+01  0.33092221332E+02  0.54367080381E+02  0.39999991344E+02 0.  0.
         12    1    3    3    0    0  0.12728456220E+02  0.99333484368E+01 -0.33092221332E+02  0.36820919619E+02  0.00000000000E+00 0. -1.
         11    1    4    4    0    0 -0.42961292030E+01  0.65573367951E+01  0.45364815672E+01  0.90573206438E+01  0.51100000000E-03 0. -1.
        -11    1    4    4    0    0 -0.11711015461E+02  0.54931339848E+01  0.98401209896E+01  0.16252703943E+02  0.51100000000E-03 0.  1.
         12    1    4    4    0    0  0.32786884438E+01 -0.21983819217E+02  0.18715618775E+02  0.29057055794E+02  0.00000000000E+00 0. -1.
</event>
<event>
 8    1  0.1253488E-006  0.9118800E+02  0.7816164E-02  0.1184000E+00
        -11   -1    0    0    0    0  0.00000000000E+00  0.00000000000E+00  0.45593999997E+02  0.45594000000E+02  0.51100000000E-03 0. -1.
         11   -1    0    0    0    0 -0.00000000000E+00 -0.00000000000E+00 -0.45593999997E+02  0.45594000000E+02  0.51100000000E-03 0.  1.
         23    2    1    2    0    0  0.00000000000E+00 -0.35527136788E-14 -0.35527136788E-14  0.91188000000E+02  0.91188000000E+02 0.  0.
    9900012    2    3    3    0    0  0.16138163646E+02  0.15932476774E+02 -0.29008555907E+02  0.54367075815E+02  0.39999980935E+02 0.  0.
         12    1    3    3    0    0 -0.16138163646E+02 -0.15932476774E+02  0.29008555907E+02  0.36820924185E+02  0.00000000000E+00 0. -1.
         11    1    4    4    0    0  0.19969262830E+01  0.81247374999E+01  0.16047592655E+01  0.85190566721E+01  0.51100000000E-03 0. -1.
        -11    1    4    4    0    0  0.20436241688E+02 -0.21172737725E+01 -0.11879855878E+02  0.23732968598E+02  0.51100000000E-03 0.  1.
        -12    1    4    4    0    0 -0.62950043244E+01  0.99250130470E+01 -0.18733459295E+02  0.22115050544E+02  0.00000000000E+00 0.  1.
</event>
<event>
 8    1  0.1253488E-006  0.9118800E+02  0.7816164E-02  0.1184000E+00
        -11   -1    0    0    0    0  0.00000000000E+00  0.00000000000E+00  0.45593999997E+02  0.45594000000E+02  0.51100000000E-03 0. -1.
         11   -1    0    0    0    0 -0.00000000000E+00 -0.00000000000E+00 -0.45593999997E+02  0.45594000000E+02  0.51100000000E-03 0.  1.
         23    2    1    2    0    0  0.35527136788E-14  0.00000000000E+00  0.35527136788E-14  0.91188000000E+02  0.91188000000E+02 0.  0.
    9900012    2    3    3    0    0  0.26887266042E+02 -0.81530610332E+01  0.23798786178E+02  0.54367086065E+02  0.40000004302E+02 0.  0.
        -12    1    3    3    0    0 -0.26887266042E+02  0.81530610332E+01 -0.23798786178E+02  0.36820913935E+02  0.00000000000E+00 0.  1.
         11    1    4    4    0    0  0.28039488132E+02 -0.13609010303E+02  0.28067730178E+02  0.41943003394E+02  0.51100000000E-03 0. -1.
        -11    1    4    4    0    0 -0.56229075750E-01  0.84641214393E+01 -0.31925017723E+01  0.90463573484E+01  0.51100000000E-03 0.  1.
        -12    1    4    4    0    0 -0.10959930134E+01 -0.30081721696E+01 -0.10764422271E+01  0.33777253227E+01  0.00000000000E+00 0.  1.
</event>
<event>
 8    1  0.1253488E-006  0.9118800E+02  0.7816164E-02  0.1184000E+00
        -11   -1    0    0    0    0  0.00000000000E+00  0.00000000000E+00  0.45593999997E+02  0.45594000000E+02  0.51100000000E-03 0. -1.
         11   -1    0    0    0    0 -0.00000000000E+00 -0.00000000000E+00 -0.45593999997E+02  0.45594000000E+02  0.51100000000E-03 0.  1.
         23    2    1    2    0    0 -0.35527136788E-14  0.00000000000E+00  0.00000000000E+00  0.91188000000E+02  0.91188000000E+02 0.  0.
    9900012    2    3    3    0    0  0.19289930507E+02  0.17034998342E+02 -0.26334077096E+02  0.54367133579E+02  0.40000112621E+02 0.  0.
         12    1    3    3    0    0 -0.19289930507E+02 -0.17034998342E+02  0.26334077096E+02  0.36820866421E+02  0.00000000000E+00 0. -1.
         11    1    4    4    0    0 -0.68783754750E+01 -0.53525790022E-01 -0.81080526399E+00  0.69262052830E+01  0.51100000000E-03 0. -1.
        -11    1    4    4    0    0 -0.24808463641E+01  0.42745507945E+01  0.23440384415E+01  0.54699999683E+01  0.51100000000E-03 0.  1.
        -12    1    4    4    0    0  0.28649152346E+02  0.12813973338E+02 -0.27867310273E+02  0.41970928328E+02  0.00000000000E+00 0.  1.
</event>
<event>
 8    1  0.1253488E-006  0.9118800E+02  0.7816164E-02  0.1184000E+00
        -11   -1    0    0    0    0  0.00000000000E+00  0.00000000000E+00  0.45593999997E+02  0.45594000000E+02  0.51100000000E-03 0. -1.
         11   -1    0    0    0    0 -0.00000000000E+00 -0.00000000000E+00 -0.45593999997E+02  0.45594000000E+02  0.51100000000E-03 0.  1.
         23    2    1    2    0    0  0.00000000000E+00  0.35527136788E-14  0.00000000000E+00  0.91188000000E+02  0.91188000000E+02 0.  0.
    9900012    2    3    3    0    0 -0.17152443161E+02  0.30022116270E+02  0.12658708772E+02  0.54367127122E+02  0.40000097900E+02 0.  0.
         12    1    3    3    0    0  0.17152443161E+02 -0.30022116270E+02 -0.12658708772E+02  0.36820872878E+02  0.00000000000E+00 0. -1.
         11    1    4    4    0    0 -0.78843175510E+01  0.12777405208E+01 -0.91804886401E+01  0.12168666978E+02  0.51100000000E-03 0. -1.
        -11    1    4    4    0    0 -0.82655506575E+01  0.21924224641E+01  0.98611861705E+01  0.13052549057E+02  0.51100000000E-03 0.  1.
        -12    1    4    4    0    0 -0.10025749524E+01  0.26551953285E+02  0.11978011242E+02  0.29145911087E+02  0.00000000000E+00 0.  1.
</event>
<event>
 8    1  0.1253488E-006  0.9118800E+02  0.7816164E-02  0.1184000E+00
        -11   -1    0    0    0    0  0.00000000000E+00  0.00000000000E+00  0.45593999997E+02  0.45594000000E+02  0.51100000000E-03 0.  1.
         11   -1    0    0    0    0 -0.00000000000E+00 -0.00000000000E+00 -0.45593999997E+02  0.45594000000E+02  0.51100000000E-03 0. -1.
         23    2    1    2    0    0 -0.17763568394E-14 -0.31086244690E-14  0.00000000000E+00  0.91188000000E+02  0.91188000000E+02 0.  0.
    9900012    2    3    3    0    0  0.84264730982E+01 -0.21855430243E+01 -0.35777051254E+02  0.54367089587E+02  0.40000012332E+02 0.  0.
        -12    1    3    3    0    0 -0.84264730982E+01  0.21855430243E+01  0.35777051254E+02  0.36820910413E+02  0.00000000000E+00 0.  1.
         11    1    4    4    0    0  0.11611695617E+02 -0.17368941501E+02 -0.26338565414E+02  0.33618917774E+02  0.51100000000E-03 0. -1.
        -11    1    4    4    0    0  0.35742862114E+01  0.66940816674E+01 -0.32433887910E+01  0.82526251824E+01  0.51100000000E-03 0.  1.
         12    1    4    4    0    0 -0.67595087306E+01  0.84893168089E+01 -0.61950970488E+01  0.12495546631E+02  0.00000000000E+00 0. -1.
</event>
<event>
 8    1  0.1253488E-006  0.9118800E+02  0.7816164E-02  0.1184000E+00
        -11   -1    0    0    0    0  0.00000000000E+00  0.00000000000E+00  0.45593999997E+02  0.45594000000E+02  0.51100000000E-03 0.  1.
         11   -1    0    0    0    0 -0.00000000000E+00 -0.00000000000E+00 -0.45593999997E+02  0.45594000000E+02  0.51100000000E-03 0. -1.
         23    2    1    2    0    0  0.00000000000E+00 -0.17763568394E-14  0.71054273576E-14  0.91188000000E+02  0.91188000000E+02 0.  0.
    9900012    2    3    3    0    0  0.78557010608E+01  0.15368862093E+02 -0.32524845196E+02  0.54367088601E+02  0.40000010085E+02 0.  0.
        -12    1    3    3    0    0 -0.78557010608E+01 -0.15368862093E+02  0.32524845196E+02  0.36820911399E+02  0.00000000000E+00 0.  1.
         11    1    4    4    0    0 -0.75414853765E+01  0.11682165666E+02 -0.67433021754E+01  0.15453773676E+02  0.51100000000E-03 0. -1.
        -11    1    4    4    0    0  0.13774524091E+02  0.78091795310E+01 -0.35272004821E+01  0.16222266870E+02  0.51100000000E-03 0.  1.
         12    1    4    4    0    0  0.16226623459E+01 -0.41224831045E+01 -0.22254342539E+02  0.22691048056E+02  0.00000000000E+00 0. -1.
</event>
<event>
 8    1  0.1253488E-006  0.9118800E+02  0.7816164E-02  0.1184000E+00
        -11   -1    0    0    0    0  0.00000000000E+00  0.00000000000E+00  0.45593999997E+02  0.45594000000E+02  0.51100000000E-03 0. -1.
         11   -1    0    0    0    0 -0.00000000000E+00 -0.00000000000E+00 -0.45593999997E+02  0.45594000000E+02  0.51100000000E-03 0.  1.
         23    2    1    2    0    0  0.00000000000E+00 -0.44408920985E-15  0.00000000000E+00  0.91188000000E+02  0.91188000000E+02 0.  0.
    9900012    2    3    3    0    0  0.27237408304E+02 -0.26416921829E+00 -0.24775639223E+02  0.54367102464E+02  0.40000041686E+02 0.  0.
         12    1    3    3    0    0 -0.27237408304E+02  0.26416921829E+00  0.24775639223E+02  0.36820897536E+02  0.00000000000E+00 0. -1.
         11    1    4    4    0    0  0.13666002472E+01 -0.57499834006E+01 -0.19096938442E+02  0.19990571864E+02  0.51100000000E-03 0.  1.
        -11    1    4    4    0    0  0.20991244293E+02  0.15321775830E+01  0.53218639569E+01  0.21709494268E+02  0.51100000000E-03 0. -1.
        -12    1    4    4    0    0  0.48795637639E+01  0.39536365993E+01 -0.11000564738E+02  0.12667036332E+02  0.00000000000E+00 0.  1.
</event>
<event>
 8    1  0.1253488E-006  0.9118800E+02  0.7816164E-02  0.1184000E+00
        -11   -1    0    0    0    0  0.00000000000E+00  0.00000000000E+00  0.45593999997E+02  0.45594000000E+02  0.51100000000E-03 0.  1.
         11   -1    0    0    0    0 -0.00000000000E+00 -0.00000000000E+00 -0.45593999997E+02  0.45594000000E+02  0.51100000000E-03 0. -1.
         23    2    1    2    0    0 -0.66613381478E-15 -0.17763568394E-14  0.71054273576E-14  0.91188000000E+02  0.91188000000E+02 0.  0.
    9900012    2    3    3    0    0  0.15232052618E+01  0.10839470524E+02 -0.35156309067E+02  0.54367077378E+02  0.39999984498E+02 0.  0.
        -12    1    3    3    0    0 -0.15232052618E+01 -0.10839470524E+02  0.35156309067E+02  0.36820922622E+02  0.00000000000E+00 0.  1.
         11    1    4    4    0    0 -0.77320163720E+01  0.97878900919E+01 -0.27982567834E+02  0.30636758518E+02  0.51100000000E-03 0. -1.
        -11    1    4    4    0    0  0.40293798049E+01 -0.10386618520E+01 -0.14160094024E+02  0.14758827293E+02  0.51100000000E-03 0.  1.
        -12    1    4    4    0    0  0.52258418290E+01  0.20902422837E+01  0.69863527901E+01  0.89714915668E+01  0.00000000000E+00 0.  1.
</event>
<event>
 8    1  0.1253488E-006  0.9118800E+02  0.7816164E-02  0.1184000E+00
        -11   -1    0    0    0    0  0.00000000000E+00  0.00000000000E+00  0.45593999997E+02  0.45594000000E+02  0.51100000000E-03 0. -1.
         11   -1    0    0    0    0 -0.00000000000E+00 -0.00000000000E+00 -0.45593999997E+02  0.45594000000E+02  0.51100000000E-03 0.  1.
         23    2    1    2    0    0  0.00000000000E+00  0.00000000000E+00  0.00000000000E+00  0.91188000000E+02  0.91188000000E+02 0.  0.
    9900012    2    3    3    0    0 -0.43173170151E+01  0.20243510377E+02  0.30452270779E+02  0.54367085642E+02  0.40000003337E+02 0.  0.
        -12    1    3    3    0    0  0.43173170151E+01 -0.20243510377E+02 -0.30452270779E+02  0.36820914358E+02  0.00000000000E+00 0.  1.
         11    1    4    4    0    0  0.24811162147E+01  0.40225011432E+01  0.39026040496E+01  0.61291738226E+01  0.51100000000E-03 0. -1.
        -11    1    4    4    0    0 -0.46222316164E+01  0.26259855547E+02  0.27012463452E+02  0.37955476818E+02  0.51100000000E-03 0.  1.
         12    1    4    4    0    0 -0.21762016133E+01 -0.10038846313E+02 -0.46279672306E+00  0.10282435001E+02  0.00000000000E+00 0. -1.
</event>
<event>
 8    1  0.1253488E-006  0.9118800E+02  0.7816164E-02  0.1184000E+00
        -11   -1    0    0    0    0  0.00000000000E+00  0.00000000000E+00  0.45593999997E+02  0.45594000000E+02  0.51100000000E-03 0.  1.
         11   -1    0    0    0    0 -0.00000000000E+00 -0.00000000000E+00 -0.45593999997E+02  0.45594000000E+02  0.51100000000E-03 0. -1.
         23    2    1    2    0    0 -0.88817841970E-15  0.35527136788E-14 -0.35527136788E-14  0.91188000000E+02  0.91188000000E+02 0.  0.
    9900012    2    3    3    0    0  0.62790026760E+01 -0.17422950818E+02  0.31824439810E+02  0.54367081230E+02  0.39999993281E+02 0.  0.
         12    1    3    3    0    0 -0.62790026760E+01  0.17422950818E+02 -0.31824439810E+02  0.36820918770E+02  0.00000000000E+00 0. -1.
         11    1    4    4    0    0  0.46292004128E+01  0.22959506673E+01  0.86937742179E+01  0.10113485865E+02  0.51100000000E-03 0. -1.
        -11    1    4    4    0    0 -0.69938304473E+01  0.54850693339E+01 -0.12231106351E+00  0.88890162662E+01  0.51100000000E-03 0.  1.
         12    1    4    4    0    0  0.86436327105E+01 -0.25203970819E+02  0.23252976656E+02  0.35364579099E+02  0.00000000000E+00 0. -1.
</event>
<event>
 8    1  0.1253488E-006  0.9118800E+02  0.7816164E-02  0.1184000E+00
        -11   -1    0    0    0    0  0.00000000000E+00  0.00000000000E+00  0.45593999997E+02  0.45594000000E+02  0.51100000000E-03 0. -1.
         11   -1    0    0    0    0 -0.00000000000E+00 -0.00000000000E+00 -0.45593999997E+02  0.45594000000E+02  0.51100000000E-03 0.  1.
         23    2    1    2    0    0  0.00000000000E+00  0.17763568394E-14  0.00000000000E+00  0.91188000000E+02  0.91188000000E+02 0.  0.
    9900012    2    3    3    0    0 -0.31094437136E+02  0.91961960663E+01  0.17445528786E+02  0.54367075004E+02  0.39999979087E+02 0.  0.
        -12    1    3    3    0    0  0.31094437136E+02 -0.91961960663E+01 -0.17445528786E+02  0.36820924996E+02  0.00000000000E+00 0.  1.
         11    1    4    4    0    0 -0.25032947303E+02  0.12058195702E+02  0.81671634622E+01  0.28961199794E+02  0.51100000000E-03 0. -1.
        -11    1    4    4    0    0  0.44353665139E+00  0.95690590748E+01  0.45062217941E+01  0.10586295455E+02  0.51100000000E-03 0.  1.
        -12    1    4    4    0    0 -0.65050264851E+01 -0.12431058711E+02  0.47721435298E+01  0.14819579755E+02  0.00000000000E+00 0.  1.
</event>
<event>
 8    1  0.1253488E-006  0.9118800E+02  0.7816164E-02  0.1184000E+00
        -11   -1    0    0    0    0  0.00000000000E+00  0.00000000000E+00  0.45593999997E+02  0.45594000000E+02  0.51100000000E-03 0. -1.
         11   -1    0    0    0    0 -0.00000000000E+00 -0.00000000000E+00 -0.45593999997E+02  0.45594000000E+02  0.51100000000E-03 0.  1.
         23    2    1    2    0    0  0.35527136788E-14  0.00000000000E+00  0.00000000000E+00  0.91188000000E+02  0.91188000000E+02 0.  0.
    9900012    2    3    3    0    0  0.29731412044E+02 -0.86070997806E+01  0.19943409040E+02  0.54367101140E+02  0.40000038668E+02 0.  0.
        -12    1    3    3    0    0 -0.29731412044E+02  0.86070997806E+01 -0.19943409040E+02  0.36820898860E+02  0.00000000000E+00 0.  1.
         11    1    4    4    0    0  0.88912453057E+00 -0.10887749073E+02  0.39866890863E+01  0.11628727894E+02  0.51100000000E-03 0. -1.
        -11    1    4    4    0    0  0.32494822653E+02  0.66371964074E+01  0.10324172559E+02  0.34735492147E+02  0.51100000000E-03 0.  1.
        -12    1    4    4    0    0 -0.36525351401E+01 -0.43565471154E+01  0.56325473953E+01  0.80028810986E+01  0.00000000000E+00 0.  1.
</event>
<event>
 8    1  0.1253488E-006  0.9118800E+02  0.7816164E-02  0.1184000E+00
        -11   -1    0    0    0    0  0.00000000000E+00  0.00000000000E+00  0.45593999997E+02  0.45594000000E+02  0.51100000000E-03 0.  1.
         11   -1    0    0    0    0 -0.00000000000E+00 -0.00000000000E+00 -0.45593999997E+02  0.45594000000E+02  0.51100000000E-03 0. -1.
         23    2    1    2    0    0 -0.17763568394E-14  0.71054273576E-14 -0.17763568394E-14  0.91188000000E+02  0.91188000000E+02 0.  0.
    9900012    2    3    3    0    0  0.12301537608E+02  0.33410532516E+02  0.93908448506E+01  0.54367089127E+02  0.40000011282E+02 0.  0.
         12    1    3    3    0    0 -0.12301537608E+02 -0.33410532516E+02 -0.93908448506E+01  0.36820910873E+02  0.00000000000E+00 0. -1.
         11    1    4    4    0    0  0.84408471913E+01  0.17102173196E+02 -0.12132506419E+02  0.22603759457E+02  0.51100000000E-03 0. -1.
        -11    1    4    4    0    0 -0.77470993563E+00  0.16377194106E+02  0.96678447486E+01  0.19033651373E+02  0.51100000000E-03 0.  1.
        -12    1    4    4    0    0  0.46354003519E+01 -0.68834785746E-01  0.11855506521E+02  0.12729678296E+02  0.00000000000E+00 0.  1.
</event>
<event>
 8    1  0.1253488E-006  0.9118800E+02  0.7816164E-02  0.1184000E+00
        -11   -1    0    0    0    0  0.00000000000E+00  0.00000000000E+00  0.45593999997E+02  0.45594000000E+02  0.51100000000E-03 0. -1.
         11   -1    0    0    0    0 -0.00000000000E+00 -0.00000000000E+00 -0.45593999997E+02  0.45594000000E+02  0.51100000000E-03 0.  1.
         23    2    1    2    0    0  0.00000000000E+00  0.00000000000E+00  0.35527136788E-14  0.91188000000E+02  0.91188000000E+02 0.  0.
    9900012    2    3    3    0    0 -0.14323371860E+02  0.21946660459E+02  0.25864359108E+02  0.54367082591E+02  0.39999996384E+02 0.  0.
        -12    1    3    3    0    0  0.14323371860E+02 -0.21946660459E+02 -0.25864359108E+02  0.36820917409E+02  0.00000000000E+00 0.  1.
         11    1    4    4    0    0  0.50038297873E+01  0.72531807308E+01  0.82534921860E+01  0.12073403695E+02  0.51100000000E-03 0. -1.
        -11    1    4    4    0    0  0.22901529603E+01 -0.29156413620E+01 -0.51192383049E+01  0.63207884173E+01  0.51100000000E-03 0.  1.
        -12    1    4    4    0    0 -0.21617354608E+02  0.17609121091E+02  0.22730105227E+02  0.35972890479E+02  0.00000000000E+00 0.  1.
</event>
<event>
 8    1  0.1253488E-006  0.9118800E+02  0.7816164E-02  0.1184000E+00
        -11   -1    0    0    0    0  0.00000000000E+00  0.00000000000E+00  0.45593999997E+02  0.45594000000E+02  0.51100000000E-03 0.  1.
         11   -1    0    0    0    0 -0.00000000000E+00 -0.00000000000E+00 -0.45593999997E+02  0.45594000000E+02  0.51100000000E-03 0. -1.
         23    2    1    2    0    0  0.00000000000E+00 -0.88817841970E-15 -0.35527136788E-14  0.91188000000E+02  0.91188000000E+02 0.  0.
    9900012    2    3    3    0    0  0.26910917393E+02 -0.41018022138E+01  0.24794326042E+02  0.54367070351E+02  0.39999968480E+02 0.  0.
         12    1    3    3    0    0 -0.26910917393E+02  0.41018022138E+01 -0.24794326042E+02  0.36820929649E+02  0.00000000000E+00 0. -1.
         11    1    4    4    0    0 -0.41307733272E+01  0.58654311720E+01  0.65663232594E+00  0.72040084249E+01  0.51100000000E-03 0. -1.
        -11    1    4    4    0    0  0.16401110399E+02  0.63672907853E+01  0.15955922815E+02  0.23751427060E+02  0.51100000000E-03 0.  1.
        -12    1    4    4    0    0  0.14640580321E+02 -0.16334524171E+02  0.81817709010E+01  0.23411634866E+02  0.00000000000E+00 0.  1.
</event>
<event>
 8    1  0.1253488E-006  0.9118800E+02  0.7816164E-02  0.1184000E+00
        -11   -1    0    0    0    0  0.00000000000E+00  0.00000000000E+00  0.45593999997E+02  0.45594000000E+02  0.51100000000E-03 0.  1.
         11   -1    0    0    0    0 -0.00000000000E+00 -0.00000000000E+00 -0.45593999997E+02  0.45594000000E+02  0.51100000000E-03 0. -1.
         23    2    1    2    0    0  0.00000000000E+00 -0.88817841970E-15 -0.71054273576E-14  0.91188000000E+02  0.91188000000E+02 0.  0.
    9900012    2    3    3    0    0 -0.11697537979E+02  0.71256163115E+01  0.34178568009E+02  0.54367064192E+02  0.39999954439E+02 0.  0.
         12    1    3    3    0    0  0.11697537979E+02 -0.71256163115E+01 -0.34178568009E+02  0.36820935808E+02  0.00000000000E+00 0. -1.
         11    1    4    4    0    0 -0.32278076370E+00  0.23608306082E+01  0.35719291592E+01  0.42937613769E+01  0.51100000000E-03 0. -1.
        -11    1    4    4    0    0 -0.17731123334E+02 -0.39274003556E+01  0.34198663673E+02  0.38721645181E+02  0.51100000000E-03 0.  1.
         12    1    4    4    0    0  0.63563661185E+01  0.86921860588E+01 -0.35920248229E+01  0.11351657634E+02  0.00000000000E+00 0. -1.
</event>
<event>
 8    1  0.1253488E-006  0.9118800E+02  0.7816164E-02  0.1184000E+00
        -11   -1    0    0    0    0  0.00000000000E+00  0.00000000000E+00  0.45593999997E+02  0.45594000000E+02  0.51100000000E-03 0.  1.
         11   -1    0    0    0    0 -0.00000000000E+00 -0.00000000000E+00 -0.45593999997E+02  0.45594000000E+02  0.51100000000E-03 0. -1.
         23    2    1    2    0    0 -0.71054273576E-14 -0.88817841970E-15  0.00000000000E+00  0.91188000000E+02  0.91188000000E+02 0.  0.
    9900012    2    3    3    0    0 -0.34882649811E+02 -0.54229970429E+01  0.10467678133E+02  0.54367076053E+02  0.39999981479E+02 0.  0.
        -12    1    3    3    0    0  0.34882649811E+02  0.54229970429E+01 -0.10467678133E+02  0.36820923947E+02  0.00000000000E+00 0.  1.
         11    1    4    4    0    0 -0.13126888278E+02 -0.33060299367E+01 -0.59872098617E+01  0.14801746924E+02  0.51100000000E-03 0. -1.
        -11    1    4    4    0    0  0.18587388978E+01  0.85720793008E+01 -0.16664263326E+00  0.87728686220E+01  0.51100000000E-03 0.  1.
         12    1    4    4    0    0 -0.23614500431E+02 -0.10689046407E+02  0.16621530628E+02  0.30792460507E+02  0.00000000000E+00 0. -1.
</event>
<event>
 8    1  0.1253488E-006  0.9118800E+02  0.7816164E-02  0.1184000E+00
        -11   -1    0    0    0    0  0.00000000000E+00  0.00000000000E+00  0.45593999997E+02  0.45594000000E+02  0.51100000000E-03 0. -1.
         11   -1    0    0    0    0 -0.00000000000E+00 -0.00000000000E+00 -0.45593999997E+02  0.45594000000E+02  0.51100000000E-03 0.  1.
         23    2    1    2    0    0  0.00000000000E+00  0.17763568394E-14  0.00000000000E+00  0.91188000000E+02  0.91188000000E+02 0.  0.
    9900012    2    3    3    0    0  0.31134507494E+02 -0.11138650447E+02 -0.16197323177E+02  0.54367077025E+02  0.39999983693E+02 0.  0.
        -12    1    3    3    0    0 -0.31134507494E+02  0.11138650447E+02  0.16197323177E+02  0.36820922975E+02  0.00000000000E+00 0.  1.
         11    1    4    4    0    0  0.26258259630E+01  0.12159021342E+02  0.10903913167E+00  0.12439801115E+02  0.51100000000E-03 0. -1.
        -11    1    4    4    0    0  0.11540005566E+01  0.11033687487E+01 -0.20448648382E+01  0.25943423729E+01  0.51100000000E-03 0.  1.
         12    1    4    4    0    0  0.27354680974E+02 -0.24401040538E+02 -0.14261497470E+02  0.39332933537E+02  0.00000000000E+00 0. -1.
</event>
<event>
 8    1  0.1253488E-006  0.9118800E+02  0.7816164E-02  0.1184000E+00
        -11   -1    0    0    0    0  0.00000000000E+00  0.00000000000E+00  0.45593999997E+02  0.45594000000E+02  0.51100000000E-03 0.  1.
         11   -1    0    0    0    0 -0.00000000000E+00 -0.00000000000E+00 -0.45593999997E+02  0.45594000000E+02  0.51100000000E-03 0. -1.
         23    2    1    2    0    0  0.00000000000E+00  0.35527136788E-14 -0.35527136788E-14  0.91188000000E+02  0.91188000000E+02 0.  0.
    9900012    2    3    3    0    0  0.90373945368E+01 -0.17998187222E+02  0.30824817829E+02  0.54367100534E+02  0.40000037288E+02 0.  0.
         12    1    3    3    0    0 -0.90373945368E+01  0.17998187222E+02 -0.30824817829E+02  0.36820899466E+02  0.00000000000E+00 0. -1.
         11    1    4    4    0    0  0.87152015785E+01  0.56266151702E+01  0.88930009496E+01  0.13663784358E+02  0.51100000000E-03 0. -1.
        -11    1    4    4    0    0  0.11031370138E+02 -0.19771419397E+02  0.12143188194E+02  0.25691577840E+02  0.51100000000E-03 0.  1.
         12    1    4    4    0    0 -0.10709177180E+02 -0.38533829944E+01  0.97886286849E+01  0.15011738337E+02  0.00000000000E+00 0. -1.
</event>
<event>
 8    1  0.1253488E-006  0.9118800E+02  0.7816164E-02  0.1184000E+00
        -11   -1    0    0    0    0  0.00000000000E+00  0.00000000000E+00  0.45593999997E+02  0.45594000000E+02  0.51100000000E-03 0.  1.
         11   -1    0    0    0    0 -0.00000000000E+00 -0.00000000000E+00 -0.45593999997E+02  0.45594000000E+02  0.51100000000E-03 0. -1.
         23    2    1    2    0    0  0.00000000000E+00 -0.17763568394E-14  0.00000000000E+00  0.91188000000E+02  0.91188000000E+02 0.  0.
    9900012    2    3    3    0    0  0.42547736744E+01 -0.15508828205E+02 -0.33123303624E+02  0.54367080752E+02  0.39999992190E+02 0.  0.
        -12    1    3    3    0    0 -0.42547736744E+01  0.15508828205E+02  0.33123303624E+02  0.36820919248E+02  0.00000000000E+00 0.  1.
         11    1    4    4    0    0  0.12590743908E+01 -0.98885037717E+00 -0.37243138444E+02  0.37277532842E+02  0.51100000000E-03 0. -1.
        -11    1    4    4    0    0 -0.13020111506E+01 -0.37081340390E+01 -0.14516916638E+01  0.41896181252E+01  0.51100000000E-03 0.  1.
         12    1    4    4    0    0  0.42977104343E+01 -0.10811843789E+02  0.55715264838E+01  0.12899929785E+02  0.00000000000E+00 0. -1.
</event>
<event>
 8    1  0.1253488E-006  0.9118800E+02  0.7816164E-02  0.1184000E+00
        -11   -1    0    0    0    0  0.00000000000E+00  0.00000000000E+00  0.45593999997E+02  0.45594000000E+02  0.51100000000E-03 0.  1.
         11   -1    0    0    0    0 -0.00000000000E+00 -0.00000000000E+00 -0.45593999997E+02  0.45594000000E+02  0.51100000000E-03 0. -1.
         23    2    1    2    0    0 -0.17763568394E-14  0.00000000000E+00  0.00000000000E+00  0.91188000000E+02  0.91188000000E+02 0.  0.
    9900012    2    3    3    0    0 -0.11412906603E+02  0.33584036130E+02  0.98811602093E+01  0.54367092257E+02  0.40000018419E+02 0.  0.
         12    1    3    3    0    0  0.11412906603E+02 -0.33584036130E+02 -0.98811602093E+01  0.36820907743E+02  0.00000000000E+00 0. -1.
         11    1    4    4    0    0 -0.49840968533E+00  0.76408779191E+01  0.36599236820E+01  0.84868409439E+01  0.51100000000E-03 0. -1.
        -11    1    4    4    0    0  0.86304240032E+01  0.46081607078E+01  0.12894968456E+02  0.16186400938E+02  0.51100000000E-03 0.  1.
         12    1    4    4    0    0 -0.19544920921E+02  0.21334997503E+02 -0.66737319289E+01  0.29693850375E+02  0.00000000000E+00 0. -1.
</event>
<event>
 8    1  0.1253488E-006  0.9118800E+02  0.7816164E-02  0.1184000E+00
        -11   -1    0    0    0    0  0.00000000000E+00  0.00000000000E+00  0.45593999997E+02  0.45594000000E+02  0.51100000000E-03 0.  1.
         11   -1    0    0    0    0 -0.00000000000E+00 -0.00000000000E+00 -0.45593999997E+02  0.45594000000E+02  0.51100000000E-03 0. -1.
         23    2    1    2    0    0  0.00000000000E+00  0.88817841970E-15  0.71054273576E-14  0.91188000000E+02  0.91188000000E+02 0.  0.
    9900012    2    3    3    0    0  0.16330649396E+02  0.55918666159E+01  0.32524205705E+02  0.54367040769E+02  0.39999901041E+02 0.  0.
         12    1    3    3    0    0 -0.16330649396E+02 -0.55918666159E+01 -0.32524205705E+02  0.36820959231E+02  0.00000000000E+00 0. -1.
         11    1    4    4    0    0  0.26386724262E+01  0.10205190974E+02  0.13194743076E+02  0.16888154431E+02  0.51100000000E-03 0. -1.
        -11    1    4    4    0    0  0.14175877043E+02 -0.30647995828E+00  0.25946975416E+02  0.29568479051E+02  0.51100000000E-03 0.  1.
        -12    1    4    4    0    0 -0.48390007296E+00 -0.43068444003E+01 -0.66175127863E+01  0.79104072869E+01  0.00000000000E+00 0.  1.
</event>
<event>
 8    1  0.1253488E-006  0.9118800E+02  0.7816164E-02  0.1184000E+00
        -11   -1    0    0    0    0  0.00000000000E+00  0.00000000000E+00  0.45593999997E+02  0.45594000000E+02  0.51100000000E-03 0.  1.
         11   -1    0    0    0    0 -0.00000000000E+00 -0.00000000000E+00 -0.45593999997E+02  0.45594000000E+02  0.51100000000E-03 0. -1.
         23    2    1    2    0    0  0.00000000000E+00  0.00000000000E+00  0.00000000000E+00  0.91188000000E+02  0.91188000000E+02 0.  0.
    9900012    2    3    3    0    0  0.55635345744E+01  0.27935774794E+02 -0.23332773869E+02  0.54367098779E+02  0.40000033286E+02 0.  0.
        -12    1    3    3    0    0 -0.55635345744E+01 -0.27935774794E+02  0.23332773869E+02  0.36820901221E+02  0.00000000000E+00 0.  1.
         11    1    4    4    0    0 -0.78634419318E+01 -0.35678417950E+01 -0.11831499603E+01  0.87156788708E+01  0.51100000000E-03 0.  1.
        -11    1    4    4    0    0  0.16539491271E+02  0.28438935405E+02 -0.12743713718E+02  0.35280732108E+02  0.51100000000E-03 0. -1.
        -12    1    4    4    0    0 -0.31125147651E+01  0.30646811845E+01 -0.94059101911E+01  0.10370687800E+02  0.00000000000E+00 0.  1.
</event>
<event>
 8    1  0.1253488E-006  0.9118800E+02  0.7816164E-02  0.1184000E+00
        -11   -1    0    0    0    0  0.00000000000E+00  0.00000000000E+00  0.45593999997E+02  0.45594000000E+02  0.51100000000E-03 0. -1.
         11   -1    0    0    0    0 -0.00000000000E+00 -0.00000000000E+00 -0.45593999997E+02  0.45594000000E+02  0.51100000000E-03 0.  1.
         23    2    1    2    0    0  0.71054273576E-14  0.00000000000E+00  0.88817841970E-15  0.91188000000E+02  0.91188000000E+02 0.  0.
    9900012    2    3    3    0    0 -0.32355760137E+02  0.16416870776E+02  0.62743122861E+01  0.54367138321E+02  0.40000123431E+02 0.  0.
        -12    1    3    3    0    0  0.32355760137E+02 -0.16416870776E+02 -0.62743122861E+01  0.36820861679E+02  0.00000000000E+00 0.  1.
         11    1    4    4    0    0 -0.17660812655E+02  0.19568056126E+01 -0.61791987063E+01  0.18812652358E+02  0.51100000000E-03 0. -1.
        -11    1    4    4    0    0 -0.16856949192E+02  0.30596030747E+01 -0.17410786990E+01  0.17220605748E+02  0.51100000000E-03 0.  1.
        -12    1    4    4    0    0  0.21620017101E+01  0.11400462089E+02  0.14194589692E+02  0.18333880215E+02  0.00000000000E+00 0.  1.
</event>
<event>
 8    1  0.1253488E-006  0.9118800E+02  0.7816164E-02  0.1184000E+00
        -11   -1    0    0    0    0  0.00000000000E+00  0.00000000000E+00  0.45593999997E+02  0.45594000000E+02  0.51100000000E-03 0.  1.
         11   -1    0    0    0    0 -0.00000000000E+00 -0.00000000000E+00 -0.45593999997E+02  0.45594000000E+02  0.51100000000E-03 0. -1.
         23    2    1    2    0    0  0.00000000000E+00  0.00000000000E+00  0.00000000000E+00  0.91188000000E+02  0.91188000000E+02 0.  0.
    9900012    2    3    3    0    0 -0.41346209001E+01  0.31261810575E+02  0.19010096978E+02  0.54367086411E+02  0.40000005091E+02 0.  0.
         12    1    3    3    0    0  0.41346209001E+01 -0.31261810575E+02 -0.19010096978E+02  0.36820913589E+02  0.00000000000E+00 0. -1.
         11    1    4    4    0    0  0.70365668705E+01  0.14125135226E+02  0.14968067058E+02  0.21750304600E+02  0.51100000000E-03 0. -1.
        -11    1    4    4    0    0 -0.43291207858E+00 -0.59329378209E+01 -0.23233908329E+01  0.63863377046E+01  0.51100000000E-03 0.  1.
         12    1    4    4    0    0 -0.10738275692E+02  0.23069613169E+02  0.63654207533E+01  0.26230444106E+02  0.00000000000E+00 0. -1.
</event>
<event>
 8    1  0.1253488E-006  0.9118800E+02  0.7816164E-02  0.1184000E+00
        -11   -1    0    0    0    0  0.00000000000E+00  0.00000000000E+00  0.45593999997E+02  0.45594000000E+02  0.51100000000E-03 0.  1.
         11   -1    0    0    0    0 -0.00000000000E+00 -0.00000000000E+00 -0.45593999997E+02  0.45594000000E+02  0.51100000000E-03 0. -1.
         23    2    1    2    0    0 -0.35527136788E-14  0.00000000000E+00 -0.35527136788E-14  0.91188000000E+02  0.91188000000E+02 0.  0.
    9900012    2    3    3    0    0  0.24521694020E+02  0.18732278728E+02 -0.20088994534E+02  0.54367089564E+02  0.40000012278E+02 0.  0.
        -12    1    3    3    0    0 -0.24521694020E+02 -0.18732278728E+02  0.20088994534E+02  0.36820910436E+02  0.00000000000E+00 0.  1.
         11    1    4    4    0    0  0.35281004679E+01 -0.16609750161E+01 -0.74211276807E+01  0.83832849904E+01  0.51100000000E-03 0. -1.
        -11    1    4    4    0    0 -0.50890952053E+01 -0.49963120954E+01 -0.51993384162E+01  0.88258226127E+01  0.51100000000E-03 0.  1.
        -12    1    4    4    0    0  0.26082688758E+02  0.25389565840E+02 -0.74685284368E+01  0.37157981961E+02  0.00000000000E+00 0.  1.
</event>
<event>
 8    1  0.1253488E-006  0.9118800E+02  0.7816164E-02  0.1184000E+00
        -11   -1    0    0    0    0  0.00000000000E+00  0.00000000000E+00  0.45593999997E+02  0.45594000000E+02  0.51100000000E-03 0.  1.
         11   -1    0    0    0    0 -0.00000000000E+00 -0.00000000000E+00 -0.45593999997E+02  0.45594000000E+02  0.51100000000E-03 0. -1.
         23    2    1    2    0    0  0.00000000000E+00  0.35527136788E-14  0.35527136788E-14  0.91188000000E+02  0.91188000000E+02 0.  0.
    9900012    2    3    3    0    0 -0.12465175554E+02 -0.24557662679E+02 -0.24440118924E+02  0.54367098179E+02  0.40000031919E+02 0.  0.
        -12    1    3    3    0    0  0.12465175554E+02  0.24557662679E+02  0.24440118924E+02  0.36820901821E+02  0.00000000000E+00 0.  1.
         11    1    4    4    0    0 -0.14800882355E+02 -0.18805329116E+02 -0.18517765599E+02  0.30259117051E+02  0.51100000000E-03 0. -1.
        -11    1    4    4    0    0  0.40455595233E+01 -0.12770832691E+02 -0.91221647591E+01  0.16207239420E+02  0.51100000000E-03 0.  1.
        -12    1    4    4    0    0 -0.17098527225E+01  0.70184991270E+01  0.31998114338E+01  0.79007417082E+01  0.00000000000E+00 0.  1.
</event>
<event>
 8    1  0.1253488E-006  0.9118800E+02  0.7816164E-02  0.1184000E+00
        -11   -1    0    0    0    0  0.00000000000E+00  0.00000000000E+00  0.45593999997E+02  0.45594000000E+02  0.51100000000E-03 0. -1.
         11   -1    0    0    0    0 -0.00000000000E+00 -0.00000000000E+00 -0.45593999997E+02  0.45594000000E+02  0.51100000000E-03 0.  1.
         23    2    1    2    0    0  0.00000000000E+00  0.00000000000E+00  0.00000000000E+00  0.91188000000E+02  0.91188000000E+02 0.  0.
    9900012    2    3    3    0    0  0.27905601462E+02  0.23869114170E+02 -0.27060942878E+01  0.54367079989E+02  0.39999990450E+02 0.  0.
         12    1    3    3    0    0 -0.27905601462E+02 -0.23869114170E+02  0.27060942878E+01  0.36820920011E+02  0.00000000000E+00 0. -1.
         11    1    4    4    0    0  0.16368001625E+02  0.19242509191E+02  0.31289608985E+00  0.25264274013E+02  0.51100000000E-03 0. -1.
        -11    1    4    4    0    0  0.10988580112E+02  0.13044562645E+02  0.46750726904E+01  0.17685186241E+02  0.51100000000E-03 0.  1.
        -12    1    4    4    0    0  0.54901972471E+00 -0.84179576654E+01 -0.76940630680E+01  0.11417619735E+02  0.00000000000E+00 0.  1.
</event>
<event>
 8    1  0.1253488E-006  0.9118800E+02  0.7816164E-02  0.1184000E+00
        -11   -1    0    0    0    0  0.00000000000E+00  0.00000000000E+00  0.45593999997E+02  0.45594000000E+02  0.51100000000E-03 0.  1.
         11   -1    0    0    0    0 -0.00000000000E+00 -0.00000000000E+00 -0.45593999997E+02  0.45594000000E+02  0.51100000000E-03 0. -1.
         23    2    1    2    0    0  0.00000000000E+00  0.00000000000E+00 -0.44408920985E-15  0.91188000000E+02  0.91188000000E+02 0.  0.
    9900012    2    3    3    0    0  0.10594843649E+02  0.35234879668E+02  0.14254646161E+01  0.54367090091E+02  0.40000013481E+02 0.  0.
         12    1    3    3    0    0 -0.10594843649E+02 -0.35234879668E+02 -0.14254646161E+01  0.36820909909E+02  0.00000000000E+00 0. -1.
         11    1    4    4    0    0  0.18329620286E+01 -0.42071238719E+00 -0.94951790823E+01  0.96796267892E+01  0.51100000000E-03 0. -1.
        -11    1    4    4    0    0  0.10097075018E+02  0.37391917364E+02  0.13758757651E+02  0.41102430834E+02  0.51100000000E-03 0.  1.
        -12    1    4    4    0    0 -0.13351933973E+01 -0.17363253095E+01 -0.28381139530E+01  0.35850324683E+01  0.00000000000E+00 0.  1.
</event>
<event>
 8    1  0.1253488E-006  0.9118800E+02  0.7816164E-02  0.1184000E+00
        -11   -1    0    0    0    0  0.00000000000E+00  0.00000000000E+00  0.45593999997E+02  0.45594000000E+02  0.51100000000E-03 0. -1.
         11   -1    0    0    0    0 -0.00000000000E+00 -0.00000000000E+00 -0.45593999997E+02  0.45594000000E+02  0.51100000000E-03 0.  1.
         23    2    1    2    0    0  0.00000000000E+00  0.88817841970E-15  0.00000000000E+00  0.91188000000E+02  0.91188000000E+02 0.  0.
    9900012    2    3    3    0    0  0.30959270115E+02 -0.71990293390E+01 -0.18587030551E+02  0.54367080210E+02  0.39999990955E+02 0.  0.
         12    1    3    3    0    0 -0.30959270115E+02  0.71990293390E+01  0.18587030551E+02  0.36820919790E+02  0.00000000000E+00 0. -1.
         11    1    4    4    0    0  0.18213642441E+02 -0.10193010209E+02 -0.14769068803E+02  0.25568723505E+02  0.51100000000E-03 0.  1.
        -11    1    4    4    0    0  0.16269260153E+02  0.46411673061E+01 -0.11314323328E+02  0.20352964711E+02  0.51100000000E-03 0. -1.
        -12    1    4    4    0    0 -0.35236324799E+01 -0.16471864360E+01  0.74963615796E+01  0.84453919945E+01  0.00000000000E+00 0.  1.
</event>
<event>
 8    1  0.1253488E-006  0.9118800E+02  0.7816164E-02  0.1184000E+00
        -11   -1    0    0    0    0  0.00000000000E+00  0.00000000000E+00  0.45593999997E+02  0.45594000000E+02  0.51100000000E-03 0. -1.
         11   -1    0    0    0    0 -0.00000000000E+00 -0.00000000000E+00 -0.45593999997E+02  0.45594000000E+02  0.51100000000E-03 0.  1.
         23    2    1    2    0    0  0.00000000000E+00 -0.35527136788E-14  0.00000000000E+00  0.91188000000E+02  0.91188000000E+02 0.  0.
    9900012    2    3    3    0    0 -0.15607130059E+02 -0.30493737599E+02 -0.13502924508E+02  0.54367088663E+02  0.40000010224E+02 0.  0.
         12    1    3    3    0    0  0.15607130059E+02  0.30493737599E+02  0.13502924508E+02  0.36820911337E+02  0.00000000000E+00 0. -1.
         11    1    4    4    0    0 -0.20257026947E+02 -0.12186839279E+02 -0.10152882506E+02  0.25728334882E+02  0.51100000000E-03 0. -1.
        -11    1    4    4    0    0 -0.32488311628E+01 -0.14119344682E+02  0.60188694043E+01  0.15688772653E+02  0.51100000000E-03 0.  1.
         12    1    4    4    0    0  0.78987280507E+01 -0.41875536378E+01 -0.93689114058E+01  0.12949981128E+02  0.00000000000E+00 0. -1.
</event>
<event>
 8    1  0.1253488E-006  0.9118800E+02  0.7816164E-02  0.1184000E+00
        -11   -1    0    0    0    0  0.00000000000E+00  0.00000000000E+00  0.45593999997E+02  0.45594000000E+02  0.51100000000E-03 0. -1.
         11   -1    0    0    0    0 -0.00000000000E+00 -0.00000000000E+00 -0.45593999997E+02  0.45594000000E+02  0.51100000000E-03 0.  1.
         23    2    1    2    0    0  0.00000000000E+00  0.00000000000E+00  0.00000000000E+00  0.91188000000E+02  0.91188000000E+02 0.  0.
    9900012    2    3    3    0    0 -0.14102868313E+02  0.33178167214E+02 -0.74898793322E+01  0.54367082484E+02  0.39999996138E+02 0.  0.
         12    1    3    3    0    0  0.14102868313E+02 -0.33178167214E+02  0.74898793322E+01  0.36820917516E+02  0.00000000000E+00 0. -1.
         11    1    4    4    0    0 -0.11329151878E+02  0.86657740622E+01 -0.87971667894E+01  0.16758146263E+02  0.51100000000E-03 0. -1.
        -11    1    4    4    0    0 -0.70754656621E+01  0.59741195246E+01 -0.11428849145E+02  0.14709551709E+02  0.51100000000E-03 0.  1.
         12    1    4    4    0    0  0.43017492268E+01  0.18538273627E+02  0.12736136603E+02  0.22899384512E+02  0.00000000000E+00 0. -1.
</event>
<event>
 8    1  0.1253488E-006  0.9118800E+02  0.7816164E-02  0.1184000E+00
        -11   -1    0    0    0    0  0.00000000000E+00  0.00000000000E+00  0.45593999997E+02  0.45594000000E+02  0.51100000000E-03 0. -1.
         11   -1    0    0    0    0 -0.00000000000E+00 -0.00000000000E+00 -0.45593999997E+02  0.45594000000E+02  0.51100000000E-03 0.  1.
         23    2    1    2    0    0  0.35527136788E-14  0.35527136788E-14  0.88817841970E-15  0.91188000000E+02  0.91188000000E+02 0.  0.
    9900012    2    3    3    0    0 -0.28634172175E+02 -0.22588269904E+02  0.50630860573E+01  0.54367073968E+02  0.39999976726E+02 0.  0.
        -12    1    3    3    0    0  0.28634172175E+02  0.22588269904E+02 -0.50630860573E+01  0.36820926032E+02  0.00000000000E+00 0.  1.
         11    1    4    4    0    0 -0.10081108211E+02 -0.26162486939E+02 -0.12410050667E+00  0.28037829209E+02  0.51100000000E-03 0. -1.
        -11    1    4    4    0    0 -0.16538175268E+02  0.82667585834E+01  0.83872535981E+01  0.20302624507E+02  0.51100000000E-03 0.  1.
        -12    1    4    4    0    0 -0.20148886960E+01 -0.46925415487E+01 -0.32000670341E+01  0.60266202524E+01  0.00000000000E+00 0.  1.
</event>
<event>
 8    1  0.1253488E-006  0.9118800E+02  0.7816164E-02  0.1184000E+00
        -11   -1    0    0    0    0  0.00000000000E+00  0.00000000000E+00  0.45593999997E+02  0.45594000000E+02  0.51100000000E-03 0.  1.
         11   -1    0    0    0    0 -0.00000000000E+00 -0.00000000000E+00 -0.45593999997E+02  0.45594000000E+02  0.51100000000E-03 0. -1.
         23    2    1    2    0    0  0.00000000000E+00  0.00000000000E+00 -0.35527136788E-14  0.91188000000E+02  0.91188000000E+02 0.  0.
    9900012    2    3    3    0    0 -0.19916581433E+02  0.17275586651E+02 -0.25703382118E+02  0.54367082542E+02  0.39999996271E+02 0.  0.
        -12    1    3    3    0    0  0.19916581433E+02 -0.17275586651E+02  0.25703382118E+02  0.36820917458E+02  0.00000000000E+00 0.  1.
         11    1    4    4    0    0  0.54035855796E+01  0.13791750644E+02 -0.68246085656E+01  0.16309089652E+02  0.51100000000E-03 0. -1.
        -11    1    4    4    0    0 -0.72509136520E+01 -0.72457097889E+01 -0.12355341790E+02  0.16053987982E+02  0.51100000000E-03 0.  1.
        -12    1    4    4    0    0 -0.18069253361E+02  0.10729545796E+02 -0.65234317627E+01  0.22004004908E+02  0.00000000000E+00 0.  1.
</event>
<event>
 8    1  0.1253488E-006  0.9118800E+02  0.7816164E-02  0.1184000E+00
        -11   -1    0    0    0    0  0.00000000000E+00  0.00000000000E+00  0.45593999997E+02  0.45594000000E+02  0.51100000000E-03 0.  1.
         11   -1    0    0    0    0 -0.00000000000E+00 -0.00000000000E+00 -0.45593999997E+02  0.45594000000E+02  0.51100000000E-03 0. -1.
         23    2    1    2    0    0  0.00000000000E+00 -0.35527136788E-14  0.00000000000E+00  0.91188000000E+02  0.91188000000E+02 0.  0.
    9900012    2    3    3    0    0  0.17764897097E+02  0.26646594782E+02 -0.18169883410E+02  0.54367119437E+02  0.40000080380E+02 0.  0.
        -12    1    3    3    0    0 -0.17764897097E+02 -0.26646594782E+02  0.18169883410E+02  0.36820880563E+02  0.00000000000E+00 0.  1.
         11    1    4    4    0    0  0.11032204804E+02 -0.89030194316E+01 -0.45909147919E+01  0.14901335401E+02  0.51100000000E-03 0. -1.
        -11    1    4    4    0    0  0.45580745974E+01  0.29168525296E+02 -0.76733213341E+01  0.30503422308E+02  0.51100000000E-03 0.  1.
         12    1    4    4    0    0  0.21746176956E+01  0.63810889175E+01 -0.59056472838E+01  0.89623617276E+01  0.00000000000E+00 0. -1.
</event>
<event>
 8    1  0.1253488E-006  0.9118800E+02  0.7816164E-02  0.1184000E+00
        -11   -1    0    0    0    0  0.00000000000E+00  0.00000000000E+00  0.45593999997E+02  0.45594000000E+02  0.51100000000E-03 0.  1.
         11   -1    0    0    0    0 -0.00000000000E+00 -0.00000000000E+00 -0.45593999997E+02  0.45594000000E+02  0.51100000000E-03 0. -1.
         23    2    1    2    0    0 -0.35527136788E-14 -0.17763568394E-14 -0.71054273576E-14  0.91188000000E+02  0.91188000000E+02 0.  0.
    9900012    2    3    3    0    0 -0.25957616390E+02 -0.12525464983E+02 -0.22914914630E+02  0.54367103295E+02  0.40000043582E+02 0.  0.
        -12    1    3    3    0    0  0.25957616390E+02  0.12525464983E+02  0.22914914630E+02  0.36820896705E+02  0.00000000000E+00 0.  1.
         11    1    4    4    0    0  0.23302073470E+01 -0.15678005811E+01 -0.20528895948E+00  0.28160271234E+01  0.51100000000E-03 0. -1.
        -11    1    4    4    0    0 -0.20008148190E+02 -0.75732392335E+01  0.53901277293E+01  0.22062035801E+02  0.51100000000E-03 0.  1.
         12    1    4    4    0    0 -0.82796755469E+01 -0.33844251685E+01 -0.28099753399E+02  0.29489040371E+02  0.00000000000E+00 0. -1.
</event>
<event>
 8    1  0.1253488E-006  0.9118800E+02  0.7816164E-02  0.1184000E+00
        -11   -1    0    0    0    0  0.00000000000E+00  0.00000000000E+00  0.45593999997E+02  0.45594000000E+02  0.51100000000E-03 0.  1.
         11   -1    0    0    0    0 -0.00000000000E+00 -0.00000000000E+00 -0.45593999997E+02  0.45594000000E+02  0.51100000000E-03 0. -1.
         23    2    1    2    0    0  0.00000000000E+00  0.00000000000E+00  0.00000000000E+00  0.91188000000E+02  0.91188000000E+02 0.  0.
    9900012    2    3    3    0    0 -0.33709967352E+02 -0.10779474641E+02  0.10159752438E+02  0.54367088252E+02  0.40000009287E+02 0.  0.
         12    1    3    3    0    0  0.33709967352E+02  0.10779474641E+02 -0.10159752438E+02  0.36820911748E+02  0.00000000000E+00 0. -1.
         11    1    4    4    0    0 -0.62435562088E+01  0.17401859434E+01 -0.28660912211E+01  0.70869401295E+01  0.51100000000E-03 0. -1.
        -11    1    4    4    0    0 -0.31317427970E+02  0.10457943915E+01  0.84379775769E+01  0.32451108555E+02  0.51100000000E-03 0.  1.
         12    1    4    4    0    0  0.38510168275E+01 -0.13565454976E+02  0.45878660823E+01  0.14829039567E+02  0.00000000000E+00 0. -1.
</event>
<event>
 8    1  0.1253488E-006  0.9118800E+02  0.7816164E-02  0.1184000E+00
        -11   -1    0    0    0    0  0.00000000000E+00  0.00000000000E+00  0.45593999997E+02  0.45594000000E+02  0.51100000000E-03 0. -1.
         11   -1    0    0    0    0 -0.00000000000E+00 -0.00000000000E+00 -0.45593999997E+02  0.45594000000E+02  0.51100000000E-03 0.  1.
         23    2    1    2    0    0  0.35527136788E-14 -0.35527136788E-14 -0.35527136788E-14  0.91188000000E+02  0.91188000000E+02 0.  0.
    9900012    2    3    3    0    0 -0.21033208198E+02  0.27076018822E+02  0.13426643589E+02  0.54367063015E+02  0.39999951756E+02 0.  0.
         12    1    3    3    0    0  0.21033208198E+02 -0.27076018822E+02 -0.13426643589E+02  0.36820936985E+02  0.00000000000E+00 0. -1.
         11    1    4    4    0    0  0.25197015487E+00  0.12609227500E+01 -0.50471714222E+01  0.52083927239E+01  0.51100000000E-03 0. -1.
        -11    1    4    4    0    0  0.31252435850E+01  0.83268954043E-01 -0.55151809362E+01  0.63396610481E+01  0.51100000000E-03 0.  1.
        -12    1    4    4    0    0 -0.24410421938E+02  0.25731827118E+02  0.23988995948E+02  0.42819009243E+02  0.00000000000E+00 0.  1.
</event>
<event>
 8    1  0.1253488E-006  0.9118800E+02  0.7816164E-02  0.1184000E+00
        -11   -1    0    0    0    0  0.00000000000E+00  0.00000000000E+00  0.45593999997E+02  0.45594000000E+02  0.51100000000E-03 0. -1.
         11   -1    0    0    0    0 -0.00000000000E+00 -0.00000000000E+00 -0.45593999997E+02  0.45594000000E+02  0.51100000000E-03 0.  1.
         23    2    1    2    0    0  0.55511151231E-15  0.00000000000E+00  0.35527136788E-14  0.91188000000E+02  0.91188000000E+02 0.  0.
    9900012    2    3    3    0    0  0.17968069485E+00 -0.22039050347E+02  0.29496237946E+02  0.54367080969E+02  0.39999992684E+02 0.  0.
        -12    1    3    3    0    0 -0.17968069485E+00  0.22039050347E+02 -0.29496237946E+02  0.36820919031E+02  0.00000000000E+00 0.  1.
         11    1    4    4    0    0 -0.37278813618E+01 -0.12844748284E+02  0.30942060402E+02  0.33708986341E+02  0.51100000000E-03 0. -1.
        -11    1    4    4    0    0 -0.66499343092E+01 -0.73051404688E+01 -0.49896227442E+00  0.98911913943E+01  0.51100000000E-03 0.  1.
        -12    1    4    4    0    0  0.10557496366E+02 -0.18891615942E+01 -0.94686018150E+00  0.10766903234E+02  0.00000000000E+00 0.  1.
</event>
<event>
 8    1  0.1253488E-006  0.9118800E+02  0.7816164E-02  0.1184000E+00
        -11   -1    0    0    0    0  0.00000000000E+00  0.00000000000E+00  0.45593999997E+02  0.45594000000E+02  0.51100000000E-03 0.  1.
         11   -1    0    0    0    0 -0.00000000000E+00 -0.00000000000E+00 -0.45593999997E+02  0.45594000000E+02  0.51100000000E-03 0. -1.
         23    2    1    2    0    0  0.00000000000E+00 -0.35527136788E-14  0.17763568394E-14  0.91188000000E+02  0.91188000000E+02 0.  0.
    9900012    2    3    3    0    0  0.19267697124E+02  0.28195417858E+02 -0.13767853209E+02  0.54367088514E+02  0.40000009886E+02 0.  0.
        -12    1    3    3    0    0 -0.19267697124E+02 -0.28195417858E+02  0.13767853209E+02  0.36820911486E+02  0.00000000000E+00 0.  1.
         11    1    4    4    0    0  0.90623135614E+01  0.75500915258E+01 -0.86201522446E+01  0.14609463854E+02  0.51100000000E-03 0. -1.
        -11    1    4    4    0    0  0.67481712550E+01  0.19842483713E+02 -0.17250698923E+02  0.27144955126E+02  0.51100000000E-03 0.  1.
        -12    1    4    4    0    0  0.34572123077E+01  0.80284261909E+00  0.12102997958E+02  0.12612669534E+02  0.00000000000E+00 0.  1.
</event>
<event>
 8    1  0.1253488E-006  0.9118800E+02  0.7816164E-02  0.1184000E+00
        -11   -1    0    0    0    0  0.00000000000E+00  0.00000000000E+00  0.45593999997E+02  0.45594000000E+02  0.51100000000E-03 0.  1.
         11   -1    0    0    0    0 -0.00000000000E+00 -0.00000000000E+00 -0.45593999997E+02  0.45594000000E+02  0.51100000000E-03 0. -1.
         23    2    1    2    0    0 -0.17763568394E-14  0.00000000000E+00  0.00000000000E+00  0.91188000000E+02  0.91188000000E+02 0.  0.
    9900012    2    3    3    0    0 -0.87695105910E+01  0.34495129725E+02  0.94319221917E+01  0.54367089542E+02  0.40000012229E+02 0.  0.
         12    1    3    3    0    0  0.87695105910E+01 -0.34495129725E+02 -0.94319221917E+01  0.36820910458E+02  0.00000000000E+00 0. -1.
         11    1    4    4    0    0 -0.58529076727E+01 -0.32890404914E+01 -0.78659085769E+00  0.67596627888E+01  0.51100000000E-03 0. -1.
        -11    1    4    4    0    0 -0.88314907110E+01  0.37898268797E+02  0.13056875388E+02  0.41045779334E+02  0.51100000000E-03 0.  1.
        -12    1    4    4    0    0  0.59148877927E+01 -0.11409858057E+00 -0.28383623390E+01  0.65616474192E+01  0.00000000000E+00 0.  1.
</event>
<event>
 8    1  0.1253488E-006  0.9118800E+02  0.7816164E-02  0.1184000E+00
        -11   -1    0    0    0    0  0.00000000000E+00  0.00000000000E+00  0.45593999997E+02  0.45594000000E+02  0.51100000000E-03 0.  1.
         11   -1    0    0    0    0 -0.00000000000E+00 -0.00000000000E+00 -0.45593999997E+02  0.45594000000E+02  0.51100000000E-03 0. -1.
         23    2    1    2    0    0  0.17763568394E-14  0.17763568394E-14  0.00000000000E+00  0.91188000000E+02  0.91188000000E+02 0.  0.
    9900012    2    3    3    0    0  0.14730390156E+02  0.12829760631E+02 -0.31212058145E+02  0.54367085757E+02  0.40000003601E+02 0.  0.
        -12    1    3    3    0    0 -0.14730390156E+02 -0.12829760631E+02  0.31212058145E+02  0.36820914243E+02  0.00000000000E+00 0.  1.
         11    1    4    4    0    0  0.14866944839E+01 -0.19191892191E+01 -0.13946299619E+02  0.14156017133E+02  0.51100000000E-03 0. -1.
        -11    1    4    4    0    0 -0.69218379766E+01  0.20143671049E+01  0.40111351145E+01  0.82497709650E+01  0.51100000000E-03 0.  1.
        -12    1    4    4    0    0  0.20165533649E+02  0.12734582745E+02 -0.21276893640E+02  0.31961297659E+02  0.00000000000E+00 0.  1.
</event>
<event>
 8    1  0.1253488E-006  0.9118800E+02  0.7816164E-02  0.1184000E+00
        -11   -1    0    0    0    0  0.00000000000E+00  0.00000000000E+00  0.45593999997E+02  0.45594000000E+02  0.51100000000E-03 0.  1.
         11   -1    0    0    0    0 -0.00000000000E+00 -0.00000000000E+00 -0.45593999997E+02  0.45594000000E+02  0.51100000000E-03 0. -1.
         23    2    1    2    0    0  0.35527136788E-14  0.35527136788E-14  0.00000000000E+00  0.91188000000E+02  0.91188000000E+02 0.  0.
    9900012    2    3    3    0    0  0.18490565639E+02  0.17136488698E+02 -0.26836889545E+02  0.54367096928E+02  0.40000029067E+02 0.  0.
        -12    1    3    3    0    0 -0.18490565639E+02 -0.17136488698E+02  0.26836889545E+02  0.36820903072E+02  0.00000000000E+00 0.  1.
         11    1    4    4    0    0  0.12974536241E+02  0.13015586093E+02 -0.18654590554E+02  0.26186596209E+02  0.51100000000E-03 0. -1.
        -11    1    4    4    0    0 -0.74924846918E+01 -0.65568555736E+01 -0.14817270931E+01  0.10066041790E+02  0.51100000000E-03 0.  1.
        -12    1    4    4    0    0  0.13008514090E+02  0.10677758179E+02 -0.67005718981E+01  0.18114458930E+02  0.00000000000E+00 0.  1.
</event>
<event>
 8    1  0.1253488E-006  0.9118800E+02  0.7816164E-02  0.1184000E+00
        -11   -1    0    0    0    0  0.00000000000E+00  0.00000000000E+00  0.45593999997E+02  0.45594000000E+02  0.51100000000E-03 0.  1.
         11   -1    0    0    0    0 -0.00000000000E+00 -0.00000000000E+00 -0.45593999997E+02  0.45594000000E+02  0.51100000000E-03 0. -1.
         23    2    1    2    0    0  0.00000000000E+00  0.00000000000E+00  0.00000000000E+00  0.91188000000E+02  0.91188000000E+02 0.  0.
    9900012    2    3    3    0    0  0.21075447990E+02  0.22918446112E+02 -0.19655840249E+02  0.54367058457E+02  0.39999941365E+02 0.  0.
         12    1    3    3    0    0 -0.21075447990E+02 -0.22918446112E+02  0.19655840249E+02  0.36820941543E+02  0.00000000000E+00 0. -1.
         11    1    4    4    0    0 -0.23475153074E+01 -0.18441015389E+01 -0.34527380271E+01  0.45643114212E+01  0.51100000000E-03 0. -1.
        -11    1    4    4    0    0  0.22138222871E+02  0.32366978215E+02 -0.11943001405E+02  0.40992163562E+02  0.51100000000E-03 0.  1.
         12    1    4    4    0    0  0.12847404267E+01 -0.76044305644E+01 -0.42601008177E+01  0.88105834738E+01  0.00000000000E+00 0. -1.
</event>
<event>
 8    1  0.1253488E-006  0.9118800E+02  0.7816164E-02  0.1184000E+00
        -11   -1    0    0    0    0  0.00000000000E+00  0.00000000000E+00  0.45593999997E+02  0.45594000000E+02  0.51100000000E-03 0. -1.
         11   -1    0    0    0    0 -0.00000000000E+00 -0.00000000000E+00 -0.45593999997E+02  0.45594000000E+02  0.51100000000E-03 0.  1.
         23    2    1    2    0    0  0.00000000000E+00 -0.35527136788E-14  0.00000000000E+00  0.91188000000E+02  0.91188000000E+02 0.  0.
    9900012    2    3    3    0    0 -0.22573758072E+02 -0.23240146883E+02  0.17495733692E+02  0.54367086404E+02  0.40000005075E+02 0.  0.
        -12    1    3    3    0    0  0.22573758072E+02  0.23240146883E+02 -0.17495733692E+02  0.36820913596E+02  0.00000000000E+00 0.  1.
         11    1    4    4    0    0 -0.59335026661E+01 -0.16357942615E+02  0.56397022376E+00  0.17409962756E+02  0.51100000000E-03 0. -1.
        -11    1    4    4    0    0  0.16192220811E+01 -0.13295965777E+02  0.54973132568E+01  0.14478433596E+02  0.51100000000E-03 0.  1.
        -12    1    4    4    0    0 -0.18259477487E+02  0.64137615097E+01  0.11434450212E+02  0.22478690052E+02  0.00000000000E+00 0.  1.
</event>
<event>
 8    1  0.1253488E-006  0.9118800E+02  0.7816164E-02  0.1184000E+00
        -11   -1    0    0    0    0  0.00000000000E+00  0.00000000000E+00  0.45593999997E+02  0.45594000000E+02  0.51100000000E-03 0. -1.
         11   -1    0    0    0    0 -0.00000000000E+00 -0.00000000000E+00 -0.45593999997E+02  0.45594000000E+02  0.51100000000E-03 0.  1.
         23    2    1    2    0    0 -0.88817841970E-15 -0.35527136788E-14  0.35527136788E-14  0.91188000000E+02  0.91188000000E+02 0.  0.
    9900012    2    3    3    0    0  0.55138137158E+01 -0.23954905678E+02  0.27414225278E+02  0.54367090244E+02  0.40000013828E+02 0.  0.
         12    1    3    3    0    0 -0.55138137158E+01  0.23954905678E+02 -0.27414225278E+02  0.36820909756E+02  0.00000000000E+00 0. -1.
         11    1    4    4    0    0  0.65032746435E-01  0.21734803674E+01  0.28341847339E+00  0.21928457442E+01  0.51100000000E-03 0. -1.
        -11    1    4    4    0    0 -0.84687951807E+00 -0.33319458407E+02  0.14532063071E+02  0.36360478144E+02  0.51100000000E-03 0.  1.
        -12    1    4    4    0    0  0.62956604875E+01  0.71910723625E+01  0.12598743733E+02  0.15813766355E+02  0.00000000000E+00 0.  1.
</event>
<event>
 8    1  0.1253488E-006  0.9118800E+02  0.7816164E-02  0.1184000E+00
        -11   -1    0    0    0    0  0.00000000000E+00  0.00000000000E+00  0.45593999997E+02  0.45594000000E+02  0.51100000000E-03 0.  1.
         11   -1    0    0    0    0 -0.00000000000E+00 -0.00000000000E+00 -0.45593999997E+02  0.45594000000E+02  0.51100000000E-03 0. -1.
         23    2    1    2    0    0 -0.88817841970E-15  0.00000000000E+00 -0.35527136788E-14  0.91188000000E+02  0.91188000000E+02 0.  0.
    9900012    2    3    3    0    0 -0.52435263091E+01 -0.18857988845E+02 -0.31187517023E+02  0.54367088421E+02  0.40000009673E+02 0.  0.
        -12    1    3    3    0    0  0.52435263091E+01  0.18857988845E+02  0.31187517023E+02  0.36820911579E+02  0.00000000000E+00 0.  1.
         11    1    4    4    0    0 -0.13449267432E+01 -0.20065483959E+02 -0.15323676409E+00  0.20111090379E+02  0.51100000000E-03 0. -1.
        -11    1    4    4    0    0 -0.57991164554E+01  0.41933410791E+01 -0.71686222404E+01  0.10129314200E+02  0.51100000000E-03 0.  1.
         12    1    4    4    0    0  0.19005168895E+01 -0.29858459653E+01 -0.23865658019E+02  0.24126683843E+02  0.00000000000E+00 0. -1.
</event>
<event>
 8    1  0.1253488E-006  0.9118800E+02  0.7816164E-02  0.1184000E+00
        -11   -1    0    0    0    0  0.00000000000E+00  0.00000000000E+00  0.45593999997E+02  0.45594000000E+02  0.51100000000E-03 0. -1.
         11   -1    0    0    0    0 -0.00000000000E+00 -0.00000000000E+00 -0.45593999997E+02  0.45594000000E+02  0.51100000000E-03 0.  1.
         23    2    1    2    0    0  0.35527136788E-14  0.00000000000E+00  0.00000000000E+00  0.91188000000E+02  0.91188000000E+02 0.  0.
    9900012    2    3    3    0    0  0.22222899456E+02  0.20492085781E+02 -0.21023719042E+02  0.54367087433E+02  0.40000007421E+02 0.  0.
        -12    1    3    3    0    0 -0.22222899456E+02 -0.20492085781E+02  0.21023719042E+02  0.36820912567E+02  0.00000000000E+00 0.  1.
         11    1    4    4    0    0  0.75013805461E+01  0.11555714049E+02  0.67317839001E+01  0.15333693359E+02  0.51100000000E-03 0. -1.
        -11    1    4    4    0    0  0.34161495578E+01 -0.35086683508E+01 -0.19866573376E+02  0.20461221111E+02  0.51100000000E-03 0.  1.
        -12    1    4    4    0    0  0.11305369352E+02  0.12445040083E+02 -0.78889295663E+01  0.18572172963E+02  0.00000000000E+00 0.  1.
</event>
<event>
 8    1  0.1253488E-006  0.9118800E+02  0.7816164E-02  0.1184000E+00
        -11   -1    0    0    0    0  0.00000000000E+00  0.00000000000E+00  0.45593999997E+02  0.45594000000E+02  0.51100000000E-03 0. -1.
         11   -1    0    0    0    0 -0.00000000000E+00 -0.00000000000E+00 -0.45593999997E+02  0.45594000000E+02  0.51100000000E-03 0.  1.
         23    2    1    2    0    0  0.00000000000E+00  0.44408920985E-14  0.00000000000E+00  0.91188000000E+02  0.91188000000E+02 0.  0.
    9900012    2    3    3    0    0  0.86174494667E+01  0.49657008713E+01  0.35452198747E+02  0.54367122546E+02  0.40000087468E+02 0.  0.
        -12    1    3    3    0    0 -0.86174494667E+01 -0.49657008713E+01 -0.35452198747E+02  0.36820877454E+02  0.00000000000E+00 0.  1.
         11    1    4    4    0    0  0.18568314422E+01  0.17383506568E+02  0.11585756038E+02  0.20972931766E+02  0.51100000000E-03 0. -1.
        -11    1    4    4    0    0  0.13112275957E+02 -0.96151306753E+01  0.18422652768E+02  0.24571867124E+02  0.51100000000E-03 0.  1.
        -12    1    4    4    0    0 -0.63516579329E+01 -0.28026750216E+01  0.54437899408E+01  0.88223236561E+01  0.00000000000E+00 0.  1.
</event>
<event>
 8    1  0.1253488E-006  0.9118800E+02  0.7816164E-02  0.1184000E+00
        -11   -1    0    0    0    0  0.00000000000E+00  0.00000000000E+00  0.45593999997E+02  0.45594000000E+02  0.51100000000E-03 0.  1.
         11   -1    0    0    0    0 -0.00000000000E+00 -0.00000000000E+00 -0.45593999997E+02  0.45594000000E+02  0.51100000000E-03 0. -1.
         23    2    1    2    0    0  0.71054273576E-14 -0.88817841970E-15 -0.13322676296E-14  0.91188000000E+02  0.91188000000E+02 0.  0.
    9900012    2    3    3    0    0 -0.36303217377E+02  0.60621409526E+01  0.10512964763E+01  0.54367104178E+02  0.40000045595E+02 0.  0.
        -12    1    3    3    0    0  0.36303217377E+02 -0.60621409526E+01 -0.10512964763E+01  0.36820895822E+02  0.00000000000E+00 0.  1.
         11    1    4    4    0    0  0.26755661869E+01  0.45256324720E+01 -0.90347203285E+01  0.10453046224E+02  0.51100000000E-03 0. -1.
        -11    1    4    4    0    0 -0.18611607864E+02  0.89265309640E+01  0.80367005702E+01  0.22150924555E+02  0.51100000000E-03 0.  1.
         12    1    4    4    0    0 -0.20367175700E+02 -0.73900224834E+01  0.20493162347E+01  0.21763133399E+02  0.00000000000E+00 0. -1.
</event>
<event>
 8    1  0.1253488E-006  0.9118800E+02  0.7816164E-02  0.1184000E+00
        -11   -1    0    0    0    0  0.00000000000E+00  0.00000000000E+00  0.45593999997E+02  0.45594000000E+02  0.51100000000E-03 0. -1.
         11   -1    0    0    0    0 -0.00000000000E+00 -0.00000000000E+00 -0.45593999997E+02  0.45594000000E+02  0.51100000000E-03 0.  1.
         23    2    1    2    0    0  0.35527136788E-14  0.00000000000E+00  0.44408920985E-15  0.91188000000E+02  0.91188000000E+02 0.  0.
    9900012    2    3    3    0    0 -0.27033631329E+02 -0.24830621816E+02  0.28986897333E+01  0.54367090115E+02  0.40000013534E+02 0.  0.
        -12    1    3    3    0    0  0.27033631329E+02  0.24830621816E+02 -0.28986897333E+01  0.36820909885E+02  0.00000000000E+00 0.  1.
         11    1    4    4    0    0 -0.10149926686E+02 -0.18424881784E+01  0.11959842572E+02  0.15794100450E+02  0.51100000000E-03 0. -1.
        -11    1    4    4    0    0  0.50448180113E+01 -0.11083878027E+02 -0.55235877309E+01  0.13372081459E+02  0.51100000000E-03 0.  1.
         12    1    4    4    0    0 -0.21928522655E+02 -0.11904255611E+02 -0.35375651079E+01  0.25200908205E+02  0.00000000000E+00 0. -1.
</event>
<event>
 8    1  0.1253488E-006  0.9118800E+02  0.7816164E-02  0.1184000E+00
        -11   -1    0    0    0    0  0.00000000000E+00  0.00000000000E+00  0.45593999997E+02  0.45594000000E+02  0.51100000000E-03 0.  1.
         11   -1    0    0    0    0 -0.00000000000E+00 -0.00000000000E+00 -0.45593999997E+02  0.45594000000E+02  0.51100000000E-03 0. -1.
         23    2    1    2    0    0  0.00000000000E+00  0.00000000000E+00 -0.17763568394E-14  0.91188000000E+02  0.91188000000E+02 0.  0.
    9900012    2    3    3    0    0  0.12707131688E+02  0.31712435424E+02  0.13734252651E+02  0.54367089472E+02  0.40000012069E+02 0.  0.
         12    1    3    3    0    0 -0.12707131688E+02 -0.31712435424E+02 -0.13734252651E+02  0.36820910528E+02  0.00000000000E+00 0. -1.
         11    1    4    4    0    0  0.26708963725E+01  0.15928554789E+01  0.12270900912E+02  0.12658826386E+02  0.51100000000E-03 0. -1.
        -11    1    4    4    0    0 -0.22716163810E+00  0.29221822943E+02  0.69471451766E+01  0.30037133100E+02  0.51100000000E-03 0.  1.
        -12    1    4    4    0    0  0.10263396954E+02  0.89775700171E+00 -0.54837934383E+01  0.11671129986E+02  0.00000000000E+00 0.  1.
</event>
<event>
 8    1  0.1253488E-006  0.9118800E+02  0.7816164E-02  0.1184000E+00
        -11   -1    0    0    0    0  0.00000000000E+00  0.00000000000E+00  0.45593999997E+02  0.45594000000E+02  0.51100000000E-03 0.  1.
         11   -1    0    0    0    0 -0.00000000000E+00 -0.00000000000E+00 -0.45593999997E+02  0.45594000000E+02  0.51100000000E-03 0. -1.
         23    2    1    2    0    0  0.00000000000E+00  0.17763568394E-14 -0.35527136788E-14  0.91188000000E+02  0.91188000000E+02 0.  0.
    9900012    2    3    3    0    0 -0.23879983024E+02 -0.88620732080E+01  0.26589277973E+02  0.54367087003E+02  0.40000006441E+02 0.  0.
         12    1    3    3    0    0  0.23879983024E+02  0.88620732080E+01 -0.26589277973E+02  0.36820912997E+02  0.00000000000E+00 0. -1.
         11    1    4    4    0    0 -0.39386421168E+01  0.58374442876E+01 -0.73033990507E+01  0.10145358322E+02  0.51100000000E-03 0. -1.
        -11    1    4    4    0    0 -0.19923573763E+02 -0.14179732988E+02  0.23828010491E+02  0.34143633423E+02  0.51100000000E-03 0.  1.
        -12    1    4    4    0    0 -0.17767144174E-01 -0.51978450809E+00  0.10064666533E+02  0.10078095258E+02  0.00000000000E+00 0.  1.
</event>
<event>
 8    1  0.1253488E-006  0.9118800E+02  0.7816164E-02  0.1184000E+00
        -11   -1    0    0    0    0  0.00000000000E+00  0.00000000000E+00  0.45593999997E+02  0.45594000000E+02  0.51100000000E-03 0.  1.
         11   -1    0    0    0    0 -0.00000000000E+00 -0.00000000000E+00 -0.45593999997E+02  0.45594000000E+02  0.51100000000E-03 0. -1.
         23    2    1    2    0    0  0.71054273576E-14  0.00000000000E+00  0.44408920985E-15  0.91188000000E+02  0.91188000000E+02 0.  0.
    9900012    2    3    3    0    0 -0.30038435341E+02 -0.20951063845E+02 -0.38111074479E+01  0.54367092706E+02  0.40000019441E+02 0.  0.
         12    1    3    3    0    0  0.30038435341E+02  0.20951063845E+02  0.38111074479E+01  0.36820907294E+02  0.00000000000E+00 0. -1.
         11    1    4    4    0    0  0.49820399620E+00  0.54357476908E+00  0.11770369183E+02  0.11793441894E+02  0.51100000000E-03 0. -1.
        -11    1    4    4    0    0 -0.64467977662E+01  0.95847282089E+00 -0.40918769873E+01  0.76956695048E+01  0.51100000000E-03 0.  1.
        -12    1    4    4    0    0 -0.24089841571E+02 -0.22453111435E+02 -0.11489599644E+02  0.34877981306E+02  0.00000000000E+00 0.  1.
</event>
<event>
 8    1  0.1253488E-006  0.9118800E+02  0.7816164E-02  0.1184000E+00
        -11   -1    0    0    0    0  0.00000000000E+00  0.00000000000E+00  0.45593999997E+02  0.45594000000E+02  0.51100000000E-03 0.  1.
         11   -1    0    0    0    0 -0.00000000000E+00 -0.00000000000E+00 -0.45593999997E+02  0.45594000000E+02  0.51100000000E-03 0. -1.
         23    2    1    2    0    0  0.17763568394E-14  0.00000000000E+00 -0.35527136788E-14  0.91188000000E+02  0.91188000000E+02 0.  0.
    9900012    2    3    3    0    0  0.38774360531E+01 -0.20253841938E+02 -0.30504578136E+02  0.54367056084E+02  0.39999935956E+02 0.  0.
        -12    1    3    3    0    0 -0.38774360531E+01  0.20253841938E+02  0.30504578136E+02  0.36820943916E+02  0.00000000000E+00 0.  1.
         11    1    4    4    0    0 -0.53221721126E+01  0.36562552514E+01 -0.35754623847E+01  0.73808976409E+01  0.51100000000E-03 0. -1.
        -11    1    4    4    0    0 -0.30896880321E+01  0.56660754416E+01 -0.51208503318E+01  0.82385491094E+01  0.51100000000E-03 0.  1.
         12    1    4    4    0    0  0.12289296198E+02 -0.29576172631E+02 -0.21808265419E+02  0.38747609334E+02  0.00000000000E+00 0. -1.
</event>
<event>
 8    1  0.1253488E-006  0.9118800E+02  0.7816164E-02  0.1184000E+00
        -11   -1    0    0    0    0  0.00000000000E+00  0.00000000000E+00  0.45593999997E+02  0.45594000000E+02  0.51100000000E-03 0.  1.
         11   -1    0    0    0    0 -0.00000000000E+00 -0.00000000000E+00 -0.45593999997E+02  0.45594000000E+02  0.51100000000E-03 0. -1.
         23    2    1    2    0    0  0.00000000000E+00 -0.22204460493E-15  0.17763568394E-14  0.91188000000E+02  0.91188000000E+02 0.  0.
    9900012    2    3    3    0    0 -0.34230273573E+02 -0.17658560232E+01  0.13451752654E+02  0.54367088471E+02  0.40000009786E+02 0.  0.
         12    1    3    3    0    0  0.34230273573E+02  0.17658560232E+01 -0.13451752654E+02  0.36820911529E+02  0.00000000000E+00 0. -1.
         11    1    4    4    0    0 -0.26580798999E+02  0.45017699022E+01 -0.74294657709E+01  0.27964294548E+02  0.51100000000E-03 0. -1.
        -11    1    4    4    0    0  0.27156097938E+00 -0.49558948570E+01  0.16553948712E+02  0.17282009647E+02  0.51100000000E-03 0.  1.
         12    1    4    4    0    0 -0.79210355538E+01 -0.13117310684E+01  0.43272697126E+01  0.91207842758E+01  0.00000000000E+00 0. -1.
</event>
<event>
 8    1  0.1253488E-006  0.9118800E+02  0.7816164E-02  0.1184000E+00
        -11   -1    0    0    0    0  0.00000000000E+00  0.00000000000E+00  0.45593999997E+02  0.45594000000E+02  0.51100000000E-03 0.  1.
         11   -1    0    0    0    0 -0.00000000000E+00 -0.00000000000E+00 -0.45593999997E+02  0.45594000000E+02  0.51100000000E-03 0. -1.
         23    2    1    2    0    0 -0.35527136788E-14 -0.88817841970E-15  0.00000000000E+00  0.91188000000E+02  0.91188000000E+02 0.  0.
    9900012    2    3    3    0    0  0.25843675018E+02  0.62227436633E+01  0.25478652874E+02  0.54367084348E+02  0.40000000388E+02 0.  0.
         12    1    3    3    0    0 -0.25843675018E+02 -0.62227436633E+01 -0.25478652874E+02  0.36820915652E+02  0.00000000000E+00 0. -1.
         11    1    4    4    0    0  0.11413387084E+02  0.13321763183E+02  0.38681519061E+01  0.17963779626E+02  0.51100000000E-03 0. -1.
        -11    1    4    4    0    0  0.16895486422E+02 -0.11386795535E+02  0.23505589839E+02  0.31106740876E+02  0.51100000000E-03 0.  1.
        -12    1    4    4    0    0 -0.24651984877E+01  0.42877760159E+01 -0.18950888706E+01  0.52965638459E+01  0.00000000000E+00 0.  1.
</event>
<event>
 8    1  0.1253488E-006  0.9118800E+02  0.7816164E-02  0.1184000E+00
        -11   -1    0    0    0    0  0.00000000000E+00  0.00000000000E+00  0.45593999997E+02  0.45594000000E+02  0.51100000000E-03 0.  1.
         11   -1    0    0    0    0 -0.00000000000E+00 -0.00000000000E+00 -0.45593999997E+02  0.45594000000E+02  0.51100000000E-03 0. -1.
         23    2    1    2    0    0  0.00000000000E+00 -0.35527136788E-14  0.17763568394E-14  0.91188000000E+02  0.91188000000E+02 0.  0.
    9900012    2    3    3    0    0 -0.17968249972E+02  0.30884852594E+02 -0.88908904811E+01  0.54367081213E+02  0.39999993241E+02 0.  0.
        -12    1    3    3    0    0  0.17968249972E+02 -0.30884852594E+02  0.88908904811E+01  0.36820918787E+02  0.00000000000E+00 0.  1.
         11    1    4    4    0    0 -0.17749810696E+02  0.47986015766E+01 -0.88080036736E+01  0.20387821997E+02  0.51100000000E-03 0. -1.
        -11    1    4    4    0    0 -0.24564054482E+01  0.28399840455E+02  0.39945450680E+01  0.28784392579E+02  0.51100000000E-03 0.  1.
         12    1    4    4    0    0  0.22379661720E+01 -0.23135894377E+01 -0.40774318755E+01  0.51948666366E+01  0.00000000000E+00 0. -1.
</event>
<event>
 8    1  0.1253488E-006  0.9118800E+02  0.7816164E-02  0.1184000E+00
        -11   -1    0    0    0    0  0.00000000000E+00  0.00000000000E+00  0.45593999997E+02  0.45594000000E+02  0.51100000000E-03 0.  1.
         11   -1    0    0    0    0 -0.00000000000E+00 -0.00000000000E+00 -0.45593999997E+02  0.45594000000E+02  0.51100000000E-03 0. -1.
         23    2    1    2    0    0  0.00000000000E+00  0.71054273576E-14 -0.35527136788E-14  0.91188000000E+02  0.91188000000E+02 0.  0.
    9900012    2    3    3    0    0  0.18201044013E+02  0.29052291559E+02 -0.13433720477E+02  0.54367102485E+02  0.40000041735E+02 0.  0.
         12    1    3    3    0    0 -0.18201044013E+02 -0.29052291559E+02  0.13433720477E+02  0.36820897515E+02  0.00000000000E+00 0. -1.
         11    1    4    4    0    0 -0.40328741477E+01  0.13492645072E+01 -0.16352674505E+02  0.16896584043E+02  0.51100000000E-03 0. -1.
        -11    1    4    4    0    0  0.14354118262E+02  0.10210198629E+02  0.46164208531E+01  0.18209893159E+02  0.51100000000E-03 0.  1.
        -12    1    4    4    0    0  0.78797998988E+01  0.17492828422E+02 -0.16974668253E+01  0.19260625283E+02  0.00000000000E+00 0.  1.
</event>
<event>
 8    1  0.1253488E-006  0.9118800E+02  0.7816164E-02  0.1184000E+00
        -11   -1    0    0    0    0  0.00000000000E+00  0.00000000000E+00  0.45593999997E+02  0.45594000000E+02  0.51100000000E-03 0. -1.
         11   -1    0    0    0    0 -0.00000000000E+00 -0.00000000000E+00 -0.45593999997E+02  0.45594000000E+02  0.51100000000E-03 0.  1.
         23    2    1    2    0    0  0.00000000000E+00  0.00000000000E+00  0.35527136788E-14  0.91188000000E+02  0.91188000000E+02 0.  0.
    9900012    2    3    3    0    0  0.16970843194E+02 -0.19504093830E+02  0.26217562213E+02  0.54367085248E+02  0.40000002439E+02 0.  0.
        -12    1    3    3    0    0 -0.16970843194E+02  0.19504093830E+02 -0.26217562213E+02  0.36820914752E+02  0.00000000000E+00 0.  1.
         11    1    4    4    0    0  0.56394679544E+01 -0.14392269162E+02  0.34451782436E+02  0.37760645171E+02  0.51100000000E-03 0. -1.
        -11    1    4    4    0    0  0.52008515148E+01 -0.60507372363E+01 -0.61143764724E+01  0.10052157852E+02  0.51100000000E-03 0.  1.
         12    1    4    4    0    0  0.61305237246E+01  0.93891256885E+00 -0.21198437508E+01  0.65542822244E+01  0.00000000000E+00 0. -1.
</event>
<event>
 8    1  0.1253488E-006  0.9118800E+02  0.7816164E-02  0.1184000E+00
        -11   -1    0    0    0    0  0.00000000000E+00  0.00000000000E+00  0.45593999997E+02  0.45594000000E+02  0.51100000000E-03 0.  1.
         11   -1    0    0    0    0 -0.00000000000E+00 -0.00000000000E+00 -0.45593999997E+02  0.45594000000E+02  0.51100000000E-03 0. -1.
         23    2    1    2    0    0  0.17763568394E-14  0.00000000000E+00 -0.44408920985E-15  0.91188000000E+02  0.91188000000E+02 0.  0.
    9900012    2    3    3    0    0  0.10857703216E+02 -0.35007786378E+02  0.35134737624E+01  0.54367091210E+02  0.40000016032E+02 0.  0.
         12    1    3    3    0    0 -0.10857703216E+02  0.35007786378E+02 -0.35134737624E+01  0.36820908790E+02  0.00000000000E+00 0. -1.
         11    1    4    4    0    0  0.27867989937E+01 -0.14017423529E+02  0.43790576931E+01  0.14947593705E+02  0.51100000000E-03 0. -1.
        -11    1    4    4    0    0  0.20228160255E+02 -0.16607135380E+02  0.17638952342E+01  0.26231407501E+02  0.51100000000E-03 0.  1.
         12    1    4    4    0    0 -0.12157256033E+02 -0.43832274685E+01 -0.26294791649E+01  0.13188090004E+02  0.00000000000E+00 0. -1.
</event>
<event>
 8    1  0.1253488E-006  0.9118800E+02  0.7816164E-02  0.1184000E+00
        -11   -1    0    0    0    0  0.00000000000E+00  0.00000000000E+00  0.45593999997E+02  0.45594000000E+02  0.51100000000E-03 0. -1.
         11   -1    0    0    0    0 -0.00000000000E+00 -0.00000000000E+00 -0.45593999997E+02  0.45594000000E+02  0.51100000000E-03 0.  1.
         23    2    1    2    0    0  0.00000000000E+00  0.35527136788E-14 -0.17763568394E-14  0.91188000000E+02  0.91188000000E+02 0.  0.
    9900012    2    3    3    0    0 -0.14154427270E+02  0.31221873403E+02  0.13439733537E+02  0.54367087088E+02  0.40000006634E+02 0.  0.
        -12    1    3    3    0    0  0.14154427270E+02 -0.31221873403E+02 -0.13439733537E+02  0.36820912912E+02  0.00000000000E+00 0.  1.
         11    1    4    4    0    0 -0.86463534680E+01  0.15077008191E+02  0.81594583443E+01  0.19200322003E+02  0.51100000000E-03 0. -1.
        -11    1    4    4    0    0 -0.62005298864E+01 -0.81693812918E+01 -0.92237959669E-01  0.10256406274E+02  0.51100000000E-03 0.  1.
        -12    1    4    4    0    0  0.69245608430E+00  0.24314246504E+02  0.53725131523E+01  0.24910358811E+02  0.00000000000E+00 0.  1.
</event>
<event>
 8    1  0.1253488E-006  0.9118800E+02  0.7816164E-02  0.1184000E+00
        -11   -1    0    0    0    0  0.00000000000E+00  0.00000000000E+00  0.45593999997E+02  0.45594000000E+02  0.51100000000E-03 0.  1.
         11   -1    0    0    0    0 -0.00000000000E+00 -0.00000000000E+00 -0.45593999997E+02  0.45594000000E+02  0.51100000000E-03 0. -1.
         23    2    1    2    0    0  0.00000000000E+00  0.35527136788E-14 -0.35527136788E-14  0.91188000000E+02  0.91188000000E+02 0.  0.
    9900012    2    3    3    0    0  0.89540167731E+01 -0.26592186309E+02  0.23842360712E+02  0.54367123402E+02  0.40000089420E+02 0.  0.
         12    1    3    3    0    0 -0.89540167731E+01  0.26592186309E+02 -0.23842360712E+02  0.36820876598E+02  0.00000000000E+00 0. -1.
         11    1    4    4    0    0  0.30334501766E+00  0.16552534307E+01  0.18849079103E+01  0.25268083051E+01  0.51100000000E-03 0. -1.
        -11    1    4    4    0    0  0.46081312234E+01  0.55570947236E+01 -0.46878510214E+01  0.86076781189E+01  0.51100000000E-03 0.  1.
        -12    1    4    4    0    0  0.40425405320E+01 -0.33804534464E+02  0.26645303823E+02  0.43232636978E+02  0.00000000000E+00 0.  1.
</event>
<event>
 8    1  0.1253488E-006  0.9118800E+02  0.7816164E-02  0.1184000E+00
        -11   -1    0    0    0    0  0.00000000000E+00  0.00000000000E+00  0.45593999997E+02  0.45594000000E+02  0.51100000000E-03 0.  1.
         11   -1    0    0    0    0 -0.00000000000E+00 -0.00000000000E+00 -0.45593999997E+02  0.45594000000E+02  0.51100000000E-03 0. -1.
         23    2    1    2    0    0  0.00000000000E+00  0.00000000000E+00  0.44408920985E-15  0.91188000000E+02  0.91188000000E+02 0.  0.
    9900012    2    3    3    0    0  0.23959256057E+02  0.27736631978E+02  0.35231997975E+01  0.54367086906E+02  0.40000006219E+02 0.  0.
        -12    1    3    3    0    0 -0.23959256057E+02 -0.27736631978E+02 -0.35231997975E+01  0.36820913094E+02  0.00000000000E+00 0.  1.
         11    1    4    4    0    0  0.16402210591E+02  0.14611387104E+02  0.18194971399E+02  0.28523361124E+02  0.51100000000E-03 0. -1.
        -11    1    4    4    0    0 -0.37255572536E+01  0.44332994874E+01 -0.85842344487E+01  0.10354854056E+02  0.51100000000E-03 0.  1.
         12    1    4    4    0    0  0.11282602720E+02  0.86919453865E+01 -0.60875371529E+01  0.15488871725E+02  0.00000000000E+00 0. -1.
</event>
<event>
 8    1  0.1253488E-006  0.9118800E+02  0.7816164E-02  0.1184000E+00
        -11   -1    0    0    0    0  0.00000000000E+00  0.00000000000E+00  0.45593999997E+02  0.45594000000E+02  0.51100000000E-03 0.  1.
         11   -1    0    0    0    0 -0.00000000000E+00 -0.00000000000E+00 -0.45593999997E+02  0.45594000000E+02  0.51100000000E-03 0. -1.
         23    2    1    2    0    0  0.00000000000E+00  0.00000000000E+00  0.35527136788E-14  0.91188000000E+02  0.91188000000E+02 0.  0.
    9900012    2    3    3    0    0  0.33686846207E+02  0.63072387210E+01 -0.13460882106E+02  0.54367079116E+02  0.39999988461E+02 0.  0.
        -12    1    3    3    0    0 -0.33686846207E+02 -0.63072387210E+01  0.13460882106E+02  0.36820920884E+02  0.00000000000E+00 0.  1.
         11    1    4    4    0    0  0.70857059165E+01  0.68200248278E+00 -0.17331182132E+02  0.18736120999E+02  0.51100000000E-03 0. -1.
        -11    1    4    4    0    0  0.20045896251E+02 -0.42709894542E+01  0.93846919621E+01  0.22542221517E+02  0.51100000000E-03 0.  1.
         12    1    4    4    0    0  0.65552440400E+01  0.98962256923E+01 -0.55143919357E+01  0.13088736601E+02  0.00000000000E+00 0. -1.
</event>
<event>
 8    1  0.1253488E-006  0.9118800E+02  0.7816164E-02  0.1184000E+00
        -11   -1    0    0    0    0  0.00000000000E+00  0.00000000000E+00  0.45593999997E+02  0.45594000000E+02  0.51100000000E-03 0.  1.
         11   -1    0    0    0    0 -0.00000000000E+00 -0.00000000000E+00 -0.45593999997E+02  0.45594000000E+02  0.51100000000E-03 0. -1.
         23    2    1    2    0    0  0.44408920985E-15 -0.88817841970E-15  0.00000000000E+00  0.91188000000E+02  0.91188000000E+02 0.  0.
    9900012    2    3    3    0    0 -0.19258582159E+01 -0.35861536357E+01  0.36595216574E+02  0.54367091485E+02  0.40000016658E+02 0.  0.
         12    1    3    3    0    0  0.19258582159E+01  0.35861536357E+01 -0.36595216574E+02  0.36820908515E+02  0.00000000000E+00 0. -1.
         11    1    4    4    0    0 -0.86686260519E+01  0.34794884828E+01  0.30602817446E+02  0.31996630348E+02  0.51100000000E-03 0. -1.
        -11    1    4    4    0    0  0.47086865724E+01 -0.84838831553E+01  0.12257129326E+02  0.15632825151E+02  0.51100000000E-03 0.  1.
         12    1    4    4    0    0  0.20340812635E+01  0.14182410368E+01 -0.62647301977E+01  0.67376359856E+01  0.00000000000E+00 0. -1.
</event>
<event>
 8    1  0.1253488E-006  0.9118800E+02  0.7816164E-02  0.1184000E+00
        -11   -1    0    0    0    0  0.00000000000E+00  0.00000000000E+00  0.45593999997E+02  0.45594000000E+02  0.51100000000E-03 0. -1.
         11   -1    0    0    0    0 -0.00000000000E+00 -0.00000000000E+00 -0.45593999997E+02  0.45594000000E+02  0.51100000000E-03 0.  1.
         23    2    1    2    0    0  0.00000000000E+00  0.17763568394E-14 -0.71054273576E-14  0.91188000000E+02  0.91188000000E+02 0.  0.
    9900012    2    3    3    0    0 -0.12862048187E+02 -0.13503098256E+02 -0.31749290589E+02  0.54367035876E+02  0.39999889886E+02 0.  0.
         12    1    3    3    0    0  0.12862048187E+02  0.13503098256E+02  0.31749290589E+02  0.36820964124E+02  0.00000000000E+00 0. -1.
         11    1    4    4    0    0 -0.49285558985E+01  0.53879924537E+01  0.27546552568E+01  0.78044379536E+01  0.51100000000E-03 0. -1.
        -11    1    4    4    0    0 -0.16344941201E+02 -0.11370047717E+02 -0.23515114593E+02  0.30812265456E+02  0.51100000000E-03 0.  1.
         12    1    4    4    0    0  0.84114489117E+01 -0.75210429928E+01 -0.10988831253E+02  0.15750332467E+02  0.00000000000E+00 0. -1.
</event>
<event>
 8    1  0.1253488E-006  0.9118800E+02  0.7816164E-02  0.1184000E+00
        -11   -1    0    0    0    0  0.00000000000E+00  0.00000000000E+00  0.45593999997E+02  0.45594000000E+02  0.51100000000E-03 0.  1.
         11   -1    0    0    0    0 -0.00000000000E+00 -0.00000000000E+00 -0.45593999997E+02  0.45594000000E+02  0.51100000000E-03 0. -1.
         23    2    1    2    0    0 -0.17763568394E-14  0.17763568394E-14  0.00000000000E+00  0.91188000000E+02  0.91188000000E+02 0.  0.
    9900012    2    3    3    0    0  0.13578944374E+02  0.57654745621E+01  0.33736543824E+02  0.54367043787E+02  0.39999907920E+02 0.  0.
         12    1    3    3    0    0 -0.13578944374E+02 -0.57654745621E+01 -0.33736543824E+02  0.36820956213E+02  0.00000000000E+00 0. -1.
         11    1    4    4    0    0 -0.46116065281E+01 -0.72364775766E+01  0.59007395573E+01  0.10414041006E+02  0.51100000000E-03 0. -1.
        -11    1    4    4    0    0  0.18127178681E+02  0.19837940535E+02  0.19664404119E+02  0.33299058264E+02  0.51100000000E-03 0.  1.
        -12    1    4    4    0    0  0.63372221345E-01 -0.68359883965E+01  0.81714001480E+01  0.10653944517E+02  0.00000000000E+00 0.  1.
</event>
<event>
 8    1  0.1253488E-006  0.9118800E+02  0.7816164E-02  0.1184000E+00
        -11   -1    0    0    0    0  0.00000000000E+00  0.00000000000E+00  0.45593999997E+02  0.45594000000E+02  0.51100000000E-03 0. -1.
         11   -1    0    0    0    0 -0.00000000000E+00 -0.00000000000E+00 -0.45593999997E+02  0.45594000000E+02  0.51100000000E-03 0.  1.
         23    2    1    2    0    0 -0.17763568394E-14 -0.35527136788E-14 -0.35527136788E-14  0.91188000000E+02  0.91188000000E+02 0.  0.
    9900012    2    3    3    0    0  0.47412717145E+01  0.25002677249E+02  0.26611363794E+02  0.54367106338E+02  0.40000050520E+02 0.  0.
        -12    1    3    3    0    0 -0.47412717145E+01 -0.25002677249E+02 -0.26611363794E+02  0.36820893662E+02  0.00000000000E+00 0.  1.
         11    1    4    4    0    0  0.10798985698E+02  0.78660246434E+01  0.10127643303E+02  0.16764891737E+02  0.51100000000E-03 0. -1.
        -11    1    4    4    0    0 -0.91261433070E+01 -0.54594185301E+01  0.27569367111E+01  0.10986011225E+02  0.51100000000E-03 0.  1.
         12    1    4    4    0    0  0.30684293234E+01  0.22596071135E+02  0.13726783780E+02  0.26616203377E+02  0.00000000000E+00 0. -1.
</event>
<event>
 8    1  0.1253488E-006  0.9118800E+02  0.7816164E-02  0.1184000E+00
        -11   -1    0    0    0    0  0.00000000000E+00  0.00000000000E+00  0.45593999997E+02  0.45594000000E+02  0.51100000000E-03 0. -1.
         11   -1    0    0    0    0 -0.00000000000E+00 -0.00000000000E+00 -0.45593999997E+02  0.45594000000E+02  0.51100000000E-03 0.  1.
         23    2    1    2    0    0  0.35527136788E-14  0.00000000000E+00  0.14432899320E-14  0.91188000000E+02  0.91188000000E+02 0.  0.
    9900012    2    3    3    0    0 -0.23867643951E+02 -0.28035704853E+02 -0.33933142095E+00  0.54367077684E+02  0.39999985196E+02 0.  0.
        -12    1    3    3    0    0  0.23867643951E+02  0.28035704853E+02  0.33933142095E+00  0.36820922316E+02  0.00000000000E+00 0.  1.
         11    1    4    4    0    0 -0.19201651856E+02 -0.24447399997E+02  0.85458337338E+01  0.32239883298E+02  0.51100000000E-03 0. -1.
        -11    1    4    4    0    0 -0.12112070769E+02 -0.41239442972E+01 -0.53807706482E+01  0.13880269014E+02  0.51100000000E-03 0.  1.
        -12    1    4    4    0    0  0.74460786738E+01  0.53563944078E+00 -0.35043945065E+01  0.82469253716E+01  0.00000000000E+00 0.  1.
</event>
<event>
 8    1  0.1253488E-006  0.9118800E+02  0.7816164E-02  0.1184000E+00
        -11   -1    0    0    0    0  0.00000000000E+00  0.00000000000E+00  0.45593999997E+02  0.45594000000E+02  0.51100000000E-03 0. -1.
         11   -1    0    0    0    0 -0.00000000000E+00 -0.00000000000E+00 -0.45593999997E+02  0.45594000000E+02  0.51100000000E-03 0.  1.
         23    2    1    2    0    0  0.35527136788E-14  0.00000000000E+00  0.00000000000E+00  0.91188000000E+02  0.91188000000E+02 0.  0.
    9900012    2    3    3    0    0  0.11176751954E+02 -0.34835902185E+02  0.41618371898E+01  0.54367071792E+02  0.39999971764E+02 0.  0.
        -12    1    3    3    0    0 -0.11176751954E+02  0.34835902185E+02 -0.41618371898E+01  0.36820928208E+02  0.00000000000E+00 0.  1.
         11    1    4    4    0    0  0.19231431483E+02 -0.14816343960E+02  0.20449899707E+01  0.24362963479E+02  0.51100000000E-03 0. -1.
        -11    1    4    4    0    0 -0.12235166406E+02 -0.15344316039E+02  0.81976738778E+01  0.21268502274E+02  0.51100000000E-03 0.  1.
        -12    1    4    4    0    0  0.41804868763E+01 -0.46752421860E+01 -0.60808266587E+01  0.87356060393E+01  0.00000000000E+00 0.  1.
</event>
<event>
 8    1  0.1253488E-006  0.9118800E+02  0.7816164E-02  0.1184000E+00
        -11   -1    0    0    0    0  0.00000000000E+00  0.00000000000E+00  0.45593999997E+02  0.45594000000E+02  0.51100000000E-03 0. -1.
         11   -1    0    0    0    0 -0.00000000000E+00 -0.00000000000E+00 -0.45593999997E+02  0.45594000000E+02  0.51100000000E-03 0.  1.
         23    2    1    2    0    0 -0.17763568394E-14  0.00000000000E+00  0.00000000000E+00  0.91188000000E+02  0.91188000000E+02 0.  0.
    9900012    2    3    3    0    0  0.10403018364E+02 -0.56344862773E+01  0.34868424814E+02  0.54367119026E+02  0.40000079444E+02 0.  0.
        -12    1    3    3    0    0 -0.10403018364E+02  0.56344862773E+01 -0.34868424814E+02  0.36820880974E+02  0.00000000000E+00 0.  1.
         11    1    4    4    0    0 -0.51099288632E+01 -0.93028448612E+01  0.20676137061E+02  0.23241276633E+02  0.51100000000E-03 0. -1.
        -11    1    4    4    0    0  0.42940143249E+01 -0.86260832969E+01  0.63055851969E+00  0.96563697306E+01  0.51100000000E-03 0.  1.
        -12    1    4    4    0    0  0.11218932902E+02  0.12294441881E+02  0.13561729234E+02  0.21469472663E+02  0.00000000000E+00 0.  1.
</event>
<event>
 8    1  0.1253488E-006  0.9118800E+02  0.7816164E-02  0.1184000E+00
        -11   -1    0    0    0    0  0.00000000000E+00  0.00000000000E+00  0.45593999997E+02  0.45594000000E+02  0.51100000000E-03 0.  1.
         11   -1    0    0    0    0 -0.00000000000E+00 -0.00000000000E+00 -0.45593999997E+02  0.45594000000E+02  0.51100000000E-03 0. -1.
         23    2    1    2    0    0  0.00000000000E+00  0.00000000000E+00  0.00000000000E+00  0.91188000000E+02  0.91188000000E+02 0.  0.
    9900012    2    3    3    0    0 -0.15016063509E+02 -0.28044422272E+02 -0.18542035432E+02  0.54367097487E+02  0.40000030342E+02 0.  0.
        -12    1    3    3    0    0  0.15016063509E+02  0.28044422272E+02  0.18542035432E+02  0.36820902513E+02  0.00000000000E+00 0.  1.
         11    1    4    4    0    0 -0.46927814842E+01  0.55306443621E+01 -0.92237465274E-01  0.72538771102E+01  0.51100000000E-03 0.  1.
        -11    1    4    4    0    0 -0.10883990720E+02 -0.11789357521E+01 -0.44732904101E+01  0.11826304192E+02  0.51100000000E-03 0. -1.
        -12    1    4    4    0    0  0.56070869470E+00 -0.32396130882E+02 -0.13976507556E+02  0.35286916185E+02  0.00000000000E+00 0.  1.
</event>
<event>
 8    1  0.1253488E-006  0.9118800E+02  0.7816164E-02  0.1184000E+00
        -11   -1    0    0    0    0  0.00000000000E+00  0.00000000000E+00  0.45593999997E+02  0.45594000000E+02  0.51100000000E-03 0. -1.
         11   -1    0    0    0    0 -0.00000000000E+00 -0.00000000000E+00 -0.45593999997E+02  0.45594000000E+02  0.51100000000E-03 0.  1.
         23    2    1    2    0    0 -0.35527136788E-14  0.35527136788E-14  0.00000000000E+00  0.91188000000E+02  0.91188000000E+02 0.  0.
    9900012    2    3    3    0    0 -0.16629200609E+02  0.23890244763E+02  0.22550066055E+02  0.54367087643E+02  0.40000007899E+02 0.  0.
        -12    1    3    3    0    0  0.16629200609E+02 -0.23890244763E+02 -0.22550066055E+02  0.36820912357E+02  0.00000000000E+00 0.  1.
         11    1    4    4    0    0  0.33131832197E+01  0.57389423826E+01  0.16603213128E+02  0.17876781846E+02  0.51100000000E-03 0. -1.
        -11    1    4    4    0    0 -0.45672934971E+01 -0.57958485895E+01  0.26561497634E+01  0.78426502274E+01  0.51100000000E-03 0.  1.
        -12    1    4    4    0    0 -0.15375090332E+02  0.23947150970E+02  0.32907031628E+01  0.28647655569E+02  0.00000000000E+00 0.  1.
</event>
<event>
 8    1  0.1253488E-006  0.9118800E+02  0.7816164E-02  0.1184000E+00
        -11   -1    0    0    0    0  0.00000000000E+00  0.00000000000E+00  0.45593999997E+02  0.45594000000E+02  0.51100000000E-03 0.  1.
         11   -1    0    0    0    0 -0.00000000000E+00 -0.00000000000E+00 -0.45593999997E+02  0.45594000000E+02  0.51100000000E-03 0. -1.
         23    2    1    2    0    0  0.88817841970E-15  0.00000000000E+00 -0.17763568394E-14  0.91188000000E+02  0.91188000000E+02 0.  0.
    9900012    2    3    3    0    0  0.25238917358E+01  0.35270967679E+02 -0.10264848961E+02  0.54367104917E+02  0.40000047279E+02 0.  0.
        -12    1    3    3    0    0 -0.25238917358E+01 -0.35270967679E+02  0.10264848961E+02  0.36820895083E+02  0.00000000000E+00 0.  1.
         11    1    4    4    0    0 -0.14602421248E+01  0.22189278310E+02 -0.15329554883E+02  0.27009102765E+02  0.51100000000E-03 0. -1.
        -11    1    4    4    0    0 -0.80037269072E+01  0.12425305845E+02  0.39610642529E+01  0.15301565280E+02  0.51100000000E-03 0.  1.
        -12    1    4    4    0    0  0.11987860768E+02  0.65638352507E+00  0.11036416692E+01  0.12056436872E+02  0.00000000000E+00 0.  1.
</event>
<event>
 8    1  0.1253488E-006  0.9118800E+02  0.7816164E-02  0.1184000E+00
        -11   -1    0    0    0    0  0.00000000000E+00  0.00000000000E+00  0.45593999997E+02  0.45594000000E+02  0.51100000000E-03 0.  1.
         11   -1    0    0    0    0 -0.00000000000E+00 -0.00000000000E+00 -0.45593999997E+02  0.45594000000E+02  0.51100000000E-03 0. -1.
         23    2    1    2    0    0  0.71054273576E-14  0.00000000000E+00  0.00000000000E+00  0.91188000000E+02  0.91188000000E+02 0.  0.
    9900012    2    3    3    0    0  0.18845935297E+02  0.29913226409E+02  0.10286398966E+02  0.54367076667E+02  0.39999982877E+02 0.  0.
         12    1    3    3    0    0 -0.18845935297E+02 -0.29913226409E+02 -0.10286398966E+02  0.36820923333E+02  0.00000000000E+00 0. -1.
         11    1    4    4    0    0 -0.53144298834E+00  0.14187679952E+01 -0.50392316736E+01  0.52620519188E+01  0.51100000000E-03 0. -1.
        -11    1    4    4    0    0  0.28821209515E+01  0.29395302524E+02  0.60164255109E+01  0.30142790313E+02  0.51100000000E-03 0.  1.
         12    1    4    4    0    0  0.16495257334E+02 -0.90084411028E+00  0.93092051284E+01  0.18962234435E+02  0.00000000000E+00 0. -1.
</event>
<event>
 8    1  0.1253488E-006  0.9118800E+02  0.7816164E-02  0.1184000E+00
        -11   -1    0    0    0    0  0.00000000000E+00  0.00000000000E+00  0.45593999997E+02  0.45594000000E+02  0.51100000000E-03 0. -1.
         11   -1    0    0    0    0 -0.00000000000E+00 -0.00000000000E+00 -0.45593999997E+02  0.45594000000E+02  0.51100000000E-03 0.  1.
         23    2    1    2    0    0  0.00000000000E+00  0.44408920985E-15  0.00000000000E+00  0.91188000000E+02  0.91188000000E+02 0.  0.
    9900012    2    3    3    0    0  0.35250060325E+02  0.30423211650E+01 -0.10195907963E+02  0.54367095473E+02  0.40000025749E+02 0.  0.
         12    1    3    3    0    0 -0.35250060325E+02 -0.30423211650E+01  0.10195907963E+02  0.36820904527E+02  0.00000000000E+00 0. -1.
         11    1    4    4    0    0  0.12034514857E+02 -0.33893930181E+01 -0.20256279652E+02  0.23804083652E+02  0.51100000000E-03 0. -1.
        -11    1    4    4    0    0  0.51928650861E+01 -0.25158938825E+01  0.86422696009E+01  0.10391553972E+02  0.51100000000E-03 0.  1.
         12    1    4    4    0    0  0.18022680382E+02  0.89476080657E+01  0.14181020882E+01  0.20171457850E+02  0.00000000000E+00 0. -1.
</event>
<event>
 8    1  0.1253488E-006  0.9118800E+02  0.7816164E-02  0.1184000E+00
        -11   -1    0    0    0    0  0.00000000000E+00  0.00000000000E+00  0.45593999997E+02  0.45594000000E+02  0.51100000000E-03 0. -1.
         11   -1    0    0    0    0 -0.00000000000E+00 -0.00000000000E+00 -0.45593999997E+02  0.45594000000E+02  0.51100000000E-03 0.  1.
         23    2    1    2    0    0  0.17763568394E-14  0.35527136788E-14 -0.35527136788E-14  0.91188000000E+02  0.91188000000E+02 0.  0.
    9900012    2    3    3    0    0  0.10291689380E+02  0.16386532575E+02 -0.31326391060E+02  0.54367080715E+02  0.39999992107E+02 0.  0.
         12    1    3    3    0    0 -0.10291689380E+02 -0.16386532575E+02  0.31326391060E+02  0.36820919285E+02  0.00000000000E+00 0. -1.
         11    1    4    4    0    0 -0.76129416819E+01  0.78652451521E-01 -0.19840048010E+02  0.21250660521E+02  0.51100000000E-03 0. -1.
        -11    1    4    4    0    0  0.66568437964E+01  0.14602192223E+02 -0.14191540390E+02  0.21422824416E+02  0.51100000000E-03 0.  1.
        -12    1    4    4    0    0  0.11247787266E+02  0.17056879002E+01  0.27051973404E+01  0.11693595779E+02  0.00000000000E+00 0.  1.
</event>
<event>
 8    1  0.1253488E-006  0.9118800E+02  0.7816164E-02  0.1184000E+00
        -11   -1    0    0    0    0  0.00000000000E+00  0.00000000000E+00  0.45593999997E+02  0.45594000000E+02  0.51100000000E-03 0. -1.
         11   -1    0    0    0    0 -0.00000000000E+00 -0.00000000000E+00 -0.45593999997E+02  0.45594000000E+02  0.51100000000E-03 0.  1.
         23    2    1    2    0    0 -0.35527136788E-14  0.00000000000E+00  0.00000000000E+00  0.91188000000E+02  0.91188000000E+02 0.  0.
    9900012    2    3    3    0    0 -0.21326998528E+02 -0.27720715505E+02 -0.11510909731E+02  0.54367082342E+02  0.39999995815E+02 0.  0.
         12    1    3    3    0    0  0.21326998528E+02  0.27720715505E+02  0.11510909731E+02  0.36820917658E+02  0.00000000000E+00 0. -1.
         11    1    4    4    0    0 -0.74718054416E+01 -0.13198297563E+01 -0.53054067757E+01  0.92583566824E+01  0.51100000000E-03 0. -1.
        -11    1    4    4    0    0 -0.37169335759E+01 -0.22352040495E+01 -0.16419282741E+02  0.16982478568E+02  0.51100000000E-03 0.  1.
         12    1    4    4    0    0 -0.10138259511E+02 -0.24165681700E+02  0.10213779786E+02  0.28126247091E+02  0.00000000000E+00 0. -1.
</event>
<event>
 8    1  0.1253488E-006  0.9118800E+02  0.7816164E-02  0.1184000E+00
        -11   -1    0    0    0    0  0.00000000000E+00  0.00000000000E+00  0.45593999997E+02  0.45594000000E+02  0.51100000000E-03 0. -1.
         11   -1    0    0    0    0 -0.00000000000E+00 -0.00000000000E+00 -0.45593999997E+02  0.45594000000E+02  0.51100000000E-03 0.  1.
         23    2    1    2    0    0 -0.88817841970E-15  0.00000000000E+00  0.22204460493E-15  0.91188000000E+02  0.91188000000E+02 0.  0.
    9900012    2    3    3    0    0  0.43253116745E+01  0.36521524173E+02 -0.18028028070E+01  0.54367080036E+02  0.39999990558E+02 0.  0.
         12    1    3    3    0    0 -0.43253116745E+01 -0.36521524173E+02  0.18028028070E+01  0.36820919964E+02  0.00000000000E+00 0. -1.
         11    1    4    4    0    0  0.53134792167E+01 -0.11320176861E+01  0.80845848784E+00  0.54925523043E+01  0.51100000000E-03 0. -1.
        -11    1    4    4    0    0  0.70091192894E+01  0.35409991293E+02 -0.10319190533E+02  0.37543054352E+02  0.51100000000E-03 0.  1.
        -12    1    4    4    0    0 -0.79972868315E+01  0.22435505666E+01  0.77079292381E+01  0.11331473379E+02  0.00000000000E+00 0.  1.
</event>
<event>
 8    1  0.1253488E-006  0.9118800E+02  0.7816164E-02  0.1184000E+00
        -11   -1    0    0    0    0  0.00000000000E+00  0.00000000000E+00  0.45593999997E+02  0.45594000000E+02  0.51100000000E-03 0. -1.
         11   -1    0    0    0    0 -0.00000000000E+00 -0.00000000000E+00 -0.45593999997E+02  0.45594000000E+02  0.51100000000E-03 0.  1.
         23    2    1    2    0    0 -0.23314683517E-14  0.35527136788E-14  0.00000000000E+00  0.91188000000E+02  0.91188000000E+02 0.  0.
    9900012    2    3    3    0    0 -0.86480730158E+00 -0.31540341633E+02 -0.18979937613E+02  0.54367094610E+02  0.40000023781E+02 0.  0.
         12    1    3    3    0    0  0.86480730158E+00  0.31540341633E+02  0.18979937613E+02  0.36820905390E+02  0.00000000000E+00 0. -1.
         11    1    4    4    0    0  0.10879174786E+02 -0.11483041400E+01 -0.31701974118E+00  0.10944201579E+02  0.51100000000E-03 0. -1.
        -11    1    4    4    0    0 -0.65319317105E+00 -0.70768721756E+01 -0.15950490935E+02  0.17462157439E+02  0.51100000000E-03 0.  1.
         12    1    4    4    0    0 -0.11090788916E+02 -0.23315165317E+02 -0.27124269366E+01  0.25960735591E+02  0.00000000000E+00 0. -1.
</event>
<event>
 8    1  0.1253488E-006  0.9118800E+02  0.7816164E-02  0.1184000E+00
        -11   -1    0    0    0    0  0.00000000000E+00  0.00000000000E+00  0.45593999997E+02  0.45594000000E+02  0.51100000000E-03 0. -1.
         11   -1    0    0    0    0 -0.00000000000E+00 -0.00000000000E+00 -0.45593999997E+02  0.45594000000E+02  0.51100000000E-03 0.  1.
         23    2    1    2    0    0 -0.17763568394E-14  0.00000000000E+00  0.00000000000E+00  0.91188000000E+02  0.91188000000E+02 0.  0.
    9900012    2    3    3    0    0 -0.80455389309E+01  0.35433769939E+02 -0.59580254370E+01  0.54367070953E+02  0.39999969851E+02 0.  0.
         12    1    3    3    0    0  0.80455389309E+01 -0.35433769939E+02  0.59580254370E+01  0.36820929047E+02  0.00000000000E+00 0. -1.
         11    1    4    4    0    0 -0.86069356891E+01 -0.66770116282E+01  0.33534181033E+00  0.10898361374E+02  0.51100000000E-03 0.  1.
        -11    1    4    4    0    0  0.14877225884E+01  0.77606379227E+01  0.19333442887E+01  0.81350254988E+01  0.51100000000E-03 0. -1.
        -12    1    4    4    0    0 -0.92632583012E+00  0.34350143645E+02 -0.82267115360E+01  0.35333684080E+02  0.00000000000E+00 0.  1.
</event>
<event>
 8    1  0.1253488E-006  0.9118800E+02  0.7816164E-02  0.1184000E+00
        -11   -1    0    0    0    0  0.00000000000E+00  0.00000000000E+00  0.45593999997E+02  0.45594000000E+02  0.51100000000E-03 0. -1.
         11   -1    0    0    0    0 -0.00000000000E+00 -0.00000000000E+00 -0.45593999997E+02  0.45594000000E+02  0.51100000000E-03 0.  1.
         23    2    1    2    0    0  0.00000000000E+00 -0.71054273576E-14  0.88817841970E-15  0.91188000000E+02  0.91188000000E+02 0.  0.
    9900012    2    3    3    0    0  0.51641240979E+01  0.35918547412E+02  0.62425547969E+01  0.54367085885E+02  0.40000003892E+02 0.  0.
        -12    1    3    3    0    0 -0.51641240979E+01 -0.35918547412E+02 -0.62425547969E+01  0.36820914115E+02  0.00000000000E+00 0.  1.
         11    1    4    4    0    0 -0.18019763376E+01  0.30476514361E+02  0.82945139194E+01  0.31636434814E+02  0.51100000000E-03 0. -1.
        -11    1    4    4    0    0  0.10168360319E+01 -0.34801985838E+01  0.75250196358E+01  0.83529431028E+01  0.51100000000E-03 0.  1.
        -12    1    4    4    0    0  0.59492644036E+01  0.89222316351E+01 -0.95769787583E+01  0.14377707969E+02  0.00000000000E+00 0.  1.
</event>
<event>
 8    1  0.1253488E-006  0.9118800E+02  0.7816164E-02  0.1184000E+00
        -11   -1    0    0    0    0  0.00000000000E+00  0.00000000000E+00  0.45593999997E+02  0.45594000000E+02  0.51100000000E-03 0. -1.
         11   -1    0    0    0    0 -0.00000000000E+00 -0.00000000000E+00 -0.45593999997E+02  0.45594000000E+02  0.51100000000E-03 0.  1.
         23    2    1    2    0    0  0.00000000000E+00 -0.35527136788E-14  0.35527136788E-14  0.91188000000E+02  0.91188000000E+02 0.  0.
    9900012    2    3    3    0    0 -0.17553731444E+02 -0.16673109743E+02  0.27742638788E+02  0.54367080904E+02  0.39999992538E+02 0.  0.
        -12    1    3    3    0    0  0.17553731444E+02  0.16673109743E+02 -0.27742638788E+02  0.36820919096E+02  0.00000000000E+00 0.  1.
         11    1    4    4    0    0 -0.15193609984E+02  0.56569762377E+00  0.22291942273E+02  0.26983263122E+02  0.51100000000E-03 0. -1.
        -11    1    4    4    0    0  0.35903499931E+01  0.24844464018E+01  0.51880956758E+01  0.67808129306E+01  0.51100000000E-03 0.  1.
        -12    1    4    4    0    0 -0.59504714535E+01 -0.19723253768E+02  0.26260083948E+00  0.20603004852E+02  0.00000000000E+00 0.  1.
</event>
<event>
 8    1  0.1253488E-006  0.9118800E+02  0.7816164E-02  0.1184000E+00
        -11   -1    0    0    0    0  0.00000000000E+00  0.00000000000E+00  0.45593999997E+02  0.45594000000E+02  0.51100000000E-03 0. -1.
         11   -1    0    0    0    0 -0.00000000000E+00 -0.00000000000E+00 -0.45593999997E+02  0.45594000000E+02  0.51100000000E-03 0.  1.
         23    2    1    2    0    0  0.00000000000E+00 -0.13322676296E-14  0.00000000000E+00  0.91188000000E+02  0.91188000000E+02 0.  0.
    9900012    2    3    3    0    0  0.33989148340E+02  0.30745205988E+01  0.13822638767E+02  0.54367078987E+02  0.39999988166E+02 0.  0.
        -12    1    3    3    0    0 -0.33989148340E+02 -0.30745205988E+01 -0.13822638767E+02  0.36820921013E+02  0.00000000000E+00 0.  1.
         11    1    4    4    0    0  0.19294012469E+02  0.13875491340E+02  0.68314675575E+01  0.24727659136E+02  0.51100000000E-03 0. -1.
        -11    1    4    4    0    0  0.85847817868E+01 -0.57999726738E+01 -0.77353948856E+01  0.12929597660E+02  0.51100000000E-03 0.  1.
         12    1    4    4    0    0  0.61103540835E+01 -0.50009980675E+01  0.14726566095E+02  0.16709822191E+02  0.00000000000E+00 0. -1.
</event>
<event>
 8    1  0.1253488E-006  0.9118800E+02  0.7816164E-02  0.1184000E+00
        -11   -1    0    0    0    0  0.00000000000E+00  0.00000000000E+00  0.45593999997E+02  0.45594000000E+02  0.51100000000E-03 0.  1.
         11   -1    0    0    0    0 -0.00000000000E+00 -0.00000000000E+00 -0.45593999997E+02  0.45594000000E+02  0.51100000000E-03 0. -1.
         23    2    1    2    0    0  0.35527136788E-14 -0.35527136788E-14 -0.71054273576E-14  0.91188000000E+02  0.91188000000E+02 0.  0.
    9900012    2    3    3    0    0 -0.19660075816E+02  0.23377208823E+02  0.20561274269E+02  0.54367102767E+02  0.40000042379E+02 0.  0.
         12    1    3    3    0    0  0.19660075816E+02 -0.23377208823E+02 -0.20561274269E+02  0.36820897233E+02  0.00000000000E+00 0. -1.
         11    1    4    4    0    0 -0.14968473536E+01  0.61910617998E+01  0.91984865590E+01  0.11188474134E+02  0.51100000000E-03 0. -1.
        -11    1    4    4    0    0 -0.12679428992E+02  0.24244479326E+02  0.17371160952E+02  0.32408639750E+02  0.51100000000E-03 0.  1.
         12    1    4    4    0    0 -0.54837994701E+01 -0.70583323032E+01 -0.60083732419E+01  0.10769988883E+02  0.00000000000E+00 0. -1.
</event>
<event>
 8    1  0.1253488E-006  0.9118800E+02  0.7816164E-02  0.1184000E+00
        -11   -1    0    0    0    0  0.00000000000E+00  0.00000000000E+00  0.45593999997E+02  0.45594000000E+02  0.51100000000E-03 0. -1.
         11   -1    0    0    0    0 -0.00000000000E+00 -0.00000000000E+00 -0.45593999997E+02  0.45594000000E+02  0.51100000000E-03 0.  1.
         23    2    1    2    0    0  0.00000000000E+00  0.00000000000E+00  0.00000000000E+00  0.91188000000E+02  0.91188000000E+02 0.  0.
    9900012    2    3    3    0    0 -0.74533748491E+01 -0.35726800112E+02 -0.48811046358E+01  0.54367051813E+02  0.39999926219E+02 0.  0.
        -12    1    3    3    0    0  0.74533748491E+01  0.35726800112E+02  0.48811046358E+01  0.36820948187E+02  0.00000000000E+00 0.  1.
         11    1    4    4    0    0 -0.54077129189E+01 -0.43860512346E+01  0.88502709396E+01  0.11260910283E+02  0.51100000000E-03 0.  1.
        -11    1    4    4    0    0 -0.10799730699E+02 -0.81423686850E+01 -0.12280438276E+02  0.18268593692E+02  0.51100000000E-03 0. -1.
        -12    1    4    4    0    0  0.87540687689E+01 -0.23198380192E+02 -0.14509372999E+01  0.24837547838E+02  0.00000000000E+00 0.  1.
</event>
<event>
 8    1  0.1253488E-006  0.9118800E+02  0.7816164E-02  0.1184000E+00
        -11   -1    0    0    0    0  0.00000000000E+00  0.00000000000E+00  0.45593999997E+02  0.45594000000E+02  0.51100000000E-03 0.  1.
         11   -1    0    0    0    0 -0.00000000000E+00 -0.00000000000E+00 -0.45593999997E+02  0.45594000000E+02  0.51100000000E-03 0. -1.
         23    2    1    2    0    0  0.88817841970E-15  0.00000000000E+00  0.00000000000E+00  0.91188000000E+02  0.91188000000E+02 0.  0.
    9900012    2    3    3    0    0  0.47644269480E+01  0.23651386788E+02 -0.27815342713E+02  0.54367066397E+02  0.39999959466E+02 0.  0.
        -12    1    3    3    0    0 -0.47644269480E+01 -0.23651386788E+02  0.27815342713E+02  0.36820933603E+02  0.00000000000E+00 0.  1.
         11    1    4    4    0    0  0.12363169926E+02  0.23948556312E+02 -0.64267072117E+01  0.27707108941E+02  0.51100000000E-03 0. -1.
        -11    1    4    4    0    0 -0.42820612101E+01 -0.69523183241E+01 -0.85438497423E+01  0.11818127896E+02  0.51100000000E-03 0.  1.
         12    1    4    4    0    0 -0.33166817677E+01  0.66551488002E+01 -0.12844785759E+02  0.14841829560E+02  0.00000000000E+00 0. -1.
</event>
<event>
 8    1  0.1253488E-006  0.9118800E+02  0.7816164E-02  0.1184000E+00
        -11   -1    0    0    0    0  0.00000000000E+00  0.00000000000E+00  0.45593999997E+02  0.45594000000E+02  0.51100000000E-03 0.  1.
         11   -1    0    0    0    0 -0.00000000000E+00 -0.00000000000E+00 -0.45593999997E+02  0.45594000000E+02  0.51100000000E-03 0. -1.
         23    2    1    2    0    0  0.35527136788E-14  0.00000000000E+00  0.00000000000E+00  0.91188000000E+02  0.91188000000E+02 0.  0.
    9900012    2    3    3    0    0  0.27739117860E+02  0.43596689571E+01 -0.23818362512E+02  0.54367085212E+02  0.40000002358E+02 0.  0.
         12    1    3    3    0    0 -0.27739117860E+02 -0.43596689571E+01  0.23818362512E+02  0.36820914788E+02  0.00000000000E+00 0. -1.
         11    1    4    4    0    0  0.16596653491E+02 -0.15690309463E+02 -0.63120394035E+01  0.23695496615E+02  0.51100000000E-03 0. -1.
        -11    1    4    4    0    0  0.28222964314E+01  0.13951073831E+02 -0.13460882515E+02  0.19590640024E+02  0.51100000000E-03 0.  1.
        -12    1    4    4    0    0  0.83201679370E+01  0.60989045890E+01 -0.40454405933E+01  0.11080948573E+02  0.00000000000E+00 0.  1.
</event>
<event>
 8    1  0.1253488E-006  0.9118800E+02  0.7816164E-02  0.1184000E+00
        -11   -1    0    0    0    0  0.00000000000E+00  0.00000000000E+00  0.45593999997E+02  0.45594000000E+02  0.51100000000E-03 0.  1.
         11   -1    0    0    0    0 -0.00000000000E+00 -0.00000000000E+00 -0.45593999997E+02  0.45594000000E+02  0.51100000000E-03 0. -1.
         23    2    1    2    0    0  0.00000000000E+00  0.00000000000E+00  0.00000000000E+00  0.91188000000E+02  0.91188000000E+02 0.  0.
    9900012    2    3    3    0    0  0.83534324571E+01  0.27128413802E+02  0.23453164763E+02  0.54367060215E+02  0.39999945372E+02 0.  0.
         12    1    3    3    0    0 -0.83534324571E+01 -0.27128413802E+02 -0.23453164763E+02  0.36820939785E+02  0.00000000000E+00 0. -1.
         11    1    4    4    0    0  0.89506593363E+01  0.15980457522E+02  0.18889768675E+02  0.26311835475E+02  0.51100000000E-03 0. -1.
        -11    1    4    4    0    0 -0.91951430209E+01  0.11579164727E+02  0.10021355106E+02  0.17862118278E+02  0.51100000000E-03 0.  1.
         12    1    4    4    0    0  0.85979161417E+01 -0.43120844763E+00 -0.54579590178E+01  0.10193106462E+02  0.00000000000E+00 0. -1.
</event>
<event>
 8    1  0.1253488E-006  0.9118800E+02  0.7816164E-02  0.1184000E+00
        -11   -1    0    0    0    0  0.00000000000E+00  0.00000000000E+00  0.45593999997E+02  0.45594000000E+02  0.51100000000E-03 0. -1.
         11   -1    0    0    0    0 -0.00000000000E+00 -0.00000000000E+00 -0.45593999997E+02  0.45594000000E+02  0.51100000000E-03 0.  1.
         23    2    1    2    0    0  0.00000000000E+00  0.71054273576E-14  0.00000000000E+00  0.91188000000E+02  0.91188000000E+02 0.  0.
    9900012    2    3    3    0    0 -0.79756715754E+01 -0.35658319829E+02 -0.45446470995E+01  0.54367069439E+02  0.39999966400E+02 0.  0.
         12    1    3    3    0    0  0.79756715754E+01  0.35658319829E+02  0.45446470995E+01  0.36820930561E+02  0.00000000000E+00 0. -1.
         11    1    4    4    0    0 -0.21082395063E+02 -0.17636264741E+02  0.20121417770E+01  0.27560005994E+02  0.51100000000E-03 0. -1.
        -11    1    4    4    0    0  0.18186405327E+01 -0.13755990363E+02 -0.43335403155E+01  0.14536653541E+02  0.51100000000E-03 0.  1.
         12    1    4    4    0    0  0.11288082955E+02 -0.42660647254E+01 -0.22232485610E+01  0.12270409904E+02  0.00000000000E+00 0. -1.
</event>
<event>
 8    1  0.1253488E-006  0.9118800E+02  0.7816164E-02  0.1184000E+00
        -11   -1    0    0    0    0  0.00000000000E+00  0.00000000000E+00  0.45593999997E+02  0.45594000000E+02  0.51100000000E-03 0. -1.
         11   -1    0    0    0    0 -0.00000000000E+00 -0.00000000000E+00 -0.45593999997E+02  0.45594000000E+02  0.51100000000E-03 0.  1.
         23    2    1    2    0    0  0.00000000000E+00 -0.17763568394E-14  0.17763568394E-14  0.91188000000E+02  0.91188000000E+02 0.  0.
    9900012    2    3    3    0    0 -0.32738947232E+02  0.96103241463E+01  0.13841370945E+02  0.54367074621E+02  0.39999978215E+02 0.  0.
        -12    1    3    3    0    0  0.32738947232E+02 -0.96103241463E+01 -0.13841370945E+02  0.36820925379E+02  0.00000000000E+00 0.  1.
         11    1    4    4    0    0 -0.29869064975E+02  0.11398818489E+02  0.25378384563E+01  0.32070776880E+02  0.51100000000E-03 0. -1.
        -11    1    4    4    0    0 -0.26109804001E+01  0.78716358910E+01  0.13127350547E+01  0.83966150225E+01  0.51100000000E-03 0.  1.
         12    1    4    4    0    0 -0.25890185771E+00 -0.96601302341E+01  0.99907974342E+01  0.13899682719E+02  0.00000000000E+00 0. -1.
</event>
<event>
 8    1  0.1253488E-006  0.9118800E+02  0.7816164E-02  0.1184000E+00
        -11   -1    0    0    0    0  0.00000000000E+00  0.00000000000E+00  0.45593999997E+02  0.45594000000E+02  0.51100000000E-03 0. -1.
         11   -1    0    0    0    0 -0.00000000000E+00 -0.00000000000E+00 -0.45593999997E+02  0.45594000000E+02  0.51100000000E-03 0.  1.
         23    2    1    2    0    0 -0.35527136788E-14  0.00000000000E+00  0.00000000000E+00  0.91188000000E+02  0.91188000000E+02 0.  0.
    9900012    2    3    3    0    0  0.15065363005E+02 -0.19036667644E+02 -0.27684300143E+02  0.54367077254E+02  0.39999984216E+02 0.  0.
         12    1    3    3    0    0 -0.15065363005E+02  0.19036667644E+02  0.27684300143E+02  0.36820922746E+02  0.00000000000E+00 0. -1.
         11    1    4    4    0    0  0.18241007751E+01  0.11340036976E+01 -0.17533746965E+00  0.21550061516E+01  0.51100000000E-03 0. -1.
        -11    1    4    4    0    0 -0.69975044156E+01  0.58442492404E+01 -0.13743895751E+02  0.16492876884E+02  0.51100000000E-03 0.  1.
        -12    1    4    4    0    0  0.20238766646E+02 -0.26014920582E+02 -0.13765066922E+02  0.35719194218E+02  0.00000000000E+00 0.  1.
</event>
<event>
 8    1  0.1253488E-006  0.9118800E+02  0.7816164E-02  0.1184000E+00
        -11   -1    0    0    0    0  0.00000000000E+00  0.00000000000E+00  0.45593999997E+02  0.45594000000E+02  0.51100000000E-03 0.  1.
         11   -1    0    0    0    0 -0.00000000000E+00 -0.00000000000E+00 -0.45593999997E+02  0.45594000000E+02  0.51100000000E-03 0. -1.
         23    2    1    2    0    0 -0.71054273576E-14  0.00000000000E+00  0.35527136788E-14  0.91188000000E+02  0.91188000000E+02 0.  0.
    9900012    2    3    3    0    0  0.30075707748E+02 -0.18456931641E+02 -0.10515503726E+02  0.54367050246E+02  0.39999922646E+02 0.  0.
        -12    1    3    3    0    0 -0.30075707748E+02  0.18456931641E+02  0.10515503726E+02  0.36820949754E+02  0.00000000000E+00 0.  1.
         11    1    4    4    0    0  0.86994743697E+01 -0.26474843811E+01 -0.51179627684E+01  0.10434729082E+02  0.51100000000E-03 0. -1.
        -11    1    4    4    0    0 -0.44191418053E+00  0.57798423088E+01  0.84596855614E+01  0.10255152135E+02  0.51100000000E-03 0.  1.
        -12    1    4    4    0    0  0.21818147559E+02 -0.21589289569E+02 -0.13857226519E+02  0.33677169029E+02  0.00000000000E+00 0.  1.
</event>
<event>
 8    1  0.1253488E-006  0.9118800E+02  0.7816164E-02  0.1184000E+00
        -11   -1    0    0    0    0  0.00000000000E+00  0.00000000000E+00  0.45593999997E+02  0.45594000000E+02  0.51100000000E-03 0.  1.
         11   -1    0    0    0    0 -0.00000000000E+00 -0.00000000000E+00 -0.45593999997E+02  0.45594000000E+02  0.51100000000E-03 0. -1.
         23    2    1    2    0    0  0.35527136788E-14  0.26645352591E-14  0.35527136788E-14  0.91188000000E+02  0.91188000000E+02 0.  0.
    9900012    2    3    3    0    0  0.23756424342E+02  0.76734204315E+01  0.27065298742E+02  0.54367089166E+02  0.40000011373E+02 0.  0.
         12    1    3    3    0    0 -0.23756424342E+02 -0.76734204315E+01 -0.27065298742E+02  0.36820910834E+02  0.00000000000E+00 0. -1.
         11    1    4    4    0    0  0.13753345843E+02  0.11613338762E+02 -0.36773944396E+01  0.18372462796E+02  0.51100000000E-03 0. -1.
        -11    1    4    4    0    0  0.11759602771E+02 -0.30298469889E+01  0.11744897829E+02  0.16894107120E+02  0.51100000000E-03 0.  1.
        -12    1    4    4    0    0 -0.17565242725E+01 -0.91007134148E+00  0.18997795352E+02  0.19100519250E+02  0.00000000000E+00 0.  1.
</event>
<event>
 8    1  0.1253488E-006  0.9118800E+02  0.7816164E-02  0.1184000E+00
        -11   -1    0    0    0    0  0.00000000000E+00  0.00000000000E+00  0.45593999997E+02  0.45594000000E+02  0.51100000000E-03 0.  1.
         11   -1    0    0    0    0 -0.00000000000E+00 -0.00000000000E+00 -0.45593999997E+02  0.45594000000E+02  0.51100000000E-03 0. -1.
         23    2    1    2    0    0  0.00000000000E+00  0.35527136788E-14  0.00000000000E+00  0.91188000000E+02  0.91188000000E+02 0.  0.
    9900012    2    3    3    0    0 -0.54042352040E+01  0.28522342421E+02 -0.22650608129E+02  0.54367084423E+02  0.40000000559E+02 0.  0.
        -12    1    3    3    0    0  0.54042352040E+01 -0.28522342421E+02  0.22650608129E+02  0.36820915577E+02  0.00000000000E+00 0.  1.
         11    1    4    4    0    0  0.60932026755E+01  0.25396111591E+02 -0.23096786787E+02  0.34864755311E+02  0.51100000000E-03 0. -1.
        -11    1    4    4    0    0 -0.90144582801E+01  0.79887379525E+01 -0.37512551820E+01  0.12615558167E+02  0.51100000000E-03 0.  1.
        -12    1    4    4    0    0 -0.24829795994E+01 -0.48625071223E+01  0.41974338401E+01  0.68867709448E+01  0.00000000000E+00 0.  1.
</event>
<event>
 8    1  0.1253488E-006  0.9118800E+02  0.7816164E-02  0.1184000E+00
        -11   -1    0    0    0    0  0.00000000000E+00  0.00000000000E+00  0.45593999997E+02  0.45594000000E+02  0.51100000000E-03 0.  1.
         11   -1    0    0    0    0 -0.00000000000E+00 -0.00000000000E+00 -0.45593999997E+02  0.45594000000E+02  0.51100000000E-03 0. -1.
         23    2    1    2    0    0  0.00000000000E+00  0.00000000000E+00  0.00000000000E+00  0.91188000000E+02  0.91188000000E+02 0.  0.
    9900012    2    3    3    0    0 -0.14542078521E+02 -0.70016826551E+01 -0.33095062435E+02  0.54367098798E+02  0.40000033330E+02 0.  0.
        -12    1    3    3    0    0  0.14542078521E+02  0.70016826551E+01  0.33095062435E+02  0.36820901202E+02  0.00000000000E+00 0.  1.
         11    1    4    4    0    0 -0.78035262252E+01 -0.14922403866E+02 -0.23265654951E+01  0.16999590170E+02  0.51100000000E-03 0. -1.
        -11    1    4    4    0    0 -0.10877558783E+02 -0.69718837250E+00 -0.11425094495E+02  0.15790507946E+02  0.51100000000E-03 0.  1.
        -12    1    4    4    0    0  0.41390064867E+01  0.86179095835E+01 -0.19343402445E+02  0.21577000682E+02  0.00000000000E+00 0.  1.
</event>
<event>
 8    1  0.1253488E-006  0.9118800E+02  0.7816164E-02  0.1184000E+00
        -11   -1    0    0    0    0  0.00000000000E+00  0.00000000000E+00  0.45593999997E+02  0.45594000000E+02  0.51100000000E-03 0.  1.
         11   -1    0    0    0    0 -0.00000000000E+00 -0.00000000000E+00 -0.45593999997E+02  0.45594000000E+02  0.51100000000E-03 0. -1.
         23    2    1    2    0    0 -0.35527136788E-14  0.35527136788E-14  0.00000000000E+00  0.91188000000E+02  0.91188000000E+02 0.  0.
    9900012    2    3    3    0    0 -0.19106015780E+02 -0.22313905843E+02 -0.22199759005E+02  0.54367088375E+02  0.40000009570E+02 0.  0.
        -12    1    3    3    0    0  0.19106015780E+02  0.22313905843E+02  0.22199759005E+02  0.36820911625E+02  0.00000000000E+00 0.  1.
         11    1    4    4    0    0  0.10953747281E+01 -0.26778346988E+02 -0.17885234847E+02  0.32220511154E+02  0.51100000000E-03 0. -1.
        -11    1    4    4    0    0 -0.33724180332E+01  0.25885391047E+01  0.10589639252E+01  0.43812261917E+01  0.51100000000E-03 0.  1.
         12    1    4    4    0    0 -0.16828972475E+02  0.18759020399E+01 -0.53734880827E+01  0.17765351030E+02  0.00000000000E+00 0. -1.
</event>
<event>
 8    1  0.1253488E-006  0.9118800E+02  0.7816164E-02  0.1184000E+00
        -11   -1    0    0    0    0  0.00000000000E+00  0.00000000000E+00  0.45593999997E+02  0.45594000000E+02  0.51100000000E-03 0.  1.
         11   -1    0    0    0    0 -0.00000000000E+00 -0.00000000000E+00 -0.45593999997E+02  0.45594000000E+02  0.51100000000E-03 0. -1.
         23    2    1    2    0    0  0.00000000000E+00  0.17763568394E-14 -0.17763568394E-14  0.91188000000E+02  0.91188000000E+02 0.  0.
    9900012    2    3    3    0    0 -0.31474372067E+02 -0.14766733054E+02  0.12127977910E+02  0.54367077276E+02  0.39999984265E+02 0.  0.
         12    1    3    3    0    0  0.31474372067E+02  0.14766733054E+02 -0.12127977910E+02  0.36820922724E+02  0.00000000000E+00 0. -1.
         11    1    4    4    0    0 -0.19573088888E+02 -0.26548610318E+01  0.52627452662E+01  0.20441393879E+02  0.51100000000E-03 0. -1.
        -11    1    4    4    0    0 -0.19029668976E+02 -0.11200558102E+02  0.11964116602E+02  0.25114157152E+02  0.51100000000E-03 0.  1.
         12    1    4    4    0    0  0.71283857969E+01 -0.91131392022E+00 -0.50988839589E+01  0.88115262445E+01  0.00000000000E+00 0. -1.
</event>
<event>
 8    1  0.1253488E-006  0.9118800E+02  0.7816164E-02  0.1184000E+00
        -11   -1    0    0    0    0  0.00000000000E+00  0.00000000000E+00  0.45593999997E+02  0.45594000000E+02  0.51100000000E-03 0.  1.
         11   -1    0    0    0    0 -0.00000000000E+00 -0.00000000000E+00 -0.45593999997E+02  0.45594000000E+02  0.51100000000E-03 0. -1.
         23    2    1    2    0    0  0.35527136788E-14  0.35527136788E-14 -0.35527136788E-14  0.91188000000E+02  0.91188000000E+02 0.  0.
    9900012    2    3    3    0    0 -0.17431968895E+02 -0.27031992303E+02  0.17921441416E+02  0.54367079182E+02  0.39999988611E+02 0.  0.
         12    1    3    3    0    0  0.17431968895E+02  0.27031992303E+02 -0.17921441416E+02  0.36820920818E+02  0.00000000000E+00 0. -1.
         11    1    4    4    0    0 -0.10041272055E+02  0.57295272530E+01  0.10159526199E+02  0.15390601024E+02  0.51100000000E-03 0. -1.
        -11    1    4    4    0    0  0.35540792739E+01 -0.87097972458E+01  0.83013715842E+01  0.12546107683E+02  0.51100000000E-03 0.  1.
        -12    1    4    4    0    0 -0.10944776114E+02 -0.24051722311E+02 -0.53945636725E+00  0.26430370475E+02  0.00000000000E+00 0.  1.
</event>
<event>
 8    1  0.1253488E-006  0.9118800E+02  0.7816164E-02  0.1184000E+00
        -11   -1    0    0    0    0  0.00000000000E+00  0.00000000000E+00  0.45593999997E+02  0.45594000000E+02  0.51100000000E-03 0.  1.
         11   -1    0    0    0    0 -0.00000000000E+00 -0.00000000000E+00 -0.45593999997E+02  0.45594000000E+02  0.51100000000E-03 0. -1.
         23    2    1    2    0    0  0.00000000000E+00 -0.17763568394E-14  0.00000000000E+00  0.91188000000E+02  0.91188000000E+02 0.  0.
    9900012    2    3    3    0    0  0.11017365831E+02  0.14498206475E+02  0.32003113956E+02  0.54367086870E+02  0.40000006137E+02 0.  0.
         12    1    3    3    0    0 -0.11017365831E+02 -0.14498206475E+02 -0.32003113956E+02  0.36820913130E+02  0.00000000000E+00 0. -1.
         11    1    4    4    0    0 -0.93494642449E+01 -0.49991281920E+01  0.11318705636E+02  0.15508606058E+02  0.51100000000E-03 0. -1.
        -11    1    4    4    0    0  0.11277864738E+02  0.24315860157E+01  0.14559502770E+02  0.18576381907E+02  0.51100000000E-03 0.  1.
         12    1    4    4    0    0  0.90889653383E+01  0.17065748652E+02  0.61249055506E+01  0.20282098904E+02  0.00000000000E+00 0. -1.
</event>
<event>
 8    1  0.1253488E-006  0.9118800E+02  0.7816164E-02  0.1184000E+00
        -11   -1    0    0    0    0  0.00000000000E+00  0.00000000000E+00  0.45593999997E+02  0.45594000000E+02  0.51100000000E-03 0. -1.
         11   -1    0    0    0    0 -0.00000000000E+00 -0.00000000000E+00 -0.45593999997E+02  0.45594000000E+02  0.51100000000E-03 0.  1.
         23    2    1    2    0    0  0.00000000000E+00 -0.44408920985E-15  0.71054273576E-14  0.91188000000E+02  0.91188000000E+02 0.  0.
    9900012    2    3    3    0    0 -0.13013598087E+02  0.33523124754E+01 -0.34281033690E+02  0.54367068385E+02  0.39999963998E+02 0.  0.
         12    1    3    3    0    0  0.13013598087E+02 -0.33523124754E+01  0.34281033690E+02  0.36820931615E+02  0.00000000000E+00 0. -1.
         11    1    4    4    0    0  0.62414227398E+01 -0.64126275415E+00  0.17333103155E+01  0.65092964787E+01  0.51100000000E-03 0.  1.
        -11    1    4    4    0    0  0.24104164347E+01 -0.16163647380E+01  0.21525151564E+01  0.36133176050E+01  0.51100000000E-03 0. -1.
         12    1    4    4    0    0 -0.21665437261E+02  0.56099399676E+01 -0.38166859162E+02  0.44244454302E+02  0.00000000000E+00 0. -1.
</event>
<event>
 8    1  0.1253488E-006  0.9118800E+02  0.7816164E-02  0.1184000E+00
        -11   -1    0    0    0    0  0.00000000000E+00  0.00000000000E+00  0.45593999997E+02  0.45594000000E+02  0.51100000000E-03 0. -1.
         11   -1    0    0    0    0 -0.00000000000E+00 -0.00000000000E+00 -0.45593999997E+02  0.45594000000E+02  0.51100000000E-03 0.  1.
         23    2    1    2    0    0  0.00000000000E+00 -0.35527136788E-14 -0.35527136788E-14  0.91188000000E+02  0.91188000000E+02 0.  0.
    9900012    2    3    3    0    0  0.15224166952E+02  0.24588707982E+02  0.22790384325E+02  0.54367062515E+02  0.39999950616E+02 0.  0.
        -12    1    3    3    0    0 -0.15224166952E+02 -0.24588707982E+02 -0.22790384325E+02  0.36820937485E+02  0.00000000000E+00 0.  1.
         11    1    4    4    0    0  0.15813567991E+02  0.11151129318E+02  0.18540743521E+02  0.26798801993E+02  0.51100000000E-03 0. -1.
        -11    1    4    4    0    0 -0.10764933046E+02  0.12764915381E+02  0.47428046871E+01  0.17358601462E+02  0.51100000000E-03 0.  1.
        -12    1    4    4    0    0  0.10175532007E+02  0.67266328340E+00 -0.49316388323E+00  0.10209659060E+02  0.00000000000E+00 0.  1.
</event>
<event>
 8    1  0.1253488E-006  0.9118800E+02  0.7816164E-02  0.1184000E+00
        -11   -1    0    0    0    0  0.00000000000E+00  0.00000000000E+00  0.45593999997E+02  0.45594000000E+02  0.51100000000E-03 0. -1.
         11   -1    0    0    0    0 -0.00000000000E+00 -0.00000000000E+00 -0.45593999997E+02  0.45594000000E+02  0.51100000000E-03 0.  1.
         23    2    1    2    0    0 -0.17763568394E-14  0.00000000000E+00  0.00000000000E+00  0.91188000000E+02  0.91188000000E+02 0.  0.
    9900012    2    3    3    0    0  0.12314908144E+02  0.25144965163E+02  0.23913468795E+02  0.54367078971E+02  0.39999988129E+02 0.  0.
        -12    1    3    3    0    0 -0.12314908144E+02 -0.25144965163E+02 -0.23913468795E+02  0.36820921029E+02  0.00000000000E+00 0.  1.
         11    1    4    4    0    0  0.23564516561E+02  0.46032800593E+01  0.12773236776E+02  0.27196179990E+02  0.51100000000E-03 0. -1.
        -11    1    4    4    0    0 -0.35002798046E+01  0.50457572721E+01  0.70870572623E+01  0.93775266494E+01  0.51100000000E-03 0.  1.
         12    1    4    4    0    0 -0.77493286123E+01  0.15495927832E+02  0.40531747563E+01  0.17793372331E+02  0.00000000000E+00 0. -1.
</event>
<event>
 8    1  0.1253488E-006  0.9118800E+02  0.7816164E-02  0.1184000E+00
        -11   -1    0    0    0    0  0.00000000000E+00  0.00000000000E+00  0.45593999997E+02  0.45594000000E+02  0.51100000000E-03 0.  1.
         11   -1    0    0    0    0 -0.00000000000E+00 -0.00000000000E+00 -0.45593999997E+02  0.45594000000E+02  0.51100000000E-03 0. -1.
         23    2    1    2    0    0  0.00000000000E+00 -0.88817841970E-15 -0.35527136788E-14  0.91188000000E+02  0.91188000000E+02 0.  0.
    9900012    2    3    3    0    0 -0.19221472918E+02  0.70215273783E+01  0.30610663847E+02  0.54367087341E+02  0.40000007212E+02 0.  0.
         12    1    3    3    0    0  0.19221472918E+02 -0.70215273783E+01 -0.30610663847E+02  0.36820912659E+02  0.00000000000E+00 0. -1.
         11    1    4    4    0    0 -0.68170788142E+01  0.65775397189E+01 -0.42486658685E+01  0.10382088144E+02  0.51100000000E-03 0. -1.
        -11    1    4    4    0    0 -0.41999358429E+01  0.90787223732E+01  0.29067352794E+02  0.30740423870E+02  0.51100000000E-03 0.  1.
        -12    1    4    4    0    0 -0.82044582609E+01 -0.86347347138E+01  0.57919769215E+01  0.13244575327E+02  0.00000000000E+00 0.  1.
</event>
<event>
 8    1  0.1253488E-006  0.9118800E+02  0.7816164E-02  0.1184000E+00
        -11   -1    0    0    0    0  0.00000000000E+00  0.00000000000E+00  0.45593999997E+02  0.45594000000E+02  0.51100000000E-03 0. -1.
         11   -1    0    0    0    0 -0.00000000000E+00 -0.00000000000E+00 -0.45593999997E+02  0.45594000000E+02  0.51100000000E-03 0.  1.
         23    2    1    2    0    0  0.00000000000E+00 -0.35527136788E-14  0.00000000000E+00  0.91188000000E+02  0.91188000000E+02 0.  0.
    9900012    2    3    3    0    0 -0.25377573428E+02 -0.18480683846E+02 -0.19241209567E+02  0.54367067718E+02  0.39999962477E+02 0.  0.
         12    1    3    3    0    0  0.25377573428E+02  0.18480683846E+02  0.19241209567E+02  0.36820932282E+02  0.00000000000E+00 0. -1.
         11    1    4    4    0    0 -0.76812071400E+01  0.24994117962E+01  0.40494038818E+01  0.90357996057E+01  0.51100000000E-03 0. -1.
        -11    1    4    4    0    0 -0.95172110314E+01 -0.32445497657E+01  0.47810059637E+01  0.11133841533E+02  0.51100000000E-03 0.  1.
        -12    1    4    4    0    0 -0.81791552565E+01 -0.17735545877E+02 -0.28071619412E+02  0.34197426579E+02  0.00000000000E+00 0.  1.
</event>
<event>
 8    1  0.1253488E-006  0.9118800E+02  0.7816164E-02  0.1184000E+00
        -11   -1    0    0    0    0  0.00000000000E+00  0.00000000000E+00  0.45593999997E+02  0.45594000000E+02  0.51100000000E-03 0. -1.
         11   -1    0    0    0    0 -0.00000000000E+00 -0.00000000000E+00 -0.45593999997E+02  0.45594000000E+02  0.51100000000E-03 0.  1.
         23    2    1    2    0    0  0.88817841970E-15  0.17763568394E-14 -0.71054273576E-14  0.91188000000E+02  0.91188000000E+02 0.  0.
    9900012    2    3    3    0    0  0.55111816090E+01  0.91404629062E+01 -0.35240003758E+02  0.54367094936E+02  0.40000024526E+02 0.  0.
         12    1    3    3    0    0 -0.55111816090E+01 -0.91404629062E+01  0.35240003758E+02  0.36820905064E+02  0.00000000000E+00 0. -1.
         11    1    4    4    0    0 -0.54783256007E+01 -0.10882784011E+02 -0.90223928961E+01  0.15160824946E+02  0.51100000000E-03 0. -1.
        -11    1    4    4    0    0  0.60514337964E+01  0.17246595289E+02 -0.76854445481E+01  0.19827530310E+02  0.51100000000E-03 0.  1.
         12    1    4    4    0    0  0.49380734133E+01  0.27766516282E+01 -0.18532166314E+02  0.19378739680E+02  0.00000000000E+00 0. -1.
</event>
<event>
 8    1  0.1253488E-006  0.9118800E+02  0.7816164E-02  0.1184000E+00
        -11   -1    0    0    0    0  0.00000000000E+00  0.00000000000E+00  0.45593999997E+02  0.45594000000E+02  0.51100000000E-03 0. -1.
         11   -1    0    0    0    0 -0.00000000000E+00 -0.00000000000E+00 -0.45593999997E+02  0.45594000000E+02  0.51100000000E-03 0.  1.
         23    2    1    2    0    0 -0.88817841970E-15  0.00000000000E+00 -0.53290705182E-14  0.91188000000E+02  0.91188000000E+02 0.  0.
    9900012    2    3    3    0    0 -0.50536014821E+01  0.34584834168E+02  0.11581439826E+02  0.54367090304E+02  0.40000013967E+02 0.  0.
        -12    1    3    3    0    0  0.50536014821E+01 -0.34584834168E+02 -0.11581439826E+02  0.36820909696E+02  0.00000000000E+00 0.  1.
         11    1    4    4    0    0  0.43178918434E+01  0.22880002074E+02  0.15123858518E+02  0.27764541805E+02  0.51100000000E-03 0. -1.
        -11    1    4    4    0    0 -0.14452095066E+02  0.73533678863E+01 -0.84700371477E+01  0.18294168487E+02  0.51100000000E-03 0.  1.
        -12    1    4    4    0    0  0.50806017408E+01  0.43514642075E+01  0.49276184556E+01  0.83083800131E+01  0.00000000000E+00 0.  1.
</event>
<event>
 8    1  0.1253488E-006  0.9118800E+02  0.7816164E-02  0.1184000E+00
        -11   -1    0    0    0    0  0.00000000000E+00  0.00000000000E+00  0.45593999997E+02  0.45594000000E+02  0.51100000000E-03 0.  1.
         11   -1    0    0    0    0 -0.00000000000E+00 -0.00000000000E+00 -0.45593999997E+02  0.45594000000E+02  0.51100000000E-03 0. -1.
         23    2    1    2    0    0 -0.35527136788E-14 -0.99920072216E-15  0.00000000000E+00  0.91188000000E+02  0.91188000000E+02 0.  0.
    9900012    2    3    3    0    0 -0.20892366597E+02  0.92031769231E+00  0.30305798066E+02  0.54367090681E+02  0.40000014826E+02 0.  0.
         12    1    3    3    0    0  0.20892366597E+02 -0.92031769231E+00 -0.30305798066E+02  0.36820909319E+02  0.00000000000E+00 0. -1.
         11    1    4    4    0    0 -0.13248634949E+02 -0.11891883643E+02  0.97731193701E+01  0.20309039540E+02  0.51100000000E-03 0. -1.
        -11    1    4    4    0    0  0.13384454832E+01  0.11908104325E+02  0.39516188643E+00  0.11989601248E+02  0.51100000000E-03 0.  1.
        -12    1    4    4    0    0 -0.89821771311E+01  0.90409701030E+00  0.20137516809E+02  0.22068449892E+02  0.00000000000E+00 0.  1.
</event>
<event>
 8    1  0.1253488E-006  0.9118800E+02  0.7816164E-02  0.1184000E+00
        -11   -1    0    0    0    0  0.00000000000E+00  0.00000000000E+00  0.45593999997E+02  0.45594000000E+02  0.51100000000E-03 0. -1.
         11   -1    0    0    0    0 -0.00000000000E+00 -0.00000000000E+00 -0.45593999997E+02  0.45594000000E+02  0.51100000000E-03 0.  1.
         23    2    1    2    0    0  0.00000000000E+00 -0.71054273576E-14  0.00000000000E+00  0.91188000000E+02  0.91188000000E+02 0.  0.
    9900012    2    3    3    0    0  0.97726955262E+01  0.35328889127E+02 -0.34849142778E+01  0.54367073718E+02  0.39999976154E+02 0.  0.
        -12    1    3    3    0    0 -0.97726955262E+01 -0.35328889127E+02  0.34849142778E+01  0.36820926282E+02  0.00000000000E+00 0.  1.
         11    1    4    4    0    0  0.13109178158E+02  0.37054918874E+01 -0.40983174984E+01  0.14225942102E+02  0.51100000000E-03 0. -1.
        -11    1    4    4    0    0  0.12271040188E+01  0.14547555181E+02 -0.11608504846E+02  0.18651931027E+02  0.51100000000E-03 0.  1.
         12    1    4    4    0    0 -0.45635866510E+01  0.17075842058E+02  0.12221908067E+02  0.21489200588E+02  0.00000000000E+00 0. -1.
</event>
<event>
 8    1  0.1253488E-006  0.9118800E+02  0.7816164E-02  0.1184000E+00
        -11   -1    0    0    0    0  0.00000000000E+00  0.00000000000E+00  0.45593999997E+02  0.45594000000E+02  0.51100000000E-03 0.  1.
         11   -1    0    0    0    0 -0.00000000000E+00 -0.00000000000E+00 -0.45593999997E+02  0.45594000000E+02  0.51100000000E-03 0. -1.
         23    2    1    2    0    0  0.00000000000E+00  0.00000000000E+00  0.00000000000E+00  0.91188000000E+02  0.91188000000E+02 0.  0.
    9900012    2    3    3    0    0 -0.74478903874E+01  0.20428583201E+02  0.29715020204E+02  0.54367075127E+02  0.39999979366E+02 0.  0.
         12    1    3    3    0    0  0.74478903874E+01 -0.20428583201E+02 -0.29715020204E+02  0.36820924873E+02  0.00000000000E+00 0. -1.
         11    1    4    4    0    0 -0.55292163972E+01  0.17282277197E+02  0.18557684098E+02  0.25954517496E+02  0.51100000000E-03 0. -1.
        -11    1    4    4    0    0 -0.57949545258E+01  0.23756885098E+01  0.18796036343E+02  0.19812026053E+02  0.51100000000E-03 0.  1.
         12    1    4    4    0    0  0.38762805356E+01  0.77061749421E+00 -0.76387002372E+01  0.86005315781E+01  0.00000000000E+00 0. -1.
</event>
<event>
 8    1  0.1253488E-006  0.9118800E+02  0.7816164E-02  0.1184000E+00
        -11   -1    0    0    0    0  0.00000000000E+00  0.00000000000E+00  0.45593999997E+02  0.45594000000E+02  0.51100000000E-03 0.  1.
         11   -1    0    0    0    0 -0.00000000000E+00 -0.00000000000E+00 -0.45593999997E+02  0.45594000000E+02  0.51100000000E-03 0. -1.
         23    2    1    2    0    0 -0.71054273576E-14  0.88817841970E-15  0.00000000000E+00  0.91188000000E+02  0.91188000000E+02 0.  0.
    9900012    2    3    3    0    0 -0.34944761073E+02  0.92920357725E+00 -0.11566328917E+02  0.54367085966E+02  0.40000004076E+02 0.  0.
         12    1    3    3    0    0  0.34944761073E+02 -0.92920357725E+00  0.11566328917E+02  0.36820914034E+02  0.00000000000E+00 0. -1.
         11    1    4    4    0    0 -0.38291201674E+02 -0.97448992065E+01 -0.11534460668E+02  0.41160939850E+02  0.51100000000E-03 0. -1.
        -11    1    4    4    0    0 -0.13658275467E-01  0.31140237830E+01  0.30678304153E+01  0.43713744278E+01  0.51100000000E-03 0.  1.
         12    1    4    4    0    0  0.33600988772E+01  0.75600790007E+01 -0.30996986642E+01  0.88347716875E+01  0.00000000000E+00 0. -1.
</event>
<event>
 8    1  0.1253488E-006  0.9118800E+02  0.7816164E-02  0.1184000E+00
        -11   -1    0    0    0    0  0.00000000000E+00  0.00000000000E+00  0.45593999997E+02  0.45594000000E+02  0.51100000000E-03 0.  1.
         11   -1    0    0    0    0 -0.00000000000E+00 -0.00000000000E+00 -0.45593999997E+02  0.45594000000E+02  0.51100000000E-03 0. -1.
         23    2    1    2    0    0  0.00000000000E+00  0.00000000000E+00  0.00000000000E+00  0.91188000000E+02  0.91188000000E+02 0.  0.
    9900012    2    3    3    0    0 -0.18489480176E+02 -0.74543718004E+01  0.30957175036E+02  0.54367146909E+02  0.40000143008E+02 0.  0.
         12    1    3    3    0    0  0.18489480176E+02  0.74543718004E+01 -0.30957175036E+02  0.36820853091E+02  0.00000000000E+00 0. -1.
         11    1    4    4    0    0  0.27600523733E+01 -0.90504903908E+01  0.53189345979E+01  0.10854507402E+02  0.51100000000E-03 0. -1.
        -11    1    4    4    0    0 -0.12580644771E+02 -0.33809736320E+00  0.30777315927E+02  0.33251016655E+02  0.51100000000E-03 0.  1.
         12    1    4    4    0    0 -0.86688877788E+01  0.19342159537E+01 -0.51390754887E+01  0.10261622852E+02  0.00000000000E+00 0. -1.
</event>
<event>
 8    1  0.1253488E-006  0.9118800E+02  0.7816164E-02  0.1184000E+00
        -11   -1    0    0    0    0  0.00000000000E+00  0.00000000000E+00  0.45593999997E+02  0.45594000000E+02  0.51100000000E-03 0.  1.
         11   -1    0    0    0    0 -0.00000000000E+00 -0.00000000000E+00 -0.45593999997E+02  0.45594000000E+02  0.51100000000E-03 0. -1.
         23    2    1    2    0    0  0.00000000000E+00  0.00000000000E+00 -0.88817841970E-15  0.91188000000E+02  0.91188000000E+02 0.  0.
    9900012    2    3    3    0    0 -0.30699154353E+02 -0.19764291244E+02 -0.47660388924E+01  0.54367076423E+02  0.39999982321E+02 0.  0.
        -12    1    3    3    0    0  0.30699154353E+02  0.19764291244E+02  0.47660388924E+01  0.36820923577E+02  0.00000000000E+00 0.  1.
         11    1    4    4    0    0 -0.23885583656E+02 -0.15203241707E+02 -0.12652945523E+02  0.31012202367E+02  0.51100000000E-03 0. -1.
        -11    1    4    4    0    0  0.81252954363E+00 -0.79912508926E+01 -0.38791240352E+01  0.89200840035E+01  0.51100000000E-03 0.  1.
         12    1    4    4    0    0 -0.76261002406E+01  0.34302013563E+01  0.11766030666E+02  0.14434790052E+02  0.00000000000E+00 0. -1.
</event>
<event>
 8    1  0.1253488E-006  0.9118800E+02  0.7816164E-02  0.1184000E+00
        -11   -1    0    0    0    0  0.00000000000E+00  0.00000000000E+00  0.45593999997E+02  0.45594000000E+02  0.51100000000E-03 0.  1.
         11   -1    0    0    0    0 -0.00000000000E+00 -0.00000000000E+00 -0.45593999997E+02  0.45594000000E+02  0.51100000000E-03 0. -1.
         23    2    1    2    0    0 -0.35527136788E-14 -0.71054273576E-14 -0.11102230246E-15  0.91188000000E+02  0.91188000000E+02 0.  0.
    9900012    2    3    3    0    0  0.13532564909E+02  0.34241242992E+02 -0.43437639826E+00  0.54367058709E+02  0.39999941940E+02 0.  0.
        -12    1    3    3    0    0 -0.13532564909E+02 -0.34241242992E+02  0.43437639826E+00  0.36820941291E+02  0.00000000000E+00 0.  1.
         11    1    4    4    0    0  0.10083788417E+01 -0.14418491940E+01 -0.47591441080E+01  0.50739737769E+01  0.51100000000E-03 0. -1.
        -11    1    4    4    0    0  0.82400097960E+01 -0.38936706435E+01 -0.83637605367E+00  0.91519373732E+01  0.51100000000E-03 0.  1.
         12    1    4    4    0    0  0.42841762713E+01  0.39576762830E+02  0.51611437634E+01  0.40141147559E+02  0.00000000000E+00 0. -1.
</event>
<event>
 8    1  0.1253488E-006  0.9118800E+02  0.7816164E-02  0.1184000E+00
        -11   -1    0    0    0    0  0.00000000000E+00  0.00000000000E+00  0.45593999997E+02  0.45594000000E+02  0.51100000000E-03 0.  1.
         11   -1    0    0    0    0 -0.00000000000E+00 -0.00000000000E+00 -0.45593999997E+02  0.45594000000E+02  0.51100000000E-03 0. -1.
         23    2    1    2    0    0  0.00000000000E+00  0.88817841970E-15 -0.35527136788E-14  0.91188000000E+02  0.91188000000E+02 0.  0.
    9900012    2    3    3    0    0  0.17488854864E+02  0.75510899326E+01 -0.31510332266E+02  0.54367081447E+02  0.39999993774E+02 0.  0.
        -12    1    3    3    0    0 -0.17488854864E+02 -0.75510899326E+01  0.31510332266E+02  0.36820918553E+02  0.00000000000E+00 0.  1.
         11    1    4    4    0    0  0.32935739301E+01 -0.15270944223E+01  0.30973655230E+01  0.47721399867E+01  0.51100000000E-03 0. -1.
        -11    1    4    4    0    0 -0.55951179876E+01 -0.60434850237E+01 -0.18447350761E+01  0.84399113911E+01  0.51100000000E-03 0.  1.
         12    1    4    4    0    0  0.19790398921E+02  0.15121669379E+02 -0.32762962713E+02  0.41155030069E+02  0.00000000000E+00 0. -1.
</event>
<event>
 8    1  0.1253488E-006  0.9118800E+02  0.7816164E-02  0.1184000E+00
        -11   -1    0    0    0    0  0.00000000000E+00  0.00000000000E+00  0.45593999997E+02  0.45594000000E+02  0.51100000000E-03 0. -1.
         11   -1    0    0    0    0 -0.00000000000E+00 -0.00000000000E+00 -0.45593999997E+02  0.45594000000E+02  0.51100000000E-03 0.  1.
         23    2    1    2    0    0 -0.88817841970E-15  0.88817841970E-15  0.00000000000E+00  0.91188000000E+02  0.91188000000E+02 0.  0.
    9900012    2    3    3    0    0  0.40024251465E+01 -0.74186080947E+01 -0.35843065027E+02  0.54367075736E+02  0.39999980755E+02 0.  0.
         12    1    3    3    0    0 -0.40024251465E+01  0.74186080947E+01  0.35843065027E+02  0.36820924264E+02  0.00000000000E+00 0. -1.
         11    1    4    4    0    0 -0.31779314898E+01  0.42022019175E+01 -0.65012967325E+01  0.83680708036E+01  0.51100000000E-03 0. -1.
        -11    1    4    4    0    0  0.11709850438E+02  0.34068859027E+01 -0.27640824776E+02  0.30211631260E+02  0.51100000000E-03 0.  1.
         12    1    4    4    0    0 -0.45294938019E+01 -0.15027695915E+02 -0.17009435193E+01  0.15787373672E+02  0.00000000000E+00 0. -1.
</event>
<event>
 8    1  0.1253488E-006  0.9118800E+02  0.7816164E-02  0.1184000E+00
        -11   -1    0    0    0    0  0.00000000000E+00  0.00000000000E+00  0.45593999997E+02  0.45594000000E+02  0.51100000000E-03 0. -1.
         11   -1    0    0    0    0 -0.00000000000E+00 -0.00000000000E+00 -0.45593999997E+02  0.45594000000E+02  0.51100000000E-03 0.  1.
         23    2    1    2    0    0 -0.33306690739E-15  0.00000000000E+00 -0.71054273576E-14  0.91188000000E+02  0.91188000000E+02 0.  0.
    9900012    2    3    3    0    0  0.78698708697E+00  0.31762165752E+02  0.18609761798E+02  0.54367112502E+02  0.40000064572E+02 0.  0.
        -12    1    3    3    0    0 -0.78698708697E+00 -0.31762165752E+02 -0.18609761798E+02  0.36820887498E+02  0.00000000000E+00 0.  1.
         11    1    4    4    0    0  0.31557953985E+01 -0.41471688743E+01 -0.25485701322E+01  0.58011433571E+01  0.51100000000E-03 0.  1.
        -11    1    4    4    0    0 -0.75697935721E+01  0.22236199514E+02  0.24089808563E+02  0.33646236348E+02  0.51100000000E-03 0. -1.
         12    1    4    4    0    0  0.52009852606E+01  0.13673135112E+02 -0.29314766328E+01  0.14919732797E+02  0.00000000000E+00 0. -1.
</event>
<event>
 8    1  0.1253488E-006  0.9118800E+02  0.7816164E-02  0.1184000E+00
        -11   -1    0    0    0    0  0.00000000000E+00  0.00000000000E+00  0.45593999997E+02  0.45594000000E+02  0.51100000000E-03 0. -1.
         11   -1    0    0    0    0 -0.00000000000E+00 -0.00000000000E+00 -0.45593999997E+02  0.45594000000E+02  0.51100000000E-03 0.  1.
         23    2    1    2    0    0  0.00000000000E+00 -0.35527136788E-14 -0.35527136788E-14  0.91188000000E+02  0.91188000000E+02 0.  0.
    9900012    2    3    3    0    0  0.17421541537E+02 -0.28787147858E+02 -0.14952258432E+02  0.54367081712E+02  0.39999994378E+02 0.  0.
         12    1    3    3    0    0 -0.17421541537E+02  0.28787147858E+02  0.14952258432E+02  0.36820918288E+02  0.00000000000E+00 0. -1.
         11    1    4    4    0    0 -0.57739541605E+00  0.35795559850E+01 -0.18413763647E+01  0.40666046886E+01  0.51100000000E-03 0. -1.
        -11    1    4    4    0    0  0.11962100829E+02 -0.25487046047E+02 -0.23342395824E+02  0.36572514482E+02  0.51100000000E-03 0.  1.
         12    1    4    4    0    0  0.60368361243E+01 -0.68796577965E+01  0.10231513757E+02  0.13727962541E+02  0.00000000000E+00 0. -1.
</event>
<event>
 8    1  0.1253488E-006  0.9118800E+02  0.7816164E-02  0.1184000E+00
        -11   -1    0    0    0    0  0.00000000000E+00  0.00000000000E+00  0.45593999997E+02  0.45594000000E+02  0.51100000000E-03 0. -1.
         11   -1    0    0    0    0 -0.00000000000E+00 -0.00000000000E+00 -0.45593999997E+02  0.45594000000E+02  0.51100000000E-03 0.  1.
         23    2    1    2    0    0  0.00000000000E+00  0.00000000000E+00 -0.88817841970E-15  0.91188000000E+02  0.91188000000E+02 0.  0.
    9900012    2    3    3    0    0  0.30216682947E+02 -0.20312624587E+02 -0.54889413164E+01  0.54367093945E+02  0.40000022266E+02 0.  0.
        -12    1    3    3    0    0 -0.30216682947E+02  0.20312624587E+02  0.54889413164E+01  0.36820906055E+02  0.00000000000E+00 0.  1.
         11    1    4    4    0    0  0.68109439930E+01 -0.70052684313E+00  0.13296795268E+02  0.14956084400E+02  0.51100000000E-03 0. -1.
        -11    1    4    4    0    0  0.14955350510E+02 -0.43694545282E+01 -0.29388935811E+01  0.15855337824E+02  0.51100000000E-03 0.  1.
        -12    1    4    4    0    0  0.84503884436E+01 -0.15242643216E+02 -0.15846843003E+02  0.23555671721E+02  0.00000000000E+00 0.  1.
</event>
<event>
 8    1  0.1253488E-006  0.9118800E+02  0.7816164E-02  0.1184000E+00
        -11   -1    0    0    0    0  0.00000000000E+00  0.00000000000E+00  0.45593999997E+02  0.45594000000E+02  0.51100000000E-03 0.  1.
         11   -1    0    0    0    0 -0.00000000000E+00 -0.00000000000E+00 -0.45593999997E+02  0.45594000000E+02  0.51100000000E-03 0. -1.
         23    2    1    2    0    0 -0.35527136788E-14  0.00000000000E+00  0.71054273576E-14  0.91188000000E+02  0.91188000000E+02 0.  0.
    9900012    2    3    3    0    0 -0.17111079545E+02  0.61864333014E+01 -0.32011210518E+02  0.54367101056E+02  0.40000038478E+02 0.  0.
        -12    1    3    3    0    0  0.17111079545E+02 -0.61864333014E+01  0.32011210518E+02  0.36820898944E+02  0.00000000000E+00 0.  1.
         11    1    4    4    0    0 -0.17029033413E+02  0.74828190225E+01 -0.11833037316E+02  0.22045437893E+02  0.51100000000E-03 0. -1.
        -11    1    4    4    0    0  0.57213081306E+01  0.48350036456E+01  0.26788996470E+01  0.79553208960E+01  0.51100000000E-03 0.  1.
        -12    1    4    4    0    0 -0.58033542621E+01 -0.61313893666E+01 -0.22857072849E+02  0.24366342267E+02  0.00000000000E+00 0.  1.
</event>
<event>
 8    1  0.1253488E-006  0.9118800E+02  0.7816164E-02  0.1184000E+00
        -11   -1    0    0    0    0  0.00000000000E+00  0.00000000000E+00  0.45593999997E+02  0.45594000000E+02  0.51100000000E-03 0. -1.
         11   -1    0    0    0    0 -0.00000000000E+00 -0.00000000000E+00 -0.45593999997E+02  0.45594000000E+02  0.51100000000E-03 0.  1.
         23    2    1    2    0    0  0.00000000000E+00 -0.17763568394E-14  0.00000000000E+00  0.91188000000E+02  0.91188000000E+02 0.  0.
    9900012    2    3    3    0    0 -0.35606552874E+02 -0.85152800973E+01 -0.39291106560E+01  0.54367156538E+02  0.40000164959E+02 0.  0.
        -12    1    3    3    0    0  0.35606552874E+02  0.85152800973E+01  0.39291106560E+01  0.36820843462E+02  0.00000000000E+00 0.  1.
         11    1    4    4    0    0 -0.10861498081E+02 -0.33676645274E+01  0.75515805197E+01  0.13650629053E+02  0.51100000000E-03 0. -1.
        -11    1    4    4    0    0 -0.12022097203E+02 -0.17081929431E+02 -0.23300459949E+01  0.21017903056E+02  0.51100000000E-03 0.  1.
        -12    1    4    4    0    0 -0.12722957591E+02  0.11934313862E+02 -0.91506451808E+01  0.19698624430E+02  0.00000000000E+00 0.  1.
</event>
<event>
 8    1  0.1253488E-006  0.9118800E+02  0.7816164E-02  0.1184000E+00
        -11   -1    0    0    0    0  0.00000000000E+00  0.00000000000E+00  0.45593999997E+02  0.45594000000E+02  0.51100000000E-03 0. -1.
         11   -1    0    0    0    0 -0.00000000000E+00 -0.00000000000E+00 -0.45593999997E+02  0.45594000000E+02  0.51100000000E-03 0.  1.
         23    2    1    2    0    0  0.35527136788E-14  0.17763568394E-14  0.71054273576E-14  0.91188000000E+02  0.91188000000E+02 0.  0.
    9900012    2    3    3    0    0  0.16130656546E+02  0.11238120000E+02  0.31133399254E+02  0.54367055270E+02  0.39999934098E+02 0.  0.
        -12    1    3    3    0    0 -0.16130656546E+02 -0.11238120000E+02 -0.31133399254E+02  0.36820944730E+02  0.00000000000E+00 0.  1.
         11    1    4    4    0    0  0.62940138409E+00  0.84134891620E+01  0.69649760594E+01  0.10940467895E+02  0.51100000000E-03 0. -1.
        -11    1    4    4    0    0  0.97345653415E+01  0.55174531706E+01 -0.59292696702E+01  0.12663344383E+02  0.51100000000E-03 0.  1.
        -12    1    4    4    0    0  0.57666898203E+01 -0.26928223330E+01  0.30097692865E+02  0.30763242992E+02  0.00000000000E+00 0.  1.
</event>
<event>
 8    1  0.1253488E-006  0.9118800E+02  0.7816164E-02  0.1184000E+00
        -11   -1    0    0    0    0  0.00000000000E+00  0.00000000000E+00  0.45593999997E+02  0.45594000000E+02  0.51100000000E-03 0.  1.
         11   -1    0    0    0    0 -0.00000000000E+00 -0.00000000000E+00 -0.45593999997E+02  0.45594000000E+02  0.51100000000E-03 0. -1.
         23    2    1    2    0    0  0.26645352591E-14  0.35527136788E-14  0.71054273576E-14  0.91188000000E+02  0.91188000000E+02 0.  0.
    9900012    2    3    3    0    0 -0.75156451604E+01  0.19068171151E+02 -0.30589192513E+02  0.54367098710E+02  0.40000033130E+02 0.  0.
        -12    1    3    3    0    0  0.75156451604E+01 -0.19068171151E+02  0.30589192513E+02  0.36820901290E+02  0.00000000000E+00 0.  1.
         11    1    4    4    0    0  0.10852243159E+02  0.60754503685E+01 -0.28351805770E+02  0.30959766947E+02  0.51100000000E-03 0. -1.
        -11    1    4    4    0    0 -0.73273700058E+00  0.59380079871E+00  0.12537035096E+01  0.15688453243E+01  0.51100000000E-03 0.  1.
        -12    1    4    4    0    0 -0.17635151318E+02  0.12398919983E+02 -0.34910902523E+01  0.21838486439E+02  0.00000000000E+00 0.  1.
</event>
<event>
 8    1  0.1253488E-006  0.9118800E+02  0.7816164E-02  0.1184000E+00
        -11   -1    0    0    0    0  0.00000000000E+00  0.00000000000E+00  0.45593999997E+02  0.45594000000E+02  0.51100000000E-03 0.  1.
         11   -1    0    0    0    0 -0.00000000000E+00 -0.00000000000E+00 -0.45593999997E+02  0.45594000000E+02  0.51100000000E-03 0. -1.
         23    2    1    2    0    0  0.72164496601E-15  0.22204460493E-15 -0.71054273576E-14  0.91188000000E+02  0.91188000000E+02 0.  0.
    9900012    2    3    3    0    0 -0.20908861265E+00 -0.56472797114E+00  0.36816002152E+02  0.54367073203E+02  0.39999974981E+02 0.  0.
         12    1    3    3    0    0  0.20908861265E+00  0.56472797114E+00 -0.36816002152E+02  0.36820926797E+02  0.00000000000E+00 0. -1.
         11    1    4    4    0    0  0.16580116985E+01  0.43301350579E+01  0.12204330116E+02  0.13055448911E+02  0.51100000000E-03 0. -1.
        -11    1    4    4    0    0  0.60184865522E+01 -0.16828425388E+02  0.18603419081E+02  0.25797389077E+02  0.51100000000E-03 0.  1.
         12    1    4    4    0    0 -0.78855868634E+01  0.11933562359E+02  0.60082529540E+01  0.15514235215E+02  0.00000000000E+00 0. -1.
</event>
<event>
 8    1  0.1253488E-006  0.9118800E+02  0.7816164E-02  0.1184000E+00
        -11   -1    0    0    0    0  0.00000000000E+00  0.00000000000E+00  0.45593999997E+02  0.45594000000E+02  0.51100000000E-03 0.  1.
         11   -1    0    0    0    0 -0.00000000000E+00 -0.00000000000E+00 -0.45593999997E+02  0.45594000000E+02  0.51100000000E-03 0. -1.
         23    2    1    2    0    0  0.00000000000E+00 -0.33306690739E-15  0.00000000000E+00  0.91188000000E+02  0.91188000000E+02 0.  0.
    9900012    2    3    3    0    0 -0.35549379766E+02 -0.18144881855E+00 -0.95910935467E+01  0.54367076589E+02  0.39999982700E+02 0.  0.
        -12    1    3    3    0    0  0.35549379766E+02  0.18144881855E+00  0.95910935467E+01  0.36820923411E+02  0.00000000000E+00 0.  1.
         11    1    4    4    0    0  0.58765182132E+01  0.10626893126E+01 -0.86504603967E+01  0.10511576486E+02  0.51100000000E-03 0. -1.
        -11    1    4    4    0    0 -0.17144031953E+02  0.57209325733E+01  0.28986605400E+01  0.18304347415E+02  0.51100000000E-03 0.  1.
         12    1    4    4    0    0 -0.24281866027E+02 -0.69650707045E+01 -0.38392936900E+01  0.25551152688E+02  0.00000000000E+00 0. -1.
</event>
<event>
 8    1  0.1253488E-006  0.9118800E+02  0.7816164E-02  0.1184000E+00
        -11   -1    0    0    0    0  0.00000000000E+00  0.00000000000E+00  0.45593999997E+02  0.45594000000E+02  0.51100000000E-03 0.  1.
         11   -1    0    0    0    0 -0.00000000000E+00 -0.00000000000E+00 -0.45593999997E+02  0.45594000000E+02  0.51100000000E-03 0. -1.
         23    2    1    2    0    0  0.35527136788E-14 -0.71054273576E-14  0.00000000000E+00  0.91188000000E+02  0.91188000000E+02 0.  0.
    9900012    2    3    3    0    0 -0.21664358671E+02  0.29749586110E+02  0.11824211841E+01  0.54367076190E+02  0.39999981790E+02 0.  0.
         12    1    3    3    0    0  0.21664358671E+02 -0.29749586110E+02 -0.11824211841E+01  0.36820923810E+02  0.00000000000E+00 0. -1.
         11    1    4    4    0    0 -0.12889099032E+02 -0.13754219817E+01  0.11256515991E+01  0.13011062649E+02  0.51100000000E-03 0. -1.
        -11    1    4    4    0    0  0.87029913315E+01  0.10996246310E+02  0.35608711159E+01  0.14468562278E+02  0.51100000000E-03 0.  1.
         12    1    4    4    0    0 -0.17478250971E+02  0.20128761782E+02 -0.35041015309E+01  0.26887451263E+02  0.00000000000E+00 0. -1.
</event>
<event>
 8    1  0.1253488E-006  0.9118800E+02  0.7816164E-02  0.1184000E+00
        -11   -1    0    0    0    0  0.00000000000E+00  0.00000000000E+00  0.45593999997E+02  0.45594000000E+02  0.51100000000E-03 0.  1.
         11   -1    0    0    0    0 -0.00000000000E+00 -0.00000000000E+00 -0.45593999997E+02  0.45594000000E+02  0.51100000000E-03 0. -1.
         23    2    1    2    0    0  0.00000000000E+00  0.17763568394E-14 -0.35527136788E-14  0.91188000000E+02  0.91188000000E+02 0.  0.
    9900012    2    3    3    0    0  0.11092446837E+02 -0.15967386440E+02  0.31269466067E+02  0.54367091338E+02  0.40000016323E+02 0.  0.
         12    1    3    3    0    0 -0.11092446837E+02  0.15967386440E+02 -0.31269466067E+02  0.36820908662E+02  0.00000000000E+00 0. -1.
         11    1    4    4    0    0  0.13345385915E+02 -0.10934901363E+02  0.25537048163E+02  0.30819023706E+02  0.51100000000E-03 0. -1.
        -11    1    4    4    0    0  0.64442656288E+01  0.41276612615E+01  0.75929372213E+01  0.10780484353E+02  0.51100000000E-03 0.  1.
        -12    1    4    4    0    0 -0.86972047072E+01 -0.91601463383E+01 -0.18605193168E+01  0.12767583279E+02  0.00000000000E+00 0.  1.
</event>
<event>
 8    1  0.1253488E-006  0.9118800E+02  0.7816164E-02  0.1184000E+00
        -11   -1    0    0    0    0  0.00000000000E+00  0.00000000000E+00  0.45593999997E+02  0.45594000000E+02  0.51100000000E-03 0.  1.
         11   -1    0    0    0    0 -0.00000000000E+00 -0.00000000000E+00 -0.45593999997E+02  0.45594000000E+02  0.51100000000E-03 0. -1.
         23    2    1    2    0    0  0.00000000000E+00  0.88817841970E-15  0.00000000000E+00  0.91188000000E+02  0.91188000000E+02 0.  0.
    9900012    2    3    3    0    0  0.14489312215E+02 -0.68233967691E+01  0.33155390521E+02  0.54367097885E+02  0.40000031249E+02 0.  0.
        -12    1    3    3    0    0 -0.14489312215E+02  0.68233967691E+01 -0.33155390521E+02  0.36820902115E+02  0.00000000000E+00 0.  1.
         11    1    4    4    0    0  0.61264056185E+01  0.63904318232E+01 -0.27880822706E+00  0.88570987901E+01  0.51100000000E-03 0. -1.
        -11    1    4    4    0    0  0.12927772756E+02 -0.64721239413E+01  0.40431427929E+01  0.15012085153E+02  0.51100000000E-03 0.  1.
        -12    1    4    4    0    0 -0.45648661595E+01 -0.67417046511E+01  0.29391055955E+02  0.30497913942E+02  0.00000000000E+00 0.  1.
</event>
<event>
 8    1  0.1253488E-006  0.9118800E+02  0.7816164E-02  0.1184000E+00
        -11   -1    0    0    0    0  0.00000000000E+00  0.00000000000E+00  0.45593999997E+02  0.45594000000E+02  0.51100000000E-03 0.  1.
         11   -1    0    0    0    0 -0.00000000000E+00 -0.00000000000E+00 -0.45593999997E+02  0.45594000000E+02  0.51100000000E-03 0. -1.
         23    2    1    2    0    0 -0.35527136788E-14  0.00000000000E+00  0.00000000000E+00  0.91188000000E+02  0.91188000000E+02 0.  0.
    9900012    2    3    3    0    0 -0.28511908038E+02 -0.17638820110E+02  0.15222453056E+02  0.54367082686E+02  0.39999996598E+02 0.  0.
         12    1    3    3    0    0  0.28511908038E+02  0.17638820110E+02 -0.15222453056E+02  0.36820917314E+02  0.00000000000E+00 0. -1.
         11    1    4    4    0    0  0.35041259234E+01 -0.76251179668E+01 -0.31267870732E+01  0.89553403150E+01  0.51100000000E-03 0. -1.
        -11    1    4    4    0    0 -0.25653352460E+02 -0.15933326078E+02  0.20449274341E+02  0.36471059673E+02  0.51100000000E-03 0.  1.
         12    1    4    4    0    0 -0.63626815012E+01  0.59196239345E+01 -0.21000342115E+01  0.89406826978E+01  0.00000000000E+00 0. -1.
</event>
<event>
 8    1  0.1253488E-006  0.9118800E+02  0.7816164E-02  0.1184000E+00
        -11   -1    0    0    0    0  0.00000000000E+00  0.00000000000E+00  0.45593999997E+02  0.45594000000E+02  0.51100000000E-03 0. -1.
         11   -1    0    0    0    0 -0.00000000000E+00 -0.00000000000E+00 -0.45593999997E+02  0.45594000000E+02  0.51100000000E-03 0.  1.
         23    2    1    2    0    0  0.00000000000E+00  0.00000000000E+00  0.88817841970E-15  0.91188000000E+02  0.91188000000E+02 0.  0.
    9900012    2    3    3    0    0  0.27968470514E+02  0.22925603017E+02 -0.69254336974E+01  0.54367078658E+02  0.39999987416E+02 0.  0.
         12    1    3    3    0    0 -0.27968470514E+02 -0.22925603017E+02  0.69254336974E+01  0.36820921342E+02  0.00000000000E+00 0. -1.
         11    1    4    4    0    0 -0.39165420160E+01  0.59192399238E+01  0.57634927181E+01  0.91430055896E+01  0.51100000000E-03 0. -1.
        -11    1    4    4    0    0  0.12538931997E+02  0.41891207779E+01 -0.17087116513E+02  0.21604237999E+02  0.51100000000E-03 0.  1.
        -12    1    4    4    0    0  0.19346080533E+02  0.12817242316E+02  0.43981900980E+01  0.23619835069E+02  0.00000000000E+00 0.  1.
</event>
<event>
 8    1  0.1253488E-006  0.9118800E+02  0.7816164E-02  0.1184000E+00
        -11   -1    0    0    0    0  0.00000000000E+00  0.00000000000E+00  0.45593999997E+02  0.45594000000E+02  0.51100000000E-03 0. -1.
         11   -1    0    0    0    0 -0.00000000000E+00 -0.00000000000E+00 -0.45593999997E+02  0.45594000000E+02  0.51100000000E-03 0.  1.
         23    2    1    2    0    0  0.44408920985E-15 -0.35527136788E-14  0.35527136788E-14  0.91188000000E+02  0.91188000000E+02 0.  0.
    9900012    2    3    3    0    0  0.20061354644E+01 -0.29648987875E+02  0.21741478406E+02  0.54367096361E+02  0.40000027775E+02 0.  0.
        -12    1    3    3    0    0 -0.20061354644E+01  0.29648987875E+02 -0.21741478406E+02  0.36820903639E+02  0.00000000000E+00 0.  1.
         11    1    4    4    0    0  0.50269211480E+01 -0.73293053199E+01  0.40143625117E+01  0.97521156339E+01  0.51100000000E-03 0. -1.
        -11    1    4    4    0    0 -0.14984264027E+02 -0.22015234407E+02  0.18802241569E+02  0.32599432552E+02  0.51100000000E-03 0.  1.
        -12    1    4    4    0    0  0.11963478343E+02 -0.30444814812E+00 -0.10751256748E+01  0.12015548176E+02  0.00000000000E+00 0.  1.
</event>
<event>
 8    1  0.1253488E-006  0.9118800E+02  0.7816164E-02  0.1184000E+00
        -11   -1    0    0    0    0  0.00000000000E+00  0.00000000000E+00  0.45593999997E+02  0.45594000000E+02  0.51100000000E-03 0.  1.
         11   -1    0    0    0    0 -0.00000000000E+00 -0.00000000000E+00 -0.45593999997E+02  0.45594000000E+02  0.51100000000E-03 0. -1.
         23    2    1    2    0    0  0.71054273576E-14  0.00000000000E+00  0.17763568394E-14  0.91188000000E+02  0.91188000000E+02 0.  0.
    9900012    2    3    3    0    0 -0.33924728820E+02  0.12730002994E+02 -0.65452492521E+01  0.54367075385E+02  0.39999979956E+02 0.  0.
        -12    1    3    3    0    0  0.33924728820E+02 -0.12730002994E+02  0.65452492521E+01  0.36820924615E+02  0.00000000000E+00 0.  1.
         11    1    4    4    0    0 -0.39589476562E+02  0.21550227224E+01 -0.11656171042E+02  0.41325985784E+02  0.51100000000E-03 0. -1.
        -11    1    4    4    0    0  0.56507123702E+00  0.11159095383E+01  0.58016358420E+00  0.13788218326E+01  0.51100000000E-03 0.  1.
         12    1    4    4    0    0  0.50996765052E+01  0.94590707332E+01  0.45307582062E+01  0.11662267769E+02  0.00000000000E+00 0. -1.
</event>
<event>
 8    1  0.1253488E-006  0.9118800E+02  0.7816164E-02  0.1184000E+00
        -11   -1    0    0    0    0  0.00000000000E+00  0.00000000000E+00  0.45593999997E+02  0.45594000000E+02  0.51100000000E-03 0.  1.
         11   -1    0    0    0    0 -0.00000000000E+00 -0.00000000000E+00 -0.45593999997E+02  0.45594000000E+02  0.51100000000E-03 0. -1.
         23    2    1    2    0    0  0.00000000000E+00  0.00000000000E+00  0.17763568394E-14  0.91188000000E+02  0.91188000000E+02 0.  0.
    9900012    2    3    3    0    0 -0.17249929078E+02 -0.30518506612E+02 -0.11262316288E+02  0.54367094699E+02  0.40000023986E+02 0.  0.
        -12    1    3    3    0    0  0.17249929078E+02  0.30518506612E+02  0.11262316288E+02  0.36820905301E+02  0.00000000000E+00 0.  1.
         11    1    4    4    0    0 -0.39353330931E+01 -0.32854030413E+00 -0.51067466342E+01  0.64555128946E+01  0.51100000000E-03 0. -1.
        -11    1    4    4    0    0  0.39682774413E+01  0.11206198142E+01  0.83542266686E+01  0.93164434260E+01  0.51100000000E-03 0.  1.
         12    1    4    4    0    0 -0.17282873426E+02 -0.31310586122E+02 -0.14509796322E+02  0.38595138379E+02  0.00000000000E+00 0. -1.
</event>
<event>
 8    1  0.1253488E-006  0.9118800E+02  0.7816164E-02  0.1184000E+00
        -11   -1    0    0    0    0  0.00000000000E+00  0.00000000000E+00  0.45593999997E+02  0.45594000000E+02  0.51100000000E-03 0.  1.
         11   -1    0    0    0    0 -0.00000000000E+00 -0.00000000000E+00 -0.45593999997E+02  0.45594000000E+02  0.51100000000E-03 0. -1.
         23    2    1    2    0    0  0.00000000000E+00  0.00000000000E+00  0.00000000000E+00  0.91188000000E+02  0.91188000000E+02 0.  0.
    9900012    2    3    3    0    0  0.86182444765E+01 -0.34629949314E+02  0.90702760959E+01  0.54367116852E+02  0.40000074488E+02 0.  0.
        -12    1    3    3    0    0 -0.86182444765E+01  0.34629949314E+02 -0.90702760959E+01  0.36820883148E+02  0.00000000000E+00 0.  1.
         11    1    4    4    0    0 -0.58171440288E+01 -0.77781316682E+01 -0.19938859424E+01  0.99153455973E+01  0.51100000000E-03 0. -1.
        -11    1    4    4    0    0  0.62432992040E+01  0.44380903241E+01  0.93149091782E+01  0.12059973629E+02  0.51100000000E-03 0.  1.
        -12    1    4    4    0    0  0.81920893012E+01 -0.31289907970E+02  0.17492528601E+01  0.32391797626E+02  0.00000000000E+00 0.  1.
</event>
<event>
 8    1  0.1253488E-006  0.9118800E+02  0.7816164E-02  0.1184000E+00
        -11   -1    0    0    0    0  0.00000000000E+00  0.00000000000E+00  0.45593999997E+02  0.45594000000E+02  0.51100000000E-03 0.  1.
         11   -1    0    0    0    0 -0.00000000000E+00 -0.00000000000E+00 -0.45593999997E+02  0.45594000000E+02  0.51100000000E-03 0. -1.
         23    2    1    2    0    0  0.00000000000E+00  0.00000000000E+00 -0.26645352591E-14  0.91188000000E+02  0.91188000000E+02 0.  0.
    9900012    2    3    3    0    0 -0.36279053582E+02 -0.25662201587E+01 -0.57467198065E+01  0.54367081988E+02  0.39999995009E+02 0.  0.
        -12    1    3    3    0    0  0.36279053582E+02  0.25662201587E+01  0.57467198065E+01  0.36820918012E+02  0.00000000000E+00 0.  1.
         11    1    4    4    0    0 -0.33626647652E+02 -0.54052440780E+00 -0.13234819429E+02  0.36141444970E+02  0.51100000000E-03 0. -1.
        -11    1    4    4    0    0 -0.45149362464E+01 -0.54930720673E+01  0.10901713928E+02  0.13015600519E+02  0.51100000000E-03 0.  1.
         12    1    4    4    0    0  0.18625303166E+01  0.34673763164E+01 -0.34136143052E+01  0.52100364994E+01  0.00000000000E+00 0. -1.
</event>
<event>
 8    1  0.1253488E-006  0.9118800E+02  0.7816164E-02  0.1184000E+00
        -11   -1    0    0    0    0  0.00000000000E+00  0.00000000000E+00  0.45593999997E+02  0.45594000000E+02  0.51100000000E-03 0. -1.
         11   -1    0    0    0    0 -0.00000000000E+00 -0.00000000000E+00 -0.45593999997E+02  0.45594000000E+02  0.51100000000E-03 0.  1.
         23    2    1    2    0    0  0.35527136788E-14  0.00000000000E+00 -0.35527136788E-14  0.91188000000E+02  0.91188000000E+02 0.  0.
    9900012    2    3    3    0    0  0.22764034903E+02  0.16872901597E+02 -0.23513545614E+02  0.54367042371E+02  0.39999904693E+02 0.  0.
         12    1    3    3    0    0 -0.22764034903E+02 -0.16872901597E+02  0.23513545614E+02  0.36820957629E+02  0.00000000000E+00 0. -1.
         11    1    4    4    0    0 -0.19586214644E+01 -0.58749725227E+00  0.63298638771E+01  0.66519567066E+01  0.51100000000E-03 0. -1.
        -11    1    4    4    0    0  0.16192628132E+02  0.13740382506E+02 -0.31767628439E+02  0.38212321758E+02  0.51100000000E-03 0.  1.
        -12    1    4    4    0    0  0.85300282353E+01  0.37200163436E+01  0.19242189482E+01  0.95027639059E+01  0.00000000000E+00 0.  1.
</event>
<event>
 8    1  0.1253488E-006  0.9118800E+02  0.7816164E-02  0.1184000E+00
        -11   -1    0    0    0    0  0.00000000000E+00  0.00000000000E+00  0.45593999997E+02  0.45594000000E+02  0.51100000000E-03 0.  1.
         11   -1    0    0    0    0 -0.00000000000E+00 -0.00000000000E+00 -0.45593999997E+02  0.45594000000E+02  0.51100000000E-03 0. -1.
         23    2    1    2    0    0  0.00000000000E+00  0.00000000000E+00  0.00000000000E+00  0.91188000000E+02  0.91188000000E+02 0.  0.
    9900012    2    3    3    0    0 -0.36345027157E+01  0.18056655888E+02 -0.31883027470E+02  0.54367083764E+02  0.39999999056E+02 0.  0.
        -12    1    3    3    0    0  0.36345027157E+01 -0.18056655888E+02  0.31883027470E+02  0.36820916236E+02  0.00000000000E+00 0.  1.
         11    1    4    4    0    0  0.57787215656E+01  0.36041861958E+01 -0.76487310600E+01  0.10241429009E+02  0.51100000000E-03 0. -1.
        -11    1    4    4    0    0  0.11697007155E+02  0.28722043047E+01 -0.40514122492E+01  0.12707614860E+02  0.51100000000E-03 0.  1.
         12    1    4    4    0    0 -0.21110231437E+02  0.11580265388E+02 -0.20182884160E+02  0.31418039894E+02  0.00000000000E+00 0. -1.
</event>
<event>
 8    1  0.1253488E-006  0.9118800E+02  0.7816164E-02  0.1184000E+00
        -11   -1    0    0    0    0  0.00000000000E+00  0.00000000000E+00  0.45593999997E+02  0.45594000000E+02  0.51100000000E-03 0.  1.
         11   -1    0    0    0    0 -0.00000000000E+00 -0.00000000000E+00 -0.45593999997E+02  0.45594000000E+02  0.51100000000E-03 0. -1.
         23    2    1    2    0    0 -0.35527136788E-14 -0.35527136788E-14 -0.35527136788E-14  0.91188000000E+02  0.91188000000E+02 0.  0.
    9900012    2    3    3    0    0 -0.21188039523E+02 -0.24068674923E+02 -0.18098193043E+02  0.54367099375E+02  0.40000034646E+02 0.  0.
        -12    1    3    3    0    0  0.21188039523E+02  0.24068674923E+02  0.18098193043E+02  0.36820900625E+02  0.00000000000E+00 0.  1.
         11    1    4    4    0    0  0.31203405145E+01  0.43299781007E+01 -0.32658679805E+01  0.62570863192E+01  0.51100000000E-03 0. -1.
        -11    1    4    4    0    0 -0.78239238660E+01 -0.50847858275E+01 -0.17086297102E+02  0.19468188937E+02  0.51100000000E-03 0.  1.
         12    1    4    4    0    0 -0.16484456172E+02 -0.23313867196E+02  0.22539720388E+01  0.28641824119E+02  0.00000000000E+00 0. -1.
</event>
<event>
 8    1  0.1253488E-006  0.9118800E+02  0.7816164E-02  0.1184000E+00
        -11   -1    0    0    0    0  0.00000000000E+00  0.00000000000E+00  0.45593999997E+02  0.45594000000E+02  0.51100000000E-03 0.  1.
         11   -1    0    0    0    0 -0.00000000000E+00 -0.00000000000E+00 -0.45593999997E+02  0.45594000000E+02  0.51100000000E-03 0. -1.
         23    2    1    2    0    0  0.00000000000E+00 -0.88817841970E-15  0.35527136788E-14  0.91188000000E+02  0.91188000000E+02 0.  0.
    9900012    2    3    3    0    0 -0.32983903447E+02 -0.34071232220E+01 -0.16007261084E+02  0.54367098563E+02  0.40000032794E+02 0.  0.
        -12    1    3    3    0    0  0.32983903447E+02  0.34071232220E+01  0.16007261084E+02  0.36820901437E+02  0.00000000000E+00 0.  1.
         11    1    4    4    0    0 -0.47297390527E+01  0.12089964691E+01  0.24923479710E+00  0.48881716638E+01  0.51100000000E-03 0. -1.
        -11    1    4    4    0    0 -0.17483587973E+02 -0.13524331215E+02  0.62632930538E+01  0.22974164258E+02  0.51100000000E-03 0.  1.
         12    1    4    4    0    0 -0.10770576421E+02  0.89082115239E+01 -0.22519788935E+02  0.26504762641E+02  0.00000000000E+00 0. -1.
</event>
<event>
 8    1  0.1253488E-006  0.9118800E+02  0.7816164E-02  0.1184000E+00
        -11   -1    0    0    0    0  0.00000000000E+00  0.00000000000E+00  0.45593999997E+02  0.45594000000E+02  0.51100000000E-03 0.  1.
         11   -1    0    0    0    0 -0.00000000000E+00 -0.00000000000E+00 -0.45593999997E+02  0.45594000000E+02  0.51100000000E-03 0. -1.
         23    2    1    2    0    0  0.00000000000E+00  0.00000000000E+00  0.00000000000E+00  0.91188000000E+02  0.91188000000E+02 0.  0.
    9900012    2    3    3    0    0 -0.14879675586E+02 -0.27294776420E+02  0.19732475381E+02  0.54367079995E+02  0.39999990464E+02 0.  0.
        -12    1    3    3    0    0  0.14879675586E+02  0.27294776420E+02 -0.19732475381E+02  0.36820920005E+02  0.00000000000E+00 0.  1.
         11    1    4    4    0    0  0.17099922920E+01 -0.13653043339E+02 -0.99629194171E+01  0.16987920109E+02  0.51100000000E-03 0. -1.
        -11    1    4    4    0    0 -0.12650000748E+02 -0.13849188263E+02  0.24560405775E+02  0.30903657819E+02  0.51100000000E-03 0.  1.
        -12    1    4    4    0    0 -0.39396671302E+01  0.20745518234E+00  0.51349890233E+01  0.64755020670E+01  0.00000000000E+00 0.  1.
</event>
<event>
 8    1  0.1253488E-006  0.9118800E+02  0.7816164E-02  0.1184000E+00
        -11   -1    0    0    0    0  0.00000000000E+00  0.00000000000E+00  0.45593999997E+02  0.45594000000E+02  0.51100000000E-03 0. -1.
         11   -1    0    0    0    0 -0.00000000000E+00 -0.00000000000E+00 -0.45593999997E+02  0.45594000000E+02  0.51100000000E-03 0.  1.
         23    2    1    2    0    0  0.00000000000E+00  0.00000000000E+00  0.00000000000E+00  0.91188000000E+02  0.91188000000E+02 0.  0.
    9900012    2    3    3    0    0  0.28533967317E+02  0.22942050221E+02  0.39056463022E+01  0.54367095174E+02  0.40000025068E+02 0.  0.
        -12    1    3    3    0    0 -0.28533967317E+02 -0.22942050221E+02 -0.39056463022E+01  0.36820904826E+02  0.00000000000E+00 0.  1.
         11    1    4    4    0    0  0.21153455591E+02  0.15327272610E+02  0.35886620357E+01  0.26368019731E+02  0.51100000000E-03 0. -1.
        -11    1    4    4    0    0  0.73755484677E+01  0.16987037493E+02 -0.93960532626E+00  0.18542950585E+02  0.51100000000E-03 0.  1.
         12    1    4    4    0    0  0.49632581053E-02 -0.93722598810E+01  0.12565895928E+01  0.94561248572E+01  0.00000000000E+00 0. -1.
</event>
<event>
 8    1  0.1253488E-006  0.9118800E+02  0.7816164E-02  0.1184000E+00
        -11   -1    0    0    0    0  0.00000000000E+00  0.00000000000E+00  0.45593999997E+02  0.45594000000E+02  0.51100000000E-03 0.  1.
         11   -1    0    0    0    0 -0.00000000000E+00 -0.00000000000E+00 -0.45593999997E+02  0.45594000000E+02  0.51100000000E-03 0. -1.
         23    2    1    2    0    0  0.00000000000E+00  0.00000000000E+00  0.35527136788E-14  0.91188000000E+02  0.91188000000E+02 0.  0.
    9900012    2    3    3    0    0 -0.21931156842E+02 -0.13734854412E+02 -0.26194623430E+02  0.54367079822E+02  0.39999990070E+02 0.  0.
        -12    1    3    3    0    0  0.21931156842E+02  0.13734854412E+02  0.26194623430E+02  0.36820920178E+02  0.00000000000E+00 0.  1.
         11    1    4    4    0    0 -0.19717185204E+01  0.32733355613E+01 -0.98179408266E+01  0.10535386180E+02  0.51100000000E-03 0. -1.
        -11    1    4    4    0    0  0.37993843086E+01 -0.16046137214E+02 -0.97109087592E+01  0.19136760170E+02  0.51100000000E-03 0.  1.
        -12    1    4    4    0    0 -0.23758822630E+02 -0.96205275896E+00 -0.66657738441E+01  0.24694933472E+02  0.00000000000E+00 0.  1.
</event>
<event>
 8    1  0.1253488E-006  0.9118800E+02  0.7816164E-02  0.1184000E+00
        -11   -1    0    0    0    0  0.00000000000E+00  0.00000000000E+00  0.45593999997E+02  0.45594000000E+02  0.51100000000E-03 0.  1.
         11   -1    0    0    0    0 -0.00000000000E+00 -0.00000000000E+00 -0.45593999997E+02  0.45594000000E+02  0.51100000000E-03 0. -1.
         23    2    1    2    0    0 -0.44408920985E-15  0.00000000000E+00  0.00000000000E+00  0.91188000000E+02  0.91188000000E+02 0.  0.
    9900012    2    3    3    0    0 -0.21863395271E+01  0.32450007693E+02 -0.17262535921E+02  0.54367106119E+02  0.40000050018E+02 0.  0.
         12    1    3    3    0    0  0.21863395271E+01 -0.32450007693E+02  0.17262535921E+02  0.36820893881E+02  0.00000000000E+00 0. -1.
         11    1    4    4    0    0  0.12261185506E+01  0.11984858127E+02 -0.17308160178E+02  0.21088209977E+02  0.51100000000E-03 0. -1.
        -11    1    4    4    0    0 -0.10966003109E+02  0.16195013619E+02  0.83519372361E+01  0.21267029557E+02  0.51100000000E-03 0.  1.
        -12    1    4    4    0    0  0.75535450314E+01  0.42701359472E+01 -0.83063129788E+01  0.12011866585E+02  0.00000000000E+00 0.  1.
</event>
<event>
 8    1  0.1253488E-006  0.9118800E+02  0.7816164E-02  0.1184000E+00
        -11   -1    0    0    0    0  0.00000000000E+00  0.00000000000E+00  0.45593999997E+02  0.45594000000E+02  0.51100000000E-03 0. -1.
         11   -1    0    0    0    0 -0.00000000000E+00 -0.00000000000E+00 -0.45593999997E+02  0.45594000000E+02  0.51100000000E-03 0.  1.
         23    2    1    2    0    0  0.00000000000E+00  0.00000000000E+00  0.00000000000E+00  0.91188000000E+02  0.91188000000E+02 0.  0.
    9900012    2    3    3    0    0  0.25824413534E+02 -0.13505641046E+02 -0.22505051039E+02  0.54367082077E+02  0.39999995210E+02 0.  0.
         12    1    3    3    0    0 -0.25824413534E+02  0.13505641046E+02  0.22505051039E+02  0.36820917923E+02  0.00000000000E+00 0. -1.
         11    1    4    4    0    0  0.44236260209E+01 -0.28996237583E+00  0.35182206863E+01  0.56595425973E+01  0.51100000000E-03 0. -1.
        -11    1    4    4    0    0  0.11827957204E+02 -0.17165442245E+02 -0.15831805853E+00  0.20846535539E+02  0.51100000000E-03 0.  1.
        -12    1    4    4    0    0  0.95728303089E+01  0.39497635747E+01 -0.25864953666E+02  0.27861003941E+02  0.00000000000E+00 0.  1.
</event>
<event>
 8    1  0.1253488E-006  0.9118800E+02  0.7816164E-02  0.1184000E+00
        -11   -1    0    0    0    0  0.00000000000E+00  0.00000000000E+00  0.45593999997E+02  0.45594000000E+02  0.51100000000E-03 0.  1.
         11   -1    0    0    0    0 -0.00000000000E+00 -0.00000000000E+00 -0.45593999997E+02  0.45594000000E+02  0.51100000000E-03 0. -1.
         23    2    1    2    0    0 -0.17763568394E-14  0.35527136788E-14 -0.35527136788E-14  0.91188000000E+02  0.91188000000E+02 0.  0.
    9900012    2    3    3    0    0 -0.10341327594E+02  0.30375235215E+02 -0.18060496014E+02  0.54367088998E+02  0.40000010989E+02 0.  0.
        -12    1    3    3    0    0  0.10341327594E+02 -0.30375235215E+02  0.18060496014E+02  0.36820911002E+02  0.00000000000E+00 0.  1.
         11    1    4    4    0    0  0.53263729288E+01  0.25664482713E+02 -0.37637653429E+01  0.26480216225E+02  0.51100000000E-03 0. -1.
        -11    1    4    4    0    0 -0.17254737628E+02  0.49594385761E+01 -0.52593412095E+01  0.18707823813E+02  0.51100000000E-03 0.  1.
         12    1    4    4    0    0  0.15870371053E+01 -0.24868607437E+00 -0.90373894614E+01  0.91790489602E+01  0.00000000000E+00 0. -1.
</event>
<event>
 8    1  0.1253488E-006  0.9118800E+02  0.7816164E-02  0.1184000E+00
        -11   -1    0    0    0    0  0.00000000000E+00  0.00000000000E+00  0.45593999997E+02  0.45594000000E+02  0.51100000000E-03 0.  1.
         11   -1    0    0    0    0 -0.00000000000E+00 -0.00000000000E+00 -0.45593999997E+02  0.45594000000E+02  0.51100000000E-03 0. -1.
         23    2    1    2    0    0  0.00000000000E+00 -0.71054273576E-14  0.00000000000E+00  0.91188000000E+02  0.91188000000E+02 0.  0.
    9900012    2    3    3    0    0  0.24594333830E+02  0.25774482679E+02  0.93045910958E+01  0.54367073486E+02  0.39999975625E+02 0.  0.
        -12    1    3    3    0    0 -0.24594333830E+02 -0.25774482679E+02 -0.93045910958E+01  0.36820926514E+02  0.00000000000E+00 0.  1.
         11    1    4    4    0    0  0.32820000421E+01  0.34322530132E+01  0.16218342684E+02  0.16899305451E+02  0.51100000000E-03 0. -1.
        -11    1    4    4    0    0  0.93708600241E+01  0.12223627839E+02  0.66308319969E+01  0.16768960265E+02  0.51100000000E-03 0.  1.
         12    1    4    4    0    0  0.11941473764E+02  0.10118601826E+02 -0.13544583586E+02  0.20698807770E+02  0.00000000000E+00 0. -1.
</event>
<event>
 8    1  0.1253488E-006  0.9118800E+02  0.7816164E-02  0.1184000E+00
        -11   -1    0    0    0    0  0.00000000000E+00  0.00000000000E+00  0.45593999997E+02  0.45594000000E+02  0.51100000000E-03 0.  1.
         11   -1    0    0    0    0 -0.00000000000E+00 -0.00000000000E+00 -0.45593999997E+02  0.45594000000E+02  0.51100000000E-03 0. -1.
         23    2    1    2    0    0 -0.71054273576E-14 -0.88817841970E-15  0.00000000000E+00  0.91188000000E+02  0.91188000000E+02 0.  0.
    9900012    2    3    3    0    0  0.35551723253E+02  0.61678171680E+01  0.73357249412E+01  0.54367083997E+02  0.39999999589E+02 0.  0.
         12    1    3    3    0    0 -0.35551723253E+02 -0.61678171680E+01 -0.73357249412E+01  0.36820916003E+02  0.00000000000E+00 0. -1.
         11    1    4    4    0    0  0.30741903264E+01 -0.45996492265E+01  0.49963642220E+01  0.74546009196E+01  0.51100000000E-03 0.  1.
        -11    1    4    4    0    0  0.17168064297E+02 -0.10502988600E+02  0.44784222521E+01  0.20618231431E+02  0.51100000000E-03 0. -1.
        -12    1    4    4    0    0  0.15309468630E+02  0.21270454995E+02 -0.21390615329E+01  0.26294251646E+02  0.00000000000E+00 0.  1.
</event>
<event>
 8    1  0.1253488E-006  0.9118800E+02  0.7816164E-02  0.1184000E+00
        -11   -1    0    0    0    0  0.00000000000E+00  0.00000000000E+00  0.45593999997E+02  0.45594000000E+02  0.51100000000E-03 0. -1.
         11   -1    0    0    0    0 -0.00000000000E+00 -0.00000000000E+00 -0.45593999997E+02  0.45594000000E+02  0.51100000000E-03 0.  1.
         23    2    1    2    0    0  0.00000000000E+00  0.17763568394E-14  0.00000000000E+00  0.91188000000E+02  0.91188000000E+02 0.  0.
    9900012    2    3    3    0    0 -0.19030514453E+02  0.12889428988E+02  0.28765932431E+02  0.54367126455E+02  0.40000096380E+02 0.  0.
        -12    1    3    3    0    0  0.19030514453E+02 -0.12889428988E+02 -0.28765932431E+02  0.36820873545E+02  0.00000000000E+00 0.  1.
         11    1    4    4    0    0 -0.17888539906E+01  0.25380705714E+01 -0.33074926394E+00  0.31226905325E+01  0.51100000000E-03 0. -1.
        -11    1    4    4    0    0 -0.47589358332E+01  0.48634799657E+01 -0.87106112484E+01  0.11053309741E+02  0.51100000000E-03 0.  1.
         12    1    4    4    0    0 -0.12482724629E+02  0.54878784505E+01  0.37807292944E+02  0.40191126182E+02  0.00000000000E+00 0. -1.
</event>
<event>
 8    1  0.1253488E-006  0.9118800E+02  0.7816164E-02  0.1184000E+00
        -11   -1    0    0    0    0  0.00000000000E+00  0.00000000000E+00  0.45593999997E+02  0.45594000000E+02  0.51100000000E-03 0. -1.
         11   -1    0    0    0    0 -0.00000000000E+00 -0.00000000000E+00 -0.45593999997E+02  0.45594000000E+02  0.51100000000E-03 0.  1.
         23    2    1    2    0    0 -0.26645352591E-14  0.00000000000E+00  0.00000000000E+00  0.91188000000E+02  0.91188000000E+02 0.  0.
    9900012    2    3    3    0    0 -0.29312985530E+01 -0.16991648215E+02  0.32534051180E+02  0.54367175641E+02  0.40000208509E+02 0.  0.
        -12    1    3    3    0    0  0.29312985530E+01  0.16991648215E+02 -0.32534051180E+02  0.36820824359E+02  0.00000000000E+00 0.  1.
         11    1    4    4    0    0  0.21024381473E+01 -0.13769472646E+02  0.42483925049E+01  0.14562536257E+02  0.51100000000E-03 0. -1.
        -11    1    4    4    0    0  0.11184682950E+02 -0.32961900596E+01  0.99830433838E+01  0.15350021403E+02  0.51100000000E-03 0.  1.
        -12    1    4    4    0    0 -0.16218419650E+02  0.74014490182E-01  0.18302615291E+02  0.24454617981E+02  0.00000000000E+00 0.  1.
</event>
<event>
 8    1  0.1253488E-006  0.9118800E+02  0.7816164E-02  0.1184000E+00
        -11   -1    0    0    0    0  0.00000000000E+00  0.00000000000E+00  0.45593999997E+02  0.45594000000E+02  0.51100000000E-03 0.  1.
         11   -1    0    0    0    0 -0.00000000000E+00 -0.00000000000E+00 -0.45593999997E+02  0.45594000000E+02  0.51100000000E-03 0. -1.
         23    2    1    2    0    0  0.00000000000E+00 -0.13322676296E-14  0.71054273576E-14  0.91188000000E+02  0.91188000000E+02 0.  0.
    9900012    2    3    3    0    0  0.17246423457E+02  0.25632966989E+01  0.32431114851E+02  0.54366989388E+02  0.39999783908E+02 0.  0.
         12    1    3    3    0    0 -0.17246423457E+02 -0.25632966989E+01 -0.32431114851E+02  0.36821010612E+02  0.00000000000E+00 0. -1.
         11    1    4    4    0    0 -0.35267024143E+01 -0.53014011988E+01 -0.45293238303E+01  0.78139144614E+01  0.51100000000E-03 0. -1.
        -11    1    4    4    0    0  0.20217115008E+02 -0.16057188316E+00  0.25276258940E+02  0.32367372289E+02  0.51100000000E-03 0.  1.
         12    1    4    4    0    0  0.55601086304E+00  0.80252697808E+01  0.11684179740E+02  0.14185702638E+02  0.00000000000E+00 0. -1.
</event>
<event>
 8    1  0.1253488E-006  0.9118800E+02  0.7816164E-02  0.1184000E+00
        -11   -1    0    0    0    0  0.00000000000E+00  0.00000000000E+00  0.45593999997E+02  0.45594000000E+02  0.51100000000E-03 0. -1.
         11   -1    0    0    0    0 -0.00000000000E+00 -0.00000000000E+00 -0.45593999997E+02  0.45594000000E+02  0.51100000000E-03 0.  1.
         23    2    1    2    0    0  0.00000000000E+00 -0.88817841970E-15  0.00000000000E+00  0.91188000000E+02  0.91188000000E+02 0.  0.
    9900012    2    3    3    0    0  0.99339083040E+01  0.42164534191E+01  0.35204027270E+02  0.54367020251E+02  0.39999854266E+02 0.  0.
        -12    1    3    3    0    0 -0.99339083040E+01 -0.42164534191E+01 -0.35204027270E+02  0.36820979749E+02  0.00000000000E+00 0.  1.
         11    1    4    4    0    0 -0.19025901862E+01  0.77074578115E+01  0.21170694626E+02  0.22610242514E+02  0.51100000000E-03 0. -1.
        -11    1    4    4    0    0  0.80190429515E+01 -0.35242519997E+01 -0.64771836767E+01  0.10894003427E+02  0.51100000000E-03 0.  1.
        -12    1    4    4    0    0  0.38174555388E+01  0.33247607235E-01  0.20510516321E+02  0.20862774311E+02  0.00000000000E+00 0.  1.
</event>
<event>
 8    1  0.1253488E-006  0.9118800E+02  0.7816164E-02  0.1184000E+00
        -11   -1    0    0    0    0  0.00000000000E+00  0.00000000000E+00  0.45593999997E+02  0.45594000000E+02  0.51100000000E-03 0.  1.
         11   -1    0    0    0    0 -0.00000000000E+00 -0.00000000000E+00 -0.45593999997E+02  0.45594000000E+02  0.51100000000E-03 0. -1.
         23    2    1    2    0    0  0.00000000000E+00  0.44408920985E-15  0.00000000000E+00  0.91188000000E+02  0.91188000000E+02 0.  0.
    9900012    2    3    3    0    0 -0.33902351517E+02 -0.20780777359E+01 -0.14215906614E+02  0.54367084119E+02  0.39999999866E+02 0.  0.
        -12    1    3    3    0    0  0.33902351517E+02  0.20780777359E+01  0.14215906614E+02  0.36820915881E+02  0.00000000000E+00 0.  1.
         11    1    4    4    0    0 -0.14685525780E+02  0.59071838251E+01 -0.19473290617E+02  0.25095189497E+02  0.51100000000E-03 0. -1.
        -11    1    4    4    0    0 -0.59659489943E+01  0.67246731562E+01  0.19634333356E+01  0.92015676482E+01  0.51100000000E-03 0.  1.
         12    1    4    4    0    0 -0.13250876743E+02 -0.14709934717E+02  0.32939506672E+01  0.20070326974E+02  0.00000000000E+00 0. -1.
</event>
<event>
 8    1  0.1253488E-006  0.9118800E+02  0.7816164E-02  0.1184000E+00
        -11   -1    0    0    0    0  0.00000000000E+00  0.00000000000E+00  0.45593999997E+02  0.45594000000E+02  0.51100000000E-03 0. -1.
         11   -1    0    0    0    0 -0.00000000000E+00 -0.00000000000E+00 -0.45593999997E+02  0.45594000000E+02  0.51100000000E-03 0.  1.
         23    2    1    2    0    0  0.00000000000E+00  0.00000000000E+00 -0.71054273576E-14  0.91188000000E+02  0.91188000000E+02 0.  0.
    9900012    2    3    3    0    0  0.26887036996E+01  0.10405408061E+02  0.35217580787E+02  0.54367086907E+02  0.40000006223E+02 0.  0.
        -12    1    3    3    0    0 -0.26887036996E+01 -0.10405408061E+02 -0.35217580787E+02  0.36820913093E+02  0.00000000000E+00 0.  1.
         11    1    4    4    0    0 -0.43651143933E+01  0.13272081272E+02  0.16311678605E+02  0.21477272269E+02  0.51100000000E-03 0. -1.
        -11    1    4    4    0    0  0.65695279767E+01 -0.25948345663E+01 -0.52040400117E+01  0.87734769030E+01  0.51100000000E-03 0.  1.
        -12    1    4    4    0    0  0.48429011615E+00 -0.27183864521E+00  0.24109942194E+02  0.24116337735E+02  0.00000000000E+00 0.  1.
</event>
<event>
 8    1  0.1253488E-006  0.9118800E+02  0.7816164E-02  0.1184000E+00
        -11   -1    0    0    0    0  0.00000000000E+00  0.00000000000E+00  0.45593999997E+02  0.45594000000E+02  0.51100000000E-03 0.  1.
         11   -1    0    0    0    0 -0.00000000000E+00 -0.00000000000E+00 -0.45593999997E+02  0.45594000000E+02  0.51100000000E-03 0. -1.
         23    2    1    2    0    0  0.00000000000E+00  0.00000000000E+00 -0.17763568394E-14  0.91188000000E+02  0.91188000000E+02 0.  0.
    9900012    2    3    3    0    0  0.35171273339E+02 -0.92507716181E+01 -0.57605956799E+01  0.54367086019E+02  0.40000004198E+02 0.  0.
         12    1    3    3    0    0 -0.35171273339E+02  0.92507716181E+01  0.57605956799E+01  0.36820913981E+02  0.00000000000E+00 0. -1.
         11    1    4    4    0    0  0.26776931603E+02 -0.84296248830E+01 -0.20144512813E+02  0.34552337670E+02  0.51100000000E-03 0. -1.
        -11    1    4    4    0    0  0.49689490276E+01 -0.57079136223E+01  0.91762221739E+01  0.11894275346E+02  0.51100000000E-03 0.  1.
        -12    1    4    4    0    0  0.34253927085E+01  0.48867668871E+01  0.52076949589E+01  0.79204730036E+01  0.00000000000E+00 0.  1.
</event>
<event>
 8    1  0.1253488E-006  0.9118800E+02  0.7816164E-02  0.1184000E+00
        -11   -1    0    0    0    0  0.00000000000E+00  0.00000000000E+00  0.45593999997E+02  0.45594000000E+02  0.51100000000E-03 0. -1.
         11   -1    0    0    0    0 -0.00000000000E+00 -0.00000000000E+00 -0.45593999997E+02  0.45594000000E+02  0.51100000000E-03 0.  1.
         23    2    1    2    0    0  0.35527136788E-14 -0.35527136788E-14 -0.88817841970E-15  0.91188000000E+02  0.91188000000E+02 0.  0.
    9900012    2    3    3    0    0  0.30036245978E+02  0.20882290920E+02 -0.41874333239E+01  0.54367071924E+02  0.39999972066E+02 0.  0.
        -12    1    3    3    0    0 -0.30036245978E+02 -0.20882290920E+02  0.41874333239E+01  0.36820928076E+02  0.00000000000E+00 0.  1.
         11    1    4    4    0    0  0.12963955333E+02  0.77665711064E+01  0.62197419987E+01  0.16342244503E+02  0.51100000000E-03 0. -1.
        -11    1    4    4    0    0  0.11661363309E+02 -0.74224998734E+01 -0.94875869770E+01  0.16765894115E+02  0.51100000000E-03 0.  1.
        -12    1    4    4    0    0  0.54109273365E+01  0.20538219687E+02 -0.91958834566E+00  0.21258933305E+02  0.00000000000E+00 0.  1.
</event>
<event>
 8    1  0.1253488E-006  0.9118800E+02  0.7816164E-02  0.1184000E+00
        -11   -1    0    0    0    0  0.00000000000E+00  0.00000000000E+00  0.45593999997E+02  0.45594000000E+02  0.51100000000E-03 0.  1.
         11   -1    0    0    0    0 -0.00000000000E+00 -0.00000000000E+00 -0.45593999997E+02  0.45594000000E+02  0.51100000000E-03 0. -1.
         23    2    1    2    0    0  0.00000000000E+00  0.00000000000E+00 -0.71054273576E-14  0.91188000000E+02  0.91188000000E+02 0.  0.
    9900012    2    3    3    0    0 -0.10209057312E+02 -0.12084758505E+02 -0.33249270869E+02  0.54367078601E+02  0.39999987288E+02 0.  0.
        -12    1    3    3    0    0  0.10209057312E+02  0.12084758505E+02  0.33249270869E+02  0.36820921399E+02  0.00000000000E+00 0.  1.
         11    1    4    4    0    0 -0.11120462833E+02  0.50946769636E+00 -0.37211353569E+02  0.38840817263E+02  0.51100000000E-03 0. -1.
        -11    1    4    4    0    0 -0.10125750808E+01 -0.11170229506E+01  0.35778929240E+01  0.38825721632E+01  0.51100000000E-03 0.  1.
         12    1    4    4    0    0  0.19239806017E+01 -0.11477203251E+02  0.38418977642E+00  0.11643689175E+02  0.00000000000E+00 0. -1.
</event>
<event>
 8    1  0.1253488E-006  0.9118800E+02  0.7816164E-02  0.1184000E+00
        -11   -1    0    0    0    0  0.00000000000E+00  0.00000000000E+00  0.45593999997E+02  0.45594000000E+02  0.51100000000E-03 0.  1.
         11   -1    0    0    0    0 -0.00000000000E+00 -0.00000000000E+00 -0.45593999997E+02  0.45594000000E+02  0.51100000000E-03 0. -1.
         23    2    1    2    0    0  0.00000000000E+00  0.35527136788E-14  0.00000000000E+00  0.91188000000E+02  0.91188000000E+02 0.  0.
    9900012    2    3    3    0    0  0.72028466257E+01  0.30847627135E+02 -0.18770263375E+02  0.54367083573E+02  0.39999998621E+02 0.  0.
        -12    1    3    3    0    0 -0.72028466257E+01 -0.30847627135E+02  0.18770263375E+02  0.36820916427E+02  0.00000000000E+00 0.  1.
         11    1    4    4    0    0  0.18079098194E+02  0.13952018317E+02 -0.39215015571E+01  0.23170903767E+02  0.51100000000E-03 0. -1.
        -11    1    4    4    0    0  0.51022568095E+01  0.46974683056E+01 -0.62350068803E+01  0.93260143733E+01  0.51100000000E-03 0.  1.
        -12    1    4    4    0    0 -0.15978508378E+02  0.12198140512E+02 -0.86137549371E+01  0.21870165433E+02  0.00000000000E+00 0.  1.
</event>
<event>
 8    1  0.1253488E-006  0.9118800E+02  0.7816164E-02  0.1184000E+00
        -11   -1    0    0    0    0  0.00000000000E+00  0.00000000000E+00  0.45593999997E+02  0.45594000000E+02  0.51100000000E-03 0.  1.
         11   -1    0    0    0    0 -0.00000000000E+00 -0.00000000000E+00 -0.45593999997E+02  0.45594000000E+02  0.51100000000E-03 0. -1.
         23    2    1    2    0    0  0.00000000000E+00  0.35527136788E-14 -0.44408920985E-15  0.91188000000E+02  0.91188000000E+02 0.  0.
    9900012    2    3    3    0    0  0.34756915070E+02 -0.12119671538E+02 -0.92229562206E+00  0.54367079146E+02  0.39999988529E+02 0.  0.
        -12    1    3    3    0    0 -0.34756915070E+02  0.12119671538E+02  0.92229562206E+00  0.36820920854E+02  0.00000000000E+00 0.  1.
         11    1    4    4    0    0  0.11545061459E+02  0.99182291581E+01 -0.92505236240E+01  0.17811005061E+02  0.51100000000E-03 0. -1.
        -11    1    4    4    0    0  0.15488814533E+02 -0.87737290047E+01  0.11072665022E+02  0.20963912021E+02  0.51100000000E-03 0.  1.
         12    1    4    4    0    0  0.77230390778E+01 -0.13264171691E+02 -0.27444370198E+01  0.15592162063E+02  0.00000000000E+00 0. -1.
</event>
<event>
 8    1  0.1253488E-006  0.9118800E+02  0.7816164E-02  0.1184000E+00
        -11   -1    0    0    0    0  0.00000000000E+00  0.00000000000E+00  0.45593999997E+02  0.45594000000E+02  0.51100000000E-03 0. -1.
         11   -1    0    0    0    0 -0.00000000000E+00 -0.00000000000E+00 -0.45593999997E+02  0.45594000000E+02  0.51100000000E-03 0.  1.
         23    2    1    2    0    0  0.00000000000E+00  0.00000000000E+00  0.00000000000E+00  0.91188000000E+02  0.91188000000E+02 0.  0.
    9900012    2    3    3    0    0  0.13813718772E+02  0.20863105145E+02 -0.27012805200E+02  0.54367087092E+02  0.40000006645E+02 0.  0.
         12    1    3    3    0    0 -0.13813718772E+02 -0.20863105145E+02  0.27012805200E+02  0.36820912908E+02  0.00000000000E+00 0. -1.
         11    1    4    4    0    0  0.16393463403E+02  0.60549134989E+01  0.50399499232E+00  0.17483181376E+02  0.51100000000E-03 0. -1.
        -11    1    4    4    0    0 -0.91435528105E+01  0.27619775094E+01 -0.17362008258E+02  0.19815963484E+02  0.51100000000E-03 0.  1.
        -12    1    4    4    0    0  0.65638081796E+01  0.12046214137E+02 -0.10154791934E+02  0.17067942233E+02  0.00000000000E+00 0.  1.
</event>
<event>
 8    1  0.1253488E-006  0.9118800E+02  0.7816164E-02  0.1184000E+00
        -11   -1    0    0    0    0  0.00000000000E+00  0.00000000000E+00  0.45593999997E+02  0.45594000000E+02  0.51100000000E-03 0.  1.
         11   -1    0    0    0    0 -0.00000000000E+00 -0.00000000000E+00 -0.45593999997E+02  0.45594000000E+02  0.51100000000E-03 0. -1.
         23    2    1    2    0    0 -0.17763568394E-14  0.00000000000E+00  0.00000000000E+00  0.91188000000E+02  0.91188000000E+02 0.  0.
    9900012    2    3    3    0    0  0.91982446941E+01  0.34102650076E+02  0.10401001780E+02  0.54367091732E+02  0.40000017221E+02 0.  0.
         12    1    3    3    0    0 -0.91982446941E+01 -0.34102650076E+02 -0.10401001780E+02  0.36820908268E+02  0.00000000000E+00 0. -1.
         11    1    4    4    0    0  0.60181626439E+00 -0.46631968241E+01  0.59286385463E+01  0.75667921017E+01  0.51100000000E-03 0.  1.
        -11    1    4    4    0    0 -0.15378102005E+01  0.34789369803E+02 -0.51183969668E+00  0.34827102832E+02  0.51100000000E-03 0. -1.
        -12    1    4    4    0    0  0.10134238630E+02  0.39764770970E+01  0.49842029305E+01  0.11973196798E+02  0.00000000000E+00 0.  1.
</event>
<event>
 8    1  0.1253488E-006  0.9118800E+02  0.7816164E-02  0.1184000E+00
        -11   -1    0    0    0    0  0.00000000000E+00  0.00000000000E+00  0.45593999997E+02  0.45594000000E+02  0.51100000000E-03 0. -1.
         11   -1    0    0    0    0 -0.00000000000E+00 -0.00000000000E+00 -0.45593999997E+02  0.45594000000E+02  0.51100000000E-03 0.  1.
         23    2    1    2    0    0 -0.26645352591E-14  0.00000000000E+00 -0.35527136788E-14  0.91188000000E+02  0.91188000000E+02 0.  0.
    9900012    2    3    3    0    0 -0.49212657485E+01 -0.27037967529E+02 -0.24505287377E+02  0.54367086729E+02  0.40000005816E+02 0.  0.
         12    1    3    3    0    0  0.49212657485E+01  0.27037967529E+02  0.24505287377E+02  0.36820913271E+02  0.00000000000E+00 0. -1.
         11    1    4    4    0    0 -0.17756389481E+02 -0.11532171086E+02 -0.16860981120E+02  0.27066086195E+02  0.51100000000E-03 0. -1.
        -11    1    4    4    0    0 -0.35194998077E+01 -0.49886667417E+01 -0.45448817263E+01  0.76111513534E+01  0.51100000000E-03 0.  1.
        -12    1    4    4    0    0  0.16354623541E+02 -0.10517129702E+02 -0.30994245309E+01  0.19689849180E+02  0.00000000000E+00 0.  1.
</event>
<event>
 8    1  0.1253488E-006  0.9118800E+02  0.7816164E-02  0.1184000E+00
        -11   -1    0    0    0    0  0.00000000000E+00  0.00000000000E+00  0.45593999997E+02  0.45594000000E+02  0.51100000000E-03 0.  1.
         11   -1    0    0    0    0 -0.00000000000E+00 -0.00000000000E+00 -0.45593999997E+02  0.45594000000E+02  0.51100000000E-03 0. -1.
         23    2    1    2    0    0  0.35527136788E-14  0.00000000000E+00  0.00000000000E+00  0.91188000000E+02  0.91188000000E+02 0.  0.
    9900012    2    3    3    0    0 -0.19427361660E+02 -0.24148208478E+02  0.19880181447E+02  0.54367082464E+02  0.39999996094E+02 0.  0.
         12    1    3    3    0    0  0.19427361660E+02  0.24148208478E+02 -0.19880181447E+02  0.36820917536E+02  0.00000000000E+00 0. -1.
         11    1    4    4    0    0  0.51493806666E+01 -0.18013205755E+02  0.41124472640E+00  0.18739285613E+02  0.51100000000E-03 0. -1.
        -11    1    4    4    0    0 -0.79651175496E+01 -0.72859012427E+01  0.11247651149E+01  0.10853227691E+02  0.51100000000E-03 0.  1.
        -12    1    4    4    0    0 -0.16611624777E+02  0.11508985189E+01  0.18344171606E+02  0.24774569160E+02  0.00000000000E+00 0.  1.
</event>
<event>
 8    1  0.1253488E-006  0.9118800E+02  0.7816164E-02  0.1184000E+00
        -11   -1    0    0    0    0  0.00000000000E+00  0.00000000000E+00  0.45593999997E+02  0.45594000000E+02  0.51100000000E-03 0. -1.
         11   -1    0    0    0    0 -0.00000000000E+00 -0.00000000000E+00 -0.45593999997E+02  0.45594000000E+02  0.51100000000E-03 0.  1.
         23    2    1    2    0    0  0.00000000000E+00  0.00000000000E+00  0.00000000000E+00  0.91188000000E+02  0.91188000000E+02 0.  0.
    9900012    2    3    3    0    0  0.17053672370E+02  0.19668778117E+02 -0.26040185953E+02  0.54367083955E+02  0.39999999493E+02 0.  0.
         12    1    3    3    0    0 -0.17053672370E+02 -0.19668778117E+02  0.26040185953E+02  0.36820916045E+02  0.00000000000E+00 0. -1.
         11    1    4    4    0    0  0.79233394529E+01  0.70636246758E+01  0.66238916014E+01  0.12511995918E+02  0.51100000000E-03 0. -1.
        -11    1    4    4    0    0  0.15666728575E+02  0.85780097119E+01 -0.26744859084E+02  0.32160785478E+02  0.51100000000E-03 0.  1.
         12    1    4    4    0    0 -0.65363956581E+01  0.40271437292E+01 -0.59192184699E+01  0.96943025592E+01  0.00000000000E+00 0. -1.
</event>
<event>
 8    1  0.1253488E-006  0.9118800E+02  0.7816164E-02  0.1184000E+00
        -11   -1    0    0    0    0  0.00000000000E+00  0.00000000000E+00  0.45593999997E+02  0.45594000000E+02  0.51100000000E-03 0. -1.
         11   -1    0    0    0    0 -0.00000000000E+00 -0.00000000000E+00 -0.45593999997E+02  0.45594000000E+02  0.51100000000E-03 0.  1.
         23    2    1    2    0    0  0.00000000000E+00  0.88817841970E-15  0.00000000000E+00  0.91188000000E+02  0.91188000000E+02 0.  0.
    9900012    2    3    3    0    0 -0.14515346228E+02  0.44920295198E+01 -0.33539625950E+02  0.54367080481E+02  0.39999991573E+02 0.  0.
         12    1    3    3    0    0  0.14515346228E+02 -0.44920295198E+01  0.33539625950E+02  0.36820919519E+02  0.00000000000E+00 0. -1.
         11    1    4    4    0    0  0.69463313178E+01  0.12690162652E+02 -0.16233513449E+02  0.21744394819E+02  0.51100000000E-03 0. -1.
        -11    1    4    4    0    0 -0.86129067972E+01 -0.94915832092E+01 -0.14601585170E+02  0.19428808637E+02  0.51100000000E-03 0.  1.
         12    1    4    4    0    0 -0.12848770749E+02  0.12934500769E+01 -0.27045273313E+01  0.13193877025E+02  0.00000000000E+00 0. -1.
</event>
<event>
 8    1  0.1253488E-006  0.9118800E+02  0.7816164E-02  0.1184000E+00
        -11   -1    0    0    0    0  0.00000000000E+00  0.00000000000E+00  0.45593999997E+02  0.45594000000E+02  0.51100000000E-03 0.  1.
         11   -1    0    0    0    0 -0.00000000000E+00 -0.00000000000E+00 -0.45593999997E+02  0.45594000000E+02  0.51100000000E-03 0. -1.
         23    2    1    2    0    0  0.00000000000E+00  0.00000000000E+00  0.00000000000E+00  0.91188000000E+02  0.91188000000E+02 0.  0.
    9900012    2    3    3    0    0 -0.58141639474E+00  0.34077370233E+02  0.13934715663E+02  0.54367061560E+02  0.39999948438E+02 0.  0.
         12    1    3    3    0    0  0.58141639474E+00 -0.34077370233E+02 -0.13934715663E+02  0.36820938440E+02  0.00000000000E+00 0. -1.
         11    1    4    4    0    0  0.10112358903E+02  0.18208271840E+02 -0.77357493280E+01  0.22218073362E+02  0.51100000000E-03 0. -1.
        -11    1    4    4    0    0  0.68405247135E+00  0.85434591981E+01  0.14476479830E+02  0.16823409029E+02  0.51100000000E-03 0.  1.
         12    1    4    4    0    0 -0.11377827769E+02  0.73256391945E+01  0.71939851609E+01  0.15325579168E+02  0.00000000000E+00 0. -1.
</event>
<event>
 8    1  0.1253488E-006  0.9118800E+02  0.7816164E-02  0.1184000E+00
        -11   -1    0    0    0    0  0.00000000000E+00  0.00000000000E+00  0.45593999997E+02  0.45594000000E+02  0.51100000000E-03 0. -1.
         11   -1    0    0    0    0 -0.00000000000E+00 -0.00000000000E+00 -0.45593999997E+02  0.45594000000E+02  0.51100000000E-03 0.  1.
         23    2    1    2    0    0  0.00000000000E+00  0.00000000000E+00 -0.35527136788E-14  0.91188000000E+02  0.91188000000E+02 0.  0.
    9900012    2    3    3    0    0  0.21521999211E+02  0.26014148377E+01  0.29762651586E+02  0.54367092371E+02  0.40000018679E+02 0.  0.
        -12    1    3    3    0    0 -0.21521999211E+02 -0.26014148377E+01 -0.29762651586E+02  0.36820907629E+02  0.00000000000E+00 0.  1.
         11    1    4    4    0    0  0.16665074759E+02  0.55414745363E+01  0.52129523341E+01  0.18319594129E+02  0.51100000000E-03 0.  1.
        -11    1    4    4    0    0  0.13151366072E+02 -0.36859498197E+01  0.45712534042E+01  0.14402812697E+02  0.51100000000E-03 0. -1.
         12    1    4    4    0    0 -0.82944416206E+01  0.74589012118E+00  0.19978445847E+02  0.21644685545E+02  0.00000000000E+00 0. -1.
</event>
<event>
 8    1  0.1253488E-006  0.9118800E+02  0.7816164E-02  0.1184000E+00
        -11   -1    0    0    0    0  0.00000000000E+00  0.00000000000E+00  0.45593999997E+02  0.45594000000E+02  0.51100000000E-03 0.  1.
         11   -1    0    0    0    0 -0.00000000000E+00 -0.00000000000E+00 -0.45593999997E+02  0.45594000000E+02  0.51100000000E-03 0. -1.
         23    2    1    2    0    0  0.00000000000E+00  0.00000000000E+00  0.88817841970E-15  0.91188000000E+02  0.91188000000E+02 0.  0.
    9900012    2    3    3    0    0  0.22280560628E+02 -0.28264670538E+02  0.77759166967E+01  0.54367083892E+02  0.39999999349E+02 0.  0.
        -12    1    3    3    0    0 -0.22280560628E+02  0.28264670538E+02 -0.77759166967E+01  0.36820916108E+02  0.00000000000E+00 0.  1.
         11    1    4    4    0    0  0.23428048841E+02 -0.15718267276E+02  0.42411568325E+00  0.28215550199E+02  0.51100000000E-03 0. -1.
        -11    1    4    4    0    0  0.65129709976E+01 -0.10905322491E+02 -0.31140276789E+01  0.13078303349E+02  0.51100000000E-03 0.  1.
        -12    1    4    4    0    0 -0.76604592101E+01 -0.16410807713E+01  0.10465828692E+02  0.13073230344E+02  0.00000000000E+00 0.  1.
</event>
<event>
 8    1  0.1253488E-006  0.9118800E+02  0.7816164E-02  0.1184000E+00
        -11   -1    0    0    0    0  0.00000000000E+00  0.00000000000E+00  0.45593999997E+02  0.45594000000E+02  0.51100000000E-03 0.  1.
         11   -1    0    0    0    0 -0.00000000000E+00 -0.00000000000E+00 -0.45593999997E+02  0.45594000000E+02  0.51100000000E-03 0. -1.
         23    2    1    2    0    0 -0.71054273576E-14  0.33306690739E-15 -0.17763568394E-14  0.91188000000E+02  0.91188000000E+02 0.  0.
    9900012    2    3    3    0    0  0.33389074734E+02  0.50475417196E+00  0.15514328979E+02  0.54367088930E+02  0.40000010834E+02 0.  0.
         12    1    3    3    0    0 -0.33389074734E+02 -0.50475417196E+00 -0.15514328979E+02  0.36820911070E+02  0.00000000000E+00 0. -1.
         11    1    4    4    0    0 -0.26917521716E+01  0.34549762329E+01 -0.43862592851E+01  0.61985208962E+01  0.51100000000E-03 0. -1.
        -11    1    4    4    0    0  0.19276067159E+02 -0.10318125871E+02  0.20271946571E+02  0.29815806289E+02  0.51100000000E-03 0.  1.
         12    1    4    4    0    0  0.16804759746E+02  0.73679038101E+01 -0.37135830721E+00  0.18352761745E+02  0.00000000000E+00 0. -1.
</event>
<event>
 8    1  0.1253488E-006  0.9118800E+02  0.7816164E-02  0.1184000E+00
        -11   -1    0    0    0    0  0.00000000000E+00  0.00000000000E+00  0.45593999997E+02  0.45594000000E+02  0.51100000000E-03 0. -1.
         11   -1    0    0    0    0 -0.00000000000E+00 -0.00000000000E+00 -0.45593999997E+02  0.45594000000E+02  0.51100000000E-03 0.  1.
         23    2    1    2    0    0  0.00000000000E+00 -0.17763568394E-14 -0.35527136788E-14  0.91188000000E+02  0.91188000000E+02 0.  0.
    9900012    2    3    3    0    0 -0.30719378019E+02 -0.96149389025E+01 -0.17878826860E+02  0.54367086298E+02  0.40000004834E+02 0.  0.
         12    1    3    3    0    0  0.30719378019E+02  0.96149389025E+01  0.17878826860E+02  0.36820913702E+02  0.00000000000E+00 0. -1.
         11    1    4    4    0    0  0.20961350418E+01  0.40317094089E+01 -0.74130585050E+01  0.86949352804E+01  0.51100000000E-03 0. -1.
        -11    1    4    4    0    0 -0.15940808297E+02  0.41994570493E+01 -0.12981842403E+02  0.20982684316E+02  0.51100000000E-03 0.  1.
         12    1    4    4    0    0 -0.16874704763E+02 -0.17846105361E+02  0.25160740482E+01  0.24689466702E+02  0.00000000000E+00 0. -1.
</event>
<event>
 8    1  0.1253488E-006  0.9118800E+02  0.7816164E-02  0.1184000E+00
        -11   -1    0    0    0    0  0.00000000000E+00  0.00000000000E+00  0.45593999997E+02  0.45594000000E+02  0.51100000000E-03 0.  1.
         11   -1    0    0    0    0 -0.00000000000E+00 -0.00000000000E+00 -0.45593999997E+02  0.45594000000E+02  0.51100000000E-03 0. -1.
         23    2    1    2    0    0  0.00000000000E+00  0.00000000000E+00 -0.17763568394E-14  0.91188000000E+02  0.91188000000E+02 0.  0.
    9900012    2    3    3    0    0 -0.26656677893E+02  0.23099051191E+02 -0.10565697744E+02  0.54367100893E+02  0.40000038106E+02 0.  0.
        -12    1    3    3    0    0  0.26656677893E+02 -0.23099051191E+02  0.10565697744E+02  0.36820899107E+02  0.00000000000E+00 0.  1.
         11    1    4    4    0    0 -0.88217586991E+01  0.36211748205E+01  0.43757539052E+01  0.10492071108E+02  0.51100000000E-03 0. -1.
        -11    1    4    4    0    0 -0.66918844014E+01  0.26155991506E+02 -0.14996756392E+02  0.30883974988E+02  0.51100000000E-03 0.  1.
        -12    1    4    4    0    0 -0.11143034792E+02 -0.66781151354E+01  0.55304742688E-01  0.12991054798E+02  0.00000000000E+00 0.  1.
</event>
<event>
 8    1  0.1253488E-006  0.9118800E+02  0.7816164E-02  0.1184000E+00
        -11   -1    0    0    0    0  0.00000000000E+00  0.00000000000E+00  0.45593999997E+02  0.45594000000E+02  0.51100000000E-03 0.  1.
         11   -1    0    0    0    0 -0.00000000000E+00 -0.00000000000E+00 -0.45593999997E+02  0.45594000000E+02  0.51100000000E-03 0. -1.
         23    2    1    2    0    0  0.00000000000E+00  0.00000000000E+00  0.35527136788E-14  0.91188000000E+02  0.91188000000E+02 0.  0.
    9900012    2    3    3    0    0  0.28566404837E+02  0.87137375604E+01  0.21536267272E+02  0.54367088611E+02  0.40000010106E+02 0.  0.
        -12    1    3    3    0    0 -0.28566404837E+02 -0.87137375604E+01 -0.21536267272E+02  0.36820911389E+02  0.00000000000E+00 0.  1.
         11    1    4    4    0    0  0.33476743510E+01 -0.27844186314E+01  0.42596003852E-01  0.43545063275E+01  0.51100000000E-03 0. -1.
        -11    1    4    4    0    0 -0.55111275124E+01  0.73719583281E+01 -0.38401331535E+01  0.99732100623E+01  0.51100000000E-03 0.  1.
        -12    1    4    4    0    0  0.30729857998E+02  0.41261978637E+01  0.25333804421E+02  0.40039372221E+02  0.00000000000E+00 0.  1.
</event>
<event>
 8    1  0.1253488E-006  0.9118800E+02  0.7816164E-02  0.1184000E+00
        -11   -1    0    0    0    0  0.00000000000E+00  0.00000000000E+00  0.45593999997E+02  0.45594000000E+02  0.51100000000E-03 0.  1.
         11   -1    0    0    0    0 -0.00000000000E+00 -0.00000000000E+00 -0.45593999997E+02  0.45594000000E+02  0.51100000000E-03 0. -1.
         23    2    1    2    0    0 -0.35527136788E-14  0.35527136788E-14  0.17763568394E-14  0.91188000000E+02  0.91188000000E+02 0.  0.
    9900012    2    3    3    0    0 -0.19261654453E+02  0.29086369726E+02  0.11779257144E+02  0.54367093778E+02  0.40000021887E+02 0.  0.
         12    1    3    3    0    0  0.19261654453E+02 -0.29086369726E+02 -0.11779257144E+02  0.36820906222E+02  0.00000000000E+00 0. -1.
         11    1    4    4    0    0 -0.76795138275E+01  0.45952592919E+01 -0.31385091337E+01  0.94837534991E+01  0.51100000000E-03 0. -1.
        -11    1    4    4    0    0 -0.22948898623E+02  0.14458078657E+02  0.10576869415E+02  0.29112852031E+02  0.51100000000E-03 0.  1.
         12    1    4    4    0    0  0.11366757998E+02  0.10033031777E+02  0.43408968628E+01  0.15770488249E+02  0.00000000000E+00 0. -1.
</event>
<event>
 8    1  0.1253488E-006  0.9118800E+02  0.7816164E-02  0.1184000E+00
        -11   -1    0    0    0    0  0.00000000000E+00  0.00000000000E+00  0.45593999997E+02  0.45594000000E+02  0.51100000000E-03 0.  1.
         11   -1    0    0    0    0 -0.00000000000E+00 -0.00000000000E+00 -0.45593999997E+02  0.45594000000E+02  0.51100000000E-03 0. -1.
         23    2    1    2    0    0 -0.35527136788E-14  0.35527136788E-14 -0.35527136788E-14  0.91188000000E+02  0.91188000000E+02 0.  0.
    9900012    2    3    3    0    0  0.10903003654E+02  0.18503568748E+02  0.29908564264E+02  0.54367085272E+02  0.40000002494E+02 0.  0.
         12    1    3    3    0    0 -0.10903003654E+02 -0.18503568748E+02 -0.29908564264E+02  0.36820914728E+02  0.00000000000E+00 0. -1.
         11    1    4    4    0    0 -0.10392999181E+02  0.51908801650E+01  0.22237626046E+01  0.11828135494E+02  0.51100000000E-03 0. -1.
        -11    1    4    4    0    0 -0.39473237847E+01  0.32523792799E+01  0.47464621537E+01  0.69776958431E+01  0.51100000000E-03 0.  1.
        -12    1    4    4    0    0  0.25243326621E+02  0.10060309304E+02  0.22938339505E+02  0.35561253935E+02  0.00000000000E+00 0.  1.
</event>
<event>
 8    1  0.1253488E-006  0.9118800E+02  0.7816164E-02  0.1184000E+00
        -11   -1    0    0    0    0  0.00000000000E+00  0.00000000000E+00  0.45593999997E+02  0.45594000000E+02  0.51100000000E-03 0. -1.
         11   -1    0    0    0    0 -0.00000000000E+00 -0.00000000000E+00 -0.45593999997E+02  0.45594000000E+02  0.51100000000E-03 0.  1.
         23    2    1    2    0    0 -0.35527136788E-14 -0.35527136788E-14  0.00000000000E+00  0.91188000000E+02  0.91188000000E+02 0.  0.
    9900012    2    3    3    0    0  0.14370160408E+02  0.29027053376E+02 -0.17513074392E+02  0.54367094084E+02  0.40000022582E+02 0.  0.
         12    1    3    3    0    0 -0.14370160408E+02 -0.29027053376E+02  0.17513074392E+02  0.36820905916E+02  0.00000000000E+00 0. -1.
         11    1    4    4    0    0 -0.10233167257E+01 -0.40908187007E+01  0.27688049718E+01  0.50446264477E+01  0.51100000000E-03 0. -1.
        -11    1    4    4    0    0 -0.38068013307E+01  0.96825599779E+01 -0.15474983869E+02  0.18647220439E+02  0.51100000000E-03 0.  1.
        -12    1    4    4    0    0  0.19200278464E+02  0.23435312099E+02 -0.48068954947E+01  0.30675247196E+02  0.00000000000E+00 0.  1.
</event>
<event>
 8    1  0.1253488E-006  0.9118800E+02  0.7816164E-02  0.1184000E+00
        -11   -1    0    0    0    0  0.00000000000E+00  0.00000000000E+00  0.45593999997E+02  0.45594000000E+02  0.51100000000E-03 0. -1.
         11   -1    0    0    0    0 -0.00000000000E+00 -0.00000000000E+00 -0.45593999997E+02  0.45594000000E+02  0.51100000000E-03 0.  1.
         23    2    1    2    0    0  0.00000000000E+00  0.17763568394E-14 -0.22204460493E-15  0.91188000000E+02  0.91188000000E+02 0.  0.
    9900012    2    3    3    0    0 -0.34757712214E+02  0.12104772107E+02  0.10741354314E+01  0.54367111458E+02  0.40000062191E+02 0.  0.
         12    1    3    3    0    0  0.34757712214E+02 -0.12104772107E+02 -0.10741354314E+01  0.36820888542E+02  0.00000000000E+00 0. -1.
         11    1    4    4    0    0 -0.70290497110E+01  0.51972203292E+01  0.92856965731E+00  0.87909544908E+01  0.51100000000E-03 0. -1.
        -11    1    4    4    0    0 -0.29209789075E+02  0.12179885729E+02 -0.10715664728E+02  0.33412375926E+02  0.51100000000E-03 0.  1.
         12    1    4    4    0    0  0.14811265725E+01 -0.52723339508E+01  0.10861230502E+02  0.12163781041E+02  0.00000000000E+00 0. -1.
</event>
<event>
 8    1  0.1253488E-006  0.9118800E+02  0.7816164E-02  0.1184000E+00
        -11   -1    0    0    0    0  0.00000000000E+00  0.00000000000E+00  0.45593999997E+02  0.45594000000E+02  0.51100000000E-03 0. -1.
         11   -1    0    0    0    0 -0.00000000000E+00 -0.00000000000E+00 -0.45593999997E+02  0.45594000000E+02  0.51100000000E-03 0.  1.
         23    2    1    2    0    0  0.00000000000E+00  0.00000000000E+00  0.00000000000E+00  0.91188000000E+02  0.91188000000E+02 0.  0.
    9900012    2    3    3    0    0  0.34798818039E+02 -0.11212489088E+02 -0.43706048726E+01  0.54367084267E+02  0.40000000204E+02 0.  0.
         12    1    3    3    0    0 -0.34798818039E+02  0.11212489088E+02  0.43706048726E+01  0.36820915733E+02  0.00000000000E+00 0. -1.
         11    1    4    4    0    0  0.10035188237E+02  0.10992633401E+02 -0.35011909105E+01  0.15290563433E+02  0.51100000000E-03 0. -1.
        -11    1    4    4    0    0 -0.29802833263E+01 -0.12580222939E+01  0.25861854855E+01  0.41416258188E+01  0.51100000000E-03 0.  1.
        -12    1    4    4    0    0  0.27743913128E+02 -0.20947100195E+02 -0.34555994476E+01  0.34934895016E+02  0.00000000000E+00 0.  1.
</event>
<event>
 8    1  0.1253488E-006  0.9118800E+02  0.7816164E-02  0.1184000E+00
        -11   -1    0    0    0    0  0.00000000000E+00  0.00000000000E+00  0.45593999997E+02  0.45594000000E+02  0.51100000000E-03 0. -1.
         11   -1    0    0    0    0 -0.00000000000E+00 -0.00000000000E+00 -0.45593999997E+02  0.45594000000E+02  0.51100000000E-03 0.  1.
         23    2    1    2    0    0 -0.17763568394E-14  0.00000000000E+00 -0.22204460493E-15  0.91188000000E+02  0.91188000000E+02 0.  0.
    9900012    2    3    3    0    0 -0.92103978208E+01  0.35632321785E+02  0.11338270426E+01  0.54367090892E+02  0.40000015306E+02 0.  0.
         12    1    3    3    0    0  0.92103978208E+01 -0.35632321785E+02 -0.11338270426E+01  0.36820909108E+02  0.00000000000E+00 0. -1.
         11    1    4    4    0    0 -0.13935280593E+01  0.13943066945E+02  0.13085873234E+01  0.14073501246E+02  0.51100000000E-03 0. -1.
        -11    1    4    4    0    0 -0.17964336502E+02  0.10139427417E+02  0.88717914634E+01  0.22455156609E+02  0.51100000000E-03 0.  1.
         12    1    4    4    0    0  0.10147466740E+02  0.11549827423E+02 -0.90465517441E+01  0.17838433037E+02  0.00000000000E+00 0. -1.
</event>
<event>
 8    1  0.1253488E-006  0.9118800E+02  0.7816164E-02  0.1184000E+00
        -11   -1    0    0    0    0  0.00000000000E+00  0.00000000000E+00  0.45593999997E+02  0.45594000000E+02  0.51100000000E-03 0. -1.
         11   -1    0    0    0    0 -0.00000000000E+00 -0.00000000000E+00 -0.45593999997E+02  0.45594000000E+02  0.51100000000E-03 0.  1.
         23    2    1    2    0    0  0.88817841970E-15  0.00000000000E+00  0.00000000000E+00  0.91188000000E+02  0.91188000000E+02 0.  0.
    9900012    2    3    3    0    0  0.29218767344E+01 -0.16707450675E+02  0.32681838969E+02  0.54367097376E+02  0.40000030088E+02 0.  0.
        -12    1    3    3    0    0 -0.29218767344E+01  0.16707450675E+02 -0.32681838969E+02  0.36820902624E+02  0.00000000000E+00 0.  1.
         11    1    4    4    0    0 -0.99797147249E+01 -0.22547710384E+02  0.27554204618E+02  0.36976048220E+02  0.51100000000E-03 0. -1.
        -11    1    4    4    0    0  0.79114044358E+01  0.76997051492E+01  0.48509473025E+01  0.12058501960E+02  0.51100000000E-03 0.  1.
         12    1    4    4    0    0  0.49901870235E+01 -0.18594454401E+01  0.27668704778E+00  0.53325471959E+01  0.00000000000E+00 0. -1.
</event>
<event>
 8    1  0.1253488E-006  0.9118800E+02  0.7816164E-02  0.1184000E+00
        -11   -1    0    0    0    0  0.00000000000E+00  0.00000000000E+00  0.45593999997E+02  0.45594000000E+02  0.51100000000E-03 0. -1.
         11   -1    0    0    0    0 -0.00000000000E+00 -0.00000000000E+00 -0.45593999997E+02  0.45594000000E+02  0.51100000000E-03 0.  1.
         23    2    1    2    0    0  0.00000000000E+00 -0.44408920985E-15 -0.35527136788E-14  0.91188000000E+02  0.91188000000E+02 0.  0.
    9900012    2    3    3    0    0 -0.23037988557E+02  0.76271586849E+00 -0.28713228531E+02  0.54367080063E+02  0.39999990621E+02 0.  0.
         12    1    3    3    0    0  0.23037988557E+02 -0.76271586849E+00  0.28713228531E+02  0.36820919937E+02  0.00000000000E+00 0. -1.
         11    1    4    4    0    0  0.34613171515E+01  0.54117911066E+01  0.54175249396E+01  0.84034383520E+01  0.51100000000E-03 0. -1.
        -11    1    4    4    0    0 -0.15202487611E+02 -0.73929792665E+01 -0.11270938598E+02  0.20317623610E+02  0.51100000000E-03 0.  1.
         12    1    4    4    0    0 -0.11296818098E+02  0.27439040284E+01 -0.22859814873E+02  0.25646018101E+02  0.00000000000E+00 0. -1.
</event>
<event>
 8    1  0.1253488E-006  0.9118800E+02  0.7816164E-02  0.1184000E+00
        -11   -1    0    0    0    0  0.00000000000E+00  0.00000000000E+00  0.45593999997E+02  0.45594000000E+02  0.51100000000E-03 0. -1.
         11   -1    0    0    0    0 -0.00000000000E+00 -0.00000000000E+00 -0.45593999997E+02  0.45594000000E+02  0.51100000000E-03 0.  1.
         23    2    1    2    0    0  0.00000000000E+00  0.35527136788E-14  0.00000000000E+00  0.91188000000E+02  0.91188000000E+02 0.  0.
    9900012    2    3    3    0    0 -0.18349650532E+02 -0.28079050913E+02 -0.15186717275E+02  0.54367093488E+02  0.40000021224E+02 0.  0.
         12    1    3    3    0    0  0.18349650532E+02  0.28079050913E+02  0.15186717275E+02  0.36820906512E+02  0.00000000000E+00 0. -1.
         11    1    4    4    0    0 -0.43845952544E+01  0.47954325938E+01  0.27484234228E+01  0.70551173540E+01  0.51100000000E-03 0. -1.
        -11    1    4    4    0    0 -0.98793316151E+01 -0.35318579769E+02 -0.99246234564E+01  0.37993439185E+02  0.51100000000E-03 0.  1.
        -12    1    4    4    0    0 -0.40857236625E+01  0.24440962628E+01 -0.80105172415E+01  0.93185369488E+01  0.00000000000E+00 0.  1.
</event>
<event>
 8    1  0.1253488E-006  0.9118800E+02  0.7816164E-02  0.1184000E+00
        -11   -1    0    0    0    0  0.00000000000E+00  0.00000000000E+00  0.45593999997E+02  0.45594000000E+02  0.51100000000E-03 0. -1.
         11   -1    0    0    0    0 -0.00000000000E+00 -0.00000000000E+00 -0.45593999997E+02  0.45594000000E+02  0.51100000000E-03 0.  1.
         23    2    1    2    0    0 -0.17763568394E-14  0.17763568394E-14 -0.71054273576E-14  0.91188000000E+02  0.91188000000E+02 0.  0.
    9900012    2    3    3    0    0  0.81961993526E+01 -0.15334770655E+02  0.32456901515E+02  0.54367036802E+02  0.39999891997E+02 0.  0.
        -12    1    3    3    0    0 -0.81961993526E+01  0.15334770655E+02 -0.32456901515E+02  0.36820963198E+02  0.00000000000E+00 0.  1.
         11    1    4    4    0    0 -0.14636466017E+01  0.14779027198E+01 -0.79172494373E+01  0.81859206408E+01  0.51100000000E-03 0.  1.
        -11    1    4    4    0    0  0.14438748192E+01 -0.53754594222E+00 -0.33438013136E+00  0.15765596934E+01  0.51100000000E-03 0. -1.
         12    1    4    4    0    0  0.82159711351E+01 -0.16275127433E+02  0.40708531084E+02  0.44604556467E+02  0.00000000000E+00 0. -1.
</event>
<event>
 8    1  0.1253488E-006  0.9118800E+02  0.7816164E-02  0.1184000E+00
        -11   -1    0    0    0    0  0.00000000000E+00  0.00000000000E+00  0.45593999997E+02  0.45594000000E+02  0.51100000000E-03 0. -1.
         11   -1    0    0    0    0 -0.00000000000E+00 -0.00000000000E+00 -0.45593999997E+02  0.45594000000E+02  0.51100000000E-03 0.  1.
         23    2    1    2    0    0  0.88817841970E-15  0.35527136788E-14 -0.35527136788E-14  0.91188000000E+02  0.91188000000E+02 0.  0.
    9900012    2    3    3    0    0 -0.55153944298E+01 -0.29309855437E+02  0.21593796571E+02  0.54367092192E+02  0.40000018271E+02 0.  0.
        -12    1    3    3    0    0  0.55153944298E+01  0.29309855437E+02 -0.21593796571E+02  0.36820907808E+02  0.00000000000E+00 0.  1.
         11    1    4    4    0    0 -0.83681704106E+01 -0.20420942675E+02  0.25003007681E+02  0.33349536266E+02  0.51100000000E-03 0.  1.
        -11    1    4    4    0    0  0.40987014669E+01 -0.39960362442E+01  0.72414566297E+01  0.92307287774E+01  0.51100000000E-03 0. -1.
        -12    1    4    4    0    0 -0.12459254861E+01 -0.48928765174E+01 -0.10650667740E+02  0.11786827149E+02  0.00000000000E+00 0.  1.
</event>
<event>
 8    1  0.1253488E-006  0.9118800E+02  0.7816164E-02  0.1184000E+00
        -11   -1    0    0    0    0  0.00000000000E+00  0.00000000000E+00  0.45593999997E+02  0.45594000000E+02  0.51100000000E-03 0. -1.
         11   -1    0    0    0    0 -0.00000000000E+00 -0.00000000000E+00 -0.45593999997E+02  0.45594000000E+02  0.51100000000E-03 0.  1.
         23    2    1    2    0    0  0.00000000000E+00  0.17763568394E-14  0.00000000000E+00  0.91188000000E+02  0.91188000000E+02 0.  0.
    9900012    2    3    3    0    0  0.19768792080E+02 -0.15615692308E+02  0.26853769281E+02  0.54367083239E+02  0.39999997859E+02 0.  0.
        -12    1    3    3    0    0 -0.19768792080E+02  0.15615692308E+02 -0.26853769281E+02  0.36820916761E+02  0.00000000000E+00 0.  1.
         11    1    4    4    0    0  0.20875170643E+01 -0.59602288191E+01  0.20023845995E+02  0.20996105919E+02  0.51100000000E-03 0. -1.
        -11    1    4    4    0    0 -0.24209094234E+01 -0.70296532270E+01  0.10401859190E+02  0.12785753861E+02  0.51100000000E-03 0.  1.
        -12    1    4    4    0    0  0.20102184439E+02 -0.26258102617E+01 -0.35719359033E+01  0.20585223459E+02  0.00000000000E+00 0.  1.
</event>
<event>
 8    1  0.1253488E-006  0.9118800E+02  0.7816164E-02  0.1184000E+00
        -11   -1    0    0    0    0  0.00000000000E+00  0.00000000000E+00  0.45593999997E+02  0.45594000000E+02  0.51100000000E-03 0.  1.
         11   -1    0    0    0    0 -0.00000000000E+00 -0.00000000000E+00 -0.45593999997E+02  0.45594000000E+02  0.51100000000E-03 0. -1.
         23    2    1    2    0    0  0.11102230246E-14  0.00000000000E+00  0.00000000000E+00  0.91188000000E+02  0.91188000000E+02 0.  0.
    9900012    2    3    3    0    0 -0.83390426133E+00 -0.36507485653E+02 -0.47210837082E+01  0.54367074748E+02  0.39999978504E+02 0.  0.
        -12    1    3    3    0    0  0.83390426133E+00  0.36507485653E+02  0.47210837082E+01  0.36820925252E+02  0.00000000000E+00 0.  1.
         11    1    4    4    0    0  0.88119511656E+01 -0.46166420745E+01  0.55697374487E+01  0.11401133404E+02  0.51100000000E-03 0. -1.
        -11    1    4    4    0    0  0.22998921375E+01 -0.17279451665E+02 -0.15565163544E+02  0.23369708387E+02  0.51100000000E-03 0.  1.
        -12    1    4    4    0    0 -0.11945747564E+02 -0.14611391913E+02  0.52743423868E+01  0.19596232958E+02  0.00000000000E+00 0.  1.
</event>
<event>
 8    1  0.1253488E-006  0.9118800E+02  0.7816164E-02  0.1184000E+00
        -11   -1    0    0    0    0  0.00000000000E+00  0.00000000000E+00  0.45593999997E+02  0.45594000000E+02  0.51100000000E-03 0.  1.
         11   -1    0    0    0    0 -0.00000000000E+00 -0.00000000000E+00 -0.45593999997E+02  0.45594000000E+02  0.51100000000E-03 0. -1.
         23    2    1    2    0    0  0.26645352591E-14 -0.35527136788E-14  0.00000000000E+00  0.91188000000E+02  0.91188000000E+02 0.  0.
    9900012    2    3    3    0    0 -0.51973503908E+01 -0.40279094983E+01  0.36229042797E+02  0.54367081381E+02  0.39999993623E+02 0.  0.
         12    1    3    3    0    0  0.51973503908E+01  0.40279094983E+01 -0.36229042797E+02  0.36820918619E+02  0.00000000000E+00 0. -1.
         11    1    4    4    0    0 -0.90445588292E+01  0.11356058252E+02  0.21316443698E+02  0.25790596651E+02  0.51100000000E-03 0. -1.
        -11    1    4    4    0    0 -0.73446670521E+01 -0.59914804943E+01  0.37660986111E+01  0.10199287800E+02  0.51100000000E-03 0.  1.
         12    1    4    4    0    0  0.11191875490E+02 -0.93924872562E+01  0.11146500488E+02  0.18377196929E+02  0.00000000000E+00 0. -1.
</event>
<event>
 8    1  0.1253488E-006  0.9118800E+02  0.7816164E-02  0.1184000E+00
        -11   -1    0    0    0    0  0.00000000000E+00  0.00000000000E+00  0.45593999997E+02  0.45594000000E+02  0.51100000000E-03 0. -1.
         11   -1    0    0    0    0 -0.00000000000E+00 -0.00000000000E+00 -0.45593999997E+02  0.45594000000E+02  0.51100000000E-03 0.  1.
         23    2    1    2    0    0  0.14294121442E-14  0.00000000000E+00  0.00000000000E+00  0.91188000000E+02  0.91188000000E+02 0.  0.
    9900012    2    3    3    0    0  0.10779593031E+00  0.32930641685E+02 -0.16472424291E+02  0.54367088227E+02  0.40000009232E+02 0.  0.
         12    1    3    3    0    0 -0.10779593031E+00 -0.32930641685E+02  0.16472424291E+02  0.36820911773E+02  0.00000000000E+00 0. -1.
         11    1    4    4    0    0 -0.70335179402E+01  0.13450337053E+02  0.53336025483E+01  0.16088171365E+02  0.51100000000E-03 0. -1.
        -11    1    4    4    0    0 -0.61385813595E+01  0.15804554558E+02 -0.79093387692E+01  0.18708922094E+02  0.51100000000E-03 0.  1.
         12    1    4    4    0    0  0.13279895230E+02  0.36757500735E+01 -0.13896688070E+02  0.19569994769E+02  0.00000000000E+00 0. -1.
</event>
<event>
 8    1  0.1253488E-006  0.9118800E+02  0.7816164E-02  0.1184000E+00
        -11   -1    0    0    0    0  0.00000000000E+00  0.00000000000E+00  0.45593999997E+02  0.45594000000E+02  0.51100000000E-03 0. -1.
         11   -1    0    0    0    0 -0.00000000000E+00 -0.00000000000E+00 -0.45593999997E+02  0.45594000000E+02  0.51100000000E-03 0.  1.
         23    2    1    2    0    0  0.17763568394E-14  0.00000000000E+00  0.00000000000E+00  0.91188000000E+02  0.91188000000E+02 0.  0.
    9900012    2    3    3    0    0 -0.29975051305E+01  0.26798985081E+02 -0.25072027541E+02  0.54367120007E+02  0.40000081681E+02 0.  0.
         12    1    3    3    0    0  0.29975051305E+01 -0.26798985081E+02  0.25072027541E+02  0.36820879993E+02  0.00000000000E+00 0. -1.
         11    1    4    4    0    0 -0.10293868288E+01 -0.21718657794E+01  0.49479608095E+01  0.55008139980E+01  0.51100000000E-03 0. -1.
        -11    1    4    4    0    0  0.64524863640E+01  0.99142376584E+01 -0.24665174072E+02  0.27355026976E+02  0.51100000000E-03 0.  1.
         12    1    4    4    0    0 -0.84206046657E+01  0.19056613202E+02 -0.53548142791E+01  0.21511279033E+02  0.00000000000E+00 0. -1.
</event>
<event>
 8    1  0.1253488E-006  0.9118800E+02  0.7816164E-02  0.1184000E+00
        -11   -1    0    0    0    0  0.00000000000E+00  0.00000000000E+00  0.45593999997E+02  0.45594000000E+02  0.51100000000E-03 0. -1.
         11   -1    0    0    0    0 -0.00000000000E+00 -0.00000000000E+00 -0.45593999997E+02  0.45594000000E+02  0.51100000000E-03 0.  1.
         23    2    1    2    0    0  0.35527136788E-14 -0.44408920985E-15  0.35527136788E-14  0.91188000000E+02  0.91188000000E+02 0.  0.
    9900012    2    3    3    0    0 -0.30221260420E+02 -0.33631125233E+01 -0.20764090484E+02  0.54367047258E+02  0.39999915833E+02 0.  0.
        -12    1    3    3    0    0  0.30221260420E+02  0.33631125233E+01  0.20764090484E+02  0.36820952742E+02  0.00000000000E+00 0.  1.
         11    1    4    4    0    0 -0.34015563825E+02 -0.89200098527E+01 -0.62008119973E+01  0.35708195527E+02  0.51100000000E-03 0. -1.
        -11    1    4    4    0    0 -0.25125018992E+01  0.45833485263E+01 -0.74753259123E+01  0.91214169548E+01  0.51100000000E-03 0.  1.
         12    1    4    4    0    0  0.63068053039E+01  0.97354880309E+00 -0.70879525745E+01  0.95374347763E+01  0.00000000000E+00 0. -1.
</event>
<event>
 8    1  0.1253488E-006  0.9118800E+02  0.7816164E-02  0.1184000E+00
        -11   -1    0    0    0    0  0.00000000000E+00  0.00000000000E+00  0.45593999997E+02  0.45594000000E+02  0.51100000000E-03 0.  1.
         11   -1    0    0    0    0 -0.00000000000E+00 -0.00000000000E+00 -0.45593999997E+02  0.45594000000E+02  0.51100000000E-03 0. -1.
         23    2    1    2    0    0  0.35527136788E-14  0.00000000000E+00  0.00000000000E+00  0.91188000000E+02  0.91188000000E+02 0.  0.
    9900012    2    3    3    0    0  0.26950362327E+02 -0.20106123619E+02 -0.15006905609E+02  0.54367007992E+02  0.39999826318E+02 0.  0.
         12    1    3    3    0    0 -0.26950362327E+02  0.20106123619E+02  0.15006905609E+02  0.36820992008E+02  0.00000000000E+00 0. -1.
         11    1    4    4    0    0  0.18347012225E+02 -0.17872017823E+02 -0.42628613803E+01  0.25965243424E+02  0.51100000000E-03 0. -1.
        -11    1    4    4    0    0  0.13057017507E+02 -0.10580149956E+02 -0.62691859197E+01  0.17936777069E+02  0.51100000000E-03 0.  1.
         12    1    4    4    0    0 -0.44536674054E+01  0.83460441596E+01 -0.44748583086E+01  0.10464987499E+02  0.00000000000E+00 0. -1.
</event>
<event>
 8    1  0.1253488E-006  0.9118800E+02  0.7816164E-02  0.1184000E+00
        -11   -1    0    0    0    0  0.00000000000E+00  0.00000000000E+00  0.45593999997E+02  0.45594000000E+02  0.51100000000E-03 0.  1.
         11   -1    0    0    0    0 -0.00000000000E+00 -0.00000000000E+00 -0.45593999997E+02  0.45594000000E+02  0.51100000000E-03 0. -1.
         23    2    1    2    0    0  0.00000000000E+00  0.00000000000E+00  0.00000000000E+00  0.91188000000E+02  0.91188000000E+02 0.  0.
    9900012    2    3    3    0    0 -0.10974827848E+02 -0.29769782727E+02 -0.18684021969E+02  0.54367089001E+02  0.40000010995E+02 0.  0.
        -12    1    3    3    0    0  0.10974827848E+02  0.29769782727E+02  0.18684021969E+02  0.36820910999E+02  0.00000000000E+00 0.  1.
         11    1    4    4    0    0 -0.13994201942E+02 -0.14821580310E+02 -0.25772303770E+02  0.32859223557E+02  0.51100000000E-03 0. -1.
        -11    1    4    4    0    0  0.50736797247E+01 -0.41608522283E+01  0.81640373603E+01  0.10474083420E+02  0.51100000000E-03 0.  1.
         12    1    4    4    0    0 -0.20543056309E+01 -0.10787350189E+02 -0.10757555587E+01  0.11033782024E+02  0.00000000000E+00 0. -1.
</event>
<event>
 8    1  0.1253488E-006  0.9118800E+02  0.7816164E-02  0.1184000E+00
        -11   -1    0    0    0    0  0.00000000000E+00  0.00000000000E+00  0.45593999997E+02  0.45594000000E+02  0.51100000000E-03 0. -1.
         11   -1    0    0    0    0 -0.00000000000E+00 -0.00000000000E+00 -0.45593999997E+02  0.45594000000E+02  0.51100000000E-03 0.  1.
         23    2    1    2    0    0  0.35527136788E-14 -0.17763568394E-14 -0.71054273576E-14  0.91188000000E+02  0.91188000000E+02 0.  0.
    9900012    2    3    3    0    0 -0.14614792349E+02  0.10190290137E+02 -0.32223363957E+02  0.54367090815E+02  0.40000015132E+02 0.  0.
         12    1    3    3    0    0  0.14614792349E+02 -0.10190290137E+02  0.32223363957E+02  0.36820909185E+02  0.00000000000E+00 0. -1.
         11    1    4    4    0    0  0.18636145167E+01 -0.49339742799E+01  0.95120329836E+00  0.53592862619E+01  0.51100000000E-03 0. -1.
        -11    1    4    4    0    0 -0.45020992205E+01 -0.50020778155E+01 -0.22098764473E+02  0.23100759108E+02  0.51100000000E-03 0.  1.
         12    1    4    4    0    0 -0.11976307645E+02  0.20126342232E+02 -0.11075802782E+02  0.25907045446E+02  0.00000000000E+00 0. -1.
</event>
<event>
 8    1  0.1253488E-006  0.9118800E+02  0.7816164E-02  0.1184000E+00
        -11   -1    0    0    0    0  0.00000000000E+00  0.00000000000E+00  0.45593999997E+02  0.45594000000E+02  0.51100000000E-03 0. -1.
         11   -1    0    0    0    0 -0.00000000000E+00 -0.00000000000E+00 -0.45593999997E+02  0.45594000000E+02  0.51100000000E-03 0.  1.
         23    2    1    2    0    0  0.35527136788E-14  0.35527136788E-14  0.00000000000E+00  0.91188000000E+02  0.91188000000E+02 0.  0.
    9900012    2    3    3    0    0 -0.20256249501E+02  0.27776914166E+02 -0.13187987088E+02  0.54366870090E+02  0.39999511940E+02 0.  0.
         12    1    3    3    0    0  0.20256249501E+02 -0.27776914166E+02  0.13187987088E+02  0.36821129910E+02  0.00000000000E+00 0. -1.
         11    1    4    4    0    0  0.72338337707E+01  0.32035599536E+01 -0.69068090835E+01  0.10502150226E+02  0.51100000000E-03 0. -1.
        -11    1    4    4    0    0 -0.16179934551E+02  0.21409184477E+01 -0.89279905151E+01  0.18603301556E+02  0.51100000000E-03 0.  1.
        -12    1    4    4    0    0 -0.11310148721E+02  0.22432435765E+02  0.26468125105E+01  0.25261418307E+02  0.00000000000E+00 0.  1.
</event>
<event>
 8    1  0.1253488E-006  0.9118800E+02  0.7816164E-02  0.1184000E+00
        -11   -1    0    0    0    0  0.00000000000E+00  0.00000000000E+00  0.45593999997E+02  0.45594000000E+02  0.51100000000E-03 0. -1.
         11   -1    0    0    0    0 -0.00000000000E+00 -0.00000000000E+00 -0.45593999997E+02  0.45594000000E+02  0.51100000000E-03 0.  1.
         23    2    1    2    0    0 -0.71054273576E-14  0.35527136788E-14 -0.10658141036E-13  0.91188000000E+02  0.91188000000E+02 0.  0.
    9900012    2    3    3    0    0  0.18519319507E+02 -0.13993440477E+02  0.28583196681E+02  0.54367072473E+02  0.39999973318E+02 0.  0.
        -12    1    3    3    0    0 -0.18519319507E+02  0.13993440477E+02 -0.28583196681E+02  0.36820927527E+02  0.00000000000E+00 0.  1.
         11    1    4    4    0    0  0.23611471023E+01 -0.17649365887E+02  0.18822434241E+02  0.25910599431E+02  0.51100000000E-03 0. -1.
        -11    1    4    4    0    0 -0.51479845284E+01  0.10678401371E+01  0.16169115041E+01  0.55005845449E+01  0.51100000000E-03 0.  1.
        -12    1    4    4    0    0  0.21306156934E+02  0.25880852728E+01  0.81438509365E+01  0.22955888498E+02  0.00000000000E+00 0.  1.
</event>
<event>
 8    1  0.1253488E-006  0.9118800E+02  0.7816164E-02  0.1184000E+00
        -11   -1    0    0    0    0  0.00000000000E+00  0.00000000000E+00  0.45593999997E+02  0.45594000000E+02  0.51100000000E-03 0. -1.
         11   -1    0    0    0    0 -0.00000000000E+00 -0.00000000000E+00 -0.45593999997E+02  0.45594000000E+02  0.51100000000E-03 0.  1.
         23    2    1    2    0    0  0.88817841970E-15 -0.44408920985E-15  0.00000000000E+00  0.91188000000E+02  0.91188000000E+02 0.  0.
    9900012    2    3    3    0    0 -0.56671878350E+01  0.11003391024E+01 -0.36365531917E+02  0.54367086436E+02  0.40000005148E+02 0.  0.
         12    1    3    3    0    0  0.56671878350E+01 -0.11003391024E+01  0.36365531917E+02  0.36820913564E+02  0.00000000000E+00 0. -1.
         11    1    4    4    0    0  0.84640711099E+01 -0.71864420294E+01 -0.18594506185E+02  0.21657356933E+02  0.51100000000E-03 0. -1.
        -11    1    4    4    0    0 -0.82954810425E+01 -0.68435194581E+01 -0.41338526976E+01  0.11521176272E+02  0.51100000000E-03 0.  1.
         12    1    4    4    0    0 -0.58357779023E+01  0.15130300590E+02 -0.13637173034E+02  0.21188553231E+02  0.00000000000E+00 0. -1.
</event>
<event>
 8    1  0.1253488E-006  0.9118800E+02  0.7816164E-02  0.1184000E+00
        -11   -1    0    0    0    0  0.00000000000E+00  0.00000000000E+00  0.45593999997E+02  0.45594000000E+02  0.51100000000E-03 0. -1.
         11   -1    0    0    0    0 -0.00000000000E+00 -0.00000000000E+00 -0.45593999997E+02  0.45594000000E+02  0.51100000000E-03 0.  1.
         23    2    1    2    0    0  0.00000000000E+00  0.48849813084E-14 -0.88817841970E-15  0.91188000000E+02  0.91188000000E+02 0.  0.
    9900012    2    3    3    0    0 -0.35918938475E+02 -0.39114910126E+01  0.70928787849E+01  0.54367097885E+02  0.40000031249E+02 0.  0.
        -12    1    3    3    0    0  0.35918938475E+02  0.39114910126E+01 -0.70928787849E+01  0.36820902115E+02  0.00000000000E+00 0.  1.
         11    1    4    4    0    0 -0.18006420195E+02 -0.38851764796E+01  0.17853536704E+01  0.18507113565E+02  0.51100000000E-03 0. -1.
        -11    1    4    4    0    0 -0.10919672091E+02  0.15191180838E+02  0.23938984974E+01  0.18861123087E+02  0.51100000000E-03 0.  1.
        -12    1    4    4    0    0 -0.69928461884E+01 -0.15217495371E+02  0.29136266172E+01  0.16998861233E+02  0.00000000000E+00 0.  1.
</event>
<event>
 8    1  0.1253488E-006  0.9118800E+02  0.7816164E-02  0.1184000E+00
        -11   -1    0    0    0    0  0.00000000000E+00  0.00000000000E+00  0.45593999997E+02  0.45594000000E+02  0.51100000000E-03 0. -1.
         11   -1    0    0    0    0 -0.00000000000E+00 -0.00000000000E+00 -0.45593999997E+02  0.45594000000E+02  0.51100000000E-03 0.  1.
         23    2    1    2    0    0  0.71054273576E-14  0.00000000000E+00  0.00000000000E+00  0.91188000000E+02  0.91188000000E+02 0.  0.
    9900012    2    3    3    0    0  0.32118961089E+02 -0.15367232488E+02 -0.93808620182E+01  0.54367081109E+02  0.39999993005E+02 0.  0.
         12    1    3    3    0    0 -0.32118961089E+02  0.15367232488E+02  0.93808620182E+01  0.36820918891E+02  0.00000000000E+00 0. -1.
         11    1    4    4    0    0 -0.41550435317E+00  0.32922460932E+00  0.48992962400E+01  0.49278937306E+01  0.51100000000E-03 0. -1.
        -11    1    4    4    0    0  0.27132319328E+02 -0.19434180613E+02  0.37778014821E+00  0.33376531370E+02  0.51100000000E-03 0.  1.
         12    1    4    4    0    0  0.54021461141E+01  0.37377235156E+01 -0.14657938406E+02  0.16062656008E+02  0.00000000000E+00 0. -1.
</event>
<event>
 8    1  0.1253488E-006  0.9118800E+02  0.7816164E-02  0.1184000E+00
        -11   -1    0    0    0    0  0.00000000000E+00  0.00000000000E+00  0.45593999997E+02  0.45594000000E+02  0.51100000000E-03 0. -1.
         11   -1    0    0    0    0 -0.00000000000E+00 -0.00000000000E+00 -0.45593999997E+02  0.45594000000E+02  0.51100000000E-03 0.  1.
         23    2    1    2    0    0 -0.88817841970E-15  0.35527136788E-14  0.71054273576E-14  0.91188000000E+02  0.91188000000E+02 0.  0.
    9900012    2    3    3    0    0  0.79997766899E+01 -0.24602564875E+02 -0.26201107586E+02  0.54367073012E+02  0.39999974545E+02 0.  0.
         12    1    3    3    0    0 -0.79997766899E+01  0.24602564875E+02  0.26201107586E+02  0.36820926988E+02  0.00000000000E+00 0. -1.
         11    1    4    4    0    0  0.20133810787E+01  0.93330347763E+01 -0.72887760044E+00  0.95755158775E+01  0.51100000000E-03 0. -1.
        -11    1    4    4    0    0  0.14156875544E+01 -0.34063387258E+01  0.13188592305E+01  0.39174870386E+01  0.51100000000E-03 0.  1.
        -12    1    4    4    0    0  0.45707080569E+01 -0.30529260926E+02 -0.26791089216E+02  0.40874070096E+02  0.00000000000E+00 0.  1.
</event>
<event>
 8    1  0.1253488E-006  0.9118800E+02  0.7816164E-02  0.1184000E+00
        -11   -1    0    0    0    0  0.00000000000E+00  0.00000000000E+00  0.45593999997E+02  0.45594000000E+02  0.51100000000E-03 0.  1.
         11   -1    0    0    0    0 -0.00000000000E+00 -0.00000000000E+00 -0.45593999997E+02  0.45594000000E+02  0.51100000000E-03 0. -1.
         23    2    1    2    0    0 -0.35527136788E-14 -0.88817841970E-15  0.00000000000E+00  0.91188000000E+02  0.91188000000E+02 0.  0.
    9900012    2    3    3    0    0 -0.30994424609E+02 -0.50991856040E+01  0.19212537734E+02  0.54367113850E+02  0.40000067644E+02 0.  0.
         12    1    3    3    0    0  0.30994424609E+02  0.50991856040E+01 -0.19212537734E+02  0.36820886150E+02  0.00000000000E+00 0. -1.
         11    1    4    4    0    0 -0.43765965367E+01  0.77250635516E+01  0.10008942652E+02  0.13379467007E+02  0.51100000000E-03 0. -1.
        -11    1    4    4    0    0 -0.14991695885E+02  0.44911677274E+01  0.12296805803E+02  0.19903089365E+02  0.51100000000E-03 0.  1.
         12    1    4    4    0    0 -0.11626132187E+02 -0.17315416883E+02 -0.30932107206E+01  0.21084557478E+02  0.00000000000E+00 0. -1.
</event>
<event>
 8    1  0.1253488E-006  0.9118800E+02  0.7816164E-02  0.1184000E+00
        -11   -1    0    0    0    0  0.00000000000E+00  0.00000000000E+00  0.45593999997E+02  0.45594000000E+02  0.51100000000E-03 0. -1.
         11   -1    0    0    0    0 -0.00000000000E+00 -0.00000000000E+00 -0.45593999997E+02  0.45594000000E+02  0.51100000000E-03 0.  1.
         23    2    1    2    0    0  0.00000000000E+00  0.00000000000E+00  0.35527136788E-14  0.91188000000E+02  0.91188000000E+02 0.  0.
    9900012    2    3    3    0    0 -0.17884667465E+02  0.88992692365E+01  0.30930907483E+02  0.54367090709E+02  0.40000014889E+02 0.  0.
        -12    1    3    3    0    0  0.17884667465E+02 -0.88992692365E+01 -0.30930907483E+02  0.36820909291E+02  0.00000000000E+00 0.  1.
         11    1    4    4    0    0  0.18540783906E+01 -0.57307858889E+01  0.16726498599E+02  0.17777943335E+02  0.51100000000E-03 0. -1.
        -11    1    4    4    0    0 -0.18356035128E+02  0.11609768464E+02 -0.28765135981E+00  0.21721268218E+02  0.51100000000E-03 0.  1.
        -12    1    4    4    0    0 -0.13827107273E+01  0.30202866612E+01  0.14492060244E+02  0.14867879156E+02  0.00000000000E+00 0.  1.
</event>
<event>
 8    1  0.1253488E-006  0.9118800E+02  0.7816164E-02  0.1184000E+00
        -11   -1    0    0    0    0  0.00000000000E+00  0.00000000000E+00  0.45593999997E+02  0.45594000000E+02  0.51100000000E-03 0.  1.
         11   -1    0    0    0    0 -0.00000000000E+00 -0.00000000000E+00 -0.45593999997E+02  0.45594000000E+02  0.51100000000E-03 0. -1.
         23    2    1    2    0    0  0.00000000000E+00  0.00000000000E+00  0.00000000000E+00  0.91188000000E+02  0.91188000000E+02 0.  0.
    9900012    2    3    3    0    0  0.18372826251E+02 -0.26321912381E+02 -0.18038185028E+02  0.54367082915E+02  0.39999997122E+02 0.  0.
        -12    1    3    3    0    0 -0.18372826251E+02  0.26321912381E+02  0.18038185028E+02  0.36820917085E+02  0.00000000000E+00 0.  1.
         11    1    4    4    0    0  0.16544718458E+02 -0.92038814619E+01 -0.12500308342E+02  0.22686931298E+02  0.51100000000E-03 0. -1.
        -11    1    4    4    0    0  0.88842802961E+01 -0.23106321370E+01  0.65733925106E+01  0.11290657492E+02  0.51100000000E-03 0.  1.
        -12    1    4    4    0    0 -0.70561725034E+01 -0.14807398782E+02 -0.12111269197E+02  0.20389494125E+02  0.00000000000E+00 0.  1.
</event>
<event>
 8    1  0.1253488E-006  0.9118800E+02  0.7816164E-02  0.1184000E+00
        -11   -1    0    0    0    0  0.00000000000E+00  0.00000000000E+00  0.45593999997E+02  0.45594000000E+02  0.51100000000E-03 0.  1.
         11   -1    0    0    0    0 -0.00000000000E+00 -0.00000000000E+00 -0.45593999997E+02  0.45594000000E+02  0.51100000000E-03 0. -1.
         23    2    1    2    0    0  0.00000000000E+00 -0.17763568394E-14  0.00000000000E+00  0.91188000000E+02  0.91188000000E+02 0.  0.
    9900012    2    3    3    0    0 -0.19547792063E+02 -0.93333173075E+01  0.29775043708E+02  0.54367079122E+02  0.39999988475E+02 0.  0.
         12    1    3    3    0    0  0.19547792063E+02  0.93333173075E+01 -0.29775043708E+02  0.36820920878E+02  0.00000000000E+00 0. -1.
         11    1    4    4    0    0 -0.15030152350E+02  0.69028965825E+01  0.98432312599E+01  0.19246939050E+02  0.51100000000E-03 0. -1.
        -11    1    4    4    0    0 -0.12842837665E+02 -0.11311199621E+02  0.59502332267E+01  0.18118691781E+02  0.51100000000E-03 0.  1.
         12    1    4    4    0    0  0.83251979519E+01 -0.49250142693E+01  0.13981579221E+02  0.17001448291E+02  0.00000000000E+00 0. -1.
</event>
<event>
 8    1  0.1253488E-006  0.9118800E+02  0.7816164E-02  0.1184000E+00
        -11   -1    0    0    0    0  0.00000000000E+00  0.00000000000E+00  0.45593999997E+02  0.45594000000E+02  0.51100000000E-03 0.  1.
         11   -1    0    0    0    0 -0.00000000000E+00 -0.00000000000E+00 -0.45593999997E+02  0.45594000000E+02  0.51100000000E-03 0. -1.
         23    2    1    2    0    0  0.00000000000E+00 -0.35527136788E-14 -0.35527136788E-14  0.91188000000E+02  0.91188000000E+02 0.  0.
    9900012    2    3    3    0    0  0.11311775956E+02  0.29874644495E+02  0.18311992442E+02  0.54367085750E+02  0.40000003585E+02 0.  0.
         12    1    3    3    0    0 -0.11311775956E+02 -0.29874644495E+02 -0.18311992442E+02  0.36820914250E+02  0.00000000000E+00 0. -1.
         11    1    4    4    0    0 -0.13360181274E+01  0.94237815883E+01  0.16914715877E+02  0.19408766507E+02  0.51100000000E-03 0. -1.
        -11    1    4    4    0    0 -0.61742598169E+01  0.62573913789E+01  0.63822370802E+01  0.10863212304E+02  0.51100000000E-03 0.  1.
         12    1    4    4    0    0  0.18822053901E+02  0.14193471528E+02 -0.49849605157E+01  0.24095106939E+02  0.00000000000E+00 0. -1.
</event>
<event>
 8    1  0.1253488E-006  0.9118800E+02  0.7816164E-02  0.1184000E+00
        -11   -1    0    0    0    0  0.00000000000E+00  0.00000000000E+00  0.45593999997E+02  0.45594000000E+02  0.51100000000E-03 0.  1.
         11   -1    0    0    0    0 -0.00000000000E+00 -0.00000000000E+00 -0.45593999997E+02  0.45594000000E+02  0.51100000000E-03 0. -1.
         23    2    1    2    0    0  0.00000000000E+00  0.00000000000E+00  0.00000000000E+00  0.91188000000E+02  0.91188000000E+02 0.  0.
    9900012    2    3    3    0    0  0.16249422629E+02 -0.23053916780E+02  0.23669666996E+02  0.54367082706E+02  0.39999996645E+02 0.  0.
         12    1    3    3    0    0 -0.16249422629E+02  0.23053916780E+02 -0.23669666996E+02  0.36820917294E+02  0.00000000000E+00 0. -1.
         11    1    4    4    0    0  0.39178021719E+01 -0.62913676788E+00 -0.37007896138E+01  0.54259405598E+01  0.51100000000E-03 0. -1.
        -11    1    4    4    0    0 -0.40577764559E+01 -0.12911869463E+02  0.26752072186E+02  0.29980915418E+02  0.51100000000E-03 0.  1.
        -12    1    4    4    0    0  0.16389396913E+02 -0.95129105493E+01  0.61838442353E+00  0.18960226728E+02  0.00000000000E+00 0.  1.
</event>
<event>
 8    1  0.1253488E-006  0.9118800E+02  0.7816164E-02  0.1184000E+00
        -11   -1    0    0    0    0  0.00000000000E+00  0.00000000000E+00  0.45593999997E+02  0.45594000000E+02  0.51100000000E-03 0.  1.
         11   -1    0    0    0    0 -0.00000000000E+00 -0.00000000000E+00 -0.45593999997E+02  0.45594000000E+02  0.51100000000E-03 0. -1.
         23    2    1    2    0    0  0.35527136788E-14  0.00000000000E+00  0.00000000000E+00  0.91188000000E+02  0.91188000000E+02 0.  0.
    9900012    2    3    3    0    0  0.26514192362E+02 -0.21675636326E+02 -0.13525736919E+02  0.54367066199E+02  0.39999959014E+02 0.  0.
        -12    1    3    3    0    0 -0.26514192362E+02  0.21675636326E+02  0.13525736919E+02  0.36820933801E+02  0.00000000000E+00 0.  1.
         11    1    4    4    0    0  0.12806233387E+02 -0.51416528535E+01 -0.38738838947E+01  0.14333289375E+02  0.51100000000E-03 0. -1.
        -11    1    4    4    0    0 -0.35826399173E+01  0.32853438688E+01  0.72798284372E+01  0.87535533042E+01  0.51100000000E-03 0.  1.
         12    1    4    4    0    0  0.17290598893E+02 -0.19819327342E+02 -0.16931681461E+02  0.31280223520E+02  0.00000000000E+00 0. -1.
</event>
<event>
 8    1  0.1253488E-006  0.9118800E+02  0.7816164E-02  0.1184000E+00
        -11   -1    0    0    0    0  0.00000000000E+00  0.00000000000E+00  0.45593999997E+02  0.45594000000E+02  0.51100000000E-03 0.  1.
         11   -1    0    0    0    0 -0.00000000000E+00 -0.00000000000E+00 -0.45593999997E+02  0.45594000000E+02  0.51100000000E-03 0. -1.
         23    2    1    2    0    0  0.00000000000E+00 -0.71054273576E-14  0.35527136788E-14  0.91188000000E+02  0.91188000000E+02 0.  0.
    9900012    2    3    3    0    0  0.76251942862E+01  0.26575556599E+02 -0.24318408774E+02  0.54366962511E+02  0.39999722635E+02 0.  0.
        -12    1    3    3    0    0 -0.76251942862E+01 -0.26575556599E+02  0.24318408774E+02  0.36821037489E+02  0.00000000000E+00 0.  1.
         11    1    4    4    0    0  0.14706204353E+01  0.62104166910E+01 -0.18803000184E+02  0.19856606360E+02  0.51100000000E-03 0. -1.
        -11    1    4    4    0    0  0.15946179310E+02  0.17059664474E+02 -0.14235745769E+01  0.23395284811E+02  0.51100000000E-03 0.  1.
         12    1    4    4    0    0 -0.97916054589E+01  0.33054754343E+01 -0.40918340127E+01  0.11115071340E+02  0.00000000000E+00 0. -1.
</event>
<event>
 8    1  0.1253488E-006  0.9118800E+02  0.7816164E-02  0.1184000E+00
        -11   -1    0    0    0    0  0.00000000000E+00  0.00000000000E+00  0.45593999997E+02  0.45594000000E+02  0.51100000000E-03 0. -1.
         11   -1    0    0    0    0 -0.00000000000E+00 -0.00000000000E+00 -0.45593999997E+02  0.45594000000E+02  0.51100000000E-03 0.  1.
         23    2    1    2    0    0  0.00000000000E+00  0.00000000000E+00  0.17763568394E-14  0.91188000000E+02  0.91188000000E+02 0.  0.
    9900012    2    3    3    0    0 -0.32472890781E+02 -0.83847404129E+01 -0.15198223037E+02  0.54367102524E+02  0.40000041824E+02 0.  0.
         12    1    3    3    0    0  0.32472890781E+02  0.83847404129E+01  0.15198223037E+02  0.36820897476E+02  0.00000000000E+00 0. -1.
         11    1    4    4    0    0 -0.94310930245E+01  0.82256156184E+01  0.61093417626E+01  0.13925886865E+02  0.51100000000E-03 0. -1.
        -11    1    4    4    0    0 -0.18931909569E+02 -0.19220076976E+02 -0.11177778666E+02  0.29202248116E+02  0.51100000000E-03 0.  1.
        -12    1    4    4    0    0 -0.41098881876E+01  0.26097209445E+01 -0.10129786133E+02  0.11238967543E+02  0.00000000000E+00 0.  1.
</event>
<event>
 8    1  0.1253488E-006  0.9118800E+02  0.7816164E-02  0.1184000E+00
        -11   -1    0    0    0    0  0.00000000000E+00  0.00000000000E+00  0.45593999997E+02  0.45594000000E+02  0.51100000000E-03 0.  1.
         11   -1    0    0    0    0 -0.00000000000E+00 -0.00000000000E+00 -0.45593999997E+02  0.45594000000E+02  0.51100000000E-03 0. -1.
         23    2    1    2    0    0  0.44408920985E-15  0.00000000000E+00 -0.35527136788E-14  0.91188000000E+02  0.91188000000E+02 0.  0.
    9900012    2    3    3    0    0 -0.34823567385E+01  0.23990390222E+02  0.27714853370E+02  0.54367099294E+02  0.40000034462E+02 0.  0.
         12    1    3    3    0    0  0.34823567385E+01 -0.23990390222E+02 -0.27714853370E+02  0.36820900706E+02  0.00000000000E+00 0. -1.
         11    1    4    4    0    0 -0.10164841812E+02 -0.36006266649E+01  0.71552179571E+01  0.12941625312E+02  0.51100000000E-03 0. -1.
        -11    1    4    4    0    0 -0.39286409633E+01  0.15930058633E+02  0.11901300112E+01  0.16450452808E+02  0.51100000000E-03 0.  1.
         12    1    4    4    0    0  0.10611126037E+02  0.11660958254E+02  0.19369505401E+02  0.24975021175E+02  0.00000000000E+00 0. -1.
</event>
<event>
 8    1  0.1253488E-006  0.9118800E+02  0.7816164E-02  0.1184000E+00
        -11   -1    0    0    0    0  0.00000000000E+00  0.00000000000E+00  0.45593999997E+02  0.45594000000E+02  0.51100000000E-03 0.  1.
         11   -1    0    0    0    0 -0.00000000000E+00 -0.00000000000E+00 -0.45593999997E+02  0.45594000000E+02  0.51100000000E-03 0. -1.
         23    2    1    2    0    0  0.00000000000E+00  0.00000000000E+00  0.00000000000E+00  0.91188000000E+02  0.91188000000E+02 0.  0.
    9900012    2    3    3    0    0  0.20624836138E+02  0.48393665863E+01 -0.30116045626E+02  0.54367088294E+02  0.40000009384E+02 0.  0.
        -12    1    3    3    0    0 -0.20624836138E+02 -0.48393665863E+01  0.30116045626E+02  0.36820911706E+02  0.00000000000E+00 0.  1.
         11    1    4    4    0    0  0.20739418824E+01 -0.79592842923E+01  0.47393960299E+01  0.94928033987E+01  0.51100000000E-03 0. -1.
        -11    1    4    4    0    0  0.50014310229E+00 -0.82583156551E+00  0.16614050959E+01  0.19215639597E+01  0.51100000000E-03 0.  1.
         12    1    4    4    0    0  0.18050751154E+02  0.13624482444E+02 -0.36516846752E+02  0.42952720936E+02  0.00000000000E+00 0. -1.
</event>
<event>
 8    1  0.1253488E-006  0.9118800E+02  0.7816164E-02  0.1184000E+00
        -11   -1    0    0    0    0  0.00000000000E+00  0.00000000000E+00  0.45593999997E+02  0.45594000000E+02  0.51100000000E-03 0. -1.
         11   -1    0    0    0    0 -0.00000000000E+00 -0.00000000000E+00 -0.45593999997E+02  0.45594000000E+02  0.51100000000E-03 0.  1.
         23    2    1    2    0    0  0.53290705182E-14  0.00000000000E+00  0.00000000000E+00  0.91188000000E+02  0.91188000000E+02 0.  0.
    9900012    2    3    3    0    0 -0.15251874843E+02  0.32350613087E+02 -0.87518710730E+01  0.54367121403E+02  0.40000084863E+02 0.  0.
         12    1    3    3    0    0  0.15251874843E+02 -0.32350613087E+02  0.87518710730E+01  0.36820878597E+02  0.00000000000E+00 0. -1.
         11    1    4    4    0    0  0.11703508233E+01  0.57346247041E+01 -0.13525644985E+02  0.14737663114E+02  0.51100000000E-03 0. -1.
        -11    1    4    4    0    0  0.33770861667E+01  0.13501688913E+02  0.73539782988E+01  0.15741070852E+02  0.51100000000E-03 0.  1.
         12    1    4    4    0    0 -0.19799311833E+02  0.13114299470E+02 -0.25802043867E+01  0.23888387437E+02  0.00000000000E+00 0. -1.
</event>
<event>
 8    1  0.1253488E-006  0.9118800E+02  0.7816164E-02  0.1184000E+00
        -11   -1    0    0    0    0  0.00000000000E+00  0.00000000000E+00  0.45593999997E+02  0.45594000000E+02  0.51100000000E-03 0. -1.
         11   -1    0    0    0    0 -0.00000000000E+00 -0.00000000000E+00 -0.45593999997E+02  0.45594000000E+02  0.51100000000E-03 0.  1.
         23    2    1    2    0    0 -0.17763568394E-14  0.17763568394E-14  0.00000000000E+00  0.91188000000E+02  0.91188000000E+02 0.  0.
    9900012    2    3    3    0    0 -0.10721774698E+02 -0.13909411481E+02  0.32362812580E+02  0.54367084497E+02  0.40000000727E+02 0.  0.
        -12    1    3    3    0    0  0.10721774698E+02  0.13909411481E+02 -0.32362812580E+02  0.36820915503E+02  0.00000000000E+00 0.  1.
         11    1    4    4    0    0 -0.67625288403E+01  0.88249488584E+01  0.15988807172E+02  0.19474431281E+02  0.51100000000E-03 0. -1.
        -11    1    4    4    0    0 -0.84946408841E+01 -0.19845728407E+02  0.19135782101E+02  0.28847703837E+02  0.51100000000E-03 0.  1.
        -12    1    4    4    0    0  0.45353950267E+01 -0.28886319325E+01 -0.27617766937E+01  0.60449493791E+01  0.00000000000E+00 0.  1.
</event>
<event>
 8    1  0.1253488E-006  0.9118800E+02  0.7816164E-02  0.1184000E+00
        -11   -1    0    0    0    0  0.00000000000E+00  0.00000000000E+00  0.45593999997E+02  0.45594000000E+02  0.51100000000E-03 0.  1.
         11   -1    0    0    0    0 -0.00000000000E+00 -0.00000000000E+00 -0.45593999997E+02  0.45594000000E+02  0.51100000000E-03 0. -1.
         23    2    1    2    0    0 -0.17763568394E-14  0.00000000000E+00  0.00000000000E+00  0.91188000000E+02  0.91188000000E+02 0.  0.
    9900012    2    3    3    0    0  0.12892412283E+02 -0.19450921870E+02  0.28482057788E+02  0.54367078340E+02  0.39999986692E+02 0.  0.
         12    1    3    3    0    0 -0.12892412283E+02  0.19450921870E+02 -0.28482057788E+02  0.36820921660E+02  0.00000000000E+00 0. -1.
         11    1    4    4    0    0 -0.32243427764E+01 -0.29901558135E+01  0.25115967112E+01  0.50641422206E+01  0.51100000000E-03 0. -1.
        -11    1    4    4    0    0  0.86841127454E+01 -0.26269837459E+02  0.24411328904E+02  0.36897576525E+02  0.51100000000E-03 0.  1.
         12    1    4    4    0    0  0.74326423140E+01  0.98090714023E+01  0.15591321728E+01  0.12405359595E+02  0.00000000000E+00 0. -1.
</event>
<event>
 8    1  0.1253488E-006  0.9118800E+02  0.7816164E-02  0.1184000E+00
        -11   -1    0    0    0    0  0.00000000000E+00  0.00000000000E+00  0.45593999997E+02  0.45594000000E+02  0.51100000000E-03 0.  1.
         11   -1    0    0    0    0 -0.00000000000E+00 -0.00000000000E+00 -0.45593999997E+02  0.45594000000E+02  0.51100000000E-03 0. -1.
         23    2    1    2    0    0  0.00000000000E+00  0.00000000000E+00  0.00000000000E+00  0.91188000000E+02  0.91188000000E+02 0.  0.
    9900012    2    3    3    0    0  0.21850401475E+02 -0.16521006244E+02 -0.24604790002E+02  0.54367090411E+02  0.40000014209E+02 0.  0.
        -12    1    3    3    0    0 -0.21850401475E+02  0.16521006244E+02  0.24604790002E+02  0.36820909589E+02  0.00000000000E+00 0.  1.
         11    1    4    4    0    0  0.70722731353E+01  0.52008065759E+01 -0.22430774771E+02  0.24087446801E+02  0.51100000000E-03 0. -1.
        -11    1    4    4    0    0  0.16411024693E+02 -0.19622493606E+02 -0.53532169585E+01  0.26134668907E+02  0.51100000000E-03 0.  1.
        -12    1    4    4    0    0 -0.16328963542E+01 -0.20993192138E+01  0.31792017266E+01  0.41449747024E+01  0.00000000000E+00 0.  1.
</event>
<event>
 8    1  0.1253488E-006  0.9118800E+02  0.7816164E-02  0.1184000E+00
        -11   -1    0    0    0    0  0.00000000000E+00  0.00000000000E+00  0.45593999997E+02  0.45594000000E+02  0.51100000000E-03 0.  1.
         11   -1    0    0    0    0 -0.00000000000E+00 -0.00000000000E+00 -0.45593999997E+02  0.45594000000E+02  0.51100000000E-03 0. -1.
         23    2    1    2    0    0  0.00000000000E+00 -0.88817841970E-15  0.88817841970E-15  0.91188000000E+02  0.91188000000E+02 0.  0.
    9900012    2    3    3    0    0 -0.36501310656E+02  0.13566013929E+01  0.46470750090E+01  0.54367063658E+02  0.39999953221E+02 0.  0.
         12    1    3    3    0    0  0.36501310656E+02 -0.13566013929E+01 -0.46470750090E+01  0.36820936342E+02  0.00000000000E+00 0. -1.
         11    1    4    4    0    0 -0.61409025709E+01 -0.49966767292E+01  0.97806126677E+00  0.79770963905E+01  0.51100000000E-03 0. -1.
        -11    1    4    4    0    0 -0.20281010845E+02 -0.70552311211E+01  0.14959045982E+02  0.26169997020E+02  0.51100000000E-03 0.  1.
         12    1    4    4    0    0 -0.10079397240E+02  0.13408509243E+02 -0.11290032240E+02  0.20219970248E+02  0.00000000000E+00 0. -1.
</event>
<event>
 8    1  0.1253488E-006  0.9118800E+02  0.7816164E-02  0.1184000E+00
        -11   -1    0    0    0    0  0.00000000000E+00  0.00000000000E+00  0.45593999997E+02  0.45594000000E+02  0.51100000000E-03 0.  1.
         11   -1    0    0    0    0 -0.00000000000E+00 -0.00000000000E+00 -0.45593999997E+02  0.45594000000E+02  0.51100000000E-03 0. -1.
         23    2    1    2    0    0  0.00000000000E+00  0.17763568394E-14  0.00000000000E+00  0.91188000000E+02  0.91188000000E+02 0.  0.
    9900012    2    3    3    0    0  0.32741764328E+02 -0.61695576431E+01  0.15674661614E+02  0.54367060447E+02  0.39999945901E+02 0.  0.
         12    1    3    3    0    0 -0.32741764328E+02  0.61695576431E+01 -0.15674661614E+02  0.36820939553E+02  0.00000000000E+00 0. -1.
         11    1    4    4    0    0 -0.56391000735E+01  0.51783089319E+01  0.35073777982E+01  0.84211657336E+01  0.51100000000E-03 0. -1.
        -11    1    4    4    0    0  0.36307914117E+02 -0.13006706241E+02  0.57403777914E+01  0.38992191170E+02  0.51100000000E-03 0.  1.
         12    1    4    4    0    0  0.20729502850E+01  0.16588396663E+01  0.64269060249E+01  0.69537035438E+01  0.00000000000E+00 0. -1.
</event>
<event>
 8    1  0.1253488E-006  0.9118800E+02  0.7816164E-02  0.1184000E+00
        -11   -1    0    0    0    0  0.00000000000E+00  0.00000000000E+00  0.45593999997E+02  0.45594000000E+02  0.51100000000E-03 0. -1.
         11   -1    0    0    0    0 -0.00000000000E+00 -0.00000000000E+00 -0.45593999997E+02  0.45594000000E+02  0.51100000000E-03 0.  1.
         23    2    1    2    0    0  0.00000000000E+00  0.35527136788E-14 -0.17763568394E-14  0.91188000000E+02  0.91188000000E+02 0.  0.
    9900012    2    3    3    0    0 -0.26332220647E+02  0.23859551995E+02  0.96496329387E+01  0.54367089073E+02  0.40000011161E+02 0.  0.
        -12    1    3    3    0    0  0.26332220647E+02 -0.23859551995E+02 -0.96496329387E+01  0.36820910927E+02  0.00000000000E+00 0.  1.
         11    1    4    4    0    0 -0.11579961495E+02  0.14398846823E+02  0.24810107528E+02  0.30934830432E+02  0.51100000000E-03 0. -1.
        -11    1    4    4    0    0 -0.43992102684E+01  0.10457610840E+01 -0.36322927523E+01  0.58000188043E+01  0.51100000000E-03 0.  1.
         12    1    4    4    0    0 -0.10353048884E+02  0.84149440883E+01 -0.11528181837E+02  0.17632239837E+02  0.00000000000E+00 0. -1.
</event>
<event>
 8    1  0.1253488E-006  0.9118800E+02  0.7816164E-02  0.1184000E+00
        -11   -1    0    0    0    0  0.00000000000E+00  0.00000000000E+00  0.45593999997E+02  0.45594000000E+02  0.51100000000E-03 0. -1.
         11   -1    0    0    0    0 -0.00000000000E+00 -0.00000000000E+00 -0.45593999997E+02  0.45594000000E+02  0.51100000000E-03 0.  1.
         23    2    1    2    0    0 -0.17763568394E-14 -0.71054273576E-14  0.88817841970E-15  0.91188000000E+02  0.91188000000E+02 0.  0.
    9900012    2    3    3    0    0 -0.11958921876E+02 -0.34379650886E+02  0.55501914196E+01  0.54367070731E+02  0.39999969344E+02 0.  0.
        -12    1    3    3    0    0  0.11958921876E+02  0.34379650886E+02 -0.55501914196E+01  0.36820929269E+02  0.00000000000E+00 0.  1.
         11    1    4    4    0    0  0.49724951593E+01 -0.73750080572E+01  0.13609048561E+02  0.16258002797E+02  0.51100000000E-03 0.  1.
        -11    1    4    4    0    0 -0.38523007050E+01 -0.11597732257E+02 -0.12430635509E+02  0.17431819000E+02  0.51100000000E-03 0. -1.
         12    1    4    4    0    0 -0.13079116331E+02 -0.15406910571E+02  0.43717783681E+01  0.20677248933E+02  0.00000000000E+00 0. -1.
</event>
<event>
 8    1  0.1253488E-006  0.9118800E+02  0.7816164E-02  0.1184000E+00
        -11   -1    0    0    0    0  0.00000000000E+00  0.00000000000E+00  0.45593999997E+02  0.45594000000E+02  0.51100000000E-03 0.  1.
         11   -1    0    0    0    0 -0.00000000000E+00 -0.00000000000E+00 -0.45593999997E+02  0.45594000000E+02  0.51100000000E-03 0. -1.
         23    2    1    2    0    0  0.00000000000E+00 -0.17763568394E-14 -0.35527136788E-14  0.91188000000E+02  0.91188000000E+02 0.  0.
    9900012    2    3    3    0    0  0.13001674991E+02  0.15287120778E+02 -0.30871371381E+02  0.54367065938E+02  0.39999958418E+02 0.  0.
        -12    1    3    3    0    0 -0.13001674991E+02 -0.15287120778E+02  0.30871371381E+02  0.36820934062E+02  0.00000000000E+00 0.  1.
         11    1    4    4    0    0  0.18594417865E+02  0.14834164350E+01 -0.15406692758E+02  0.24193368555E+02  0.51100000000E-03 0. -1.
        -11    1    4    4    0    0 -0.58816422255E+01  0.10085067906E+02 -0.20688279796E+02  0.23755151676E+02  0.51100000000E-03 0.  1.
         12    1    4    4    0    0  0.28889935159E+00  0.37186364371E+01  0.52236011725E+01  0.64185457073E+01  0.00000000000E+00 0. -1.
</event>
<event>
 8    1  0.1253488E-006  0.9118800E+02  0.7816164E-02  0.1184000E+00
        -11   -1    0    0    0    0  0.00000000000E+00  0.00000000000E+00  0.45593999997E+02  0.45594000000E+02  0.51100000000E-03 0.  1.
         11   -1    0    0    0    0 -0.00000000000E+00 -0.00000000000E+00 -0.45593999997E+02  0.45594000000E+02  0.51100000000E-03 0. -1.
         23    2    1    2    0    0 -0.35527136788E-14  0.17763568394E-14  0.00000000000E+00  0.91188000000E+02  0.91188000000E+02 0.  0.
    9900012    2    3    3    0    0  0.29433889523E+02  0.13959241431E+02  0.17163143209E+02  0.54366976676E+02  0.39999754928E+02 0.  0.
         12    1    3    3    0    0 -0.29433889523E+02 -0.13959241431E+02 -0.17163143209E+02  0.36821023324E+02  0.00000000000E+00 0. -1.
         11    1    4    4    0    0  0.25134791314E+02  0.89798187338E+01  0.43772477219E+01  0.27047276698E+02  0.51100000000E-03 0. -1.
        -11    1    4    4    0    0  0.10689035321E+02 -0.55637238272E+00  0.15142094627E+02  0.18543140410E+02  0.51100000000E-03 0.  1.
         12    1    4    4    0    0 -0.63899371125E+01  0.55357950795E+01 -0.23561991397E+01  0.87765595680E+01  0.00000000000E+00 0. -1.
</event>
<event>
 8    1  0.1253488E-006  0.9118800E+02  0.7816164E-02  0.1184000E+00
        -11   -1    0    0    0    0  0.00000000000E+00  0.00000000000E+00  0.45593999997E+02  0.45594000000E+02  0.51100000000E-03 0. -1.
         11   -1    0    0    0    0 -0.00000000000E+00 -0.00000000000E+00 -0.45593999997E+02  0.45594000000E+02  0.51100000000E-03 0.  1.
         23    2    1    2    0    0  0.00000000000E+00  0.00000000000E+00 -0.35527136788E-14  0.91188000000E+02  0.91188000000E+02 0.  0.
    9900012    2    3    3    0    0  0.15988138784E+02  0.19651241794E+02  0.26720562081E+02  0.54367077636E+02  0.39999985087E+02 0.  0.
        -12    1    3    3    0    0 -0.15988138784E+02 -0.19651241794E+02 -0.26720562081E+02  0.36820922364E+02  0.00000000000E+00 0.  1.
         11    1    4    4    0    0  0.91474700428E+01  0.17019266293E+02  0.36051355363E+02  0.40902712099E+02  0.51100000000E-03 0. -1.
        -11    1    4    4    0    0  0.68065041211E+00 -0.18131289667E+01 -0.30247170143E+01  0.35916061742E+01  0.51100000000E-03 0.  1.
         12    1    4    4    0    0  0.61600183288E+01  0.44451044676E+01 -0.63060762673E+01  0.98727593624E+01  0.00000000000E+00 0. -1.
</event>
<event>
 8    1  0.1253488E-006  0.9118800E+02  0.7816164E-02  0.1184000E+00
        -11   -1    0    0    0    0  0.00000000000E+00  0.00000000000E+00  0.45593999997E+02  0.45594000000E+02  0.51100000000E-03 0.  1.
         11   -1    0    0    0    0 -0.00000000000E+00 -0.00000000000E+00 -0.45593999997E+02  0.45594000000E+02  0.51100000000E-03 0. -1.
         23    2    1    2    0    0  0.00000000000E+00  0.00000000000E+00  0.00000000000E+00  0.91188000000E+02  0.91188000000E+02 0.  0.
    9900012    2    3    3    0    0 -0.69519612274E+01  0.10601919194E+02 -0.34569491242E+02  0.54367079584E+02  0.39999989528E+02 0.  0.
        -12    1    3    3    0    0  0.69519612274E+01 -0.10601919194E+02  0.34569491242E+02  0.36820920416E+02  0.00000000000E+00 0.  1.
         11    1    4    4    0    0  0.77165584051E+01  0.77499318089E+01 -0.19849611522E+02  0.22663049100E+02  0.51100000000E-03 0. -1.
        -11    1    4    4    0    0 -0.51105760355E+01  0.10835173372E+02  0.55887641055E+00  0.11992969295E+02  0.51100000000E-03 0.  1.
         12    1    4    4    0    0 -0.95579435970E+01 -0.79831859866E+01 -0.15278756131E+02  0.19711061189E+02  0.00000000000E+00 0. -1.
</event>
<event>
 8    1  0.1253488E-006  0.9118800E+02  0.7816164E-02  0.1184000E+00
        -11   -1    0    0    0    0  0.00000000000E+00  0.00000000000E+00  0.45593999997E+02  0.45594000000E+02  0.51100000000E-03 0. -1.
         11   -1    0    0    0    0 -0.00000000000E+00 -0.00000000000E+00 -0.45593999997E+02  0.45594000000E+02  0.51100000000E-03 0.  1.
         23    2    1    2    0    0  0.00000000000E+00  0.35527136788E-14  0.17763568394E-14  0.91188000000E+02  0.91188000000E+02 0.  0.
    9900012    2    3    3    0    0  0.33822946613E+02  0.11935925967E+02  0.83259939537E+01  0.54367079023E+02  0.39999988248E+02 0.  0.
        -12    1    3    3    0    0 -0.33822946613E+02 -0.11935925967E+02 -0.83259939537E+01  0.36820920977E+02  0.00000000000E+00 0.  1.
         11    1    4    4    0    0  0.31233635942E+02 -0.11948323805E+01  0.13963404758E+02  0.34233672185E+02  0.51100000000E-03 0. -1.
        -11    1    4    4    0    0 -0.91384985179E+00 -0.81174223858E+00 -0.56262959914E+01  0.57575388716E+01  0.51100000000E-03 0.  1.
         12    1    4    4    0    0  0.35031605229E+01  0.13942500586E+02 -0.11114813046E-01  0.14375867966E+02  0.00000000000E+00 0. -1.
</event>
<event>
 8    1  0.1253488E-006  0.9118800E+02  0.7816164E-02  0.1184000E+00
        -11   -1    0    0    0    0  0.00000000000E+00  0.00000000000E+00  0.45593999997E+02  0.45594000000E+02  0.51100000000E-03 0. -1.
         11   -1    0    0    0    0 -0.00000000000E+00 -0.00000000000E+00 -0.45593999997E+02  0.45594000000E+02  0.51100000000E-03 0.  1.
         23    2    1    2    0    0  0.88817841970E-15  0.00000000000E+00 -0.17763568394E-14  0.91188000000E+02  0.91188000000E+02 0.  0.
    9900012    2    3    3    0    0  0.76261245106E+01  0.34704397127E+02  0.96554204410E+01  0.54367080689E+02  0.39999992047E+02 0.  0.
        -12    1    3    3    0    0 -0.76261245106E+01 -0.34704397127E+02 -0.96554204410E+01  0.36820919311E+02  0.00000000000E+00 0.  1.
         11    1    4    4    0    0 -0.70616103081E+01  0.14061655714E+02 -0.84557620137E+01  0.17863269943E+02  0.51100000000E-03 0. -1.
        -11    1    4    4    0    0 -0.11506666217E+01 -0.21013173162E+01 -0.12434792819E+01  0.26992238001E+01  0.51100000000E-03 0.  1.
         12    1    4    4    0    0  0.15838401440E+02  0.22744058729E+02  0.19354661737E+02  0.33804586946E+02  0.00000000000E+00 0. -1.
</event>
<event>
 8    1  0.1253488E-006  0.9118800E+02  0.7816164E-02  0.1184000E+00
        -11   -1    0    0    0    0  0.00000000000E+00  0.00000000000E+00  0.45593999997E+02  0.45594000000E+02  0.51100000000E-03 0. -1.
         11   -1    0    0    0    0 -0.00000000000E+00 -0.00000000000E+00 -0.45593999997E+02  0.45594000000E+02  0.51100000000E-03 0.  1.
         23    2    1    2    0    0 -0.35527136788E-14 -0.17763568394E-14  0.00000000000E+00  0.91188000000E+02  0.91188000000E+02 0.  0.
    9900012    2    3    3    0    0 -0.19380662653E+02 -0.51095783589E+01 -0.30887891461E+02  0.54367085905E+02  0.40000003938E+02 0.  0.
         12    1    3    3    0    0  0.19380662653E+02  0.51095783589E+01  0.30887891461E+02  0.36820914095E+02  0.00000000000E+00 0. -1.
         11    1    4    4    0    0 -0.18454329492E+00 -0.10248866278E+02 -0.95521326764E+01  0.14011300979E+02  0.51100000000E-03 0. -1.
        -11    1    4    4    0    0 -0.11340875925E+02 -0.10189361280E+02 -0.16500811063E+02  0.22465870026E+02  0.51100000000E-03 0.  1.
        -12    1    4    4    0    0 -0.78552434338E+01  0.15328649199E+02 -0.48349477220E+01  0.17889914900E+02  0.00000000000E+00 0.  1.
</event>
<event>
 8    1  0.1253488E-006  0.9118800E+02  0.7816164E-02  0.1184000E+00
        -11   -1    0    0    0    0  0.00000000000E+00  0.00000000000E+00  0.45593999997E+02  0.45594000000E+02  0.51100000000E-03 0. -1.
         11   -1    0    0    0    0 -0.00000000000E+00 -0.00000000000E+00 -0.45593999997E+02  0.45594000000E+02  0.51100000000E-03 0.  1.
         23    2    1    2    0    0  0.16653345369E-15  0.00000000000E+00  0.26645352591E-14  0.91188000000E+02  0.91188000000E+02 0.  0.
    9900012    2    3    3    0    0 -0.27354780257E+00 -0.36365149737E+02 -0.57689344170E+01  0.54367088168E+02  0.40000009097E+02 0.  0.
         12    1    3    3    0    0  0.27354780257E+00  0.36365149737E+02  0.57689344170E+01  0.36820911832E+02  0.00000000000E+00 0. -1.
         11    1    4    4    0    0 -0.46506227706E+01 -0.88686699936E+01  0.26630986952E+01  0.10362127896E+02  0.51100000000E-03 0. -1.
        -11    1    4    4    0    0  0.38043470317E+01 -0.12517974807E+02  0.12609272179E+02  0.18170484164E+02  0.51100000000E-03 0.  1.
        -12    1    4    4    0    0  0.57272793632E+00 -0.14978504937E+02 -0.21041305291E+02  0.25834476108E+02  0.00000000000E+00 0.  1.
</event>
<event>
 8    1  0.1253488E-006  0.9118800E+02  0.7816164E-02  0.1184000E+00
        -11   -1    0    0    0    0  0.00000000000E+00  0.00000000000E+00  0.45593999997E+02  0.45594000000E+02  0.51100000000E-03 0. -1.
         11   -1    0    0    0    0 -0.00000000000E+00 -0.00000000000E+00 -0.45593999997E+02  0.45594000000E+02  0.51100000000E-03 0.  1.
         23    2    1    2    0    0 -0.22204460493E-15 -0.44408920985E-15  0.00000000000E+00  0.91188000000E+02  0.91188000000E+02 0.  0.
    9900012    2    3    3    0    0 -0.54980154265E+00 -0.23864572533E+01 -0.36739366066E+02  0.54367102687E+02  0.40000042197E+02 0.  0.
         12    1    3    3    0    0  0.54980154265E+00  0.23864572533E+01  0.36739366066E+02  0.36820897313E+02  0.00000000000E+00 0. -1.
         11    1    4    4    0    0  0.98313695268E+01  0.47952884427E+01 -0.91161246825E+00  0.10976413603E+02  0.51100000000E-03 0.  1.
        -11    1    4    4    0    0 -0.66501952134E+01 -0.14019051221E+02 -0.17005999457E+02  0.23020923337E+02  0.51100000000E-03 0. -1.
        -12    1    4    4    0    0 -0.37309758560E+01  0.68373055246E+01 -0.18821754141E+02  0.20369765748E+02  0.00000000000E+00 0.  1.
</event>
<event>
 8    1  0.1253488E-006  0.9118800E+02  0.7816164E-02  0.1184000E+00
        -11   -1    0    0    0    0  0.00000000000E+00  0.00000000000E+00  0.45593999997E+02  0.45594000000E+02  0.51100000000E-03 0. -1.
         11   -1    0    0    0    0 -0.00000000000E+00 -0.00000000000E+00 -0.45593999997E+02  0.45594000000E+02  0.51100000000E-03 0.  1.
         23    2    1    2    0    0  0.00000000000E+00 -0.71054273576E-14  0.00000000000E+00  0.91188000000E+02  0.91188000000E+02 0.  0.
    9900012    2    3    3    0    0 -0.11398208572E+02 -0.29970078824E+02 -0.18101247221E+02  0.54367082924E+02  0.39999997141E+02 0.  0.
         12    1    3    3    0    0  0.11398208572E+02  0.29970078824E+02  0.18101247221E+02  0.36820917076E+02  0.00000000000E+00 0. -1.
         11    1    4    4    0    0 -0.13476362511E+02 -0.21935089385E+02 -0.15388086283E+02  0.29992560620E+02  0.51100000000E-03 0. -1.
        -11    1    4    4    0    0 -0.78887827002E+01  0.34154245250E+01 -0.32349225756E+01  0.91849192434E+01  0.51100000000E-03 0.  1.
        -12    1    4    4    0    0  0.99669366391E+01 -0.11450413964E+02  0.52176163764E+00  0.15189603060E+02  0.00000000000E+00 0.  1.
</event>
<event>
 8    1  0.1253488E-006  0.9118800E+02  0.7816164E-02  0.1184000E+00
        -11   -1    0    0    0    0  0.00000000000E+00  0.00000000000E+00  0.45593999997E+02  0.45594000000E+02  0.51100000000E-03 0.  1.
         11   -1    0    0    0    0 -0.00000000000E+00 -0.00000000000E+00 -0.45593999997E+02  0.45594000000E+02  0.51100000000E-03 0. -1.
         23    2    1    2    0    0  0.00000000000E+00  0.00000000000E+00  0.00000000000E+00  0.91188000000E+02  0.91188000000E+02 0.  0.
    9900012    2    3    3    0    0  0.11170484652E+02 -0.11198983658E+02  0.33250311628E+02  0.54367079510E+02  0.39999989360E+02 0.  0.
         12    1    3    3    0    0 -0.11170484652E+02  0.11198983658E+02 -0.33250311628E+02  0.36820920490E+02  0.00000000000E+00 0. -1.
         11    1    4    4    0    0  0.17243881402E+02 -0.43197128808E+00  0.31335640359E+02  0.35769545733E+02  0.51100000000E-03 0. -1.
        -11    1    4    4    0    0 -0.65181206580E+01 -0.28090336068E+01  0.63087512400E+01  0.94961523358E+01  0.51100000000E-03 0.  1.
         12    1    4    4    0    0  0.44472390819E+00 -0.79579787630E+01 -0.43940799709E+01  0.91013814412E+01  0.00000000000E+00 0. -1.
</event>
<event>
 8    1  0.1253488E-006  0.9118800E+02  0.7816164E-02  0.1184000E+00
        -11   -1    0    0    0    0  0.00000000000E+00  0.00000000000E+00  0.45593999997E+02  0.45594000000E+02  0.51100000000E-03 0. -1.
         11   -1    0    0    0    0 -0.00000000000E+00 -0.00000000000E+00 -0.45593999997E+02  0.45594000000E+02  0.51100000000E-03 0.  1.
         23    2    1    2    0    0 -0.66613381478E-15  0.00000000000E+00  0.00000000000E+00  0.91188000000E+02  0.91188000000E+02 0.  0.
    9900012    2    3    3    0    0  0.16964395724E+01  0.15102846388E+02 -0.33538131907E+02  0.54367079750E+02  0.39999989906E+02 0.  0.
         12    1    3    3    0    0 -0.16964395724E+01 -0.15102846388E+02  0.33538131907E+02  0.36820920250E+02  0.00000000000E+00 0. -1.
         11    1    4    4    0    0 -0.96518181206E+01  0.53484565450E+01 -0.38254782502E+01  0.11678949634E+02  0.51100000000E-03 0. -1.
        -11    1    4    4    0    0 -0.47269838621E+01  0.71919495427E+01  0.22707003994E+00  0.86093016977E+01  0.51100000000E-03 0.  1.
         12    1    4    4    0    0  0.16075241555E+02  0.25624403006E+01 -0.29939723697E+02  0.34078828418E+02  0.00000000000E+00 0. -1.
</event>
<event>
 8    1  0.1253488E-006  0.9118800E+02  0.7816164E-02  0.1184000E+00
        -11   -1    0    0    0    0  0.00000000000E+00  0.00000000000E+00  0.45593999997E+02  0.45594000000E+02  0.51100000000E-03 0. -1.
         11   -1    0    0    0    0 -0.00000000000E+00 -0.00000000000E+00 -0.45593999997E+02  0.45594000000E+02  0.51100000000E-03 0.  1.
         23    2    1    2    0    0 -0.35527136788E-14  0.00000000000E+00  0.00000000000E+00  0.91188000000E+02  0.91188000000E+02 0.  0.
    9900012    2    3    3    0    0 -0.25552345328E+02  0.17125430535E+02  0.20238075918E+02  0.54367048904E+02  0.39999919586E+02 0.  0.
        -12    1    3    3    0    0  0.25552345328E+02 -0.17125430535E+02 -0.20238075918E+02  0.36820951096E+02  0.00000000000E+00 0.  1.
         11    1    4    4    0    0  0.91193742338E+01  0.93131316558E+01  0.87554314087E+01  0.15702069515E+02  0.51100000000E-03 0.  1.
        -11    1    4    4    0    0 -0.57237534261E+01  0.19771141636E+01  0.61987945211E+01  0.86657594863E+01  0.51100000000E-03 0. -1.
        -12    1    4    4    0    0 -0.28947966135E+02  0.58351847159E+01  0.52838499879E+01  0.29999219902E+02  0.00000000000E+00 0.  1.
</event>
<event>
 8    1  0.1253488E-006  0.9118800E+02  0.7816164E-02  0.1184000E+00
        -11   -1    0    0    0    0  0.00000000000E+00  0.00000000000E+00  0.45593999997E+02  0.45594000000E+02  0.51100000000E-03 0. -1.
         11   -1    0    0    0    0 -0.00000000000E+00 -0.00000000000E+00 -0.45593999997E+02  0.45594000000E+02  0.51100000000E-03 0.  1.
         23    2    1    2    0    0  0.00000000000E+00  0.00000000000E+00  0.00000000000E+00  0.91188000000E+02  0.91188000000E+02 0.  0.
    9900012    2    3    3    0    0 -0.46780072897E+01  0.13783504300E+02  0.33821702140E+02  0.54367132566E+02  0.40000110310E+02 0.  0.
        -12    1    3    3    0    0  0.46780072897E+01 -0.13783504300E+02 -0.33821702140E+02  0.36820867434E+02  0.00000000000E+00 0.  1.
         11    1    4    4    0    0 -0.18570781037E+02 -0.12153190655E+01  0.16267326361E+02  0.24717945221E+02  0.51100000000E-03 0. -1.
        -11    1    4    4    0    0  0.81570050182E+00  0.84526047531E+01  0.29715239168E+01  0.89967688128E+01  0.51100000000E-03 0.  1.
         12    1    4    4    0    0  0.13077073245E+02  0.65462186121E+01  0.14582851862E+02  0.20652418532E+02  0.00000000000E+00 0. -1.
</event>
<event>
 8    1  0.1253488E-006  0.9118800E+02  0.7816164E-02  0.1184000E+00
        -11   -1    0    0    0    0  0.00000000000E+00  0.00000000000E+00  0.45593999997E+02  0.45594000000E+02  0.51100000000E-03 0. -1.
         11   -1    0    0    0    0 -0.00000000000E+00 -0.00000000000E+00 -0.45593999997E+02  0.45594000000E+02  0.51100000000E-03 0.  1.
         23    2    1    2    0    0 -0.88817841970E-15 -0.88817841970E-15  0.00000000000E+00  0.91188000000E+02  0.91188000000E+02 0.  0.
    9900012    2    3    3    0    0 -0.53121589893E+01  0.46217618552E+01  0.36141423823E+02  0.54367051727E+02  0.39999926023E+02 0.  0.
        -12    1    3    3    0    0  0.53121589893E+01 -0.46217618552E+01 -0.36141423823E+02  0.36820948273E+02  0.00000000000E+00 0.  1.
         11    1    4    4    0    0 -0.27452696545E+00  0.94772971988E+01  0.12771179431E+02  0.15905896755E+02  0.51100000000E-03 0. -1.
        -11    1    4    4    0    0 -0.98318116927E+01  0.83482101962E+01  0.22449576439E+01  0.13091866549E+02  0.51100000000E-03 0.  1.
         12    1    4    4    0    0  0.47941796689E+01 -0.13203745540E+02  0.21125286747E+02  0.25369288424E+02  0.00000000000E+00 0. -1.
</event>
<event>
 8    1  0.1253488E-006  0.9118800E+02  0.7816164E-02  0.1184000E+00
        -11   -1    0    0    0    0  0.00000000000E+00  0.00000000000E+00  0.45593999997E+02  0.45594000000E+02  0.51100000000E-03 0. -1.
         11   -1    0    0    0    0 -0.00000000000E+00 -0.00000000000E+00 -0.45593999997E+02  0.45594000000E+02  0.51100000000E-03 0.  1.
         23    2    1    2    0    0  0.00000000000E+00  0.17763568394E-14  0.00000000000E+00  0.91188000000E+02  0.91188000000E+02 0.  0.
    9900012    2    3    3    0    0 -0.44734220674E+01 -0.95488107133E+01  0.35278749198E+02  0.54367062532E+02  0.39999950654E+02 0.  0.
        -12    1    3    3    0    0  0.44734220674E+01  0.95488107133E+01 -0.35278749198E+02  0.36820937468E+02  0.00000000000E+00 0.  1.
         11    1    4    4    0    0  0.19927476734E+01 -0.98422290512E+01  0.21274452267E+02  0.23525365789E+02  0.51100000000E-03 0. -1.
        -11    1    4    4    0    0  0.24970315769E+01 -0.45065568845E+01 -0.62972886848E+01  0.81363423410E+01  0.51100000000E-03 0.  1.
        -12    1    4    4    0    0 -0.89632013177E+01  0.47999752225E+01  0.20301585616E+02  0.22705354402E+02  0.00000000000E+00 0.  1.
</event>
<event>
 8    1  0.1253488E-006  0.9118800E+02  0.7816164E-02  0.1184000E+00
        -11   -1    0    0    0    0  0.00000000000E+00  0.00000000000E+00  0.45593999997E+02  0.45594000000E+02  0.51100000000E-03 0.  1.
         11   -1    0    0    0    0 -0.00000000000E+00 -0.00000000000E+00 -0.45593999997E+02  0.45594000000E+02  0.51100000000E-03 0. -1.
         23    2    1    2    0    0  0.00000000000E+00 -0.71054273576E-14  0.00000000000E+00  0.91188000000E+02  0.91188000000E+02 0.  0.
    9900012    2    3    3    0    0 -0.95563904099E+01 -0.34359875534E+02  0.91571584654E+01  0.54367092956E+02  0.40000020012E+02 0.  0.
        -12    1    3    3    0    0  0.95563904099E+01  0.34359875534E+02 -0.91571584654E+01  0.36820907044E+02  0.00000000000E+00 0.  1.
         11    1    4    4    0    0 -0.15177125471E+02 -0.40260744736E+01  0.64437362026E+01  0.16972806184E+02  0.51100000000E-03 0. -1.
        -11    1    4    4    0    0 -0.26358772296E+01  0.23258078465E+01  0.10388564238E+01  0.36655768767E+01  0.51100000000E-03 0.  1.
         12    1    4    4    0    0  0.82566122911E+01 -0.32659608907E+02  0.16745658390E+01  0.33728709896E+02  0.00000000000E+00 0. -1.
</event>
<event>
 8    1  0.1253488E-006  0.9118800E+02  0.7816164E-02  0.1184000E+00
        -11   -1    0    0    0    0  0.00000000000E+00  0.00000000000E+00  0.45593999997E+02  0.45594000000E+02  0.51100000000E-03 0.  1.
         11   -1    0    0    0    0 -0.00000000000E+00 -0.00000000000E+00 -0.45593999997E+02  0.45594000000E+02  0.51100000000E-03 0. -1.
         23    2    1    2    0    0  0.00000000000E+00  0.35527136788E-14 -0.35527136788E-14  0.91188000000E+02  0.91188000000E+02 0.  0.
    9900012    2    3    3    0    0  0.11974116264E+02 -0.17845685266E+02  0.29898714771E+02  0.54367067260E+02  0.39999961432E+02 0.  0.
         12    1    3    3    0    0 -0.11974116264E+02  0.17845685266E+02 -0.29898714771E+02  0.36820932740E+02  0.00000000000E+00 0. -1.
         11    1    4    4    0    0  0.99446282792E+01  0.55212810053E+01  0.13773235077E+01  0.11457626100E+02  0.51100000000E-03 0. -1.
        -11    1    4    4    0    0  0.10311923777E+02 -0.11448132559E+02  0.22330541558E+02  0.27130215584E+02  0.51100000000E-03 0.  1.
        -12    1    4    4    0    0 -0.82824357919E+01 -0.11918833712E+02  0.61908497043E+01  0.15779225576E+02  0.00000000000E+00 0.  1.
</event>
<event>
 8    1  0.1253488E-006  0.9118800E+02  0.7816164E-02  0.1184000E+00
        -11   -1    0    0    0    0  0.00000000000E+00  0.00000000000E+00  0.45593999997E+02  0.45594000000E+02  0.51100000000E-03 0. -1.
         11   -1    0    0    0    0 -0.00000000000E+00 -0.00000000000E+00 -0.45593999997E+02  0.45594000000E+02  0.51100000000E-03 0.  1.
         23    2    1    2    0    0 -0.17763568394E-14 -0.17763568394E-14  0.00000000000E+00  0.91188000000E+02  0.91188000000E+02 0.  0.
    9900012    2    3    3    0    0 -0.96635554354E+01  0.87617817825E+01  0.34432693537E+02  0.54367305983E+02  0.40000505646E+02 0.  0.
        -12    1    3    3    0    0  0.96635554354E+01 -0.87617817825E+01 -0.34432693537E+02  0.36820694017E+02  0.00000000000E+00 0.  1.
         11    1    4    4    0    0  0.12005349792E+01  0.19087693759E+02  0.29732616028E+02  0.35352649029E+02  0.51100000000E-03 0. -1.
        -11    1    4    4    0    0 -0.31651463277E+01 -0.55443714386E+00 -0.29902640047E+01  0.43894453979E+01  0.51100000000E-03 0.  1.
         12    1    4    4    0    0 -0.76989440869E+01 -0.97714748324E+01  0.76903415142E+01  0.14625211556E+02  0.00000000000E+00 0. -1.
</event>
<event>
 8    1  0.1253488E-006  0.9118800E+02  0.7816164E-02  0.1184000E+00
        -11   -1    0    0    0    0  0.00000000000E+00  0.00000000000E+00  0.45593999997E+02  0.45594000000E+02  0.51100000000E-03 0. -1.
         11   -1    0    0    0    0 -0.00000000000E+00 -0.00000000000E+00 -0.45593999997E+02  0.45594000000E+02  0.51100000000E-03 0.  1.
         23    2    1    2    0    0  0.17763568394E-14  0.27755575616E-15  0.00000000000E+00  0.91188000000E+02  0.91188000000E+02 0.  0.
    9900012    2    3    3    0    0  0.11870144970E+02  0.41827119982E+00 -0.34852590347E+02  0.54367104488E+02  0.40000046301E+02 0.  0.
         12    1    3    3    0    0 -0.11870144970E+02 -0.41827119982E+00  0.34852590347E+02  0.36820895512E+02  0.00000000000E+00 0. -1.
         11    1    4    4    0    0  0.33833379484E+01  0.11782755904E+02 -0.47949886075E+01  0.13163290940E+02  0.51100000000E-03 0. -1.
        -11    1    4    4    0    0  0.12354452875E+02 -0.76472961207E+01 -0.32278462138E+02  0.35397920307E+02  0.51100000000E-03 0.  1.
        -12    1    4    4    0    0 -0.38676458531E+01 -0.37171885838E+01  0.22208603985E+01  0.58058932407E+01  0.00000000000E+00 0.  1.
</event>
<event>
 8    1  0.1253488E-006  0.9118800E+02  0.7816164E-02  0.1184000E+00
        -11   -1    0    0    0    0  0.00000000000E+00  0.00000000000E+00  0.45593999997E+02  0.45594000000E+02  0.51100000000E-03 0.  1.
         11   -1    0    0    0    0 -0.00000000000E+00 -0.00000000000E+00 -0.45593999997E+02  0.45594000000E+02  0.51100000000E-03 0. -1.
         23    2    1    2    0    0  0.00000000000E+00  0.00000000000E+00  0.00000000000E+00  0.91188000000E+02  0.91188000000E+02 0.  0.
    9900012    2    3    3    0    0 -0.22804950701E+01  0.11373611662E+02 -0.34945960594E+02  0.54367083908E+02  0.39999999386E+02 0.  0.
        -12    1    3    3    0    0  0.22804950701E+01 -0.11373611662E+02  0.34945960594E+02  0.36820916092E+02  0.00000000000E+00 0.  1.
         11    1    4    4    0    0  0.10765687085E+01  0.36357612975E+01 -0.33707962794E+02  0.33920561852E+02  0.51100000000E-03 0. -1.
        -11    1    4    4    0    0  0.63727751241E+01  0.70664472563E+01  0.27571207262E+01  0.99070002811E+01  0.51100000000E-03 0.  1.
         12    1    4    4    0    0 -0.97298389028E+01  0.67140310805E+00 -0.39951185266E+01  0.10539521775E+02  0.00000000000E+00 0. -1.
</event>
<event>
 8    1  0.1253488E-006  0.9118800E+02  0.7816164E-02  0.1184000E+00
        -11   -1    0    0    0    0  0.00000000000E+00  0.00000000000E+00  0.45593999997E+02  0.45594000000E+02  0.51100000000E-03 0. -1.
         11   -1    0    0    0    0 -0.00000000000E+00 -0.00000000000E+00 -0.45593999997E+02  0.45594000000E+02  0.51100000000E-03 0.  1.
         23    2    1    2    0    0  0.00000000000E+00  0.00000000000E+00  0.35527136788E-14  0.91188000000E+02  0.91188000000E+02 0.  0.
    9900012    2    3    3    0    0 -0.33157280532E+01 -0.27977135868E+02 -0.23707946185E+02  0.54367069862E+02  0.39999967365E+02 0.  0.
         12    1    3    3    0    0  0.33157280532E+01  0.27977135868E+02  0.23707946185E+02  0.36820930138E+02  0.00000000000E+00 0. -1.
         11    1    4    4    0    0 -0.92510978491E+01 -0.27720040837E+01  0.58252754379E+01  0.11278326660E+02  0.51100000000E-03 0. -1.
        -11    1    4    4    0    0 -0.53474127319E+00  0.26137863845E+01 -0.38103340868E+01  0.46515022958E+01  0.51100000000E-03 0.  1.
        -12    1    4    4    0    0  0.64701110691E+01 -0.27818918169E+02 -0.25722887536E+02  0.38437240907E+02  0.00000000000E+00 0.  1.
</event>
<event>
 8    1  0.1253488E-006  0.9118800E+02  0.7816164E-02  0.1184000E+00
        -11   -1    0    0    0    0  0.00000000000E+00  0.00000000000E+00  0.45593999997E+02  0.45594000000E+02  0.51100000000E-03 0.  1.
         11   -1    0    0    0    0 -0.00000000000E+00 -0.00000000000E+00 -0.45593999997E+02  0.45594000000E+02  0.51100000000E-03 0. -1.
         23    2    1    2    0    0  0.00000000000E+00  0.00000000000E+00  0.00000000000E+00  0.91188000000E+02  0.91188000000E+02 0.  0.
    9900012    2    3    3    0    0 -0.23918715292E+02 -0.84286389345E+01  0.26695184836E+02  0.54367084898E+02  0.40000001643E+02 0.  0.
         12    1    3    3    0    0  0.23918715292E+02  0.84286389345E+01 -0.26695184836E+02  0.36820915102E+02  0.00000000000E+00 0. -1.
         11    1    4    4    0    0 -0.17319625972E+02  0.21905463391E+01  0.26511980224E+02  0.31743551041E+02  0.51100000000E-03 0. -1.
        -11    1    4    4    0    0  0.86110564332E+00 -0.14239958316E+02  0.93826880854E+00  0.14296792102E+02  0.51100000000E-03 0.  1.
         12    1    4    4    0    0 -0.74601949636E+01  0.36207730429E+01 -0.75506419618E+00  0.83267417556E+01  0.00000000000E+00 0. -1.
</event>
<event>
 8    1  0.1253488E-006  0.9118800E+02  0.7816164E-02  0.1184000E+00
        -11   -1    0    0    0    0  0.00000000000E+00  0.00000000000E+00  0.45593999997E+02  0.45594000000E+02  0.51100000000E-03 0.  1.
         11   -1    0    0    0    0 -0.00000000000E+00 -0.00000000000E+00 -0.45593999997E+02  0.45594000000E+02  0.51100000000E-03 0. -1.
         23    2    1    2    0    0  0.00000000000E+00 -0.61062266354E-15  0.00000000000E+00  0.91188000000E+02  0.91188000000E+02 0.  0.
    9900012    2    3    3    0    0 -0.95252378892E+01 -0.25938001311E+00  0.35566581502E+02  0.54367093513E+02  0.40000021281E+02 0.  0.
         12    1    3    3    0    0  0.95252378892E+01  0.25938001311E+00 -0.35566581502E+02  0.36820906487E+02  0.00000000000E+00 0. -1.
         11    1    4    4    0    0  0.46016262610E+01  0.34555694387E+01 -0.51185517891E+01  0.77016554759E+01  0.51100000000E-03 0. -1.
        -11    1    4    4    0    0 -0.82154523536E+00 -0.55991306975E+01  0.25036086948E+01  0.61881546441E+01  0.51100000000E-03 0.  1.
         12    1    4    4    0    0 -0.13305318915E+02  0.18841812457E+01  0.38181524596E+02  0.40477283393E+02  0.00000000000E+00 0. -1.
</event>
<event>
 8    1  0.1253488E-006  0.9118800E+02  0.7816164E-02  0.1184000E+00
        -11   -1    0    0    0    0  0.00000000000E+00  0.00000000000E+00  0.45593999997E+02  0.45594000000E+02  0.51100000000E-03 0. -1.
         11   -1    0    0    0    0 -0.00000000000E+00 -0.00000000000E+00 -0.45593999997E+02  0.45594000000E+02  0.51100000000E-03 0.  1.
         23    2    1    2    0    0 -0.88817841970E-15 -0.35527136788E-14  0.71054273576E-14  0.91188000000E+02  0.91188000000E+02 0.  0.
    9900012    2    3    3    0    0  0.55554970029E+01  0.85633404520E+01 -0.35377695269E+02  0.54367140841E+02  0.40000129176E+02 0.  0.
         12    1    3    3    0    0 -0.55554970029E+01 -0.85633404520E+01  0.35377695269E+02  0.36820859159E+02  0.00000000000E+00 0. -1.
         11    1    4    4    0    0 -0.49344154596E+01  0.16898086099E+02 -0.61955641434E+01  0.18662228834E+02  0.51100000000E-03 0. -1.
        -11    1    4    4    0    0  0.69277970193E+01 -0.38201917517E+00 -0.25175127532E+02  0.26113738849E+02  0.51100000000E-03 0.  1.
        -12    1    4    4    0    0  0.35621154432E+01 -0.79527264714E+01 -0.40070035937E+01  0.95911731587E+01  0.00000000000E+00 0.  1.
</event>
<event>
 8    1  0.1253488E-006  0.9118800E+02  0.7816164E-02  0.1184000E+00
        -11   -1    0    0    0    0  0.00000000000E+00  0.00000000000E+00  0.45593999997E+02  0.45594000000E+02  0.51100000000E-03 0.  1.
         11   -1    0    0    0    0 -0.00000000000E+00 -0.00000000000E+00 -0.45593999997E+02  0.45594000000E+02  0.51100000000E-03 0. -1.
         23    2    1    2    0    0  0.00000000000E+00  0.13322676296E-14 -0.35527136788E-14  0.91188000000E+02  0.91188000000E+02 0.  0.
    9900012    2    3    3    0    0  0.30445952688E+02 -0.31618809161E+01  0.20465222172E+02  0.54367097722E+02  0.40000030876E+02 0.  0.
         12    1    3    3    0    0 -0.30445952688E+02  0.31618809161E+01 -0.20465222172E+02  0.36820902278E+02  0.00000000000E+00 0. -1.
         11    1    4    4    0    0  0.12922843292E+02 -0.12169002796E+02  0.88560447623E+01  0.19837188231E+02  0.51100000000E-03 0.  1.
        -11    1    4    4    0    0  0.23997235125E+02  0.96820414527E+01  0.79903249144E+01  0.27082365348E+02  0.51100000000E-03 0. -1.
         12    1    4    4    0    0 -0.64741257286E+01 -0.67491957290E+00  0.36188524958E+01  0.74475441433E+01  0.00000000000E+00 0. -1.
</event>
<event>
 8    1  0.1253488E-006  0.9118800E+02  0.7816164E-02  0.1184000E+00
        -11   -1    0    0    0    0  0.00000000000E+00  0.00000000000E+00  0.45593999997E+02  0.45594000000E+02  0.51100000000E-03 0.  1.
         11   -1    0    0    0    0 -0.00000000000E+00 -0.00000000000E+00 -0.45593999997E+02  0.45594000000E+02  0.51100000000E-03 0. -1.
         23    2    1    2    0    0 -0.88817841970E-15  0.00000000000E+00  0.71054273576E-14  0.91188000000E+02  0.91188000000E+02 0.  0.
    9900012    2    3    3    0    0  0.52343428026E+01  0.10952345005E+02  0.34762539524E+02  0.54366995670E+02  0.39999798229E+02 0.  0.
         12    1    3    3    0    0 -0.52343428026E+01 -0.10952345005E+02 -0.34762539524E+02  0.36821004330E+02  0.00000000000E+00 0. -1.
         11    1    4    4    0    0 -0.73457285753E+01 -0.80921429994E+01  0.84021286680E+01  0.13785436991E+02  0.51100000000E-03 0. -1.
        -11    1    4    4    0    0  0.42045469476E+01 -0.39934943086E+00 -0.24088004148E+01  0.48620998244E+01  0.51100000000E-03 0.  1.
        -12    1    4    4    0    0  0.83755244302E+01  0.19443837435E+02  0.28769211271E+02  0.35719458854E+02  0.00000000000E+00 0.  1.
</event>
<event>
 8    1  0.1253488E-006  0.9118800E+02  0.7816164E-02  0.1184000E+00
        -11   -1    0    0    0    0  0.00000000000E+00  0.00000000000E+00  0.45593999997E+02  0.45594000000E+02  0.51100000000E-03 0.  1.
         11   -1    0    0    0    0 -0.00000000000E+00 -0.00000000000E+00 -0.45593999997E+02  0.45594000000E+02  0.51100000000E-03 0. -1.
         23    2    1    2    0    0 -0.35527136788E-14  0.00000000000E+00  0.00000000000E+00  0.91188000000E+02  0.91188000000E+02 0.  0.
    9900012    2    3    3    0    0 -0.26475442195E+02 -0.12661251318E+02 -0.22237887216E+02  0.54367082681E+02  0.39999996587E+02 0.  0.
        -12    1    3    3    0    0  0.26475442195E+02  0.12661251318E+02  0.22237887216E+02  0.36820917319E+02  0.00000000000E+00 0.  1.
         11    1    4    4    0    0 -0.27272275223E+02 -0.93672461375E+01 -0.19991837546E+02  0.35088400715E+02  0.51100000000E-03 0. -1.
        -11    1    4    4    0    0 -0.18164631657E+01 -0.58903389794E+01  0.69992039527E+01  0.93265474833E+01  0.51100000000E-03 0.  1.
         12    1    4    4    0    0  0.26132961934E+01  0.25963337988E+01 -0.92452536236E+01  0.99521344824E+01  0.00000000000E+00 0. -1.
</event>
<event>
 8    1  0.1253488E-006  0.9118800E+02  0.7816164E-02  0.1184000E+00
        -11   -1    0    0    0    0  0.00000000000E+00  0.00000000000E+00  0.45593999997E+02  0.45594000000E+02  0.51100000000E-03 0. -1.
         11   -1    0    0    0    0 -0.00000000000E+00 -0.00000000000E+00 -0.45593999997E+02  0.45594000000E+02  0.51100000000E-03 0.  1.
         23    2    1    2    0    0  0.00000000000E+00 -0.22204460493E-15  0.88817841970E-15  0.91188000000E+02  0.91188000000E+02 0.  0.
    9900012    2    3    3    0    0 -0.36475661158E+02 -0.14557113788E+01  0.48152783779E+01  0.54367083955E+02  0.39999999492E+02 0.  0.
        -12    1    3    3    0    0  0.36475661158E+02  0.14557113788E+01 -0.48152783779E+01  0.36820916045E+02  0.00000000000E+00 0.  1.
         11    1    4    4    0    0 -0.19638494819E+01  0.33299855039E+01 -0.63484926703E+00  0.39177215441E+01  0.51100000000E-03 0. -1.
        -11    1    4    4    0    0 -0.31878076221E+02  0.84923278523E+01 -0.49758466744E+01  0.33363009850E+02  0.51100000000E-03 0.  1.
         12    1    4    4    0    0 -0.26337354558E+01 -0.13278024735E+02  0.10425974319E+02  0.17086352561E+02  0.00000000000E+00 0. -1.
</event>
<event>
 8    1  0.1253488E-006  0.9118800E+02  0.7816164E-02  0.1184000E+00
        -11   -1    0    0    0    0  0.00000000000E+00  0.00000000000E+00  0.45593999997E+02  0.45594000000E+02  0.51100000000E-03 0.  1.
         11   -1    0    0    0    0 -0.00000000000E+00 -0.00000000000E+00 -0.45593999997E+02  0.45594000000E+02  0.51100000000E-03 0. -1.
         23    2    1    2    0    0  0.00000000000E+00  0.00000000000E+00  0.35527136788E-14  0.91188000000E+02  0.91188000000E+02 0.  0.
    9900012    2    3    3    0    0  0.31343724161E+02  0.54427382575E+01  0.18539880669E+02  0.54367087202E+02  0.40000006895E+02 0.  0.
         12    1    3    3    0    0 -0.31343724161E+02 -0.54427382575E+01 -0.18539880669E+02  0.36820912798E+02  0.00000000000E+00 0. -1.
         11    1    4    4    0    0 -0.38633546725E+01  0.63315794332E+01 -0.40746171545E+01  0.84626776295E+01  0.51100000000E-03 0. -1.
        -11    1    4    4    0    0  0.54965501077E+01  0.12867420906E+01 -0.31970559621E+01  0.64875985835E+01  0.51100000000E-03 0.  1.
        -12    1    4    4    0    0  0.29710528726E+02 -0.21755832662E+01  0.25811553786E+02  0.39416810989E+02  0.00000000000E+00 0.  1.
</event>
<event>
 8    1  0.1253488E-006  0.9118800E+02  0.7816164E-02  0.1184000E+00
        -11   -1    0    0    0    0  0.00000000000E+00  0.00000000000E+00  0.45593999997E+02  0.45594000000E+02  0.51100000000E-03 0.  1.
         11   -1    0    0    0    0 -0.00000000000E+00 -0.00000000000E+00 -0.45593999997E+02  0.45594000000E+02  0.51100000000E-03 0. -1.
         23    2    1    2    0    0  0.35527136788E-14  0.00000000000E+00  0.00000000000E+00  0.91188000000E+02  0.91188000000E+02 0.  0.
    9900012    2    3    3    0    0 -0.27502540084E+02  0.44760786749E+01  0.24069782842E+02  0.54367089671E+02  0.40000012523E+02 0.  0.
         12    1    3    3    0    0  0.27502540084E+02 -0.44760786749E+01 -0.24069782842E+02  0.36820910329E+02  0.00000000000E+00 0. -1.
         11    1    4    4    0    0  0.60968310157E+01  0.65894856726E+01  0.46681792858E+01  0.10118525978E+02  0.51100000000E-03 0. -1.
        -11    1    4    4    0    0 -0.35976118600E+02  0.60893869769E+00  0.16363899039E+02  0.39527574019E+02  0.51100000000E-03 0.  1.
        -12    1    4    4    0    0  0.23767474999E+01 -0.27223456954E+01  0.30377045178E+01  0.47209896739E+01  0.00000000000E+00 0.  1.
</event>
<event>
 8    1  0.1253488E-006  0.9118800E+02  0.7816164E-02  0.1184000E+00
        -11   -1    0    0    0    0  0.00000000000E+00  0.00000000000E+00  0.45593999997E+02  0.45594000000E+02  0.51100000000E-03 0.  1.
         11   -1    0    0    0    0 -0.00000000000E+00 -0.00000000000E+00 -0.45593999997E+02  0.45594000000E+02  0.51100000000E-03 0. -1.
         23    2    1    2    0    0 -0.88817841970E-15  0.35527136788E-14  0.00000000000E+00  0.91188000000E+02  0.91188000000E+02 0.  0.
    9900012    2    3    3    0    0  0.71684938787E+01 -0.30988734904E+02  0.18549744182E+02  0.54367054810E+02  0.39999933051E+02 0.  0.
        -12    1    3    3    0    0 -0.71684938787E+01  0.30988734904E+02 -0.18549744182E+02  0.36820945190E+02  0.00000000000E+00 0.  1.
         11    1    4    4    0    0 -0.43725025292E+01 -0.17700365861E+02  0.11741893824E+01  0.18270206648E+02  0.51100000000E-03 0. -1.
        -11    1    4    4    0    0  0.10656288234E+02 -0.19141658397E+02  0.19960326488E+02  0.29637378408E+02  0.51100000000E-03 0.  1.
        -12    1    4    4    0    0  0.88470817361E+00  0.58532893547E+01 -0.25847716885E+01  0.64594697541E+01  0.00000000000E+00 0.  1.
</event>
<event>
 8    1  0.1253488E-006  0.9118800E+02  0.7816164E-02  0.1184000E+00
        -11   -1    0    0    0    0  0.00000000000E+00  0.00000000000E+00  0.45593999997E+02  0.45594000000E+02  0.51100000000E-03 0. -1.
         11   -1    0    0    0    0 -0.00000000000E+00 -0.00000000000E+00 -0.45593999997E+02  0.45594000000E+02  0.51100000000E-03 0.  1.
         23    2    1    2    0    0  0.17763568394E-14  0.00000000000E+00  0.00000000000E+00  0.91188000000E+02  0.91188000000E+02 0.  0.
    9900012    2    3    3    0    0 -0.11688813735E+02 -0.32563940737E+02  0.12599125602E+02  0.54367128625E+02  0.40000101326E+02 0.  0.
        -12    1    3    3    0    0  0.11688813735E+02  0.32563940737E+02 -0.12599125602E+02  0.36820871375E+02  0.00000000000E+00 0.  1.
         11    1    4    4    0    0 -0.18750977756E+01 -0.17445354131E+02  0.14723917529E+02  0.22905242197E+02  0.51100000000E-03 0. -1.
        -11    1    4    4    0    0  0.29527675617E+01 -0.34065533741E+01 -0.11078044662E+02  0.11960205515E+02  0.51100000000E-03 0.  1.
        -12    1    4    4    0    0 -0.12766483521E+02 -0.11712033232E+02  0.89532527346E+01  0.19501680914E+02  0.00000000000E+00 0.  1.
</event>
<event>
 8    1  0.1253488E-006  0.9118800E+02  0.7816164E-02  0.1184000E+00
        -11   -1    0    0    0    0  0.00000000000E+00  0.00000000000E+00  0.45593999997E+02  0.45594000000E+02  0.51100000000E-03 0.  1.
         11   -1    0    0    0    0 -0.00000000000E+00 -0.00000000000E+00 -0.45593999997E+02  0.45594000000E+02  0.51100000000E-03 0. -1.
         23    2    1    2    0    0 -0.35527136788E-14  0.00000000000E+00  0.00000000000E+00  0.91188000000E+02  0.91188000000E+02 0.  0.
    9900012    2    3    3    0    0  0.18794425571E+02 -0.10252861248E+02  0.29957036491E+02  0.54367141350E+02  0.40000130337E+02 0.  0.
         12    1    3    3    0    0 -0.18794425571E+02  0.10252861248E+02 -0.29957036491E+02  0.36820858650E+02  0.00000000000E+00 0. -1.
         11    1    4    4    0    0  0.90031021005E+01  0.60433774877E+01  0.19768871639E+02  0.22547428790E+02  0.51100000000E-03 0. -1.
        -11    1    4    4    0    0  0.17086517412E+02 -0.77868707953E+01  0.79455355510E+01  0.20389113995E+02  0.51100000000E-03 0.  1.
         12    1    4    4    0    0 -0.72951939409E+01 -0.85093679408E+01  0.22426293014E+01  0.11430598566E+02  0.00000000000E+00 0. -1.
</event>
<event>
 8    1  0.1253488E-006  0.9118800E+02  0.7816164E-02  0.1184000E+00
        -11   -1    0    0    0    0  0.00000000000E+00  0.00000000000E+00  0.45593999997E+02  0.45594000000E+02  0.51100000000E-03 0.  1.
         11   -1    0    0    0    0 -0.00000000000E+00 -0.00000000000E+00 -0.45593999997E+02  0.45594000000E+02  0.51100000000E-03 0. -1.
         23    2    1    2    0    0  0.00000000000E+00 -0.33306690739E-15  0.88817841970E-15  0.91188000000E+02  0.91188000000E+02 0.  0.
    9900012    2    3    3    0    0 -0.36542233693E+02  0.95666795645E+00  0.44192111450E+01  0.54367089039E+02  0.40000011083E+02 0.  0.
         12    1    3    3    0    0  0.36542233693E+02 -0.95666795645E+00 -0.44192111450E+01  0.36820910961E+02  0.00000000000E+00 0. -1.
         11    1    4    4    0    0 -0.13342886463E+02 -0.29176820840E+01 -0.84250712383E+01  0.16047657572E+02  0.51100000000E-03 0. -1.
        -11    1    4    4    0    0 -0.27951607403E+02 -0.22251443178E+01  0.12139729452E+02  0.30555141222E+02  0.51100000000E-03 0.  1.
         12    1    4    4    0    0  0.47522601738E+01  0.60994943583E+01  0.70455293141E+00  0.77642902457E+01  0.00000000000E+00 0. -1.
</event>
<event>
 8    1  0.1253488E-006  0.9118800E+02  0.7816164E-02  0.1184000E+00
        -11   -1    0    0    0    0  0.00000000000E+00  0.00000000000E+00  0.45593999997E+02  0.45594000000E+02  0.51100000000E-03 0.  1.
         11   -1    0    0    0    0 -0.00000000000E+00 -0.00000000000E+00 -0.45593999997E+02  0.45594000000E+02  0.51100000000E-03 0. -1.
         23    2    1    2    0    0  0.00000000000E+00  0.00000000000E+00  0.35527136788E-14  0.91188000000E+02  0.91188000000E+02 0.  0.
    9900012    2    3    3    0    0 -0.72106915331E+01  0.27578201414E+02  0.23307198352E+02  0.54367126020E+02  0.40000095388E+02 0.  0.
         12    1    3    3    0    0  0.72106915331E+01 -0.27578201414E+02 -0.23307198352E+02  0.36820873980E+02  0.00000000000E+00 0. -1.
         11    1    4    4    0    0 -0.63117734710E+01  0.10127600064E+02  0.21299027845E+02  0.24414244916E+02  0.51100000000E-03 0. -1.
        -11    1    4    4    0    0  0.42084200978E+01  0.13376104604E+02  0.11701329907E+02  0.18263408662E+02  0.51100000000E-03 0.  1.
         12    1    4    4    0    0 -0.51073381598E+01  0.40744967460E+01 -0.96931594005E+01  0.11689472442E+02  0.00000000000E+00 0. -1.
</event>
<event>
 8    1  0.1253488E-006  0.9118800E+02  0.7816164E-02  0.1184000E+00
        -11   -1    0    0    0    0  0.00000000000E+00  0.00000000000E+00  0.45593999997E+02  0.45594000000E+02  0.51100000000E-03 0. -1.
         11   -1    0    0    0    0 -0.00000000000E+00 -0.00000000000E+00 -0.45593999997E+02  0.45594000000E+02  0.51100000000E-03 0.  1.
         23    2    1    2    0    0  0.17763568394E-14  0.00000000000E+00  0.17763568394E-14  0.91188000000E+02  0.91188000000E+02 0.  0.
    9900012    2    3    3    0    0  0.81950997406E+01 -0.35389332522E+02  0.60175419485E+01  0.54367145485E+02  0.40000139761E+02 0.  0.
        -12    1    3    3    0    0 -0.81950997406E+01  0.35389332522E+02 -0.60175419485E+01  0.36820854515E+02  0.00000000000E+00 0.  1.
         11    1    4    4    0    0  0.82703625048E+01 -0.25529991168E+02  0.95918268819E+01  0.28498815558E+02  0.51100000000E-03 0. -1.
        -11    1    4    4    0    0  0.77279830148E+01 -0.90970524817E+01 -0.10124398989E+02  0.15651886164E+02  0.51100000000E-03 0.  1.
        -12    1    4    4    0    0 -0.78032457790E+01 -0.76228887266E+00  0.65501140559E+01  0.10216443763E+02  0.00000000000E+00 0.  1.
</event>
<event>
 8    1  0.1253488E-006  0.9118800E+02  0.7816164E-02  0.1184000E+00
        -11   -1    0    0    0    0  0.00000000000E+00  0.00000000000E+00  0.45593999997E+02  0.45594000000E+02  0.51100000000E-03 0. -1.
         11   -1    0    0    0    0 -0.00000000000E+00 -0.00000000000E+00 -0.45593999997E+02  0.45594000000E+02  0.51100000000E-03 0.  1.
         23    2    1    2    0    0  0.00000000000E+00  0.88817841970E-15  0.17763568394E-14  0.91188000000E+02  0.91188000000E+02 0.  0.
    9900012    2    3    3    0    0  0.34986825086E+02  0.79726535867E+01 -0.82546076403E+01  0.54367086349E+02  0.40000004950E+02 0.  0.
         12    1    3    3    0    0 -0.34986825086E+02 -0.79726535867E+01  0.82546076403E+01  0.36820913651E+02  0.00000000000E+00 0. -1.
         11    1    4    4    0    0 -0.20434843629E+01 -0.37320720508E+00  0.96076450553E+01  0.98296467754E+01  0.51100000000E-03 0. -1.
        -11    1    4    4    0    0  0.51322601009E+00  0.35215208349E+01  0.92813130871E-01  0.35599332110E+01  0.51100000000E-03 0.  1.
        -12    1    4    4    0    0  0.36517083439E+02  0.48243399569E+01 -0.17955065826E+02  0.40977506363E+02  0.00000000000E+00 0.  1.
</event>
<event>
 8    1  0.1253488E-006  0.9118800E+02  0.7816164E-02  0.1184000E+00
        -11   -1    0    0    0    0  0.00000000000E+00  0.00000000000E+00  0.45593999997E+02  0.45594000000E+02  0.51100000000E-03 0.  1.
         11   -1    0    0    0    0 -0.00000000000E+00 -0.00000000000E+00 -0.45593999997E+02  0.45594000000E+02  0.51100000000E-03 0. -1.
         23    2    1    2    0    0  0.22204460493E-15  0.00000000000E+00  0.00000000000E+00  0.91188000000E+02  0.91188000000E+02 0.  0.
    9900012    2    3    3    0    0  0.18952777519E+01  0.17239844385E+02  0.32480379778E+02  0.54367090415E+02  0.40000014219E+02 0.  0.
         12    1    3    3    0    0 -0.18952777519E+01 -0.17239844385E+02 -0.32480379778E+02  0.36820909585E+02  0.00000000000E+00 0. -1.
         11    1    4    4    0    0 -0.29280661161E+01 -0.80329283059E+01  0.10630316666E+02  0.13642035809E+02  0.51100000000E-03 0. -1.
        -11    1    4    4    0    0  0.48877827656E+01  0.14402595165E+01  0.15127238873E+02  0.15962397189E+02  0.51100000000E-03 0.  1.
         12    1    4    4    0    0 -0.64438897528E-01  0.23832513175E+02  0.67228242390E+01  0.24762657417E+02  0.00000000000E+00 0. -1.
</event>
<event>
 8    1  0.1253488E-006  0.9118800E+02  0.7816164E-02  0.1184000E+00
        -11   -1    0    0    0    0  0.00000000000E+00  0.00000000000E+00  0.45593999997E+02  0.45594000000E+02  0.51100000000E-03 0.  1.
         11   -1    0    0    0    0 -0.00000000000E+00 -0.00000000000E+00 -0.45593999997E+02  0.45594000000E+02  0.51100000000E-03 0. -1.
         23    2    1    2    0    0  0.00000000000E+00  0.00000000000E+00  0.66613381478E-15  0.91188000000E+02  0.91188000000E+02 0.  0.
    9900012    2    3    3    0    0 -0.36471081044E+02 -0.48022945782E+01 -0.16063333871E+01  0.54367053615E+02  0.39999930327E+02 0.  0.
        -12    1    3    3    0    0  0.36471081044E+02  0.48022945782E+01  0.16063333871E+01  0.36820946385E+02  0.00000000000E+00 0.  1.
         11    1    4    4    0    0 -0.17436329146E+02 -0.16704518325E+02 -0.34882520353E+01  0.24397426280E+02  0.51100000000E-03 0. -1.
        -11    1    4    4    0    0 -0.18544358495E+02  0.29176111853E+01 -0.40340760911E+01  0.19201027503E+02  0.51100000000E-03 0.  1.
        -12    1    4    4    0    0 -0.49039340254E+00  0.89846125619E+01  0.59159947392E+01  0.10768599832E+02  0.00000000000E+00 0.  1.
</event>
<event>
 8    1  0.1253488E-006  0.9118800E+02  0.7816164E-02  0.1184000E+00
        -11   -1    0    0    0    0  0.00000000000E+00  0.00000000000E+00  0.45593999997E+02  0.45594000000E+02  0.51100000000E-03 0. -1.
         11   -1    0    0    0    0 -0.00000000000E+00 -0.00000000000E+00 -0.45593999997E+02  0.45594000000E+02  0.51100000000E-03 0.  1.
         23    2    1    2    0    0  0.00000000000E+00  0.00000000000E+00 -0.71054273576E-14  0.91188000000E+02  0.91188000000E+02 0.  0.
    9900012    2    3    3    0    0  0.19110686707E+02 -0.16821927217E+02 -0.26600471683E+02  0.54367072860E+02  0.39999974198E+02 0.  0.
         12    1    3    3    0    0 -0.19110686707E+02  0.16821927217E+02  0.26600471683E+02  0.36820927140E+02  0.00000000000E+00 0. -1.
         11    1    4    4    0    0  0.58332162902E-01 -0.50488403628E+01  0.39982304219E+01  0.64404998578E+01  0.51100000000E-03 0. -1.
        -11    1    4    4    0    0 -0.13913668554E+01  0.35535419836E+01  0.35937294218E+01  0.52419894862E+01  0.51100000000E-03 0.  1.
        -12    1    4    4    0    0  0.20443721400E+02 -0.15326628838E+02 -0.34192431526E+02  0.42684583516E+02  0.00000000000E+00 0.  1.
</event>
<event>
 8    1  0.1253488E-006  0.9118800E+02  0.7816164E-02  0.1184000E+00
        -11   -1    0    0    0    0  0.00000000000E+00  0.00000000000E+00  0.45593999997E+02  0.45594000000E+02  0.51100000000E-03 0.  1.
         11   -1    0    0    0    0 -0.00000000000E+00 -0.00000000000E+00 -0.45593999997E+02  0.45594000000E+02  0.51100000000E-03 0. -1.
         23    2    1    2    0    0  0.00000000000E+00  0.35527136788E-14  0.00000000000E+00  0.91188000000E+02  0.91188000000E+02 0.  0.
    9900012    2    3    3    0    0  0.18551727244E+02  0.30481431170E+02  0.90826470759E+01  0.54367099579E+02  0.40000035111E+02 0.  0.
        -12    1    3    3    0    0 -0.18551727244E+02 -0.30481431170E+02 -0.90826470759E+01  0.36820900421E+02  0.00000000000E+00 0.  1.
         11    1    4    4    0    0  0.14831502626E+02  0.69770669851E+00 -0.79016168350E+01  0.16819506938E+02  0.51100000000E-03 0. -1.
        -11    1    4    4    0    0 -0.15510374802E+01  0.33301555263E+01  0.85181153395E+01  0.92765264131E+01  0.51100000000E-03 0.  1.
        -12    1    4    4    0    0  0.52712620984E+01  0.26453568945E+02  0.84661485713E+01  0.28271066228E+02  0.00000000000E+00 0.  1.
</event>
<event>
 8    1  0.1253488E-006  0.9118800E+02  0.7816164E-02  0.1184000E+00
        -11   -1    0    0    0    0  0.00000000000E+00  0.00000000000E+00  0.45593999997E+02  0.45594000000E+02  0.51100000000E-03 0.  1.
         11   -1    0    0    0    0 -0.00000000000E+00 -0.00000000000E+00 -0.45593999997E+02  0.45594000000E+02  0.51100000000E-03 0. -1.
         23    2    1    2    0    0  0.00000000000E+00  0.00000000000E+00 -0.35527136788E-14  0.91188000000E+02  0.91188000000E+02 0.  0.
    9900012    2    3    3    0    0  0.14491534128E+02  0.17952309499E+02  0.28696512575E+02  0.54367084589E+02  0.40000000939E+02 0.  0.
        -12    1    3    3    0    0 -0.14491534128E+02 -0.17952309499E+02 -0.28696512575E+02  0.36820915411E+02  0.00000000000E+00 0.  1.
         11    1    4    4    0    0  0.46893093503E+01  0.15595208991E+02  0.24770320375E+02  0.29644037130E+02  0.51100000000E-03 0. -1.
        -11    1    4    4    0    0 -0.62988384334E+01 -0.35220141296E+01  0.43109958808E+00  0.72295087147E+01  0.51100000000E-03 0.  1.
        -12    1    4    4    0    0  0.16101063211E+02  0.58791146374E+01  0.34950926121E+01  0.17493538745E+02  0.00000000000E+00 0.  1.
</event>
<event>
 8    1  0.1253488E-006  0.9118800E+02  0.7816164E-02  0.1184000E+00
        -11   -1    0    0    0    0  0.00000000000E+00  0.00000000000E+00  0.45593999997E+02  0.45594000000E+02  0.51100000000E-03 0. -1.
         11   -1    0    0    0    0 -0.00000000000E+00 -0.00000000000E+00 -0.45593999997E+02  0.45594000000E+02  0.51100000000E-03 0.  1.
         23    2    1    2    0    0  0.17763568394E-14  0.00000000000E+00  0.00000000000E+00  0.91188000000E+02  0.91188000000E+02 0.  0.
    9900012    2    3    3    0    0  0.14236856679E+02 -0.32885108001E+02  0.84652697470E+01  0.54367092784E+02  0.40000019620E+02 0.  0.
        -12    1    3    3    0    0 -0.14236856679E+02  0.32885108001E+02 -0.84652697470E+01  0.36820907216E+02  0.00000000000E+00 0.  1.
         11    1    4    4    0    0  0.50691885650E+01 -0.17786882418E+02 -0.98100480775E+01  0.20935780434E+02  0.51100000000E-03 0. -1.
        -11    1    4    4    0    0  0.35598680566E+01  0.53253141798E+01  0.68038833938E+01  0.93447558123E+01  0.51100000000E-03 0.  1.
         12    1    4    4    0    0  0.56078000569E+01 -0.20423539763E+02  0.11471434431E+02  0.24086556538E+02  0.00000000000E+00 0. -1.
</event>
<event>
 8    1  0.1253488E-006  0.9118800E+02  0.7816164E-02  0.1184000E+00
        -11   -1    0    0    0    0  0.00000000000E+00  0.00000000000E+00  0.45593999997E+02  0.45594000000E+02  0.51100000000E-03 0.  1.
         11   -1    0    0    0    0 -0.00000000000E+00 -0.00000000000E+00 -0.45593999997E+02  0.45594000000E+02  0.51100000000E-03 0. -1.
         23    2    1    2    0    0  0.00000000000E+00  0.00000000000E+00 -0.35527136788E-14  0.91188000000E+02  0.91188000000E+02 0.  0.
    9900012    2    3    3    0    0  0.16660642976E+02  0.22049962370E+02 -0.24331113741E+02  0.54367068986E+02  0.39999965367E+02 0.  0.
        -12    1    3    3    0    0 -0.16660642976E+02 -0.22049962370E+02  0.24331113741E+02  0.36820931014E+02  0.00000000000E+00 0.  1.
         11    1    4    4    0    0  0.13233048972E+02  0.10668111343E+02 -0.67091689660E+01  0.18273892119E+02  0.51100000000E-03 0. -1.
        -11    1    4    4    0    0  0.38112524044E+00  0.44216164202E+01 -0.25066360655E+02  0.25456205235E+02  0.51100000000E-03 0.  1.
        -12    1    4    4    0    0  0.30464687637E+01  0.69602346065E+01  0.74444158795E+01  0.10636971632E+02  0.00000000000E+00 0.  1.
</event>
<event>
 8    1  0.1253488E-006  0.9118800E+02  0.7816164E-02  0.1184000E+00
        -11   -1    0    0    0    0  0.00000000000E+00  0.00000000000E+00  0.45593999997E+02  0.45594000000E+02  0.51100000000E-03 0.  1.
         11   -1    0    0    0    0 -0.00000000000E+00 -0.00000000000E+00 -0.45593999997E+02  0.45594000000E+02  0.51100000000E-03 0. -1.
         23    2    1    2    0    0  0.35527136788E-14 -0.44408920985E-15  0.10658141036E-13  0.91188000000E+02  0.91188000000E+02 0.  0.
    9900012    2    3    3    0    0  0.19623334697E+02  0.22242353554E+01  0.31076691378E+02  0.54367038109E+02  0.39999894977E+02 0.  0.
         12    1    3    3    0    0 -0.19623334697E+02 -0.22242353554E+01 -0.31076691378E+02  0.36820961891E+02  0.00000000000E+00 0. -1.
         11    1    4    4    0    0  0.86226034005E+01  0.82515799616E+01 -0.24529072846E-01  0.11934758615E+02  0.51100000000E-03 0. -1.
        -11    1    4    4    0    0  0.18828379802E+02 -0.62037634519E+01  0.27273633245E+02  0.33717141598E+02  0.51100000000E-03 0.  1.
         12    1    4    4    0    0 -0.78276485049E+01  0.17641884577E+00  0.38275872064E+01  0.87151378961E+01  0.00000000000E+00 0. -1.
</event>
<event>
 8    1  0.1253488E-006  0.9118800E+02  0.7816164E-02  0.1184000E+00
        -11   -1    0    0    0    0  0.00000000000E+00  0.00000000000E+00  0.45593999997E+02  0.45594000000E+02  0.51100000000E-03 0.  1.
         11   -1    0    0    0    0 -0.00000000000E+00 -0.00000000000E+00 -0.45593999997E+02  0.45594000000E+02  0.51100000000E-03 0. -1.
         23    2    1    2    0    0 -0.35527136788E-14 -0.35527136788E-14 -0.17763568394E-14  0.91188000000E+02  0.91188000000E+02 0.  0.
    9900012    2    3    3    0    0 -0.31489464067E+02 -0.18223921320E+02 -0.56642281549E+01  0.54367066605E+02  0.39999959940E+02 0.  0.
        -12    1    3    3    0    0  0.31489464067E+02  0.18223921320E+02  0.56642281549E+01  0.36820933395E+02  0.00000000000E+00 0.  1.
         11    1    4    4    0    0 -0.19194312174E+02 -0.24284276364E+01  0.90431597366E+01  0.21356442093E+02  0.51100000000E-03 0. -1.
        -11    1    4    4    0    0 -0.36960478127E+01 -0.88097892047E+01  0.47124729999E+01  0.10652725346E+02  0.51100000000E-03 0.  1.
        -12    1    4    4    0    0 -0.85991040803E+01 -0.69857044790E+01 -0.19419860891E+02  0.22357899165E+02  0.00000000000E+00 0.  1.
</event>
<event>
 8    1  0.1253488E-006  0.9118800E+02  0.7816164E-02  0.1184000E+00
        -11   -1    0    0    0    0  0.00000000000E+00  0.00000000000E+00  0.45593999997E+02  0.45594000000E+02  0.51100000000E-03 0.  1.
         11   -1    0    0    0    0 -0.00000000000E+00 -0.00000000000E+00 -0.45593999997E+02  0.45594000000E+02  0.51100000000E-03 0. -1.
         23    2    1    2    0    0  0.22204460493E-15  0.00000000000E+00  0.00000000000E+00  0.91188000000E+02  0.91188000000E+02 0.  0.
    9900012    2    3    3    0    0  0.16875512178E+01  0.11702718416E+02 -0.34870888687E+02  0.54367077615E+02  0.39999985039E+02 0.  0.
        -12    1    3    3    0    0 -0.16875512178E+01 -0.11702718416E+02  0.34870888687E+02  0.36820922385E+02  0.00000000000E+00 0.  1.
         11    1    4    4    0    0 -0.33898031245E+01 -0.24752401306E+01 -0.21128186080E+01  0.46991043464E+01  0.51100000000E-03 0. -1.
        -11    1    4    4    0    0 -0.63640450477E+01  0.57815201373E+01 -0.34329161545E+02  0.35389523550E+02  0.51100000000E-03 0.  1.
        -12    1    4    4    0    0  0.11441399390E+02  0.83964384093E+01  0.15710914661E+01  0.14278449718E+02  0.00000000000E+00 0.  1.
</event>
<event>
 8    1  0.1253488E-006  0.9118800E+02  0.7816164E-02  0.1184000E+00
        -11   -1    0    0    0    0  0.00000000000E+00  0.00000000000E+00  0.45593999997E+02  0.45594000000E+02  0.51100000000E-03 0. -1.
         11   -1    0    0    0    0 -0.00000000000E+00 -0.00000000000E+00 -0.45593999997E+02  0.45594000000E+02  0.51100000000E-03 0.  1.
         23    2    1    2    0    0 -0.17763568394E-14  0.00000000000E+00  0.00000000000E+00  0.91188000000E+02  0.91188000000E+02 0.  0.
    9900012    2    3    3    0    0 -0.12897679957E+02  0.27322190875E+02 -0.21045841128E+02  0.54367086225E+02  0.40000004666E+02 0.  0.
         12    1    3    3    0    0  0.12897679957E+02 -0.27322190875E+02  0.21045841128E+02  0.36820913775E+02  0.00000000000E+00 0. -1.
         11    1    4    4    0    0  0.69787257310E+00  0.50206404788E+01 -0.17126496876E+02  0.17860872108E+02  0.51100000000E-03 0. -1.
        -11    1    4    4    0    0  0.30347549429E+01  0.14625452505E+02 -0.90754921404E+01  0.17477933413E+02  0.51100000000E-03 0.  1.
         12    1    4    4    0    0 -0.16630307473E+02  0.76760978908E+01  0.51561478887E+01  0.19028280703E+02  0.00000000000E+00 0. -1.
</event>
<event>
 8    1  0.1253488E-006  0.9118800E+02  0.7816164E-02  0.1184000E+00
        -11   -1    0    0    0    0  0.00000000000E+00  0.00000000000E+00  0.45593999997E+02  0.45594000000E+02  0.51100000000E-03 0.  1.
         11   -1    0    0    0    0 -0.00000000000E+00 -0.00000000000E+00 -0.45593999997E+02  0.45594000000E+02  0.51100000000E-03 0. -1.
         23    2    1    2    0    0  0.00000000000E+00 -0.35527136788E-14  0.00000000000E+00  0.91188000000E+02  0.91188000000E+02 0.  0.
    9900012    2    3    3    0    0  0.25882133420E+02 -0.21824170683E+02 -0.14477619255E+02  0.54367072314E+02  0.39999972955E+02 0.  0.
         12    1    3    3    0    0 -0.25882133420E+02  0.21824170683E+02  0.14477619255E+02  0.36820927686E+02  0.00000000000E+00 0. -1.
         11    1    4    4    0    0  0.17069751070E+02 -0.16812308671E+02 -0.17342996162E+02  0.29577181079E+02  0.51100000000E-03 0. -1.
        -11    1    4    4    0    0  0.92063196084E+01 -0.13382742555E+02  0.18960842219E+01  0.16353875830E+02  0.51100000000E-03 0.  1.
         12    1    4    4    0    0 -0.39393725923E+00  0.83708805426E+01  0.96929268461E+00  0.84360154060E+01  0.00000000000E+00 0. -1.
</event>
<event>
 8    1  0.1253488E-006  0.9118800E+02  0.7816164E-02  0.1184000E+00
        -11   -1    0    0    0    0  0.00000000000E+00  0.00000000000E+00  0.45593999997E+02  0.45594000000E+02  0.51100000000E-03 0. -1.
         11   -1    0    0    0    0 -0.00000000000E+00 -0.00000000000E+00 -0.45593999997E+02  0.45594000000E+02  0.51100000000E-03 0.  1.
         23    2    1    2    0    0 -0.17763568394E-14  0.00000000000E+00 -0.35527136788E-14  0.91188000000E+02  0.91188000000E+02 0.  0.
    9900012    2    3    3    0    0 -0.92606264899E+01 -0.29740712598E+02 -0.19634399462E+02  0.54367097906E+02  0.40000031295E+02 0.  0.
         12    1    3    3    0    0  0.92606264899E+01  0.29740712598E+02  0.19634399462E+02  0.36820902094E+02  0.00000000000E+00 0. -1.
         11    1    4    4    0    0 -0.37628725870E+01 -0.43564564971E+01  0.39458540959E+01  0.69790893478E+01  0.51100000000E-03 0. -1.
        -11    1    4    4    0    0  0.45840721370E+01 -0.41836839309E+01 -0.23087559325E+02  0.23907160527E+02  0.51100000000E-03 0.  1.
        -12    1    4    4    0    0 -0.10081826040E+02 -0.21200572170E+02 -0.49269423216E+00  0.23480848031E+02  0.00000000000E+00 0.  1.
</event>
<event>
 8    1  0.1253488E-006  0.9118800E+02  0.7816164E-02  0.1184000E+00
        -11   -1    0    0    0    0  0.00000000000E+00  0.00000000000E+00  0.45593999997E+02  0.45594000000E+02  0.51100000000E-03 0.  1.
         11   -1    0    0    0    0 -0.00000000000E+00 -0.00000000000E+00 -0.45593999997E+02  0.45594000000E+02  0.51100000000E-03 0. -1.
         23    2    1    2    0    0  0.17763568394E-14 -0.35527136788E-14  0.35527136788E-14  0.91188000000E+02  0.91188000000E+02 0.  0.
    9900012    2    3    3    0    0  0.13234993535E+02  0.28200748747E+02  0.19629887768E+02  0.54367085052E+02  0.40000001994E+02 0.  0.
         12    1    3    3    0    0 -0.13234993535E+02 -0.28200748747E+02 -0.19629887768E+02  0.36820914948E+02  0.00000000000E+00 0. -1.
         11    1    4    4    0    0  0.14170346618E+01 -0.23256015393E+01  0.62528476361E+01  0.68201549523E+01  0.51100000000E-03 0. -1.
        -11    1    4    4    0    0  0.12082532232E+02  0.26904769908E+02  0.22909879244E+02  0.37345907355E+02  0.51100000000E-03 0.  1.
         12    1    4    4    0    0 -0.26457335904E+00  0.36215803786E+01 -0.95328391120E+01  0.10201022745E+02  0.00000000000E+00 0. -1.
</event>
<event>
 8    1  0.1253488E-006  0.9118800E+02  0.7816164E-02  0.1184000E+00
        -11   -1    0    0    0    0  0.00000000000E+00  0.00000000000E+00  0.45593999997E+02  0.45594000000E+02  0.51100000000E-03 0. -1.
         11   -1    0    0    0    0 -0.00000000000E+00 -0.00000000000E+00 -0.45593999997E+02  0.45594000000E+02  0.51100000000E-03 0.  1.
         23    2    1    2    0    0  0.00000000000E+00  0.35527136788E-14  0.00000000000E+00  0.91188000000E+02  0.91188000000E+02 0.  0.
    9900012    2    3    3    0    0 -0.24202713588E+02  0.21946058776E+02 -0.16981719272E+02  0.54367087052E+02  0.40000006554E+02 0.  0.
         12    1    3    3    0    0  0.24202713588E+02 -0.21946058776E+02  0.16981719272E+02  0.36820912948E+02  0.00000000000E+00 0. -1.
         11    1    4    4    0    0 -0.95318699651E+00 -0.28814719868E+01 -0.26794006419E+01  0.40485348364E+01  0.51100000000E-03 0. -1.
        -11    1    4    4    0    0 -0.21120915844E+02  0.23770909659E+02  0.38324952471E+01  0.32028694200E+02  0.51100000000E-03 0.  1.
        -12    1    4    4    0    0 -0.21286107478E+01  0.10566211044E+01 -0.18134813877E+02  0.18289858016E+02  0.00000000000E+00 0.  1.
</event>
<event>
 8    1  0.1253488E-006  0.9118800E+02  0.7816164E-02  0.1184000E+00
        -11   -1    0    0    0    0  0.00000000000E+00  0.00000000000E+00  0.45593999997E+02  0.45594000000E+02  0.51100000000E-03 0.  1.
         11   -1    0    0    0    0 -0.00000000000E+00 -0.00000000000E+00 -0.45593999997E+02  0.45594000000E+02  0.51100000000E-03 0. -1.
         23    2    1    2    0    0 -0.35527136788E-14 -0.22204460493E-15  0.00000000000E+00  0.91188000000E+02  0.91188000000E+02 0.  0.
    9900012    2    3    3    0    0 -0.23626226041E+02  0.97092718020E+00 -0.28224781880E+02  0.54367087889E+02  0.40000008460E+02 0.  0.
        -12    1    3    3    0    0  0.23626226041E+02 -0.97092718020E+00  0.28224781880E+02  0.36820912111E+02  0.00000000000E+00 0.  1.
         11    1    4    4    0    0 -0.31648096618E+01 -0.23859830536E+01 -0.21842018919E+02  0.22198710009E+02  0.51100000000E-03 0. -1.
        -11    1    4    4    0    0 -0.40855689681E+00 -0.41113903754E+01 -0.96730404561E+01  0.10518467640E+02  0.51100000000E-03 0.  1.
        -12    1    4    4    0    0 -0.20052859483E+02  0.74683006092E+01  0.32902774953E+01  0.21649910240E+02  0.00000000000E+00 0.  1.
</event>
<event>
 8    1  0.1253488E-006  0.9118800E+02  0.7816164E-02  0.1184000E+00
        -11   -1    0    0    0    0  0.00000000000E+00  0.00000000000E+00  0.45593999997E+02  0.45594000000E+02  0.51100000000E-03 0.  1.
         11   -1    0    0    0    0 -0.00000000000E+00 -0.00000000000E+00 -0.45593999997E+02  0.45594000000E+02  0.51100000000E-03 0. -1.
         23    2    1    2    0    0 -0.66613381478E-15  0.00000000000E+00  0.00000000000E+00  0.91188000000E+02  0.91188000000E+02 0.  0.
    9900012    2    3    3    0    0 -0.17984172047E+01 -0.27680798701E+00 -0.36775921870E+02  0.54367090770E+02  0.40000015029E+02 0.  0.
        -12    1    3    3    0    0  0.17984172047E+01  0.27680798701E+00  0.36775921870E+02  0.36820909230E+02  0.00000000000E+00 0.  1.
         11    1    4    4    0    0  0.10618022059E+02 -0.27414288374E+01 -0.31810700916E+02  0.33647860519E+02  0.51100000000E-03 0. -1.
        -11    1    4    4    0    0 -0.64587701744E+01  0.35809484772E+01 -0.10280060135E+02  0.12657746277E+02  0.51100000000E-03 0.  1.
        -12    1    4    4    0    0 -0.59576690891E+01 -0.11163276268E+01  0.53148391807E+01  0.80614839740E+01  0.00000000000E+00 0.  1.
</event>
<event>
 8    1  0.1253488E-006  0.9118800E+02  0.7816164E-02  0.1184000E+00
        -11   -1    0    0    0    0  0.00000000000E+00  0.00000000000E+00  0.45593999997E+02  0.45594000000E+02  0.51100000000E-03 0. -1.
         11   -1    0    0    0    0 -0.00000000000E+00 -0.00000000000E+00 -0.45593999997E+02  0.45594000000E+02  0.51100000000E-03 0.  1.
         23    2    1    2    0    0  0.17763568394E-14  0.00000000000E+00  0.00000000000E+00  0.91188000000E+02  0.91188000000E+02 0.  0.
    9900012    2    3    3    0    0 -0.10233087247E+02  0.58570416227E+01 -0.34882055846E+02  0.54367097904E+02  0.40000031291E+02 0.  0.
         12    1    3    3    0    0  0.10233087247E+02 -0.58570416227E+01  0.34882055846E+02  0.36820902096E+02  0.00000000000E+00 0. -1.
         11    1    4    4    0    0 -0.44582118918E+01  0.89680414566E+01  0.13051986876E+01  0.10099750725E+02  0.51100000000E-03 0. -1.
        -11    1    4    4    0    0 -0.10875893126E+02 -0.89116623462E+01 -0.33074599413E+02  0.35939280790E+02  0.51100000000E-03 0.  1.
        -12    1    4    4    0    0  0.51010177705E+01  0.58006625124E+01 -0.31126551197E+01  0.83280663885E+01  0.00000000000E+00 0.  1.
</event>
<event>
 8    1  0.1253488E-006  0.9118800E+02  0.7816164E-02  0.1184000E+00
        -11   -1    0    0    0    0  0.00000000000E+00  0.00000000000E+00  0.45593999997E+02  0.45594000000E+02  0.51100000000E-03 0.  1.
         11   -1    0    0    0    0 -0.00000000000E+00 -0.00000000000E+00 -0.45593999997E+02  0.45594000000E+02  0.51100000000E-03 0. -1.
         23    2    1    2    0    0  0.35527136788E-14  0.35527136788E-14  0.17763568394E-14  0.91188000000E+02  0.91188000000E+02 0.  0.
    9900012    2    3    3    0    0 -0.27432312653E+02  0.21765497106E+02  0.11380389401E+02  0.54367056168E+02  0.39999936147E+02 0.  0.
         12    1    3    3    0    0  0.27432312653E+02 -0.21765497106E+02 -0.11380389401E+02  0.36820943832E+02  0.00000000000E+00 0. -1.
         11    1    4    4    0    0 -0.69864956320E+01  0.84316140542E+01 -0.22248437968E+01  0.11173771385E+02  0.51100000000E-03 0. -1.
        -11    1    4    4    0    0 -0.25392002484E+02  0.20175627070E+02  0.12113893613E+02  0.34620169504E+02  0.51100000000E-03 0.  1.
         12    1    4    4    0    0  0.49461854627E+01 -0.68417440182E+01  0.14913395847E+01  0.85731152797E+01  0.00000000000E+00 0. -1.
</event>
<event>
 8    1  0.1253488E-006  0.9118800E+02  0.7816164E-02  0.1184000E+00
        -11   -1    0    0    0    0  0.00000000000E+00  0.00000000000E+00  0.45593999997E+02  0.45594000000E+02  0.51100000000E-03 0.  1.
         11   -1    0    0    0    0 -0.00000000000E+00 -0.00000000000E+00 -0.45593999997E+02  0.45594000000E+02  0.51100000000E-03 0. -1.
         23    2    1    2    0    0  0.35527136788E-14  0.00000000000E+00  0.35527136788E-14  0.91188000000E+02  0.91188000000E+02 0.  0.
    9900012    2    3    3    0    0 -0.30352088364E+02 -0.16159304696E+02  0.13168844400E+02  0.54366934573E+02  0.39999658945E+02 0.  0.
         12    1    3    3    0    0  0.30352088364E+02  0.16159304696E+02 -0.13168844400E+02  0.36821065427E+02  0.00000000000E+00 0. -1.
         11    1    4    4    0    0 -0.18415881791E+02 -0.83312953836E+01  0.19631507853E+01  0.20307859222E+02  0.51100000000E-03 0. -1.
        -11    1    4    4    0    0 -0.75803319645E+01 -0.35662780638E+01 -0.93882129094E+01  0.12582460563E+02  0.51100000000E-03 0.  1.
        -12    1    4    4    0    0 -0.43558746086E+01 -0.42617312482E+01  0.20593906524E+02  0.21476614788E+02  0.00000000000E+00 0.  1.
</event>
<event>
 8    1  0.1253488E-006  0.9118800E+02  0.7816164E-02  0.1184000E+00
        -11   -1    0    0    0    0  0.00000000000E+00  0.00000000000E+00  0.45593999997E+02  0.45594000000E+02  0.51100000000E-03 0. -1.
         11   -1    0    0    0    0 -0.00000000000E+00 -0.00000000000E+00 -0.45593999997E+02  0.45594000000E+02  0.51100000000E-03 0.  1.
         23    2    1    2    0    0  0.00000000000E+00  0.00000000000E+00  0.00000000000E+00  0.91188000000E+02  0.91188000000E+02 0.  0.
    9900012    2    3    3    0    0  0.34720178098E+02  0.94430860947E+01  0.78180384651E+01  0.54367022724E+02  0.39999859903E+02 0.  0.
        -12    1    3    3    0    0 -0.34720178098E+02 -0.94430860947E+01 -0.78180384651E+01  0.36820977276E+02  0.00000000000E+00 0.  1.
         11    1    4    4    0    0  0.98163958431E+01  0.15747731306E+02 -0.73998175019E+00  0.18571490028E+02  0.51100000000E-03 0. -1.
        -11    1    4    4    0    0  0.25636264745E+02 -0.47809010999E+01  0.14347320339E+02  0.29764419810E+02  0.51100000000E-03 0.  1.
        -12    1    4    4    0    0 -0.73248249090E+00 -0.15237441109E+01 -0.57893001241E+01  0.60311128858E+01  0.00000000000E+00 0.  1.
</event>
<event>
 8    1  0.1253488E-006  0.9118800E+02  0.7816164E-02  0.1184000E+00
        -11   -1    0    0    0    0  0.00000000000E+00  0.00000000000E+00  0.45593999997E+02  0.45594000000E+02  0.51100000000E-03 0. -1.
         11   -1    0    0    0    0 -0.00000000000E+00 -0.00000000000E+00 -0.45593999997E+02  0.45594000000E+02  0.51100000000E-03 0.  1.
         23    2    1    2    0    0 -0.35527136788E-14  0.35527136788E-14 -0.17763568394E-14  0.91188000000E+02  0.91188000000E+02 0.  0.
    9900012    2    3    3    0    0 -0.29449719574E+02 -0.16196110037E+02  0.15039164021E+02  0.54367130676E+02  0.40000106001E+02 0.  0.
        -12    1    3    3    0    0  0.29449719574E+02  0.16196110037E+02 -0.15039164021E+02  0.36820869324E+02  0.00000000000E+00 0.  1.
         11    1    4    4    0    0  0.13467854348E+01  0.36501329713E+01  0.71016460913E+01  0.80975724253E+01  0.51100000000E-03 0. -1.
        -11    1    4    4    0    0 -0.98858858081E+01 -0.32345058577E+01 -0.97344191213E+01  0.14246111127E+02  0.51100000000E-03 0.  1.
         12    1    4    4    0    0 -0.20910619201E+02 -0.16611737151E+02  0.17671937051E+02  0.32023447123E+02  0.00000000000E+00 0. -1.
</event>
<event>
 8    1  0.1253488E-006  0.9118800E+02  0.7816164E-02  0.1184000E+00
        -11   -1    0    0    0    0  0.00000000000E+00  0.00000000000E+00  0.45593999997E+02  0.45594000000E+02  0.51100000000E-03 0. -1.
         11   -1    0    0    0    0 -0.00000000000E+00 -0.00000000000E+00 -0.45593999997E+02  0.45594000000E+02  0.51100000000E-03 0.  1.
         23    2    1    2    0    0  0.17763568394E-14 -0.16653345369E-14 -0.71054273576E-14  0.91188000000E+02  0.91188000000E+02 0.  0.
    9900012    2    3    3    0    0 -0.97746952037E+01  0.81803582421E+00  0.35490378266E+02  0.54367071190E+02  0.39999970393E+02 0.  0.
        -12    1    3    3    0    0  0.97746952037E+01 -0.81803582421E+00 -0.35490378266E+02  0.36820928810E+02  0.00000000000E+00 0.  1.
         11    1    4    4    0    0 -0.10967359033E+02 -0.44550274039E+01  0.17243346923E+02  0.20915622073E+02  0.51100000000E-03 0. -1.
        -11    1    4    4    0    0  0.37780658828E+01 -0.10628786311E+02  0.40726452863E+01  0.11992969613E+02  0.51100000000E-03 0.  1.
        -12    1    4    4    0    0 -0.25854020538E+01  0.15901849539E+02  0.14174386057E+02  0.21458479504E+02  0.00000000000E+00 0.  1.
</event>
<event>
 8    1  0.1253488E-006  0.9118800E+02  0.7816164E-02  0.1184000E+00
        -11   -1    0    0    0    0  0.00000000000E+00  0.00000000000E+00  0.45593999997E+02  0.45594000000E+02  0.51100000000E-03 0. -1.
         11   -1    0    0    0    0 -0.00000000000E+00 -0.00000000000E+00 -0.45593999997E+02  0.45594000000E+02  0.51100000000E-03 0.  1.
         23    2    1    2    0    0  0.35527136788E-14  0.00000000000E+00  0.35527136788E-14  0.91188000000E+02  0.91188000000E+02 0.  0.
    9900012    2    3    3    0    0 -0.16486537985E+02  0.18883463398E+02 -0.26970156569E+02  0.54367075650E+02  0.39999980558E+02 0.  0.
         12    1    3    3    0    0  0.16486537985E+02 -0.18883463398E+02  0.26970156569E+02  0.36820924350E+02  0.00000000000E+00 0. -1.
         11    1    4    4    0    0 -0.38476086578E+01  0.54917110526E+01  0.66381382832E+01  0.94354577418E+01  0.51100000000E-03 0. -1.
        -11    1    4    4    0    0 -0.51847637092E+01 -0.66279010802E+01 -0.84154677832E+01  0.11900880040E+02  0.51100000000E-03 0.  1.
         12    1    4    4    0    0 -0.74541656176E+01  0.20019653426E+02 -0.25192827069E+02  0.33030737868E+02  0.00000000000E+00 0. -1.
</event>
<event>
 8    1  0.1253488E-006  0.9118800E+02  0.7816164E-02  0.1184000E+00
        -11   -1    0    0    0    0  0.00000000000E+00  0.00000000000E+00  0.45593999997E+02  0.45594000000E+02  0.51100000000E-03 0. -1.
         11   -1    0    0    0    0 -0.00000000000E+00 -0.00000000000E+00 -0.45593999997E+02  0.45594000000E+02  0.51100000000E-03 0.  1.
         23    2    1    2    0    0 -0.35527136788E-14  0.00000000000E+00 -0.35527136788E-14  0.91188000000E+02  0.91188000000E+02 0.  0.
    9900012    2    3    3    0    0  0.30003219433E+02 -0.68776811729E+01  0.20206069841E+02  0.54367069361E+02  0.39999966223E+02 0.  0.
        -12    1    3    3    0    0 -0.30003219433E+02  0.68776811729E+01 -0.20206069841E+02  0.36820930639E+02  0.00000000000E+00 0.  1.
         11    1    4    4    0    0  0.31489926762E+02 -0.73544825472E+01  0.19147593865E+02  0.37581035804E+02  0.51100000000E-03 0. -1.
        -11    1    4    4    0    0  0.94520988937E+00  0.42375488588E+00 -0.76624849857E+01  0.77321838025E+01  0.51100000000E-03 0.  1.
        -12    1    4    4    0    0 -0.24319172183E+01  0.53046488418E-01  0.87209609620E+01  0.90538497551E+01  0.00000000000E+00 0.  1.
</event>
<event>
 8    1  0.1253488E-006  0.9118800E+02  0.7816164E-02  0.1184000E+00
        -11   -1    0    0    0    0  0.00000000000E+00  0.00000000000E+00  0.45593999997E+02  0.45594000000E+02  0.51100000000E-03 0.  1.
         11   -1    0    0    0    0 -0.00000000000E+00 -0.00000000000E+00 -0.45593999997E+02  0.45594000000E+02  0.51100000000E-03 0. -1.
         23    2    1    2    0    0  0.00000000000E+00  0.00000000000E+00  0.44408920985E-15  0.91188000000E+02  0.91188000000E+02 0.  0.
    9900012    2    3    3    0    0  0.32654325471E+02 -0.16627295374E+02  0.36049041725E+01  0.54367255065E+02  0.40000389571E+02 0.  0.
         12    1    3    3    0    0 -0.32654325471E+02  0.16627295374E+02 -0.36049041725E+01  0.36820744935E+02  0.00000000000E+00 0. -1.
         11    1    4    4    0    0  0.24584399370E+02 -0.82695778689E+01 -0.67659238481E+01  0.26805901147E+02  0.51100000000E-03 0. -1.
        -11    1    4    4    0    0  0.46919028730E+01 -0.86839858515E+01  0.17259230492E+02  0.19882318785E+02  0.51100000000E-03 0.  1.
         12    1    4    4    0    0  0.33780232283E+01  0.32626834637E+00 -0.68884024717E+01  0.76790351332E+01  0.00000000000E+00 0. -1.
</event>
<event>
 8    1  0.1253488E-006  0.9118800E+02  0.7816164E-02  0.1184000E+00
        -11   -1    0    0    0    0  0.00000000000E+00  0.00000000000E+00  0.45593999997E+02  0.45594000000E+02  0.51100000000E-03 0. -1.
         11   -1    0    0    0    0 -0.00000000000E+00 -0.00000000000E+00 -0.45593999997E+02  0.45594000000E+02  0.51100000000E-03 0.  1.
         23    2    1    2    0    0  0.14432899320E-14  0.71054273576E-14 -0.88817841970E-15  0.91188000000E+02  0.91188000000E+02 0.  0.
    9900012    2    3    3    0    0 -0.62900404472E+00  0.36562180968E+02 -0.43117247051E+01  0.54367086199E+02  0.40000004608E+02 0.  0.
         12    1    3    3    0    0  0.62900404472E+00 -0.36562180968E+02  0.43117247051E+01  0.36820913801E+02  0.00000000000E+00 0. -1.
         11    1    4    4    0    0 -0.14220065874E+02  0.14265778367E+02  0.65304543926E+01  0.21174738268E+02  0.51100000000E-03 0. -1.
        -11    1    4    4    0    0  0.35968923476E+01  0.13538042896E+02 -0.13706813035E+02  0.19598289819E+02  0.51100000000E-03 0.  1.
         12    1    4    4    0    0  0.99941694821E+01  0.87583597048E+01  0.28646339370E+01  0.13594058112E+02  0.00000000000E+00 0. -1.
</event>
<event>
 8    1  0.1253488E-006  0.9118800E+02  0.7816164E-02  0.1184000E+00
        -11   -1    0    0    0    0  0.00000000000E+00  0.00000000000E+00  0.45593999997E+02  0.45594000000E+02  0.51100000000E-03 0.  1.
         11   -1    0    0    0    0 -0.00000000000E+00 -0.00000000000E+00 -0.45593999997E+02  0.45594000000E+02  0.51100000000E-03 0. -1.
         23    2    1    2    0    0 -0.35527136788E-14  0.00000000000E+00  0.00000000000E+00  0.91188000000E+02  0.91188000000E+02 0.  0.
    9900012    2    3    3    0    0 -0.14387376288E+02  0.66628298145E+01 -0.33232271879E+02  0.54367166335E+02  0.40000187293E+02 0.  0.
        -12    1    3    3    0    0  0.14387376288E+02 -0.66628298145E+01  0.33232271879E+02  0.36820833665E+02  0.00000000000E+00 0.  1.
         11    1    4    4    0    0  0.13005180412E+01 -0.70683199057E+01 -0.23091156972E+02  0.24183755375E+02  0.51100000000E-03 0. -1.
        -11    1    4    4    0    0  0.39656651758E+01  0.58749541288E+01 -0.11223044263E+01  0.71764304350E+01  0.51100000000E-03 0.  1.
         12    1    4    4    0    0 -0.19653559505E+02  0.78561955914E+01 -0.90188104802E+01  0.23006980524E+02  0.00000000000E+00 0. -1.
</event>
<event>
 8    1  0.1253488E-006  0.9118800E+02  0.7816164E-02  0.1184000E+00
        -11   -1    0    0    0    0  0.00000000000E+00  0.00000000000E+00  0.45593999997E+02  0.45594000000E+02  0.51100000000E-03 0. -1.
         11   -1    0    0    0    0 -0.00000000000E+00 -0.00000000000E+00 -0.45593999997E+02  0.45594000000E+02  0.51100000000E-03 0.  1.
         23    2    1    2    0    0  0.35527136788E-14  0.35527136788E-14  0.00000000000E+00  0.91188000000E+02  0.91188000000E+02 0.  0.
    9900012    2    3    3    0    0 -0.28660479185E+02 -0.14886725459E+02 -0.17684491050E+02  0.54367097164E+02  0.40000029604E+02 0.  0.
         12    1    3    3    0    0  0.28660479185E+02  0.14886725459E+02  0.17684491050E+02  0.36820902836E+02  0.00000000000E+00 0. -1.
         11    1    4    4    0    0 -0.79512550952E+01 -0.79863450954E+01  0.94552793317E+01  0.14710760452E+02  0.51100000000E-03 0. -1.
        -11    1    4    4    0    0 -0.16827759915E+02 -0.93319965722E+01 -0.28924834298E+02  0.34740548401E+02  0.51100000000E-03 0.  1.
        -12    1    4    4    0    0 -0.38814641747E+01  0.24316162088E+01  0.17850639168E+01  0.49157883105E+01  0.00000000000E+00 0.  1.
</event>
<event>
 8    1  0.1253488E-006  0.9118800E+02  0.7816164E-02  0.1184000E+00
        -11   -1    0    0    0    0  0.00000000000E+00  0.00000000000E+00  0.45593999997E+02  0.45594000000E+02  0.51100000000E-03 0.  1.
         11   -1    0    0    0    0 -0.00000000000E+00 -0.00000000000E+00 -0.45593999997E+02  0.45594000000E+02  0.51100000000E-03 0. -1.
         23    2    1    2    0    0  0.00000000000E+00 -0.17763568394E-14  0.00000000000E+00  0.91188000000E+02  0.91188000000E+02 0.  0.
    9900012    2    3    3    0    0 -0.33915386291E+02 -0.86834959267E+01 -0.11407254613E+02  0.54367055056E+02  0.39999933611E+02 0.  0.
        -12    1    3    3    0    0  0.33915386291E+02  0.86834959267E+01  0.11407254613E+02  0.36820944944E+02  0.00000000000E+00 0.  1.
         11    1    4    4    0    0 -0.32604280418E+02 -0.38673279887E+01  0.18774941675E+00  0.32833375968E+02  0.51100000000E-03 0. -1.
        -11    1    4    4    0    0  0.47548252780E+01 -0.43511944688E+01 -0.13663951168E+02  0.15107773446E+02  0.51100000000E-03 0.  1.
        -12    1    4    4    0    0 -0.60659311513E+01 -0.46497346930E+00  0.20689471379E+01  0.64259056419E+01  0.00000000000E+00 0.  1.
</event>
<event>
 8    1  0.1253488E-006  0.9118800E+02  0.7816164E-02  0.1184000E+00
        -11   -1    0    0    0    0  0.00000000000E+00  0.00000000000E+00  0.45593999997E+02  0.45594000000E+02  0.51100000000E-03 0. -1.
         11   -1    0    0    0    0 -0.00000000000E+00 -0.00000000000E+00 -0.45593999997E+02  0.45594000000E+02  0.51100000000E-03 0.  1.
         23    2    1    2    0    0 -0.35527136788E-14  0.17763568394E-14  0.35527136788E-14  0.91188000000E+02  0.91188000000E+02 0.  0.
    9900012    2    3    3    0    0  0.21853048163E+02  0.87485317376E+01 -0.28314080326E+02  0.54367086564E+02  0.40000005440E+02 0.  0.
         12    1    3    3    0    0 -0.21853048163E+02 -0.87485317376E+01  0.28314080326E+02  0.36820913436E+02  0.00000000000E+00 0. -1.
         11    1    4    4    0    0  0.53967799025E+01  0.11037124378E+02 -0.32632564724E+01  0.12711891713E+02  0.51100000000E-03 0. -1.
        -11    1    4    4    0    0 -0.19726098073E+01 -0.11225538781E+01  0.55041851868E+01  0.59537695196E+01  0.51100000000E-03 0.  1.
        -12    1    4    4    0    0  0.18428878068E+02 -0.11660387627E+01 -0.30555009040E+02  0.35701425331E+02  0.00000000000E+00 0.  1.
</event>
<event>
 8    1  0.1253488E-006  0.9118800E+02  0.7816164E-02  0.1184000E+00
        -11   -1    0    0    0    0  0.00000000000E+00  0.00000000000E+00  0.45593999997E+02  0.45594000000E+02  0.51100000000E-03 0.  1.
         11   -1    0    0    0    0 -0.00000000000E+00 -0.00000000000E+00 -0.45593999997E+02  0.45594000000E+02  0.51100000000E-03 0. -1.
         23    2    1    2    0    0  0.35527136788E-14  0.35527136788E-14  0.88817841970E-15  0.91188000000E+02  0.91188000000E+02 0.  0.
    9900012    2    3    3    0    0 -0.27616011544E+02 -0.24311476939E+02  0.14449153772E+01  0.54367084952E+02  0.40000001765E+02 0.  0.
         12    1    3    3    0    0  0.27616011544E+02  0.24311476939E+02 -0.14449153772E+01  0.36820915048E+02  0.00000000000E+00 0. -1.
         11    1    4    4    0    0  0.77320791882E+00 -0.11023443178E+02  0.81779266940E+01  0.13747459229E+02  0.51100000000E-03 0. -1.
        -11    1    4    4    0    0 -0.35629627044E+00  0.23618636716E+01 -0.81400800889E+01  0.84832924711E+01  0.51100000000E-03 0.  1.
        -12    1    4    4    0    0 -0.28032923192E+02 -0.15649897433E+02  0.14070687721E+01  0.32136333252E+02  0.00000000000E+00 0.  1.
</event>
<event>
 8    1  0.1253488E-006  0.9118800E+02  0.7816164E-02  0.1184000E+00
        -11   -1    0    0    0    0  0.00000000000E+00  0.00000000000E+00  0.45593999997E+02  0.45594000000E+02  0.51100000000E-03 0.  1.
         11   -1    0    0    0    0 -0.00000000000E+00 -0.00000000000E+00 -0.45593999997E+02  0.45594000000E+02  0.51100000000E-03 0. -1.
         23    2    1    2    0    0 -0.35527136788E-14 -0.35527136788E-14 -0.17763568394E-14  0.91188000000E+02  0.91188000000E+02 0.  0.
    9900012    2    3    3    0    0 -0.25265283316E+02 -0.23468295140E+02  0.12910590421E+02  0.54367098832E+02  0.40000033407E+02 0.  0.
        -12    1    3    3    0    0  0.25265283316E+02  0.23468295140E+02 -0.12910590421E+02  0.36820901168E+02  0.00000000000E+00 0.  1.
         11    1    4    4    0    0 -0.79904772597E+00  0.57570505172E+01  0.15409894766E+01  0.60130488734E+01  0.51100000000E-03 0. -1.
        -11    1    4    4    0    0 -0.16664632552E+02 -0.89053050657E+01 -0.67177531166E+01  0.20053494548E+02  0.51100000000E-03 0.  1.
        -12    1    4    4    0    0 -0.78016030383E+01 -0.20320040591E+02  0.18087354061E+02  0.28300555410E+02  0.00000000000E+00 0.  1.
</event>
<event>
 8    1  0.1253488E-006  0.9118800E+02  0.7816164E-02  0.1184000E+00
        -11   -1    0    0    0    0  0.00000000000E+00  0.00000000000E+00  0.45593999997E+02  0.45594000000E+02  0.51100000000E-03 0.  1.
         11   -1    0    0    0    0 -0.00000000000E+00 -0.00000000000E+00 -0.45593999997E+02  0.45594000000E+02  0.51100000000E-03 0. -1.
         23    2    1    2    0    0  0.00000000000E+00 -0.22204460493E-15 -0.17763568394E-14  0.91188000000E+02  0.91188000000E+02 0.  0.
    9900012    2    3    3    0    0  0.36164369966E+02  0.18253945919E+01  0.66773154513E+01  0.54367078473E+02  0.39999986995E+02 0.  0.
        -12    1    3    3    0    0 -0.36164369966E+02 -0.18253945919E+01 -0.66773154513E+01  0.36820921527E+02  0.00000000000E+00 0.  1.
         11    1    4    4    0    0  0.35535989037E+02 -0.17785479533E+01 -0.89170123155E+00  0.35591640605E+02  0.51100000000E-03 0. -1.
        -11    1    4    4    0    0  0.15619517182E+01  0.81876955491E+01  0.10384228169E+02  0.13315789369E+02  0.51100000000E-03 0.  1.
         12    1    4    4    0    0 -0.93357078896E+00 -0.45837530039E+01 -0.28152114866E+01  0.54596484991E+01  0.00000000000E+00 0. -1.
</event>
<event>
 8    1  0.1253488E-006  0.9118800E+02  0.7816164E-02  0.1184000E+00
        -11   -1    0    0    0    0  0.00000000000E+00  0.00000000000E+00  0.45593999997E+02  0.45594000000E+02  0.51100000000E-03 0.  1.
         11   -1    0    0    0    0 -0.00000000000E+00 -0.00000000000E+00 -0.45593999997E+02  0.45594000000E+02  0.51100000000E-03 0. -1.
         23    2    1    2    0    0  0.17763568394E-14  0.00000000000E+00  0.00000000000E+00  0.91188000000E+02  0.91188000000E+02 0.  0.
    9900012    2    3    3    0    0  0.60706725935E+01 -0.12938395977E+02 -0.33934122675E+02  0.54367084233E+02  0.40000000126E+02 0.  0.
        -12    1    3    3    0    0 -0.60706725935E+01  0.12938395977E+02  0.33934122675E+02  0.36820915767E+02  0.00000000000E+00 0.  1.
         11    1    4    4    0    0  0.95922918013E+01 -0.15655563501E+02 -0.22077771266E+02  0.28714747341E+02  0.51100000000E-03 0. -1.
        -11    1    4    4    0    0  0.57829820482E+00  0.51251080506E+01  0.55686969449E+01  0.75902270895E+01  0.51100000000E-03 0.  1.
        -12    1    4    4    0    0 -0.40999174126E+01 -0.24079405271E+01 -0.17425048354E+02  0.18062109802E+02  0.00000000000E+00 0.  1.
</event>
<event>
 8    1  0.1253488E-006  0.9118800E+02  0.7816164E-02  0.1184000E+00
        -11   -1    0    0    0    0  0.00000000000E+00  0.00000000000E+00  0.45593999997E+02  0.45594000000E+02  0.51100000000E-03 0.  1.
         11   -1    0    0    0    0 -0.00000000000E+00 -0.00000000000E+00 -0.45593999997E+02  0.45594000000E+02  0.51100000000E-03 0. -1.
         23    2    1    2    0    0  0.00000000000E+00  0.35527136788E-14  0.00000000000E+00  0.91188000000E+02  0.91188000000E+02 0.  0.
    9900012    2    3    3    0    0  0.21380366502E+02  0.25460902084E+02 -0.15824054001E+02  0.54367105229E+02  0.40000047991E+02 0.  0.
         12    1    3    3    0    0 -0.21380366502E+02 -0.25460902084E+02  0.15824054001E+02  0.36820894771E+02  0.00000000000E+00 0. -1.
         11    1    4    4    0    0 -0.35566839259E+01  0.17689945967E+02 -0.93991867645E+00  0.18068415432E+02  0.51100000000E-03 0. -1.
        -11    1    4    4    0    0  0.19706511841E+02  0.47697727216E+01 -0.39115018502E-01  0.20275573260E+02  0.51100000000E-03 0.  1.
        -12    1    4    4    0    0  0.52305385869E+01  0.30011833955E+01 -0.14845020306E+02  0.16023116537E+02  0.00000000000E+00 0.  1.
</event>
<event>
 8    1  0.1253488E-006  0.9118800E+02  0.7816164E-02  0.1184000E+00
        -11   -1    0    0    0    0  0.00000000000E+00  0.00000000000E+00  0.45593999997E+02  0.45594000000E+02  0.51100000000E-03 0. -1.
         11   -1    0    0    0    0 -0.00000000000E+00 -0.00000000000E+00 -0.45593999997E+02  0.45594000000E+02  0.51100000000E-03 0.  1.
         23    2    1    2    0    0  0.71054273576E-14 -0.17763568394E-14  0.00000000000E+00  0.91188000000E+02  0.91188000000E+02 0.  0.
    9900012    2    3    3    0    0  0.32628002835E+02  0.11565835337E+02 -0.12546852956E+02  0.54367100566E+02  0.40000037360E+02 0.  0.
        -12    1    3    3    0    0 -0.32628002835E+02 -0.11565835337E+02  0.12546852956E+02  0.36820899434E+02  0.00000000000E+00 0.  1.
         11    1    4    4    0    0  0.69744130679E+01  0.14348909279E+02  0.79715506606E+01  0.17834776571E+02  0.51100000000E-03 0. -1.
        -11    1    4    4    0    0 -0.14912282917E+00 -0.38468491604E+01 -0.55165972482E+00  0.38890634855E+01  0.51100000000E-03 0.  1.
         12    1    4    4    0    0  0.25802712596E+02  0.10637752189E+01 -0.19966743892E+02  0.32643260510E+02  0.00000000000E+00 0. -1.
</event>
<event>
 8    1  0.1253488E-006  0.9118800E+02  0.7816164E-02  0.1184000E+00
        -11   -1    0    0    0    0  0.00000000000E+00  0.00000000000E+00  0.45593999997E+02  0.45594000000E+02  0.51100000000E-03 0.  1.
         11   -1    0    0    0    0 -0.00000000000E+00 -0.00000000000E+00 -0.45593999997E+02  0.45594000000E+02  0.51100000000E-03 0. -1.
         23    2    1    2    0    0  0.00000000000E+00 -0.17763568394E-14  0.00000000000E+00  0.91188000000E+02  0.91188000000E+02 0.  0.
    9900012    2    3    3    0    0  0.35196955725E+02  0.84883975604E+01  0.67008583537E+01  0.54367080836E+02  0.39999992381E+02 0.  0.
         12    1    3    3    0    0 -0.35196955725E+02 -0.84883975604E+01 -0.67008583537E+01  0.36820919164E+02  0.00000000000E+00 0. -1.
         11    1    4    4    0    0  0.86020752068E+01  0.96540534789E+01  0.12313704657E+02  0.17855636899E+02  0.51100000000E-03 0. -1.
        -11    1    4    4    0    0 -0.31367140697E+01  0.29280784737E+01  0.30611841278E+01  0.52710024880E+01  0.51100000000E-03 0.  1.
         12    1    4    4    0    0  0.29731594588E+02 -0.40937343921E+01 -0.86740304308E+01  0.31240441449E+02  0.00000000000E+00 0. -1.
</event>
<event>
 8    1  0.1253488E-006  0.9118800E+02  0.7816164E-02  0.1184000E+00
        -11   -1    0    0    0    0  0.00000000000E+00  0.00000000000E+00  0.45593999997E+02  0.45594000000E+02  0.51100000000E-03 0. -1.
         11   -1    0    0    0    0 -0.00000000000E+00 -0.00000000000E+00 -0.45593999997E+02  0.45594000000E+02  0.51100000000E-03 0.  1.
         23    2    1    2    0    0  0.00000000000E+00  0.00000000000E+00  0.00000000000E+00  0.91188000000E+02  0.91188000000E+02 0.  0.
    9900012    2    3    3    0    0 -0.30781458511E+02 -0.66984831377E+01 -0.19063352708E+02  0.54367091797E+02  0.40000017371E+02 0.  0.
        -12    1    3    3    0    0  0.30781458511E+02  0.66984831377E+01  0.19063352708E+02  0.36820908203E+02  0.00000000000E+00 0.  1.
         11    1    4    4    0    0 -0.20603068000E+02  0.73678783888E+00  0.69142362361E+01  0.21744790877E+02  0.51100000000E-03 0. -1.
        -11    1    4    4    0    0 -0.76796078239E+01 -0.26788694316E+00 -0.23362796882E+02  0.24594072826E+02  0.51100000000E-03 0.  1.
         12    1    4    4    0    0 -0.24987826871E+01 -0.71673840334E+01 -0.26147920619E+01  0.80282280938E+01  0.00000000000E+00 0. -1.
</event>
<event>
 8    1  0.1253488E-006  0.9118800E+02  0.7816164E-02  0.1184000E+00
        -11   -1    0    0    0    0  0.00000000000E+00  0.00000000000E+00  0.45593999997E+02  0.45594000000E+02  0.51100000000E-03 0.  1.
         11   -1    0    0    0    0 -0.00000000000E+00 -0.00000000000E+00 -0.45593999997E+02  0.45594000000E+02  0.51100000000E-03 0. -1.
         23    2    1    2    0    0 -0.17763568394E-14 -0.24424906542E-14  0.00000000000E+00  0.91188000000E+02  0.91188000000E+02 0.  0.
    9900012    2    3    3    0    0 -0.73303127059E+01  0.63231554045E+00 -0.36078339202E+02  0.54367083840E+02  0.39999999229E+02 0.  0.
        -12    1    3    3    0    0  0.73303127059E+01 -0.63231554045E+00  0.36078339202E+02  0.36820916160E+02  0.00000000000E+00 0.  1.
         11    1    4    4    0    0  0.11355136057E+02 -0.97121956718E+01 -0.13139448515E+02  0.19897511583E+02  0.51100000000E-03 0. -1.
        -11    1    4    4    0    0 -0.44573442308E+01  0.10150690681E+02 -0.13143014895E+02  0.17194280436E+02  0.51100000000E-03 0.  1.
        -12    1    4    4    0    0 -0.14228104532E+02  0.19382053083E+00 -0.97958757916E+01  0.17275291821E+02  0.00000000000E+00 0.  1.
</event>
<event>
 8    1  0.1253488E-006  0.9118800E+02  0.7816164E-02  0.1184000E+00
        -11   -1    0    0    0    0  0.00000000000E+00  0.00000000000E+00  0.45593999997E+02  0.45594000000E+02  0.51100000000E-03 0.  1.
         11   -1    0    0    0    0 -0.00000000000E+00 -0.00000000000E+00 -0.45593999997E+02  0.45594000000E+02  0.51100000000E-03 0. -1.
         23    2    1    2    0    0  0.17763568394E-14  0.71054273576E-14  0.00000000000E+00  0.91188000000E+02  0.91188000000E+02 0.  0.
    9900012    2    3    3    0    0 -0.14879375133E+02 -0.26891953399E+02 -0.20278256610E+02  0.54367073164E+02  0.39999974892E+02 0.  0.
        -12    1    3    3    0    0  0.14879375133E+02  0.26891953399E+02  0.20278256610E+02  0.36820926836E+02  0.00000000000E+00 0.  1.
         11    1    4    4    0    0 -0.15193046371E+02 -0.22284987374E+02 -0.11127806048E+02  0.29176658273E+02  0.51100000000E-03 0. -1.
        -11    1    4    4    0    0 -0.10030422577E+02  0.31555110388E+01 -0.46449466201E+01  0.11495310189E+02  0.51100000000E-03 0.  1.
        -12    1    4    4    0    0  0.10344093815E+02 -0.77624770638E+01 -0.45055039411E+01  0.13695104701E+02  0.00000000000E+00 0.  1.
</event>
<event>
 8    1  0.1253488E-006  0.9118800E+02  0.7816164E-02  0.1184000E+00
        -11   -1    0    0    0    0  0.00000000000E+00  0.00000000000E+00  0.45593999997E+02  0.45594000000E+02  0.51100000000E-03 0. -1.
         11   -1    0    0    0    0 -0.00000000000E+00 -0.00000000000E+00 -0.45593999997E+02  0.45594000000E+02  0.51100000000E-03 0.  1.
         23    2    1    2    0    0  0.00000000000E+00 -0.35527136788E-14  0.35527136788E-14  0.91188000000E+02  0.91188000000E+02 0.  0.
    9900012    2    3    3    0    0 -0.22803431351E+02 -0.24082883256E+02 -0.15993690961E+02  0.54367083419E+02  0.39999998271E+02 0.  0.
         12    1    3    3    0    0  0.22803431351E+02  0.24082883256E+02  0.15993690961E+02  0.36820916581E+02  0.00000000000E+00 0. -1.
         11    1    4    4    0    0 -0.18364611628E+01  0.71650443641E+00  0.23036618245E+01  0.30319673930E+01  0.51100000000E-03 0. -1.
        -11    1    4    4    0    0 -0.15753363016E+02 -0.33255272370E+02 -0.93531975882E+01  0.37967932418E+02  0.51100000000E-03 0.  1.
        -12    1    4    4    0    0 -0.52136071722E+01  0.84558846774E+01 -0.89441551972E+01  0.13367183608E+02  0.00000000000E+00 0.  1.
</event>
<event>
 8    1  0.1253488E-006  0.9118800E+02  0.7816164E-02  0.1184000E+00
        -11   -1    0    0    0    0  0.00000000000E+00  0.00000000000E+00  0.45593999997E+02  0.45594000000E+02  0.51100000000E-03 0.  1.
         11   -1    0    0    0    0 -0.00000000000E+00 -0.00000000000E+00 -0.45593999997E+02  0.45594000000E+02  0.51100000000E-03 0. -1.
         23    2    1    2    0    0  0.00000000000E+00  0.00000000000E+00  0.00000000000E+00  0.91188000000E+02  0.91188000000E+02 0.  0.
    9900012    2    3    3    0    0 -0.28320460412E+02 -0.16315562892E+02  0.16956554650E+02  0.54367206744E+02  0.40000279413E+02 0.  0.
         12    1    3    3    0    0  0.28320460412E+02  0.16315562892E+02 -0.16956554650E+02  0.36820793256E+02  0.00000000000E+00 0. -1.
         11    1    4    4    0    0  0.46728666134E+01  0.48977446331E+01  0.77203874411E+00  0.68131952094E+01  0.51100000000E-03 0. -1.
        -11    1    4    4    0    0  0.15737885609E+01  0.21567679213E+01  0.24560163061E+01  0.36277368506E+01  0.51100000000E-03 0.  1.
        -12    1    4    4    0    0 -0.34567115586E+02 -0.23370075446E+02  0.13728499600E+02  0.43926274684E+02  0.00000000000E+00 0.  1.
</event>
<event>
 8    1  0.1253488E-006  0.9118800E+02  0.7816164E-02  0.1184000E+00
        -11   -1    0    0    0    0  0.00000000000E+00  0.00000000000E+00  0.45593999997E+02  0.45594000000E+02  0.51100000000E-03 0.  1.
         11   -1    0    0    0    0 -0.00000000000E+00 -0.00000000000E+00 -0.45593999997E+02  0.45594000000E+02  0.51100000000E-03 0. -1.
         23    2    1    2    0    0  0.00000000000E+00  0.44408920985E-15 -0.35527136788E-14  0.91188000000E+02  0.91188000000E+02 0.  0.
    9900012    2    3    3    0    0  0.19104683722E+02  0.37443130663E+01 -0.31253341773E+02  0.54367079419E+02  0.39999989152E+02 0.  0.
        -12    1    3    3    0    0 -0.19104683722E+02 -0.37443130663E+01  0.31253341773E+02  0.36820920581E+02  0.00000000000E+00 0.  1.
         11    1    4    4    0    0  0.63647788627E+01 -0.37795279991E+00  0.27554633703E+01  0.69459223244E+01  0.51100000000E-03 0. -1.
        -11    1    4    4    0    0  0.62630323833E+01  0.10100341165E+02 -0.36397934504E+02  0.38289059830E+02  0.51100000000E-03 0.  1.
        -12    1    4    4    0    0  0.64768724758E+01 -0.59780752990E+01  0.23891293604E+01  0.91320972645E+01  0.00000000000E+00 0.  1.
</event>
<event>
 8    1  0.1253488E-006  0.9118800E+02  0.7816164E-02  0.1184000E+00
        -11   -1    0    0    0    0  0.00000000000E+00  0.00000000000E+00  0.45593999997E+02  0.45594000000E+02  0.51100000000E-03 0.  1.
         11   -1    0    0    0    0 -0.00000000000E+00 -0.00000000000E+00 -0.45593999997E+02  0.45594000000E+02  0.51100000000E-03 0. -1.
         23    2    1    2    0    0 -0.55511151231E-16  0.88817841970E-15  0.00000000000E+00  0.91188000000E+02  0.91188000000E+02 0.  0.
    9900012    2    3    3    0    0  0.27372558365E+00  0.52919943798E+01 -0.36437612268E+02  0.54367085861E+02  0.40000003837E+02 0.  0.
        -12    1    3    3    0    0 -0.27372558365E+00 -0.52919943798E+01  0.36437612268E+02  0.36820914139E+02  0.00000000000E+00 0.  1.
         11    1    4    4    0    0  0.59776180091E+01 -0.82379475264E+01 -0.10447319195E+02  0.14585683910E+02  0.51100000000E-03 0. -1.
        -11    1    4    4    0    0 -0.12463583486E+02  0.41389337888E+01 -0.24910428948E+02  0.28160276221E+02  0.51100000000E-03 0.  1.
        -12    1    4    4    0    0  0.67596910607E+01  0.93910081174E+01 -0.10798641260E+01  0.11621125730E+02  0.00000000000E+00 0.  1.
</event>
<event>
 8    1  0.1253488E-006  0.9118800E+02  0.7816164E-02  0.1184000E+00
        -11   -1    0    0    0    0  0.00000000000E+00  0.00000000000E+00  0.45593999997E+02  0.45594000000E+02  0.51100000000E-03 0.  1.
         11   -1    0    0    0    0 -0.00000000000E+00 -0.00000000000E+00 -0.45593999997E+02  0.45594000000E+02  0.51100000000E-03 0. -1.
         23    2    1    2    0    0  0.00000000000E+00  0.71054273576E-14  0.17763568394E-14  0.91188000000E+02  0.91188000000E+02 0.  0.
    9900012    2    3    3    0    0 -0.93241831829E+01  0.34127659347E+02  0.10204686003E+02  0.54367175173E+02  0.40000207441E+02 0.  0.
         12    1    3    3    0    0  0.93241831829E+01 -0.34127659347E+02 -0.10204686003E+02  0.36820824827E+02  0.00000000000E+00 0. -1.
         11    1    4    4    0    0 -0.10989399196E+02  0.11570037052E+01 -0.45548775828E+01  0.11952090291E+02  0.51100000000E-03 0. -1.
        -11    1    4    4    0    0 -0.87882109348E+01  0.21748126766E+02  0.13409208283E+02  0.27018892211E+02  0.51100000000E-03 0.  1.
        -12    1    4    4    0    0  0.10453426948E+02  0.11222528876E+02  0.13503553032E+01  0.15396192671E+02  0.00000000000E+00 0.  1.
</event>
<event>
 8    1  0.1253488E-006  0.9118800E+02  0.7816164E-02  0.1184000E+00
        -11   -1    0    0    0    0  0.00000000000E+00  0.00000000000E+00  0.45593999997E+02  0.45594000000E+02  0.51100000000E-03 0. -1.
         11   -1    0    0    0    0 -0.00000000000E+00 -0.00000000000E+00 -0.45593999997E+02  0.45594000000E+02  0.51100000000E-03 0.  1.
         23    2    1    2    0    0  0.00000000000E+00  0.13322676296E-14  0.00000000000E+00  0.91188000000E+02  0.91188000000E+02 0.  0.
    9900012    2    3    3    0    0 -0.35487738901E+02  0.99447242339E+00 -0.97678737675E+01  0.54367082771E+02  0.39999996792E+02 0.  0.
         12    1    3    3    0    0  0.35487738901E+02 -0.99447242339E+00  0.97678737675E+01  0.36820917229E+02  0.00000000000E+00 0. -1.
         11    1    4    4    0    0 -0.20640406660E+02  0.11379933225E+02 -0.68342080381E+01  0.24540490359E+02  0.51100000000E-03 0. -1.
        -11    1    4    4    0    0 -0.21123566628E+02 -0.99980862569E+01 -0.27963571594E+01  0.23536915888E+02  0.51100000000E-03 0.  1.
         12    1    4    4    0    0  0.62762343875E+01 -0.38737454515E+00 -0.13730857009E+00  0.62896765233E+01  0.00000000000E+00 0. -1.
</event>
<event>
 8    1  0.1253488E-006  0.9118800E+02  0.7816164E-02  0.1184000E+00
        -11   -1    0    0    0    0  0.00000000000E+00  0.00000000000E+00  0.45593999997E+02  0.45594000000E+02  0.51100000000E-03 0.  1.
         11   -1    0    0    0    0 -0.00000000000E+00 -0.00000000000E+00 -0.45593999997E+02  0.45594000000E+02  0.51100000000E-03 0. -1.
         23    2    1    2    0    0  0.00000000000E+00 -0.17763568394E-14  0.35527136788E-14  0.91188000000E+02  0.91188000000E+02 0.  0.
    9900012    2    3    3    0    0 -0.24803130406E+02 -0.11831178665E+02  0.24507285249E+02  0.54367094297E+02  0.40000023069E+02 0.  0.
         12    1    3    3    0    0  0.24803130406E+02  0.11831178665E+02 -0.24507285249E+02  0.36820905703E+02  0.00000000000E+00 0. -1.
         11    1    4    4    0    0 -0.15605653025E+02  0.13492003336E+02  0.85842078568E+01  0.22344108511E+02  0.51100000000E-03 0. -1.
        -11    1    4    4    0    0 -0.23953112126E+01 -0.15370110483E+02  0.71909417408E+01  0.17137311791E+02  0.51100000000E-03 0.  1.
         12    1    4    4    0    0 -0.68021661684E+01 -0.99530715184E+01  0.87321356515E+01  0.14885673994E+02  0.00000000000E+00 0. -1.
</event>
<event>
 8    1  0.1253488E-006  0.9118800E+02  0.7816164E-02  0.1184000E+00
        -11   -1    0    0    0    0  0.00000000000E+00  0.00000000000E+00  0.45593999997E+02  0.45594000000E+02  0.51100000000E-03 0.  1.
         11   -1    0    0    0    0 -0.00000000000E+00 -0.00000000000E+00 -0.45593999997E+02  0.45594000000E+02  0.51100000000E-03 0. -1.
         23    2    1    2    0    0 -0.71054273576E-14  0.00000000000E+00  0.00000000000E+00  0.91188000000E+02  0.91188000000E+02 0.  0.
    9900012    2    3    3    0    0 -0.32240532616E+02 -0.17124650366E+02  0.48034515723E+01  0.54367099134E+02  0.40000034096E+02 0.  0.
         12    1    3    3    0    0  0.32240532616E+02  0.17124650366E+02 -0.48034515723E+01  0.36820900866E+02  0.00000000000E+00 0. -1.
         11    1    4    4    0    0 -0.33563276319E+02 -0.20658956324E+02  0.31679607560E+01  0.39538866565E+02  0.51100000000E-03 0. -1.
        -11    1    4    4    0    0 -0.16132454457E+01 -0.38585140057E+01  0.47113178515E+01  0.62997783580E+01  0.51100000000E-03 0.  1.
         12    1    4    4    0    0  0.29359891479E+01  0.73928199632E+01 -0.30758270352E+01  0.85284542114E+01  0.00000000000E+00 0. -1.
</event>
<event>
 8    1  0.1253488E-006  0.9118800E+02  0.7816164E-02  0.1184000E+00
        -11   -1    0    0    0    0  0.00000000000E+00  0.00000000000E+00  0.45593999997E+02  0.45594000000E+02  0.51100000000E-03 0. -1.
         11   -1    0    0    0    0 -0.00000000000E+00 -0.00000000000E+00 -0.45593999997E+02  0.45594000000E+02  0.51100000000E-03 0.  1.
         23    2    1    2    0    0  0.00000000000E+00  0.00000000000E+00  0.35527136788E-14  0.91188000000E+02  0.91188000000E+02 0.  0.
    9900012    2    3    3    0    0  0.31298587555E+02 -0.92814278558E+01 -0.17030375419E+02  0.54367079684E+02  0.39999989755E+02 0.  0.
         12    1    3    3    0    0 -0.31298587555E+02  0.92814278558E+01  0.17030375419E+02  0.36820920316E+02  0.00000000000E+00 0. -1.
         11    1    4    4    0    0  0.72411406340E+01  0.37407924202E+01  0.24187485935E+00  0.81539039313E+01  0.51100000000E-03 0. -1.
        -11    1    4    4    0    0 -0.49854264723E+01 -0.21924722622E+01  0.55081698989E+01  0.77460536809E+01  0.51100000000E-03 0.  1.
        -12    1    4    4    0    0  0.29042873394E+02 -0.10829748014E+02 -0.22780420177E+02  0.38467122072E+02  0.00000000000E+00 0.  1.
</event>
<event>
 8    1  0.1253488E-006  0.9118800E+02  0.7816164E-02  0.1184000E+00
        -11   -1    0    0    0    0  0.00000000000E+00  0.00000000000E+00  0.45593999997E+02  0.45594000000E+02  0.51100000000E-03 0. -1.
         11   -1    0    0    0    0 -0.00000000000E+00 -0.00000000000E+00 -0.45593999997E+02  0.45594000000E+02  0.51100000000E-03 0.  1.
         23    2    1    2    0    0  0.00000000000E+00 -0.71054273576E-14  0.00000000000E+00  0.91188000000E+02  0.91188000000E+02 0.  0.
    9900012    2    3    3    0    0  0.72980852526E+01 -0.28628690026E+02  0.21975357122E+02  0.54367078480E+02  0.39999987010E+02 0.  0.
        -12    1    3    3    0    0 -0.72980852526E+01  0.28628690026E+02 -0.21975357122E+02  0.36820921520E+02  0.00000000000E+00 0.  1.
         11    1    4    4    0    0  0.51637865037E+01 -0.42862508209E+01  0.44679661816E+00  0.67257910044E+01  0.51100000000E-03 0. -1.
        -11    1    4    4    0    0  0.78368969823E+01  0.60783641791E+01 -0.37813034299E-01  0.99179078183E+01  0.51100000000E-03 0.  1.
         12    1    4    4    0    0 -0.57025982334E+01 -0.30420803384E+02  0.21566373539E+02  0.37723379657E+02  0.00000000000E+00 0. -1.
</event>
<event>
 8    1  0.1253488E-006  0.9118800E+02  0.7816164E-02  0.1184000E+00
        -11   -1    0    0    0    0  0.00000000000E+00  0.00000000000E+00  0.45593999997E+02  0.45594000000E+02  0.51100000000E-03 0.  1.
         11   -1    0    0    0    0 -0.00000000000E+00 -0.00000000000E+00 -0.45593999997E+02  0.45594000000E+02  0.51100000000E-03 0. -1.
         23    2    1    2    0    0  0.00000000000E+00  0.17763568394E-14  0.00000000000E+00  0.91188000000E+02  0.91188000000E+02 0.  0.
    9900012    2    3    3    0    0 -0.23792644322E+02 -0.75420406596E+01  0.27070432204E+02  0.54367073873E+02  0.39999976509E+02 0.  0.
         12    1    3    3    0    0  0.23792644322E+02  0.75420406596E+01 -0.27070432204E+02  0.36820926127E+02  0.00000000000E+00 0. -1.
         11    1    4    4    0    0 -0.57023852176E+01  0.12367241492E+02  0.83567236706E+01  0.15978131620E+02  0.51100000000E-03 0. -1.
        -11    1    4    4    0    0 -0.99135651001E+01  0.19303020258E+01  0.70315976427E+01  0.12306429400E+02  0.51100000000E-03 0.  1.
        -12    1    4    4    0    0 -0.81766940042E+01 -0.21839584178E+02  0.11682110890E+02  0.26082512853E+02  0.00000000000E+00 0.  1.
</event>
<event>
 8    1  0.1253488E-006  0.9118800E+02  0.7816164E-02  0.1184000E+00
        -11   -1    0    0    0    0  0.00000000000E+00  0.00000000000E+00  0.45593999997E+02  0.45594000000E+02  0.51100000000E-03 0.  1.
         11   -1    0    0    0    0 -0.00000000000E+00 -0.00000000000E+00 -0.45593999997E+02  0.45594000000E+02  0.51100000000E-03 0. -1.
         23    2    1    2    0    0  0.00000000000E+00 -0.17763568394E-14 -0.35527136788E-14  0.91188000000E+02  0.91188000000E+02 0.  0.
    9900012    2    3    3    0    0 -0.13735700202E+02 -0.12873827994E+02  0.31644507201E+02  0.54367085519E+02  0.40000003057E+02 0.  0.
         12    1    3    3    0    0  0.13735700202E+02  0.12873827994E+02 -0.31644507201E+02  0.36820914481E+02  0.00000000000E+00 0. -1.
         11    1    4    4    0    0 -0.87256454926E+01 -0.86318874156E+01 -0.55513651749E+01  0.13470858369E+02  0.51100000000E-03 0. -1.
        -11    1    4    4    0    0 -0.83933822348E+01 -0.59124777395E+01  0.13811632812E+02  0.17209516541E+02  0.51100000000E-03 0.  1.
        -12    1    4    4    0    0  0.33833275252E+01  0.16705371611E+01  0.23384239563E+02  0.23686710610E+02  0.00000000000E+00 0.  1.
</event>
<event>
 8    1  0.1253488E-006  0.9118800E+02  0.7816164E-02  0.1184000E+00
        -11   -1    0    0    0    0  0.00000000000E+00  0.00000000000E+00  0.45593999997E+02  0.45594000000E+02  0.51100000000E-03 0.  1.
         11   -1    0    0    0    0 -0.00000000000E+00 -0.00000000000E+00 -0.45593999997E+02  0.45594000000E+02  0.51100000000E-03 0. -1.
         23    2    1    2    0    0  0.00000000000E+00 -0.13322676296E-14  0.00000000000E+00  0.91188000000E+02  0.91188000000E+02 0.  0.
    9900012    2    3    3    0    0  0.22316518689E+02  0.24908284653E+01  0.29181289528E+02  0.54367097087E+02  0.40000029428E+02 0.  0.
         12    1    3    3    0    0 -0.22316518689E+02 -0.24908284653E+01 -0.29181289528E+02  0.36820902913E+02  0.00000000000E+00 0. -1.
         11    1    4    4    0    0  0.16203660728E+01 -0.22639405156E+01  0.19709550892E+01  0.34111108297E+01  0.51100000000E-03 0. -1.
        -11    1    4    4    0    0  0.28881305326E+02 -0.52649488676E+01  0.14212822815E+02  0.32616772013E+02  0.51100000000E-03 0.  1.
        -12    1    4    4    0    0 -0.81851527104E+01  0.10019717849E+02  0.12997511624E+02  0.18339214244E+02  0.00000000000E+00 0.  1.
</event>
<event>
 8    1  0.1253488E-006  0.9118800E+02  0.7816164E-02  0.1184000E+00
        -11   -1    0    0    0    0  0.00000000000E+00  0.00000000000E+00  0.45593999997E+02  0.45594000000E+02  0.51100000000E-03 0. -1.
         11   -1    0    0    0    0 -0.00000000000E+00 -0.00000000000E+00 -0.45593999997E+02  0.45594000000E+02  0.51100000000E-03 0.  1.
         23    2    1    2    0    0  0.00000000000E+00  0.35527136788E-14  0.00000000000E+00  0.91188000000E+02  0.91188000000E+02 0.  0.
    9900012    2    3    3    0    0 -0.22676624062E+02  0.20170586848E+02 -0.20849316688E+02  0.54367138264E+02  0.40000123300E+02 0.  0.
         12    1    3    3    0    0  0.22676624062E+02 -0.20170586848E+02  0.20849316688E+02  0.36820861736E+02  0.00000000000E+00 0. -1.
         11    1    4    4    0    0  0.21919858918E+01 -0.30169137850E+01 -0.71954627269E+01  0.81043972664E+01  0.51100000000E-03 0. -1.
        -11    1    4    4    0    0 -0.26856746784E+02  0.20505724490E+02 -0.19875453125E+02  0.39202081857E+02  0.51100000000E-03 0.  1.
        -12    1    4    4    0    0  0.19881368306E+01  0.26817761434E+01  0.62215991645E+01  0.70606591409E+01  0.00000000000E+00 0.  1.
</event>
<event>
 8    1  0.1253488E-006  0.9118800E+02  0.7816164E-02  0.1184000E+00
        -11   -1    0    0    0    0  0.00000000000E+00  0.00000000000E+00  0.45593999997E+02  0.45594000000E+02  0.51100000000E-03 0. -1.
         11   -1    0    0    0    0 -0.00000000000E+00 -0.00000000000E+00 -0.45593999997E+02  0.45594000000E+02  0.51100000000E-03 0.  1.
         23    2    1    2    0    0  0.00000000000E+00 -0.17763568394E-14 -0.17763568394E-14  0.91188000000E+02  0.91188000000E+02 0.  0.
    9900012    2    3    3    0    0  0.32445552346E+02 -0.11902359714E+02  0.12704299802E+02  0.54367091982E+02  0.40000017791E+02 0.  0.
        -12    1    3    3    0    0 -0.32445552346E+02  0.11902359714E+02 -0.12704299802E+02  0.36820908018E+02  0.00000000000E+00 0.  1.
         11    1    4    4    0    0  0.11495285819E+02 -0.22881291598E+02 -0.22872695009E+01  0.25708494769E+02  0.51100000000E-03 0. -1.
        -11    1    4    4    0    0  0.46002567689E+01  0.22339519391E+01  0.52481586197E+00  0.51408496920E+01  0.51100000000E-03 0.  1.
         12    1    4    4    0    0  0.16350009758E+02  0.87449799450E+01  0.14466753441E+02  0.23517747521E+02  0.00000000000E+00 0. -1.
</event>
<event>
 8    1  0.1253488E-006  0.9118800E+02  0.7816164E-02  0.1184000E+00
        -11   -1    0    0    0    0  0.00000000000E+00  0.00000000000E+00  0.45593999997E+02  0.45594000000E+02  0.51100000000E-03 0. -1.
         11   -1    0    0    0    0 -0.00000000000E+00 -0.00000000000E+00 -0.45593999997E+02  0.45594000000E+02  0.51100000000E-03 0.  1.
         23    2    1    2    0    0  0.00000000000E+00  0.00000000000E+00  0.00000000000E+00  0.91188000000E+02  0.91188000000E+02 0.  0.
    9900012    2    3    3    0    0 -0.20203281010E+02  0.13489295303E+02  0.27670308874E+02  0.54367086860E+02  0.40000006114E+02 0.  0.
        -12    1    3    3    0    0  0.20203281010E+02 -0.13489295303E+02 -0.27670308874E+02  0.36820913140E+02  0.00000000000E+00 0.  1.
         11    1    4    4    0    0  0.55012689075E+01  0.67716598377E+01  0.41699121104E+01  0.96699278084E+01  0.51100000000E-03 0. -1.
        -11    1    4    4    0    0  0.49500691187E+01  0.50521628440E+00  0.88620712517E+01  0.10163401739E+02  0.51100000000E-03 0.  1.
         12    1    4    4    0    0 -0.30654619036E+02  0.62124191812E+01  0.14638325511E+02  0.34533757312E+02  0.00000000000E+00 0. -1.
</event>
<event>
 8    1  0.1253488E-006  0.9118800E+02  0.7816164E-02  0.1184000E+00
        -11   -1    0    0    0    0  0.00000000000E+00  0.00000000000E+00  0.45593999997E+02  0.45594000000E+02  0.51100000000E-03 0.  1.
         11   -1    0    0    0    0 -0.00000000000E+00 -0.00000000000E+00 -0.45593999997E+02  0.45594000000E+02  0.51100000000E-03 0. -1.
         23    2    1    2    0    0 -0.12212453271E-14 -0.12490009027E-15  0.00000000000E+00  0.91188000000E+02  0.91188000000E+02 0.  0.
    9900012    2    3    3    0    0 -0.94985728750E+00 -0.99078785910E-01 -0.36808554582E+02  0.54367058460E+02  0.39999941371E+02 0.  0.
        -12    1    3    3    0    0  0.94985728750E+00  0.99078785910E-01  0.36808554582E+02  0.36820941540E+02  0.00000000000E+00 0.  1.
         11    1    4    4    0    0 -0.10678270099E+02 -0.44089272588E+01 -0.83002619801E+01  0.14225274728E+02  0.51100000000E-03 0. -1.
        -11    1    4    4    0    0  0.11277845258E+02  0.13483716043E+02 -0.24143938965E+02  0.29865200167E+02  0.51100000000E-03 0.  1.
         12    1    4    4    0    0 -0.15494324465E+01 -0.91738675701E+01 -0.43643536370E+01  0.10276583565E+02  0.00000000000E+00 0. -1.
</event>
<event>
 8    1  0.1253488E-006  0.9118800E+02  0.7816164E-02  0.1184000E+00
        -11   -1    0    0    0    0  0.00000000000E+00  0.00000000000E+00  0.45593999997E+02  0.45594000000E+02  0.51100000000E-03 0. -1.
         11   -1    0    0    0    0 -0.00000000000E+00 -0.00000000000E+00 -0.45593999997E+02  0.45594000000E+02  0.51100000000E-03 0.  1.
         23    2    1    2    0    0  0.00000000000E+00  0.00000000000E+00  0.00000000000E+00  0.91188000000E+02  0.91188000000E+02 0.  0.
    9900012    2    3    3    0    0 -0.21398995435E+02 -0.94650628092E+01 -0.28430216429E+02  0.54367059955E+02  0.39999944780E+02 0.  0.
         12    1    3    3    0    0  0.21398995435E+02  0.94650628092E+01  0.28430216429E+02  0.36820940045E+02  0.00000000000E+00 0. -1.
         11    1    4    4    0    0 -0.10506866808E+02  0.86615311007E+01 -0.55373911238E+01  0.14699628289E+02  0.51100000000E-03 0. -1.
        -11    1    4    4    0    0 -0.12835123898E+02 -0.39471829930E+01 -0.21418351454E+02  0.25279763415E+02  0.51100000000E-03 0.  1.
         12    1    4    4    0    0  0.19429952709E+01 -0.14179410917E+02 -0.14744738513E+01  0.14387668251E+02  0.00000000000E+00 0. -1.
</event>
<event>
 8    1  0.1253488E-006  0.9118800E+02  0.7816164E-02  0.1184000E+00
        -11   -1    0    0    0    0  0.00000000000E+00  0.00000000000E+00  0.45593999997E+02  0.45594000000E+02  0.51100000000E-03 0.  1.
         11   -1    0    0    0    0 -0.00000000000E+00 -0.00000000000E+00 -0.45593999997E+02  0.45594000000E+02  0.51100000000E-03 0. -1.
         23    2    1    2    0    0  0.00000000000E+00  0.00000000000E+00 -0.35527136788E-14  0.91188000000E+02  0.91188000000E+02 0.  0.
    9900012    2    3    3    0    0 -0.24895388723E+02  0.57908768833E+01 -0.26504053219E+02  0.54367089205E+02  0.40000011461E+02 0.  0.
        -12    1    3    3    0    0  0.24895388723E+02 -0.57908768833E+01  0.26504053219E+02  0.36820910795E+02  0.00000000000E+00 0.  1.
         11    1    4    4    0    0  0.12131684081E+01 -0.35315695780E+01 -0.17768220713E+02  0.18156360561E+02  0.51100000000E-03 0. -1.
        -11    1    4    4    0    0 -0.25959027566E+02  0.78029870578E+01  0.23848167909E+00  0.27107463787E+02  0.51100000000E-03 0.  1.
        -12    1    4    4    0    0 -0.14952956512E+00  0.15194594035E+01 -0.89743141850E+01  0.91032648572E+01  0.00000000000E+00 0.  1.
</event>
<event>
 8    1  0.1253488E-006  0.9118800E+02  0.7816164E-02  0.1184000E+00
        -11   -1    0    0    0    0  0.00000000000E+00  0.00000000000E+00  0.45593999997E+02  0.45594000000E+02  0.51100000000E-03 0. -1.
         11   -1    0    0    0    0 -0.00000000000E+00 -0.00000000000E+00 -0.45593999997E+02  0.45594000000E+02  0.51100000000E-03 0.  1.
         23    2    1    2    0    0  0.00000000000E+00  0.35527136788E-14  0.00000000000E+00  0.91188000000E+02  0.91188000000E+02 0.  0.
    9900012    2    3    3    0    0  0.21330509776E+02 -0.22184583993E+02 -0.20214888589E+02  0.54366971566E+02  0.39999743279E+02 0.  0.
         12    1    3    3    0    0 -0.21330509776E+02  0.22184583993E+02  0.20214888589E+02  0.36821028434E+02  0.00000000000E+00 0. -1.
         11    1    4    4    0    0  0.78198548983E+01  0.60397983999E+00  0.54172727807E+01  0.95321438785E+01  0.51100000000E-03 0. -1.
        -11    1    4    4    0    0  0.70729433168E+01 -0.93166125037E+00  0.34215547804E+01  0.79121145861E+01  0.51100000000E-03 0.  1.
        -12    1    4    4    0    0  0.64377115613E+01 -0.21856902582E+02 -0.29053716150E+02  0.36922713102E+02  0.00000000000E+00 0.  1.
</event>
<event>
 8    1  0.1253488E-006  0.9118800E+02  0.7816164E-02  0.1184000E+00
        -11   -1    0    0    0    0  0.00000000000E+00  0.00000000000E+00  0.45593999997E+02  0.45594000000E+02  0.51100000000E-03 0.  1.
         11   -1    0    0    0    0 -0.00000000000E+00 -0.00000000000E+00 -0.45593999997E+02  0.45594000000E+02  0.51100000000E-03 0. -1.
         23    2    1    2    0    0  0.35527136788E-14 -0.35527136788E-14  0.00000000000E+00  0.91188000000E+02  0.91188000000E+02 0.  0.
    9900012    2    3    3    0    0  0.26741871930E+02  0.21484877215E+02  0.13381059427E+02  0.54367076401E+02  0.39999982272E+02 0.  0.
        -12    1    3    3    0    0 -0.26741871930E+02 -0.21484877215E+02 -0.13381059427E+02  0.36820923599E+02  0.00000000000E+00 0.  1.
         11    1    4    4    0    0  0.18513970251E+01  0.13280556812E+02  0.17240830410E+01  0.13519368431E+02  0.51100000000E-03 0. -1.
        -11    1    4    4    0    0  0.15386604216E+02 -0.80116537852E+01  0.13472324777E+02  0.21964464957E+02  0.51100000000E-03 0.  1.
        -12    1    4    4    0    0  0.95038706888E+01  0.16215974188E+02 -0.18153483905E+01  0.18883243014E+02  0.00000000000E+00 0.  1.
</event>
<event>
 8    1  0.1253488E-006  0.9118800E+02  0.7816164E-02  0.1184000E+00
        -11   -1    0    0    0    0  0.00000000000E+00  0.00000000000E+00  0.45593999997E+02  0.45594000000E+02  0.51100000000E-03 0.  1.
         11   -1    0    0    0    0 -0.00000000000E+00 -0.00000000000E+00 -0.45593999997E+02  0.45594000000E+02  0.51100000000E-03 0. -1.
         23    2    1    2    0    0  0.00000000000E+00  0.00000000000E+00  0.00000000000E+00  0.91188000000E+02  0.91188000000E+02 0.  0.
    9900012    2    3    3    0    0  0.26824204855E+02 -0.14336596458E+02 -0.20753443786E+02  0.54367063115E+02  0.39999951984E+02 0.  0.
        -12    1    3    3    0    0 -0.26824204855E+02  0.14336596458E+02  0.20753443786E+02  0.36820936885E+02  0.00000000000E+00 0.  1.
         11    1    4    4    0    0  0.61327566815E+01 -0.63378930936E+01 -0.21344908907E+02  0.23095123509E+02  0.51100000000E-03 0.  1.
        -11    1    4    4    0    0  0.85583669136E+01  0.36424844258E+01 -0.81090265084E+01  0.12339758839E+02  0.51100000000E-03 0. -1.
        -12    1    4    4    0    0  0.12133081259E+02 -0.11641187790E+02  0.87004916298E+01  0.18932180767E+02  0.00000000000E+00 0.  1.
</event>
<event>
 8    1  0.1253488E-006  0.9118800E+02  0.7816164E-02  0.1184000E+00
        -11   -1    0    0    0    0  0.00000000000E+00  0.00000000000E+00  0.45593999997E+02  0.45594000000E+02  0.51100000000E-03 0. -1.
         11   -1    0    0    0    0 -0.00000000000E+00 -0.00000000000E+00 -0.45593999997E+02  0.45594000000E+02  0.51100000000E-03 0.  1.
         23    2    1    2    0    0  0.00000000000E+00  0.00000000000E+00  0.00000000000E+00  0.91188000000E+02  0.91188000000E+02 0.  0.
    9900012    2    3    3    0    0  0.34460989127E+02 -0.44527302889E+01  0.12181693637E+02  0.54367078793E+02  0.39999987725E+02 0.  0.
        -12    1    3    3    0    0 -0.34460989127E+02  0.44527302889E+01 -0.12181693637E+02  0.36820921207E+02  0.00000000000E+00 0.  1.
         11    1    4    4    0    0  0.12258191561E+02  0.68391918600E+01  0.42255754283E+01  0.14659239189E+02  0.51100000000E-03 0. -1.
        -11    1    4    4    0    0  0.25537297744E+02 -0.10451669299E+02  0.15334136093E+02  0.31567811092E+02  0.51100000000E-03 0.  1.
        -12    1    4    4    0    0 -0.33345001772E+01 -0.84025284991E+00 -0.73780178837E+01  0.81400285120E+01  0.00000000000E+00 0.  1.
</event>
<event>
 8    1  0.1253488E-006  0.9118800E+02  0.7816164E-02  0.1184000E+00
        -11   -1    0    0    0    0  0.00000000000E+00  0.00000000000E+00  0.45593999997E+02  0.45594000000E+02  0.51100000000E-03 0.  1.
         11   -1    0    0    0    0 -0.00000000000E+00 -0.00000000000E+00 -0.45593999997E+02  0.45594000000E+02  0.51100000000E-03 0. -1.
         23    2    1    2    0    0  0.00000000000E+00  0.17763568394E-14  0.88817841970E-15  0.91188000000E+02  0.91188000000E+02 0.  0.
    9900012    2    3    3    0    0  0.34177281807E+02  0.12151221913E+02 -0.63277393771E+01  0.54367094643E+02  0.40000023858E+02 0.  0.
         12    1    3    3    0    0 -0.34177281807E+02 -0.12151221913E+02  0.63277393771E+01  0.36820905357E+02  0.00000000000E+00 0. -1.
         11    1    4    4    0    0  0.27558951266E+02  0.18584299347E+02 -0.10400690393E+02  0.34828814766E+02  0.51100000000E-03 0. -1.
        -11    1    4    4    0    0  0.69953233434E+01  0.22138030001E+01  0.72534004492E+01  0.10317329632E+02  0.51100000000E-03 0.  1.
         12    1    4    4    0    0 -0.37699280265E+00 -0.86468804345E+01 -0.31804494335E+01  0.92209502450E+01  0.00000000000E+00 0. -1.
</event>
<event>
 8    1  0.1253488E-006  0.9118800E+02  0.7816164E-02  0.1184000E+00
        -11   -1    0    0    0    0  0.00000000000E+00  0.00000000000E+00  0.45593999997E+02  0.45594000000E+02  0.51100000000E-03 0. -1.
         11   -1    0    0    0    0 -0.00000000000E+00 -0.00000000000E+00 -0.45593999997E+02  0.45594000000E+02  0.51100000000E-03 0.  1.
         23    2    1    2    0    0  0.00000000000E+00 -0.35527136788E-14  0.35527136788E-14  0.91188000000E+02  0.91188000000E+02 0.  0.
    9900012    2    3    3    0    0 -0.48934034878E+01 -0.24046773656E+02  0.27451520441E+02  0.54367099747E+02  0.40000035493E+02 0.  0.
        -12    1    3    3    0    0  0.48934034878E+01  0.24046773656E+02 -0.27451520441E+02  0.36820900253E+02  0.00000000000E+00 0.  1.
         11    1    4    4    0    0 -0.44940295836E+01 -0.25682676330E+02  0.32368555415E+02  0.41563440008E+02  0.51100000000E-03 0. -1.
        -11    1    4    4    0    0 -0.50844711647E+01 -0.15687058362E+01 -0.41730254353E-01  0.53211302089E+01  0.51100000000E-03 0.  1.
        -12    1    4    4    0    0  0.46850972605E+01  0.32046085110E+01 -0.48753047200E+01  0.74825295296E+01  0.00000000000E+00 0.  1.
</event>
<event>
 8    1  0.1253488E-006  0.9118800E+02  0.7816164E-02  0.1184000E+00
        -11   -1    0    0    0    0  0.00000000000E+00  0.00000000000E+00  0.45593999997E+02  0.45594000000E+02  0.51100000000E-03 0. -1.
         11   -1    0    0    0    0 -0.00000000000E+00 -0.00000000000E+00 -0.45593999997E+02  0.45594000000E+02  0.51100000000E-03 0.  1.
         23    2    1    2    0    0  0.17763568394E-14  0.71054273576E-14 -0.13322676296E-14  0.91188000000E+02  0.91188000000E+02 0.  0.
    9900012    2    3    3    0    0 -0.13664491819E+02 -0.34075102081E+02  0.28193763511E+01  0.54367084728E+02  0.40000001254E+02 0.  0.
        -12    1    3    3    0    0  0.13664491819E+02  0.34075102081E+02 -0.28193763511E+01  0.36820915272E+02  0.00000000000E+00 0.  1.
         11    1    4    4    0    0  0.32484530581E+01 -0.22677759153E+02  0.96449367312E+01  0.24856749833E+02  0.51100000000E-03 0. -1.
        -11    1    4    4    0    0 -0.58767919204E+01 -0.14571017366E+02  0.78968823865E+00  0.15731333006E+02  0.51100000000E-03 0.  1.
        -12    1    4    4    0    0 -0.11036152957E+02  0.31736744385E+01 -0.76152486188E+01  0.13779001889E+02  0.00000000000E+00 0.  1.
</event>
<event>
 8    1  0.1253488E-006  0.9118800E+02  0.7816164E-02  0.1184000E+00
        -11   -1    0    0    0    0  0.00000000000E+00  0.00000000000E+00  0.45593999997E+02  0.45594000000E+02  0.51100000000E-03 0.  1.
         11   -1    0    0    0    0 -0.00000000000E+00 -0.00000000000E+00 -0.45593999997E+02  0.45594000000E+02  0.51100000000E-03 0. -1.
         23    2    1    2    0    0 -0.88817841970E-15  0.71054273576E-14  0.17763568394E-14  0.91188000000E+02  0.91188000000E+02 0.  0.
    9900012    2    3    3    0    0  0.44746371261E+01 -0.35347609213E+02 -0.92899845953E+01  0.54367086537E+02  0.40000005378E+02 0.  0.
        -12    1    3    3    0    0 -0.44746371261E+01  0.35347609213E+02  0.92899845953E+01  0.36820913463E+02  0.00000000000E+00 0.  1.
         11    1    4    4    0    0  0.17429955403E+01 -0.20000142537E+02  0.46349635744E+01  0.20604043840E+02  0.51100000000E-03 0. -1.
        -11    1    4    4    0    0  0.34256637916E+01 -0.21297060182E+02 -0.36612496042E+01  0.21879321144E+02  0.51100000000E-03 0.  1.
        -12    1    4    4    0    0 -0.69402220576E+00  0.59495935059E+01 -0.10263698565E+02  0.11883721553E+02  0.00000000000E+00 0.  1.
</event>
<event>
 8    1  0.1253488E-006  0.9118800E+02  0.7816164E-02  0.1184000E+00
        -11   -1    0    0    0    0  0.00000000000E+00  0.00000000000E+00  0.45593999997E+02  0.45594000000E+02  0.51100000000E-03 0.  1.
         11   -1    0    0    0    0 -0.00000000000E+00 -0.00000000000E+00 -0.45593999997E+02  0.45594000000E+02  0.51100000000E-03 0. -1.
         23    2    1    2    0    0  0.00000000000E+00 -0.35527136788E-14  0.00000000000E+00  0.91188000000E+02  0.91188000000E+02 0.  0.
    9900012    2    3    3    0    0  0.25422753112E+02  0.22202144991E+02 -0.14714400794E+02  0.54367282887E+02  0.40000452995E+02 0.  0.
        -12    1    3    3    0    0 -0.25422753112E+02 -0.22202144991E+02  0.14714400794E+02  0.36820717113E+02  0.00000000000E+00 0.  1.
         11    1    4    4    0    0  0.72074524601E+01  0.11494857839E+02 -0.89899780426E+01  0.16275712985E+02  0.51100000000E-03 0. -1.
        -11    1    4    4    0    0  0.78746358038E+01 -0.96229883137E+01 -0.85761153331E+01  0.15105017299E+02  0.51100000000E-03 0.  1.
        -12    1    4    4    0    0  0.10340664848E+02  0.20330275465E+02  0.28516925814E+01  0.22986552603E+02  0.00000000000E+00 0.  1.
</event>
<event>
 8    1  0.1253488E-006  0.9118800E+02  0.7816164E-02  0.1184000E+00
        -11   -1    0    0    0    0  0.00000000000E+00  0.00000000000E+00  0.45593999997E+02  0.45594000000E+02  0.51100000000E-03 0.  1.
         11   -1    0    0    0    0 -0.00000000000E+00 -0.00000000000E+00 -0.45593999997E+02  0.45594000000E+02  0.51100000000E-03 0. -1.
         23    2    1    2    0    0  0.00000000000E+00 -0.35527136788E-14  0.00000000000E+00  0.91188000000E+02  0.91188000000E+02 0.  0.
    9900012    2    3    3    0    0 -0.16865321405E+02 -0.25399216475E+02 -0.20645302675E+02  0.54366976302E+02  0.39999754075E+02 0.  0.
        -12    1    3    3    0    0  0.16865321405E+02  0.25399216475E+02  0.20645302675E+02  0.36821023698E+02  0.00000000000E+00 0.  1.
         11    1    4    4    0    0 -0.12459030346E+02 -0.56073838781E+01 -0.17153403595E+02  0.21929647655E+02  0.51100000000E-03 0. -1.
        -11    1    4    4    0    0  0.59537692238E+00 -0.22312906131E+02  0.44093233330E+01  0.22752195196E+02  0.51100000000E-03 0.  1.
        -12    1    4    4    0    0 -0.50016679810E+01  0.25210735344E+01 -0.79012224132E+01  0.96851334519E+01  0.00000000000E+00 0.  1.
</event>
<event>
 8    1  0.1253488E-006  0.9118800E+02  0.7816164E-02  0.1184000E+00
        -11   -1    0    0    0    0  0.00000000000E+00  0.00000000000E+00  0.45593999997E+02  0.45594000000E+02  0.51100000000E-03 0.  1.
         11   -1    0    0    0    0 -0.00000000000E+00 -0.00000000000E+00 -0.45593999997E+02  0.45594000000E+02  0.51100000000E-03 0. -1.
         23    2    1    2    0    0  0.00000000000E+00  0.00000000000E+00  0.00000000000E+00  0.91188000000E+02  0.91188000000E+02 0.  0.
    9900012    2    3    3    0    0 -0.34320112122E+02 -0.78342283018E+01  0.10794764558E+02  0.54367188344E+02  0.40000237468E+02 0.  0.
         12    1    3    3    0    0  0.34320112122E+02  0.78342283018E+01 -0.10794764558E+02  0.36820811656E+02  0.00000000000E+00 0. -1.
         11    1    4    4    0    0 -0.66054551930E+01  0.15139297615E+02 -0.78064902610E+00  0.16536014748E+02  0.51100000000E-03 0. -1.
        -11    1    4    4    0    0 -0.64324311437E+01 -0.58190125646E+01  0.31237879671E+01  0.92192802957E+01  0.51100000000E-03 0.  1.
         12    1    4    4    0    0 -0.21282225785E+02 -0.17154513352E+02  0.84516256168E+01  0.28611893301E+02  0.00000000000E+00 0. -1.
</event>
<event>
 8    1  0.1253488E-006  0.9118800E+02  0.7816164E-02  0.1184000E+00
        -11   -1    0    0    0    0  0.00000000000E+00  0.00000000000E+00  0.45593999997E+02  0.45594000000E+02  0.51100000000E-03 0.  1.
         11   -1    0    0    0    0 -0.00000000000E+00 -0.00000000000E+00 -0.45593999997E+02  0.45594000000E+02  0.51100000000E-03 0. -1.
         23    2    1    2    0    0  0.00000000000E+00  0.00000000000E+00  0.00000000000E+00  0.91188000000E+02  0.91188000000E+02 0.  0.
    9900012    2    3    3    0    0  0.83294725387E+01  0.22953298762E+02 -0.27559877876E+02  0.54367069738E+02  0.39999967082E+02 0.  0.
        -12    1    3    3    0    0 -0.83294725387E+01 -0.22953298762E+02  0.27559877876E+02  0.36820930262E+02  0.00000000000E+00 0.  1.
         11    1    4    4    0    0  0.10504542894E+02  0.81028648985E+01 -0.91579867470E+01  0.16120501310E+02  0.51100000000E-03 0. -1.
        -11    1    4    4    0    0 -0.14347758660E+02  0.63885135849E+01 -0.15197264958E+01  0.15779127139E+02  0.51100000000E-03 0.  1.
        -12    1    4    4    0    0  0.12172688304E+02  0.84619202784E+01 -0.16882164633E+02  0.22467441289E+02  0.00000000000E+00 0.  1.
</event>
<event>
 8    1  0.1253488E-006  0.9118800E+02  0.7816164E-02  0.1184000E+00
        -11   -1    0    0    0    0  0.00000000000E+00  0.00000000000E+00  0.45593999997E+02  0.45594000000E+02  0.51100000000E-03 0. -1.
         11   -1    0    0    0    0 -0.00000000000E+00 -0.00000000000E+00 -0.45593999997E+02  0.45594000000E+02  0.51100000000E-03 0.  1.
         23    2    1    2    0    0 -0.17763568394E-14  0.35527136788E-14  0.00000000000E+00  0.91188000000E+02  0.91188000000E+02 0.  0.
    9900012    2    3    3    0    0 -0.13722784472E+02 -0.26098982601E+02 -0.22052415343E+02  0.54367072134E+02  0.39999972544E+02 0.  0.
         12    1    3    3    0    0  0.13722784472E+02  0.26098982601E+02  0.22052415343E+02  0.36820927866E+02  0.00000000000E+00 0. -1.
         11    1    4    4    0    0 -0.99118495619E+00  0.42752318684E+01 -0.81144744538E-01  0.43893780740E+01  0.51100000000E-03 0. -1.
        -11    1    4    4    0    0 -0.64359747464E+01 -0.29080966825E+02 -0.28207912885E+02  0.41022076398E+02  0.51100000000E-03 0.  1.
         12    1    4    4    0    0 -0.62956247693E+01 -0.12932476447E+01  0.62366422867E+01  0.89556176626E+01  0.00000000000E+00 0. -1.
</event>
<event>
 8    1  0.1253488E-006  0.9118800E+02  0.7816164E-02  0.1184000E+00
        -11   -1    0    0    0    0  0.00000000000E+00  0.00000000000E+00  0.45593999997E+02  0.45594000000E+02  0.51100000000E-03 0. -1.
         11   -1    0    0    0    0 -0.00000000000E+00 -0.00000000000E+00 -0.45593999997E+02  0.45594000000E+02  0.51100000000E-03 0.  1.
         23    2    1    2    0    0 -0.17763568394E-14 -0.35527136788E-14  0.00000000000E+00  0.91188000000E+02  0.91188000000E+02 0.  0.
    9900012    2    3    3    0    0 -0.79552580521E+01 -0.28516339026E+02 -0.21893191586E+02  0.54367088007E+02  0.40000008730E+02 0.  0.
         12    1    3    3    0    0  0.79552580521E+01  0.28516339026E+02  0.21893191586E+02  0.36820911993E+02  0.00000000000E+00 0. -1.
         11    1    4    4    0    0  0.38676962229E+01 -0.26232715341E+02 -0.16846284084E+02  0.31415151057E+02  0.51100000000E-03 0. -1.
        -11    1    4    4    0    0 -0.30071567342E+01 -0.99798009399E+01 -0.41372034139E+01  0.11214092508E+02  0.51100000000E-03 0.  1.
         12    1    4    4    0    0 -0.88157975408E+01  0.76961772549E+01 -0.90970408821E+00  0.11737844442E+02  0.00000000000E+00 0. -1.
</event>
<event>
 8    1  0.1253488E-006  0.9118800E+02  0.7816164E-02  0.1184000E+00
        -11   -1    0    0    0    0  0.00000000000E+00  0.00000000000E+00  0.45593999997E+02  0.45594000000E+02  0.51100000000E-03 0. -1.
         11   -1    0    0    0    0 -0.00000000000E+00 -0.00000000000E+00 -0.45593999997E+02  0.45594000000E+02  0.51100000000E-03 0.  1.
         23    2    1    2    0    0  0.00000000000E+00  0.00000000000E+00  0.00000000000E+00  0.91188000000E+02  0.91188000000E+02 0.  0.
    9900012    2    3    3    0    0  0.13876414771E+02  0.21723562149E+01  0.34036831477E+02  0.54367083180E+02  0.39999997726E+02 0.  0.
        -12    1    3    3    0    0 -0.13876414771E+02 -0.21723562149E+01 -0.34036831477E+02  0.36820916820E+02  0.00000000000E+00 0.  1.
         11    1    4    4    0    0 -0.67192023451E+01  0.37701810855E+01 -0.17820469978E+00  0.77067310027E+01  0.51100000000E-03 0. -1.
        -11    1    4    4    0    0  0.26099519683E+02 -0.67496038048E+00  0.29019326466E+02  0.39035391736E+02  0.51100000000E-03 0.  1.
        -12    1    4    4    0    0 -0.55039025669E+01 -0.92286449011E+00  0.51957097113E+01  0.76249604417E+01  0.00000000000E+00 0.  1.
</event>
<event>
 8    1  0.1253488E-006  0.9118800E+02  0.7816164E-02  0.1184000E+00
        -11   -1    0    0    0    0  0.00000000000E+00  0.00000000000E+00  0.45593999997E+02  0.45594000000E+02  0.51100000000E-03 0. -1.
         11   -1    0    0    0    0 -0.00000000000E+00 -0.00000000000E+00 -0.45593999997E+02  0.45594000000E+02  0.51100000000E-03 0.  1.
         23    2    1    2    0    0  0.00000000000E+00  0.00000000000E+00 -0.35527136788E-14  0.91188000000E+02  0.91188000000E+02 0.  0.
    9900012    2    3    3    0    0 -0.21560506291E+02 -0.18374178798E+02  0.23522647121E+02  0.54367071092E+02  0.39999970170E+02 0.  0.
        -12    1    3    3    0    0  0.21560506291E+02  0.18374178798E+02 -0.23522647121E+02  0.36820928908E+02  0.00000000000E+00 0.  1.
         11    1    4    4    0    0  0.10160043301E+01  0.49512626244E+01  0.65257432920E+01  0.82542469159E+01  0.51100000000E-03 0. -1.
        -11    1    4    4    0    0 -0.28005449941E+01 -0.20731238723E+01 -0.74084618539E+01  0.81869531668E+01  0.51100000000E-03 0.  1.
        -12    1    4    4    0    0 -0.19775965627E+02 -0.21252317550E+02  0.24405365683E+02  0.37925871010E+02  0.00000000000E+00 0.  1.
</event>
<event>
 8    1  0.1253488E-006  0.9118800E+02  0.7816164E-02  0.1184000E+00
        -11   -1    0    0    0    0  0.00000000000E+00  0.00000000000E+00  0.45593999997E+02  0.45594000000E+02  0.51100000000E-03 0. -1.
         11   -1    0    0    0    0 -0.00000000000E+00 -0.00000000000E+00 -0.45593999997E+02  0.45594000000E+02  0.51100000000E-03 0.  1.
         23    2    1    2    0    0  0.00000000000E+00 -0.35527136788E-14  0.00000000000E+00  0.91188000000E+02  0.91188000000E+02 0.  0.
    9900012    2    3    3    0    0  0.19380475494E+02 -0.18099864504E+02  0.25545394276E+02  0.54367148650E+02  0.40000146977E+02 0.  0.
        -12    1    3    3    0    0 -0.19380475494E+02  0.18099864504E+02 -0.25545394276E+02  0.36820851350E+02  0.00000000000E+00 0.  1.
         11    1    4    4    0    0 -0.43412034995E+01 -0.99550807040E+01  0.31608553068E+01  0.11311086870E+02  0.51100000000E-03 0.  1.
        -11    1    4    4    0    0  0.26686056926E+02 -0.13836340849E+00  0.11092973474E+02  0.28900152931E+02  0.51100000000E-03 0. -1.
         12    1    4    4    0    0 -0.29643779319E+01 -0.80064203914E+01  0.11291565495E+02  0.14155908849E+02  0.00000000000E+00 0. -1.
</event>
<event>
 8    1  0.1253488E-006  0.9118800E+02  0.7816164E-02  0.1184000E+00
        -11   -1    0    0    0    0  0.00000000000E+00  0.00000000000E+00  0.45593999997E+02  0.45594000000E+02  0.51100000000E-03 0.  1.
         11   -1    0    0    0    0 -0.00000000000E+00 -0.00000000000E+00 -0.45593999997E+02  0.45594000000E+02  0.51100000000E-03 0. -1.
         23    2    1    2    0    0  0.71054273576E-14  0.00000000000E+00  0.17763568394E-14  0.91188000000E+02  0.91188000000E+02 0.  0.
    9900012    2    3    3    0    0 -0.34070894392E+02  0.10319321466E+02 -0.94057203097E+01  0.54367057390E+02  0.39999938931E+02 0.  0.
        -12    1    3    3    0    0  0.34070894392E+02 -0.10319321466E+02  0.94057203097E+01  0.36820942610E+02  0.00000000000E+00 0.  1.
         11    1    4    4    0    0 -0.27145413361E+02  0.12541333153E+02 -0.56287376461E+01  0.30427638613E+02  0.51100000000E-03 0. -1.
        -11    1    4    4    0    0  0.58373249424E+00  0.53411643892E+01  0.69721503718E+01  0.88022532187E+01  0.51100000000E-03 0.  1.
        -12    1    4    4    0    0 -0.75092135248E+01 -0.75631760762E+01 -0.10749133035E+02  0.15137165558E+02  0.00000000000E+00 0.  1.
</event>
<event>
 8    1  0.1253488E-006  0.9118800E+02  0.7816164E-02  0.1184000E+00
        -11   -1    0    0    0    0  0.00000000000E+00  0.00000000000E+00  0.45593999997E+02  0.45594000000E+02  0.51100000000E-03 0.  1.
         11   -1    0    0    0    0 -0.00000000000E+00 -0.00000000000E+00 -0.45593999997E+02  0.45594000000E+02  0.51100000000E-03 0. -1.
         23    2    1    2    0    0 -0.17763568394E-14 -0.17763568394E-14  0.00000000000E+00  0.91188000000E+02  0.91188000000E+02 0.  0.
    9900012    2    3    3    0    0  0.84841079276E+01 -0.11586976134E+02  0.33904901651E+02  0.54367075796E+02  0.39999980892E+02 0.  0.
         12    1    3    3    0    0 -0.84841079276E+01  0.11586976134E+02 -0.33904901651E+02  0.36820924204E+02  0.00000000000E+00 0. -1.
         11    1    4    4    0    0 -0.11759946587E+01  0.84990412845E+00 -0.57608356814E+01  0.59407515075E+01  0.51100000000E-03 0. -1.
        -11    1    4    4    0    0 -0.45444063856E+01 -0.12445098024E+02  0.22859549786E+02  0.26421413871E+02  0.51100000000E-03 0.  1.
        -12    1    4    4    0    0  0.14204508972E+02  0.82177617868E-02  0.16806187546E+02  0.22004910418E+02  0.00000000000E+00 0.  1.
</event>
<event>
 8    1  0.1253488E-006  0.9118800E+02  0.7816164E-02  0.1184000E+00
        -11   -1    0    0    0    0  0.00000000000E+00  0.00000000000E+00  0.45593999997E+02  0.45594000000E+02  0.51100000000E-03 0.  1.
         11   -1    0    0    0    0 -0.00000000000E+00 -0.00000000000E+00 -0.45593999997E+02  0.45594000000E+02  0.51100000000E-03 0. -1.
         23    2    1    2    0    0  0.00000000000E+00  0.00000000000E+00  0.00000000000E+00  0.91188000000E+02  0.91188000000E+02 0.  0.
    9900012    2    3    3    0    0 -0.20283045073E+02  0.14265547267E+02  0.27218977597E+02  0.54367075274E+02  0.39999979701E+02 0.  0.
         12    1    3    3    0    0  0.20283045073E+02 -0.14265547267E+02 -0.27218977597E+02  0.36820924726E+02  0.00000000000E+00 0. -1.
         11    1    4    4    0    0 -0.12077416469E+02  0.16296999344E+02  0.22920523326E+02  0.30607295960E+02  0.51100000000E-03 0. -1.
        -11    1    4    4    0    0 -0.51892417004E+01  0.90473061950E+01  0.61819184531E+01  0.12124277085E+02  0.51100000000E-03 0.  1.
         12    1    4    4    0    0 -0.30163869038E+01 -0.11078758271E+02 -0.18834641818E+01  0.11635502229E+02  0.00000000000E+00 0. -1.
</event>
<event>
 8    1  0.1253488E-006  0.9118800E+02  0.7816164E-02  0.1184000E+00
        -11   -1    0    0    0    0  0.00000000000E+00  0.00000000000E+00  0.45593999997E+02  0.45594000000E+02  0.51100000000E-03 0. -1.
         11   -1    0    0    0    0 -0.00000000000E+00 -0.00000000000E+00 -0.45593999997E+02  0.45594000000E+02  0.51100000000E-03 0.  1.
         23    2    1    2    0    0 -0.53290705182E-14 -0.35527136788E-14 -0.35527136788E-14  0.91188000000E+02  0.91188000000E+02 0.  0.
    9900012    2    3    3    0    0 -0.12765075746E+02  0.28825985556E+02 -0.19023529064E+02  0.54367092079E+02  0.40000018013E+02 0.  0.
         12    1    3    3    0    0  0.12765075746E+02 -0.28825985556E+02  0.19023529064E+02  0.36820907921E+02  0.00000000000E+00 0. -1.
         11    1    4    4    0    0  0.64385282987E+01 -0.34143905653E+01  0.30683427063E+00  0.72943030590E+01  0.51100000000E-03 0. -1.
        -11    1    4    4    0    0 -0.34352687796E+01  0.12062958592E+02 -0.17322025232E+02  0.21386177778E+02  0.51100000000E-03 0.  1.
         12    1    4    4    0    0 -0.15768335265E+02  0.20177417529E+02 -0.20083381032E+01  0.25686611242E+02  0.00000000000E+00 0. -1.
</event>
<event>
 8    1  0.1253488E-006  0.9118800E+02  0.7816164E-02  0.1184000E+00
        -11   -1    0    0    0    0  0.00000000000E+00  0.00000000000E+00  0.45593999997E+02  0.45594000000E+02  0.51100000000E-03 0.  1.
         11   -1    0    0    0    0 -0.00000000000E+00 -0.00000000000E+00 -0.45593999997E+02  0.45594000000E+02  0.51100000000E-03 0. -1.
         23    2    1    2    0    0 -0.88817841970E-15  0.00000000000E+00  0.35527136788E-14  0.91188000000E+02  0.91188000000E+02 0.  0.
    9900012    2    3    3    0    0  0.66710167355E+01 -0.20533020762E+02  0.29827357522E+02  0.54367100192E+02  0.40000036508E+02 0.  0.
         12    1    3    3    0    0 -0.66710167355E+01  0.20533020762E+02 -0.29827357522E+02  0.36820899808E+02  0.00000000000E+00 0. -1.
         11    1    4    4    0    0  0.84269318893E+01 -0.21557704916E+01  0.10809952284E+02  0.13874998959E+02  0.51100000000E-03 0. -1.
        -11    1    4    4    0    0 -0.36258782633E+01  0.23860024282E+01  0.19158805763E+02  0.19644333516E+02  0.51100000000E-03 0.  1.
        -12    1    4    4    0    0  0.18699631095E+01 -0.20763252699E+02 -0.14140052462E+00  0.20847767717E+02  0.00000000000E+00 0.  1.
</event>
<event>
 8    1  0.1253488E-006  0.9118800E+02  0.7816164E-02  0.1184000E+00
        -11   -1    0    0    0    0  0.00000000000E+00  0.00000000000E+00  0.45593999997E+02  0.45594000000E+02  0.51100000000E-03 0. -1.
         11   -1    0    0    0    0 -0.00000000000E+00 -0.00000000000E+00 -0.45593999997E+02  0.45594000000E+02  0.51100000000E-03 0.  1.
         23    2    1    2    0    0  0.00000000000E+00  0.17763568394E-14  0.71054273576E-14  0.91188000000E+02  0.91188000000E+02 0.  0.
    9900012    2    3    3    0    0  0.10211180754E+02 -0.14277195294E+02 -0.32367795564E+02  0.54367072425E+02  0.39999973207E+02 0.  0.
        -12    1    3    3    0    0 -0.10211180754E+02  0.14277195294E+02  0.32367795564E+02  0.36820927575E+02  0.00000000000E+00 0.  1.
         11    1    4    4    0    0 -0.95135046064E+00 -0.23235023693E+02 -0.12507570372E+02  0.26404747880E+02  0.51100000000E-03 0. -1.
        -11    1    4    4    0    0  0.23411264829E+01 -0.36217414163E+01 -0.40434615115E+01  0.59116381276E+01  0.51100000000E-03 0.  1.
        -12    1    4    4    0    0  0.88214047318E+01  0.12579569815E+02 -0.15816763680E+02  0.22050686417E+02  0.00000000000E+00 0.  1.
</event>
<event>
 8    1  0.1253488E-006  0.9118800E+02  0.7816164E-02  0.1184000E+00
        -11   -1    0    0    0    0  0.00000000000E+00  0.00000000000E+00  0.45593999997E+02  0.45594000000E+02  0.51100000000E-03 0. -1.
         11   -1    0    0    0    0 -0.00000000000E+00 -0.00000000000E+00 -0.45593999997E+02  0.45594000000E+02  0.51100000000E-03 0.  1.
         23    2    1    2    0    0  0.00000000000E+00  0.66613381478E-15  0.00000000000E+00  0.91188000000E+02  0.91188000000E+02 0.  0.
    9900012    2    3    3    0    0 -0.22579248870E+02 -0.57353576138E+00 -0.29079688251E+02  0.54367086221E+02  0.40000004657E+02 0.  0.
         12    1    3    3    0    0  0.22579248870E+02  0.57353576138E+00  0.29079688251E+02  0.36820913779E+02  0.00000000000E+00 0. -1.
         11    1    4    4    0    0 -0.33833737677E+01 -0.12585949739E+01  0.32659200707E+01  0.48680091958E+01  0.51100000000E-03 0. -1.
        -11    1    4    4    0    0 -0.70666555594E+00  0.13769265510E+02 -0.18054680531E+02  0.22717031898E+02  0.51100000000E-03 0.  1.
         12    1    4    4    0    0 -0.18489209546E+02 -0.13084206298E+02 -0.14290927790E+02  0.26782045127E+02  0.00000000000E+00 0. -1.
</event>
<event>
 8    1  0.1253488E-006  0.9118800E+02  0.7816164E-02  0.1184000E+00
        -11   -1    0    0    0    0  0.00000000000E+00  0.00000000000E+00  0.45593999997E+02  0.45594000000E+02  0.51100000000E-03 0. -1.
         11   -1    0    0    0    0 -0.00000000000E+00 -0.00000000000E+00 -0.45593999997E+02  0.45594000000E+02  0.51100000000E-03 0.  1.
         23    2    1    2    0    0 -0.88817841970E-15  0.00000000000E+00  0.00000000000E+00  0.91188000000E+02  0.91188000000E+02 0.  0.
    9900012    2    3    3    0    0  0.24872778477E+01  0.13392666470E+02  0.34208618054E+02  0.54367087254E+02  0.40000007013E+02 0.  0.
        -12    1    3    3    0    0 -0.24872778477E+01 -0.13392666470E+02 -0.34208618054E+02  0.36820912746E+02  0.00000000000E+00 0.  1.
         11    1    4    4    0    0  0.13931956464E+02  0.18554203547E+02  0.14066991304E+02  0.27133708275E+02  0.51100000000E-03 0. -1.
        -11    1    4    4    0    0 -0.38036850298E+01  0.44326488398E+01  0.45987861123E+01  0.74340587508E+01  0.51100000000E-03 0.  1.
         12    1    4    4    0    0 -0.76409935867E+01 -0.95941859163E+01  0.15542840638E+02  0.19799320228E+02  0.00000000000E+00 0. -1.
</event>
<event>
 8    1  0.1253488E-006  0.9118800E+02  0.7816164E-02  0.1184000E+00
        -11   -1    0    0    0    0  0.00000000000E+00  0.00000000000E+00  0.45593999997E+02  0.45594000000E+02  0.51100000000E-03 0.  1.
         11   -1    0    0    0    0 -0.00000000000E+00 -0.00000000000E+00 -0.45593999997E+02  0.45594000000E+02  0.51100000000E-03 0. -1.
         23    2    1    2    0    0  0.17763568394E-14  0.35527136788E-14  0.00000000000E+00  0.91188000000E+02  0.91188000000E+02 0.  0.
    9900012    2    3    3    0    0  0.13981874726E+02 -0.23840981992E+02  0.24328864590E+02  0.54367097031E+02  0.40000029302E+02 0.  0.
         12    1    3    3    0    0 -0.13981874726E+02  0.23840981992E+02 -0.24328864590E+02  0.36820902969E+02  0.00000000000E+00 0. -1.
         11    1    4    4    0    0  0.14860509313E+02 -0.43201634652E+01 -0.15852616027E+01  0.15556722149E+02  0.51100000000E-03 0. -1.
        -11    1    4    4    0    0  0.72778610025E+01 -0.17328347042E+02  0.11296961651E+02  0.21928525139E+02  0.51100000000E-03 0.  1.
         12    1    4    4    0    0 -0.81564955892E+01 -0.21924714851E+01  0.14617164541E+02  0.16881849743E+02  0.00000000000E+00 0. -1.
</event>
<event>
 8    1  0.1253488E-006  0.9118800E+02  0.7816164E-02  0.1184000E+00
        -11   -1    0    0    0    0  0.00000000000E+00  0.00000000000E+00  0.45593999997E+02  0.45594000000E+02  0.51100000000E-03 0.  1.
         11   -1    0    0    0    0 -0.00000000000E+00 -0.00000000000E+00 -0.45593999997E+02  0.45594000000E+02  0.51100000000E-03 0. -1.
         23    2    1    2    0    0 -0.35527136788E-14  0.00000000000E+00  0.00000000000E+00  0.91188000000E+02  0.91188000000E+02 0.  0.
    9900012    2    3    3    0    0 -0.18540026121E+02  0.27204392093E+02  0.16491421870E+02  0.54367102224E+02  0.40000041141E+02 0.  0.
         12    1    3    3    0    0  0.18540026121E+02 -0.27204392093E+02 -0.16491421870E+02  0.36820897776E+02  0.00000000000E+00 0. -1.
         11    1    4    4    0    0  0.65839746772E+01 -0.35917965674E+01 -0.42136488090E+01  0.86025904051E+01  0.51100000000E-03 0. -1.
        -11    1    4    4    0    0 -0.33715716341E+01  0.10472807830E+02  0.46810324805E+01  0.11956557384E+02  0.51100000000E-03 0.  1.
         12    1    4    4    0    0 -0.21752429164E+02  0.20323380831E+02  0.16024038198E+02  0.33807954436E+02  0.00000000000E+00 0. -1.
</event>
<event>
 8    1  0.1253488E-006  0.9118800E+02  0.7816164E-02  0.1184000E+00
        -11   -1    0    0    0    0  0.00000000000E+00  0.00000000000E+00  0.45593999997E+02  0.45594000000E+02  0.51100000000E-03 0.  1.
         11   -1    0    0    0    0 -0.00000000000E+00 -0.00000000000E+00 -0.45593999997E+02  0.45594000000E+02  0.51100000000E-03 0. -1.
         23    2    1    2    0    0 -0.44408920985E-15  0.00000000000E+00 -0.71054273576E-14  0.91188000000E+02  0.91188000000E+02 0.  0.
    9900012    2    3    3    0    0  0.11733635220E+01 -0.28484186393E+02  0.23303522786E+02  0.54367084332E+02  0.40000000351E+02 0.  0.
         12    1    3    3    0    0 -0.11733635220E+01  0.28484186393E+02 -0.23303522786E+02  0.36820915668E+02  0.00000000000E+00 0. -1.
         11    1    4    4    0    0 -0.56636688600E+01 -0.15850402572E+02 -0.74149638856E+01  0.18392772938E+02  0.51100000000E-03 0. -1.
        -11    1    4    4    0    0 -0.17117615494E+01  0.14376255261E+01  0.31300032076E+01  0.38462728837E+01  0.51100000000E-03 0.  1.
        -12    1    4    4    0    0  0.85487939314E+01 -0.14071409347E+02  0.27588483464E+02  0.32128038510E+02  0.00000000000E+00 0.  1.
</event>
<event>
 8    1  0.1253488E-006  0.9118800E+02  0.7816164E-02  0.1184000E+00
        -11   -1    0    0    0    0  0.00000000000E+00  0.00000000000E+00  0.45593999997E+02  0.45594000000E+02  0.51100000000E-03 0. -1.
         11   -1    0    0    0    0 -0.00000000000E+00 -0.00000000000E+00 -0.45593999997E+02  0.45594000000E+02  0.51100000000E-03 0.  1.
         23    2    1    2    0    0  0.35527136788E-14  0.00000000000E+00  0.00000000000E+00  0.91188000000E+02  0.91188000000E+02 0.  0.
    9900012    2    3    3    0    0 -0.22528267825E+02  0.14813271219E+02  0.25076353037E+02  0.54367091035E+02  0.40000015632E+02 0.  0.
        -12    1    3    3    0    0  0.22528267825E+02 -0.14813271219E+02 -0.25076353037E+02  0.36820908965E+02  0.00000000000E+00 0.  1.
         11    1    4    4    0    0 -0.93088473197E+01  0.26148511489E+02  0.21148006291E+02  0.34894662369E+02  0.51100000000E-03 0. -1.
        -11    1    4    4    0    0 -0.11599813998E+01 -0.31510513134E+01 -0.18035220348E+01  0.38114791380E+01  0.51100000000E-03 0.  1.
         12    1    4    4    0    0 -0.12059439105E+02 -0.81841889559E+01  0.57318687808E+01  0.15660949528E+02  0.00000000000E+00 0. -1.
</event>
<event>
 8    1  0.1253488E-006  0.9118800E+02  0.7816164E-02  0.1184000E+00
        -11   -1    0    0    0    0  0.00000000000E+00  0.00000000000E+00  0.45593999997E+02  0.45594000000E+02  0.51100000000E-03 0. -1.
         11   -1    0    0    0    0 -0.00000000000E+00 -0.00000000000E+00 -0.45593999997E+02  0.45594000000E+02  0.51100000000E-03 0.  1.
         23    2    1    2    0    0  0.00000000000E+00 -0.35527136788E-14  0.17763568394E-14  0.91188000000E+02  0.91188000000E+02 0.  0.
    9900012    2    3    3    0    0 -0.16387733174E+02 -0.29313802513E+02  0.15097088844E+02  0.54367096862E+02  0.40000028917E+02 0.  0.
        -12    1    3    3    0    0  0.16387733174E+02  0.29313802513E+02 -0.15097088844E+02  0.36820903138E+02  0.00000000000E+00 0.  1.
         11    1    4    4    0    0 -0.15152491405E+02 -0.43767420492E+01  0.18333548391E+01  0.15878131407E+02  0.51100000000E-03 0. -1.
        -11    1    4    4    0    0  0.65836883960E+01 -0.17002095984E+02 -0.32990701732E+01  0.18528358940E+02  0.51100000000E-03 0.  1.
         12    1    4    4    0    0 -0.78189301644E+01 -0.79349644791E+01  0.16562804178E+02  0.19960606515E+02  0.00000000000E+00 0. -1.
</event>
<event>
 8    1  0.1253488E-006  0.9118800E+02  0.7816164E-02  0.1184000E+00
        -11   -1    0    0    0    0  0.00000000000E+00  0.00000000000E+00  0.45593999997E+02  0.45594000000E+02  0.51100000000E-03 0.  1.
         11   -1    0    0    0    0 -0.00000000000E+00 -0.00000000000E+00 -0.45593999997E+02  0.45594000000E+02  0.51100000000E-03 0. -1.
         23    2    1    2    0    0  0.17763568394E-14  0.00000000000E+00  0.00000000000E+00  0.91188000000E+02  0.91188000000E+02 0.  0.
    9900012    2    3    3    0    0  0.90196793825E+01 -0.68803619916E+01 -0.35029773493E+02  0.54367095227E+02  0.40000025189E+02 0.  0.
        -12    1    3    3    0    0 -0.90196793825E+01  0.68803619916E+01  0.35029773493E+02  0.36820904773E+02  0.00000000000E+00 0.  1.
         11    1    4    4    0    0  0.57773507717E+01  0.11507263127E+01 -0.12272803229E+02  0.13613363006E+02  0.51100000000E-03 0. -1.
        -11    1    4    4    0    0 -0.82892638026E+01 -0.17070039552E+02 -0.14908016257E+02  0.24131868840E+02  0.51100000000E-03 0.  1.
        -12    1    4    4    0    0  0.11531592413E+02  0.90389512480E+01 -0.78489540071E+01  0.16621863381E+02  0.00000000000E+00 0.  1.
</event>
<event>
 8    1  0.1253488E-006  0.9118800E+02  0.7816164E-02  0.1184000E+00
        -11   -1    0    0    0    0  0.00000000000E+00  0.00000000000E+00  0.45593999997E+02  0.45594000000E+02  0.51100000000E-03 0.  1.
         11   -1    0    0    0    0 -0.00000000000E+00 -0.00000000000E+00 -0.45593999997E+02  0.45594000000E+02  0.51100000000E-03 0. -1.
         23    2    1    2    0    0 -0.35527136788E-14  0.00000000000E+00 -0.35527136788E-14  0.91188000000E+02  0.91188000000E+02 0.  0.
    9900012    2    3    3    0    0  0.23790205324E+02 -0.93355283189E+01 -0.26507602018E+02  0.54367096656E+02  0.40000028446E+02 0.  0.
        -12    1    3    3    0    0 -0.23790205324E+02  0.93355283189E+01  0.26507602018E+02  0.36820903344E+02  0.00000000000E+00 0.  1.
         11    1    4    4    0    0  0.16335712795E+02 -0.35877163257E+01 -0.80251554485E+01  0.18550750422E+02  0.51100000000E-03 0. -1.
        -11    1    4    4    0    0  0.14002309740E+02  0.58127788913E+01 -0.30715132368E+01  0.15468913030E+02  0.51100000000E-03 0.  1.
         12    1    4    4    0    0 -0.65478172115E+01 -0.11560590885E+02 -0.15410933332E+02  0.20347433204E+02  0.00000000000E+00 0. -1.
</event>
<event>
 8    1  0.1253488E-006  0.9118800E+02  0.7816164E-02  0.1184000E+00
        -11   -1    0    0    0    0  0.00000000000E+00  0.00000000000E+00  0.45593999997E+02  0.45594000000E+02  0.51100000000E-03 0.  1.
         11   -1    0    0    0    0 -0.00000000000E+00 -0.00000000000E+00 -0.45593999997E+02  0.45594000000E+02  0.51100000000E-03 0. -1.
         23    2    1    2    0    0  0.88817841970E-15  0.71054273576E-14  0.00000000000E+00  0.91188000000E+02  0.91188000000E+02 0.  0.
    9900012    2    3    3    0    0 -0.43285903619E+01  0.34586676876E+02  0.11866135686E+02  0.54367080837E+02  0.39999992385E+02 0.  0.
         12    1    3    3    0    0  0.43285903619E+01 -0.34586676876E+02 -0.11866135686E+02  0.36820919163E+02  0.00000000000E+00 0. -1.
         11    1    4    4    0    0 -0.13590523290E+02  0.66592247443E+01  0.11954870035E+02  0.19286433452E+02  0.51100000000E-03 0. -1.
        -11    1    4    4    0    0  0.59576722642E+01  0.24554930892E+01 -0.59102432233E+01  0.87438138325E+01  0.51100000000E-03 0.  1.
        -12    1    4    4    0    0  0.33042606638E+01  0.25471959043E+02  0.58215088739E+01  0.26336833553E+02  0.00000000000E+00 0.  1.
</event>
<event>
 8    1  0.1253488E-006  0.9118800E+02  0.7816164E-02  0.1184000E+00
        -11   -1    0    0    0    0  0.00000000000E+00  0.00000000000E+00  0.45593999997E+02  0.45594000000E+02  0.51100000000E-03 0.  1.
         11   -1    0    0    0    0 -0.00000000000E+00 -0.00000000000E+00 -0.45593999997E+02  0.45594000000E+02  0.51100000000E-03 0. -1.
         23    2    1    2    0    0  0.00000000000E+00  0.00000000000E+00 -0.53290705182E-14  0.91188000000E+02  0.91188000000E+02 0.  0.
    9900012    2    3    3    0    0 -0.33002060075E+02  0.54264224978E+01  0.15401329754E+02  0.54367041451E+02  0.39999902595E+02 0.  0.
         12    1    3    3    0    0  0.33002060075E+02 -0.54264224978E+01 -0.15401329754E+02  0.36820958549E+02  0.00000000000E+00 0. -1.
         11    1    4    4    0    0 -0.45884080663E+01 -0.10648291136E+01  0.16716128787E+02  0.17367104293E+02  0.51100000000E-03 0. -1.
        -11    1    4    4    0    0 -0.27266914929E+02 -0.81614789099E+00 -0.64049025470E+01  0.28020947950E+02  0.51100000000E-03 0.  1.
        -12    1    4    4    0    0 -0.11467370799E+01  0.73073995024E+01  0.50901035139E+01  0.89789892082E+01  0.00000000000E+00 0.  1.
</event>
<event>
 8    1  0.1253488E-006  0.9118800E+02  0.7816164E-02  0.1184000E+00
        -11   -1    0    0    0    0  0.00000000000E+00  0.00000000000E+00  0.45593999997E+02  0.45594000000E+02  0.51100000000E-03 0.  1.
         11   -1    0    0    0    0 -0.00000000000E+00 -0.00000000000E+00 -0.45593999997E+02  0.45594000000E+02  0.51100000000E-03 0. -1.
         23    2    1    2    0    0  0.00000000000E+00  0.00000000000E+00  0.35527136788E-14  0.91188000000E+02  0.91188000000E+02 0.  0.
    9900012    2    3    3    0    0 -0.24289651507E+02  0.10527760533E+02  0.25592151524E+02  0.54367093821E+02  0.40000021984E+02 0.  0.
         12    1    3    3    0    0  0.24289651507E+02 -0.10527760533E+02 -0.25592151524E+02  0.36820906179E+02  0.00000000000E+00 0. -1.
         11    1    4    4    0    0  0.20484838611E+01 -0.37872758612E+01  0.13127852784E+02  0.13815942370E+02  0.51100000000E-03 0. -1.
        -11    1    4    4    0    0 -0.12115616542E+02 -0.51871335203E+01  0.94697356809E+01  0.16228691028E+02  0.51100000000E-03 0.  1.
         12    1    4    4    0    0 -0.14222518826E+02  0.19502169914E+02  0.29945630590E+01  0.24322460423E+02  0.00000000000E+00 0. -1.
</event>
<event>
 8    1  0.1253488E-006  0.9118800E+02  0.7816164E-02  0.1184000E+00
        -11   -1    0    0    0    0  0.00000000000E+00  0.00000000000E+00  0.45593999997E+02  0.45594000000E+02  0.51100000000E-03 0.  1.
         11   -1    0    0    0    0 -0.00000000000E+00 -0.00000000000E+00 -0.45593999997E+02  0.45594000000E+02  0.51100000000E-03 0. -1.
         23    2    1    2    0    0  0.00000000000E+00  0.88817841970E-15  0.00000000000E+00  0.91188000000E+02  0.91188000000E+02 0.  0.
    9900012    2    3    3    0    0 -0.85565877783E+01  0.75135977801E+01 -0.35015857786E+02  0.54367086887E+02  0.40000006176E+02 0.  0.
        -12    1    3    3    0    0  0.85565877783E+01 -0.75135977801E+01  0.35015857786E+02  0.36820913113E+02  0.00000000000E+00 0.  1.
         11    1    4    4    0    0 -0.43992102557E+01  0.55023119199E+01 -0.38616631146E+01  0.80337369641E+01  0.51100000000E-03 0. -1.
        -11    1    4    4    0    0 -0.87225751919E+01  0.15631196145E+02 -0.92760569852E+01  0.20160923698E+02  0.51100000000E-03 0.  1.
         12    1    4    4    0    0  0.45651976693E+01 -0.13619910284E+02 -0.21878137686E+02  0.26172426225E+02  0.00000000000E+00 0. -1.
</event>
<event>
 8    1  0.1253488E-006  0.9118800E+02  0.7816164E-02  0.1184000E+00
        -11   -1    0    0    0    0  0.00000000000E+00  0.00000000000E+00  0.45593999997E+02  0.45594000000E+02  0.51100000000E-03 0.  1.
         11   -1    0    0    0    0 -0.00000000000E+00 -0.00000000000E+00 -0.45593999997E+02  0.45594000000E+02  0.51100000000E-03 0. -1.
         23    2    1    2    0    0 -0.35527136788E-14  0.17763568394E-14  0.00000000000E+00  0.91188000000E+02  0.91188000000E+02 0.  0.
    9900012    2    3    3    0    0 -0.26433255459E+02 -0.12918776955E+02 -0.22139737190E+02  0.54367085359E+02  0.40000002693E+02 0.  0.
        -12    1    3    3    0    0  0.26433255459E+02  0.12918776955E+02  0.22139737190E+02  0.36820914641E+02  0.00000000000E+00 0.  1.
         11    1    4    4    0    0 -0.57901167484E+01  0.19778953954E+01 -0.21684006917E+02  0.22530727427E+02  0.51100000000E-03 0. -1.
        -11    1    4    4    0    0 -0.23936139482E+02 -0.15403313843E+02 -0.88049935344E+00  0.28477642634E+02  0.51100000000E-03 0.  1.
        -12    1    4    4    0    0  0.32930007714E+01  0.50664149230E+00  0.42476908007E+00  0.33587152980E+01  0.00000000000E+00 0.  1.
</event>
<event>
 8    1  0.1253488E-006  0.9118800E+02  0.7816164E-02  0.1184000E+00
        -11   -1    0    0    0    0  0.00000000000E+00  0.00000000000E+00  0.45593999997E+02  0.45594000000E+02  0.51100000000E-03 0. -1.
         11   -1    0    0    0    0 -0.00000000000E+00 -0.00000000000E+00 -0.45593999997E+02  0.45594000000E+02  0.51100000000E-03 0.  1.
         23    2    1    2    0    0  0.00000000000E+00  0.00000000000E+00  0.00000000000E+00  0.91188000000E+02  0.91188000000E+02 0.  0.
    9900012    2    3    3    0    0  0.10849756689E+02 -0.41739698515E+01  0.34937666383E+02  0.54367085063E+02  0.40000002018E+02 0.  0.
        -12    1    3    3    0    0 -0.10849756689E+02  0.41739698515E+01 -0.34937666383E+02  0.36820914937E+02  0.00000000000E+00 0.  1.
         11    1    4    4    0    0  0.11610649175E+01 -0.46715210313E+01  0.25777769310E+02  0.26223359269E+02  0.51100000000E-03 0. -1.
        -11    1    4    4    0    0  0.34157576402E+01  0.11352470733E+02  0.10096147912E+02  0.15571711368E+02  0.51100000000E-03 0.  1.
         12    1    4    4    0    0  0.62729341313E+01 -0.10854919553E+02 -0.93625083889E+00  0.12572014427E+02  0.00000000000E+00 0. -1.
</event>
<event>
 8    1  0.1253488E-006  0.9118800E+02  0.7816164E-02  0.1184000E+00
        -11   -1    0    0    0    0  0.00000000000E+00  0.00000000000E+00  0.45593999997E+02  0.45594000000E+02  0.51100000000E-03 0. -1.
         11   -1    0    0    0    0 -0.00000000000E+00 -0.00000000000E+00 -0.45593999997E+02  0.45594000000E+02  0.51100000000E-03 0.  1.
         23    2    1    2    0    0 -0.71054273576E-14  0.17763568394E-14  0.44408920985E-15  0.91188000000E+02  0.91188000000E+02 0.  0.
    9900012    2    3    3    0    0  0.34402727303E+02 -0.12533250421E+02  0.38923756379E+01  0.54367073883E+02  0.39999976531E+02 0.  0.
        -12    1    3    3    0    0 -0.34402727303E+02  0.12533250421E+02 -0.38923756379E+01  0.36820926117E+02  0.00000000000E+00 0.  1.
         11    1    4    4    0    0 -0.14290290225E+01 -0.37106881227E+01  0.54686116955E+00  0.40137747434E+01  0.51100000000E-03 0. -1.
        -11    1    4    4    0    0  0.58453915620E+01  0.12078542052E+02 -0.14137421765E+01  0.13492903610E+02  0.51100000000E-03 0.  1.
        -12    1    4    4    0    0  0.29986364764E+02 -0.20901104350E+02  0.47592566449E+01  0.36860395530E+02  0.00000000000E+00 0.  1.
</event>
<event>
 8    1  0.1253488E-006  0.9118800E+02  0.7816164E-02  0.1184000E+00
        -11   -1    0    0    0    0  0.00000000000E+00  0.00000000000E+00  0.45593999997E+02  0.45594000000E+02  0.51100000000E-03 0.  1.
         11   -1    0    0    0    0 -0.00000000000E+00 -0.00000000000E+00 -0.45593999997E+02  0.45594000000E+02  0.51100000000E-03 0. -1.
         23    2    1    2    0    0  0.00000000000E+00 -0.17763568394E-14 -0.35527136788E-14  0.91188000000E+02  0.91188000000E+02 0.  0.
    9900012    2    3    3    0    0 -0.25081698638E+02  0.61647480835E+01 -0.26242789612E+02  0.54367085669E+02  0.40000003401E+02 0.  0.
        -12    1    3    3    0    0  0.25081698638E+02 -0.61647480835E+01  0.26242789612E+02  0.36820914331E+02  0.00000000000E+00 0.  1.
         11    1    4    4    0    0 -0.92010961507E+01  0.19938762616E+02 -0.40572464769E+01  0.22331047317E+02  0.51100000000E-03 0.  1.
        -11    1    4    4    0    0 -0.14921657447E+01 -0.38328871434E+01 -0.44910321080E+00  0.41375447332E+01  0.51100000000E-03 0. -1.
         12    1    4    4    0    0 -0.14388436743E+02 -0.99411273888E+01 -0.21736439924E+02  0.27898493620E+02  0.00000000000E+00 0. -1.
</event>
<event>
 8    1  0.1253488E-006  0.9118800E+02  0.7816164E-02  0.1184000E+00
        -11   -1    0    0    0    0  0.00000000000E+00  0.00000000000E+00  0.45593999997E+02  0.45594000000E+02  0.51100000000E-03 0.  1.
         11   -1    0    0    0    0 -0.00000000000E+00 -0.00000000000E+00 -0.45593999997E+02  0.45594000000E+02  0.51100000000E-03 0. -1.
         23    2    1    2    0    0 -0.66613381478E-15 -0.17763568394E-14  0.00000000000E+00  0.91188000000E+02  0.91188000000E+02 0.  0.
    9900012    2    3    3    0    0  0.13223245917E+01 -0.83300635806E+01 -0.35841881345E+02  0.54367096156E+02  0.40000027306E+02 0.  0.
        -12    1    3    3    0    0 -0.13223245917E+01  0.83300635806E+01  0.35841881345E+02  0.36820903844E+02  0.00000000000E+00 0.  1.
         11    1    4    4    0    0 -0.13259663979E+01 -0.10106537117E+02 -0.22399679417E+01  0.10436366035E+02  0.51100000000E-03 0. -1.
        -11    1    4    4    0    0  0.95684111183E+01  0.10754204452E+02 -0.93617630842E+01  0.17171197193E+02  0.51100000000E-03 0.  1.
         12    1    4    4    0    0 -0.69201201286E+01 -0.89777309161E+01 -0.24240150319E+02  0.26759532927E+02  0.00000000000E+00 0. -1.
</event>
<event>
 8    1  0.1253488E-006  0.9118800E+02  0.7816164E-02  0.1184000E+00
        -11   -1    0    0    0    0  0.00000000000E+00  0.00000000000E+00  0.45593999997E+02  0.45594000000E+02  0.51100000000E-03 0. -1.
         11   -1    0    0    0    0 -0.00000000000E+00 -0.00000000000E+00 -0.45593999997E+02  0.45594000000E+02  0.51100000000E-03 0.  1.
         23    2    1    2    0    0  0.35527136788E-14  0.00000000000E+00  0.00000000000E+00  0.91188000000E+02  0.91188000000E+02 0.  0.
    9900012    2    3    3    0    0 -0.18165184423E+02  0.17989539263E+02  0.26498863954E+02  0.54366983734E+02  0.39999771018E+02 0.  0.
        -12    1    3    3    0    0  0.18165184423E+02 -0.17989539263E+02 -0.26498863954E+02  0.36821016266E+02  0.00000000000E+00 0.  1.
         11    1    4    4    0    0  0.29621742752E+01  0.16131547024E+02  0.27872440865E+02  0.32339979064E+02  0.51100000000E-03 0. -1.
        -11    1    4    4    0    0 -0.13931875193E+02 -0.15506840300E+01 -0.10825966332E+01  0.14059650887E+02  0.51100000000E-03 0.  1.
         12    1    4    4    0    0 -0.71954835053E+01  0.34086762686E+01 -0.29098027780E+00  0.79673537828E+01  0.00000000000E+00 0. -1.
</event>
<event>
 8    1  0.1253488E-006  0.9118800E+02  0.7816164E-02  0.1184000E+00
        -11   -1    0    0    0    0  0.00000000000E+00  0.00000000000E+00  0.45593999997E+02  0.45594000000E+02  0.51100000000E-03 0.  1.
         11   -1    0    0    0    0 -0.00000000000E+00 -0.00000000000E+00 -0.45593999997E+02  0.45594000000E+02  0.51100000000E-03 0. -1.
         23    2    1    2    0    0  0.35527136788E-14 -0.35527136788E-14  0.00000000000E+00  0.91188000000E+02  0.91188000000E+02 0.  0.
    9900012    2    3    3    0    0 -0.15111960801E+02  0.25027974106E+02 -0.22383155839E+02  0.54367129391E+02  0.40000103072E+02 0.  0.
        -12    1    3    3    0    0  0.15111960801E+02 -0.25027974106E+02  0.22383155839E+02  0.36820870609E+02  0.00000000000E+00 0.  1.
         11    1    4    4    0    0 -0.66633355038E+01  0.16420459350E+02 -0.69275043521E+01  0.19026871580E+02  0.51100000000E-03 0. -1.
        -11    1    4    4    0    0  0.15838884352E+01 -0.98717733825E+01 -0.87037678106E+01  0.13255798228E+02  0.51100000000E-03 0.  1.
        -12    1    4    4    0    0 -0.10032513732E+02  0.18479288138E+02 -0.67518836766E+01  0.22084459583E+02  0.00000000000E+00 0.  1.
</event>
<event>
 8    1  0.1253488E-006  0.9118800E+02  0.7816164E-02  0.1184000E+00
        -11   -1    0    0    0    0  0.00000000000E+00  0.00000000000E+00  0.45593999997E+02  0.45594000000E+02  0.51100000000E-03 0.  1.
         11   -1    0    0    0    0 -0.00000000000E+00 -0.00000000000E+00 -0.45593999997E+02  0.45594000000E+02  0.51100000000E-03 0. -1.
         23    2    1    2    0    0  0.00000000000E+00  0.88817841970E-15  0.00000000000E+00  0.91188000000E+02  0.91188000000E+02 0.  0.
    9900012    2    3    3    0    0  0.29458471790E+02 -0.73005270981E+01 -0.20848958721E+02  0.54367104630E+02  0.40000046624E+02 0.  0.
        -12    1    3    3    0    0 -0.29458471790E+02  0.73005270981E+01  0.20848958721E+02  0.36820895370E+02  0.00000000000E+00 0.  1.
         11    1    4    4    0    0  0.11978195920E+02 -0.12593752458E+02 -0.19565715000E+02  0.26170536528E+02  0.51100000000E-03 0. -1.
        -11    1    4    4    0    0  0.12417004486E+02 -0.72888095548E+01  0.10428398132E+01  0.14435936418E+02  0.51100000000E-03 0.  1.
         12    1    4    4    0    0  0.50632713851E+01  0.12582034915E+02 -0.23260835337E+01  0.13760631683E+02  0.00000000000E+00 0. -1.
</event>
<event>
 8    1  0.1253488E-006  0.9118800E+02  0.7816164E-02  0.1184000E+00
        -11   -1    0    0    0    0  0.00000000000E+00  0.00000000000E+00  0.45593999997E+02  0.45594000000E+02  0.51100000000E-03 0. -1.
         11   -1    0    0    0    0 -0.00000000000E+00 -0.00000000000E+00 -0.45593999997E+02  0.45594000000E+02  0.51100000000E-03 0.  1.
         23    2    1    2    0    0  0.00000000000E+00  0.00000000000E+00  0.00000000000E+00  0.91188000000E+02  0.91188000000E+02 0.  0.
    9900012    2    3    3    0    0  0.26948739703E+02  0.13928034616E+02  0.20869966137E+02  0.54367079230E+02  0.39999988720E+02 0.  0.
         12    1    3    3    0    0 -0.26948739703E+02 -0.13928034616E+02 -0.20869966137E+02  0.36820920770E+02  0.00000000000E+00 0. -1.
         11    1    4    4    0    0  0.10957157371E+02  0.78647515315E+01  0.12257422131E+02  0.18225202656E+02  0.51100000000E-03 0. -1.
        -11    1    4    4    0    0 -0.44395103970E+00  0.27513336348E+01  0.17116981872E+02  0.17342375788E+02  0.51100000000E-03 0.  1.
        -12    1    4    4    0    0  0.16435533371E+02  0.33119494494E+01 -0.85044378667E+01  0.18799500785E+02  0.00000000000E+00 0.  1.
</event>
<event>
 8    1  0.1253488E-006  0.9118800E+02  0.7816164E-02  0.1184000E+00
        -11   -1    0    0    0    0  0.00000000000E+00  0.00000000000E+00  0.45593999997E+02  0.45594000000E+02  0.51100000000E-03 0.  1.
         11   -1    0    0    0    0 -0.00000000000E+00 -0.00000000000E+00 -0.45593999997E+02  0.45594000000E+02  0.51100000000E-03 0. -1.
         23    2    1    2    0    0  0.00000000000E+00  0.00000000000E+00 -0.35527136788E-14  0.91188000000E+02  0.91188000000E+02 0.  0.
    9900012    2    3    3    0    0 -0.25091090552E+02  0.20509070031E+02 -0.17481299120E+02  0.54367073918E+02  0.39999976611E+02 0.  0.
        -12    1    3    3    0    0  0.25091090552E+02 -0.20509070031E+02  0.17481299120E+02  0.36820926082E+02  0.00000000000E+00 0.  1.
         11    1    4    4    0    0 -0.13861705289E+02  0.84932696377E+01 -0.12952997452E+02  0.20786116663E+02  0.51100000000E-03 0. -1.
        -11    1    4    4    0    0  0.66014895518E+01  0.13376792854E+02  0.74885248236E+00  0.14935830464E+02  0.51100000000E-03 0.  1.
        -12    1    4    4    0    0 -0.17830874815E+02 -0.13609924604E+01 -0.52771541500E+01  0.18645126791E+02  0.00000000000E+00 0.  1.
</event>
<event>
 8    1  0.1253488E-006  0.9118800E+02  0.7816164E-02  0.1184000E+00
        -11   -1    0    0    0    0  0.00000000000E+00  0.00000000000E+00  0.45593999997E+02  0.45594000000E+02  0.51100000000E-03 0.  1.
         11   -1    0    0    0    0 -0.00000000000E+00 -0.00000000000E+00 -0.45593999997E+02  0.45594000000E+02  0.51100000000E-03 0. -1.
         23    2    1    2    0    0  0.00000000000E+00  0.00000000000E+00 -0.35527136788E-14  0.91188000000E+02  0.91188000000E+02 0.  0.
    9900012    2    3    3    0    0 -0.15653802843E+02 -0.27969817796E+02 -0.18122633991E+02  0.54367053329E+02  0.39999929674E+02 0.  0.
        -12    1    3    3    0    0  0.15653802843E+02  0.27969817796E+02  0.18122633991E+02  0.36820946671E+02  0.00000000000E+00 0.  1.
         11    1    4    4    0    0 -0.26479785825E+02 -0.21837078051E+02 -0.10993234674E+02  0.36040092175E+02  0.51100000000E-03 0. -1.
        -11    1    4    4    0    0  0.10900817348E+02 -0.78194285370E+01 -0.87257342607E+01  0.16003428388E+02  0.51100000000E-03 0.  1.
         12    1    4    4    0    0 -0.74834366234E-01  0.16866887920E+01  0.15963349440E+01  0.23235327665E+01  0.00000000000E+00 0. -1.
</event>
<event>
 8    1  0.1253488E-006  0.9118800E+02  0.7816164E-02  0.1184000E+00
        -11   -1    0    0    0    0  0.00000000000E+00  0.00000000000E+00  0.45593999997E+02  0.45594000000E+02  0.51100000000E-03 0.  1.
         11   -1    0    0    0    0 -0.00000000000E+00 -0.00000000000E+00 -0.45593999997E+02  0.45594000000E+02  0.51100000000E-03 0. -1.
         23    2    1    2    0    0  0.00000000000E+00  0.17763568394E-14  0.00000000000E+00  0.91188000000E+02  0.91188000000E+02 0.  0.
    9900012    2    3    3    0    0 -0.16864216517E+02  0.11903296139E+02 -0.30490822588E+02  0.54367074974E+02  0.39999979018E+02 0.  0.
        -12    1    3    3    0    0  0.16864216517E+02 -0.11903296139E+02  0.30490822588E+02  0.36820925026E+02  0.00000000000E+00 0.  1.
         11    1    4    4    0    0 -0.44267831572E+01  0.29674431727E+01 -0.12568258664E+02  0.13651492747E+02  0.51100000000E-03 0. -1.
        -11    1    4    4    0    0 -0.12126745177E+02 -0.10534397627E+02 -0.12909485934E+02  0.20607918607E+02  0.51100000000E-03 0.  1.
         12    1    4    4    0    0 -0.31068818302E+00  0.19470250594E+02 -0.50130779892E+01  0.20107663620E+02  0.00000000000E+00 0. -1.
</event>
<event>
 8    1  0.1253488E-006  0.9118800E+02  0.7816164E-02  0.1184000E+00
        -11   -1    0    0    0    0  0.00000000000E+00  0.00000000000E+00  0.45593999997E+02  0.45594000000E+02  0.51100000000E-03 0. -1.
         11   -1    0    0    0    0 -0.00000000000E+00 -0.00000000000E+00 -0.45593999997E+02  0.45594000000E+02  0.51100000000E-03 0.  1.
         23    2    1    2    0    0  0.88817841970E-15  0.35527136788E-14  0.00000000000E+00  0.91188000000E+02  0.91188000000E+02 0.  0.
    9900012    2    3    3    0    0  0.68599872067E+01  0.26949315312E+02  0.24134099656E+02  0.54367084932E+02  0.40000001720E+02 0.  0.
        -12    1    3    3    0    0 -0.68599872067E+01 -0.26949315312E+02 -0.24134099656E+02  0.36820915068E+02  0.00000000000E+00 0.  1.
         11    1    4    4    0    0 -0.32224535741E+01  0.58323152556E+00 -0.57545582575E+01  0.66211258143E+01  0.51100000000E-03 0. -1.
        -11    1    4    4    0    0 -0.19550867007E+01  0.15279247752E+02  0.21688256452E+01  0.15555757160E+02  0.51100000000E-03 0.  1.
         12    1    4    4    0    0  0.12037527481E+02  0.11086836034E+02  0.27719832268E+02  0.32190201958E+02  0.00000000000E+00 0. -1.
</event>
<event>
 8    1  0.1253488E-006  0.9118800E+02  0.7816164E-02  0.1184000E+00
        -11   -1    0    0    0    0  0.00000000000E+00  0.00000000000E+00  0.45593999997E+02  0.45594000000E+02  0.51100000000E-03 0.  1.
         11   -1    0    0    0    0 -0.00000000000E+00 -0.00000000000E+00 -0.45593999997E+02  0.45594000000E+02  0.51100000000E-03 0. -1.
         23    2    1    2    0    0  0.00000000000E+00  0.00000000000E+00 -0.35527136788E-14  0.91188000000E+02  0.91188000000E+02 0.  0.
    9900012    2    3    3    0    0  0.23170519172E+02 -0.10733393697E+02  0.26527389140E+02  0.54367067454E+02  0.39999961875E+02 0.  0.
         12    1    3    3    0    0 -0.23170519172E+02  0.10733393697E+02 -0.26527389140E+02  0.36820932546E+02  0.00000000000E+00 0. -1.
         11    1    4    4    0    0  0.19009309898E+02 -0.54562818420E+00  0.11088597204E+02  0.22013826590E+02  0.51100000000E-03 0. -1.
        -11    1    4    4    0    0  0.13672192220E+02 -0.32839114277E+01  0.15046831141E+02  0.20594174954E+02  0.51100000000E-03 0.  1.
         12    1    4    4    0    0 -0.95109829457E+01 -0.69038540849E+01  0.39196079517E+00  0.11759065910E+02  0.00000000000E+00 0. -1.
</event>
<event>
 8    1  0.1253488E-006  0.9118800E+02  0.7816164E-02  0.1184000E+00
        -11   -1    0    0    0    0  0.00000000000E+00  0.00000000000E+00  0.45593999997E+02  0.45594000000E+02  0.51100000000E-03 0. -1.
         11   -1    0    0    0    0 -0.00000000000E+00 -0.00000000000E+00 -0.45593999997E+02  0.45594000000E+02  0.51100000000E-03 0.  1.
         23    2    1    2    0    0  0.00000000000E+00 -0.88817841970E-15 -0.35527136788E-14  0.91188000000E+02  0.91188000000E+02 0.  0.
    9900012    2    3    3    0    0  0.25386260954E+02  0.66943262721E+01  0.25816721305E+02  0.54367090880E+02  0.40000015280E+02 0.  0.
        -12    1    3    3    0    0 -0.25386260954E+02 -0.66943262721E+01 -0.25816721305E+02  0.36820909120E+02  0.00000000000E+00 0.  1.
         11    1    4    4    0    0  0.20853137988E+02  0.18782107357E+02  0.20686287461E+02  0.34864644124E+02  0.51100000000E-03 0. -1.
        -11    1    4    4    0    0  0.21509384143E+01  0.26280207366E+01 -0.74883016572E+00  0.34776106643E+01  0.51100000000E-03 0.  1.
        -12    1    4    4    0    0  0.23821845514E+01 -0.14715801821E+02  0.58792640097E+01  0.16024836092E+02  0.00000000000E+00 0.  1.
</event>
<event>
 8    1  0.1253488E-006  0.9118800E+02  0.7816164E-02  0.1184000E+00
        -11   -1    0    0    0    0  0.00000000000E+00  0.00000000000E+00  0.45593999997E+02  0.45594000000E+02  0.51100000000E-03 0.  1.
         11   -1    0    0    0    0 -0.00000000000E+00 -0.00000000000E+00 -0.45593999997E+02  0.45594000000E+02  0.51100000000E-03 0. -1.
         23    2    1    2    0    0  0.44408920985E-15  0.00000000000E+00  0.00000000000E+00  0.91188000000E+02  0.91188000000E+02 0.  0.
    9900012    2    3    3    0    0 -0.39771775064E+01  0.17967727816E+02  0.31892345565E+02  0.54367097113E+02  0.40000029488E+02 0.  0.
         12    1    3    3    0    0  0.39771775064E+01 -0.17967727816E+02 -0.31892345565E+02  0.36820902887E+02  0.00000000000E+00 0. -1.
         11    1    4    4    0    0 -0.72398833143E+00  0.36867820353E+01 -0.23708749876E+00  0.37646688596E+01  0.51100000000E-03 0. -1.
        -11    1    4    4    0    0 -0.50538778870E+00  0.14117188156E+02  0.39916908007E+02  0.42342767545E+02  0.51100000000E-03 0.  1.
        -12    1    4    4    0    0 -0.27478013862E+01  0.16375762524E+00 -0.77874749436E+01  0.82596607083E+01  0.00000000000E+00 0.  1.
</event>
<event>
 8    1  0.1253488E-006  0.9118800E+02  0.7816164E-02  0.1184000E+00
        -11   -1    0    0    0    0  0.00000000000E+00  0.00000000000E+00  0.45593999997E+02  0.45594000000E+02  0.51100000000E-03 0. -1.
         11   -1    0    0    0    0 -0.00000000000E+00 -0.00000000000E+00 -0.45593999997E+02  0.45594000000E+02  0.51100000000E-03 0.  1.
         23    2    1    2    0    0  0.00000000000E+00 -0.17763568394E-14 -0.35527136788E-14  0.91188000000E+02  0.91188000000E+02 0.  0.
    9900012    2    3    3    0    0 -0.17478502474E+02  0.14519004697E+02  0.28973794239E+02  0.54367077975E+02  0.39999985860E+02 0.  0.
        -12    1    3    3    0    0  0.17478502474E+02 -0.14519004697E+02 -0.28973794239E+02  0.36820922025E+02  0.00000000000E+00 0.  1.
         11    1    4    4    0    0 -0.43656555123E+01  0.25629409761E+02  0.19221449169E+02  0.32332486777E+02  0.51100000000E-03 0. -1.
        -11    1    4    4    0    0 -0.10501293384E+01 -0.38255034205E-01  0.48211586573E+01  0.49343496163E+01  0.51100000000E-03 0.  1.
        -12    1    4    4    0    0 -0.12062717623E+02 -0.11072150030E+02  0.49311864125E+01  0.17100241582E+02  0.00000000000E+00 0.  1.
</event>
<event>
 8    1  0.1253488E-006  0.9118800E+02  0.7816164E-02  0.1184000E+00
        -11   -1    0    0    0    0  0.00000000000E+00  0.00000000000E+00  0.45593999997E+02  0.45594000000E+02  0.51100000000E-03 0.  1.
         11   -1    0    0    0    0 -0.00000000000E+00 -0.00000000000E+00 -0.45593999997E+02  0.45594000000E+02  0.51100000000E-03 0. -1.
         23    2    1    2    0    0  0.17763568394E-14  0.00000000000E+00  0.00000000000E+00  0.91188000000E+02  0.91188000000E+02 0.  0.
    9900012    2    3    3    0    0 -0.11985871576E+02 -0.20783499111E+02 -0.27931438725E+02  0.54367079018E+02  0.39999988237E+02 0.  0.
        -12    1    3    3    0    0  0.11985871576E+02  0.20783499111E+02  0.27931438725E+02  0.36820920982E+02  0.00000000000E+00 0.  1.
         11    1    4    4    0    0 -0.28402979088E+01 -0.72993356300E+01 -0.16094340286E+01  0.79961159949E+01  0.51100000000E-03 0. -1.
        -11    1    4    4    0    0 -0.10758117889E+02  0.45371776072E+01  0.28729294674E+01  0.12024009529E+02  0.51100000000E-03 0.  1.
        -12    1    4    4    0    0  0.16125442225E+01 -0.18021341088E+02 -0.29194934164E+02  0.34346953494E+02  0.00000000000E+00 0.  1.
</event>
<event>
 8    1  0.1253488E-006  0.9118800E+02  0.7816164E-02  0.1184000E+00
        -11   -1    0    0    0    0  0.00000000000E+00  0.00000000000E+00  0.45593999997E+02  0.45594000000E+02  0.51100000000E-03 0. -1.
         11   -1    0    0    0    0 -0.00000000000E+00 -0.00000000000E+00 -0.45593999997E+02  0.45594000000E+02  0.51100000000E-03 0.  1.
         23    2    1    2    0    0  0.00000000000E+00 -0.17763568394E-14  0.00000000000E+00  0.91188000000E+02  0.91188000000E+02 0.  0.
    9900012    2    3    3    0    0  0.14828250463E+02 -0.96781089222E+01  0.32283709192E+02  0.54367072753E+02  0.39999973955E+02 0.  0.
        -12    1    3    3    0    0 -0.14828250463E+02  0.96781089222E+01 -0.32283709192E+02  0.36820927247E+02  0.00000000000E+00 0.  1.
         11    1    4    4    0    0 -0.55122177494E+01 -0.79450870746E+01  0.16092683305E+02  0.18774541522E+02  0.51100000000E-03 0. -1.
        -11    1    4    4    0    0  0.15087930335E+02  0.12444112415E+01  0.22332467778E+02  0.26980239407E+02  0.51100000000E-03 0.  1.
         12    1    4    4    0    0  0.52525378776E+01 -0.29774330891E+01 -0.61414418915E+01  0.86122918240E+01  0.00000000000E+00 0. -1.
</event>
<event>
 8    1  0.1253488E-006  0.9118800E+02  0.7816164E-02  0.1184000E+00
        -11   -1    0    0    0    0  0.00000000000E+00  0.00000000000E+00  0.45593999997E+02  0.45594000000E+02  0.51100000000E-03 0.  1.
         11   -1    0    0    0    0 -0.00000000000E+00 -0.00000000000E+00 -0.45593999997E+02  0.45594000000E+02  0.51100000000E-03 0. -1.
         23    2    1    2    0    0  0.00000000000E+00  0.00000000000E+00 -0.71054273576E-14  0.91188000000E+02  0.91188000000E+02 0.  0.
    9900012    2    3    3    0    0 -0.90585421870E+01  0.14900220770E+01  0.35658133858E+02  0.54367083899E+02  0.39999999363E+02 0.  0.
         12    1    3    3    0    0  0.90585421870E+01 -0.14900220770E+01 -0.35658133858E+02  0.36820916101E+02  0.00000000000E+00 0. -1.
         11    1    4    4    0    0 -0.32651172640E+01  0.21414941621E+01 -0.33628334830E+01  0.51532162084E+01  0.51100000000E-03 0. -1.
        -11    1    4    4    0    0 -0.13608201820E+02  0.12123867485E+01  0.38845501314E+02  0.41177979685E+02  0.51100000000E-03 0.  1.
         12    1    4    4    0    0  0.78147768967E+01 -0.18638588337E+01  0.17546602682E+00  0.80358880047E+01  0.00000000000E+00 0. -1.
</event>
<event>
 8    1  0.1253488E-006  0.9118800E+02  0.7816164E-02  0.1184000E+00
        -11   -1    0    0    0    0  0.00000000000E+00  0.00000000000E+00  0.45593999997E+02  0.45594000000E+02  0.51100000000E-03 0. -1.
         11   -1    0    0    0    0 -0.00000000000E+00 -0.00000000000E+00 -0.45593999997E+02  0.45594000000E+02  0.51100000000E-03 0.  1.
         23    2    1    2    0    0  0.00000000000E+00  0.00000000000E+00  0.00000000000E+00  0.91188000000E+02  0.91188000000E+02 0.  0.
    9900012    2    3    3    0    0 -0.18940120688E+02  0.26405382360E+02  0.17315128730E+02  0.54366999576E+02  0.39999807134E+02 0.  0.
        -12    1    3    3    0    0  0.18940120688E+02 -0.26405382360E+02 -0.17315128730E+02  0.36821000424E+02  0.00000000000E+00 0.  1.
         11    1    4    4    0    0 -0.10137160498E+02  0.98367705037E+01 -0.36154818209E+01  0.14580664798E+02  0.51100000000E-03 0. -1.
        -11    1    4    4    0    0 -0.62962596567E+01  0.70243432559E+01  0.26726359063E+02  0.28342239729E+02  0.51100000000E-03 0.  1.
        -12    1    4    4    0    0 -0.25067005339E+01  0.95442686004E+01 -0.57957485121E+01  0.11444095049E+02  0.00000000000E+00 0.  1.
</event>
<event>
 8    1  0.1253488E-006  0.9118800E+02  0.7816164E-02  0.1184000E+00
        -11   -1    0    0    0    0  0.00000000000E+00  0.00000000000E+00  0.45593999997E+02  0.45594000000E+02  0.51100000000E-03 0.  1.
         11   -1    0    0    0    0 -0.00000000000E+00 -0.00000000000E+00 -0.45593999997E+02  0.45594000000E+02  0.51100000000E-03 0. -1.
         23    2    1    2    0    0  0.17763568394E-14  0.11102230246E-14  0.00000000000E+00  0.91188000000E+02  0.91188000000E+02 0.  0.
    9900012    2    3    3    0    0  0.59282348967E+01  0.17451462541E+01 -0.36298643990E+02  0.54367067639E+02  0.39999962296E+02 0.  0.
        -12    1    3    3    0    0 -0.59282348967E+01 -0.17451462541E+01  0.36298643990E+02  0.36820932361E+02  0.00000000000E+00 0.  1.
         11    1    4    4    0    0  0.35279583094E+01  0.76503755477E+01 -0.11154308591E+02  0.13978316646E+02  0.51100000000E-03 0. -1.
        -11    1    4    4    0    0 -0.25520612270E+00  0.12032522409E+02 -0.16167209223E+02  0.20155033615E+02  0.51100000000E-03 0.  1.
        -12    1    4    4    0    0  0.26554827100E+01 -0.17937751702E+02 -0.89771261757E+01  0.20233717378E+02  0.00000000000E+00 0.  1.
</event>
<event>
 8    1  0.1253488E-006  0.9118800E+02  0.7816164E-02  0.1184000E+00
        -11   -1    0    0    0    0  0.00000000000E+00  0.00000000000E+00  0.45593999997E+02  0.45594000000E+02  0.51100000000E-03 0.  1.
         11   -1    0    0    0    0 -0.00000000000E+00 -0.00000000000E+00 -0.45593999997E+02  0.45594000000E+02  0.51100000000E-03 0. -1.
         23    2    1    2    0    0  0.00000000000E+00  0.00000000000E+00  0.35527136788E-14  0.91188000000E+02  0.91188000000E+02 0.  0.
    9900012    2    3    3    0    0 -0.29814368074E+02 -0.92482985365E+01 -0.19528221669E+02  0.54367095462E+02  0.40000025724E+02 0.  0.
        -12    1    3    3    0    0  0.29814368074E+02  0.92482985365E+01  0.19528221669E+02  0.36820904538E+02  0.00000000000E+00 0.  1.
         11    1    4    4    0    0  0.42160041512E+01 -0.74403065894E+01  0.14895158813E+01  0.86805248096E+01  0.51100000000E-03 0. -1.
        -11    1    4    4    0    0 -0.92361172811E+01 -0.11011042932E+01  0.42962093820E+01  0.10245765389E+02  0.51100000000E-03 0.  1.
         12    1    4    4    0    0 -0.24794254944E+02 -0.70688765391E+00 -0.25313946932E+02  0.35440805263E+02  0.00000000000E+00 0. -1.
</event>
<event>
 8    1  0.1253488E-006  0.9118800E+02  0.7816164E-02  0.1184000E+00
        -11   -1    0    0    0    0  0.00000000000E+00  0.00000000000E+00  0.45593999997E+02  0.45594000000E+02  0.51100000000E-03 0.  1.
         11   -1    0    0    0    0 -0.00000000000E+00 -0.00000000000E+00 -0.45593999997E+02  0.45594000000E+02  0.51100000000E-03 0. -1.
         23    2    1    2    0    0  0.00000000000E+00  0.00000000000E+00 -0.88817841970E-15  0.91188000000E+02  0.91188000000E+02 0.  0.
    9900012    2    3    3    0    0 -0.15923602129E+02 -0.32232629434E+02 -0.79546659141E+01  0.54367079116E+02  0.39999988460E+02 0.  0.
        -12    1    3    3    0    0  0.15923602129E+02  0.32232629434E+02  0.79546659141E+01  0.36820920884E+02  0.00000000000E+00 0.  1.
         11    1    4    4    0    0 -0.14962472170E+01 -0.13543615340E+02 -0.69889240991E+01  0.15313828147E+02  0.51100000000E-03 0. -1.
        -11    1    4    4    0    0 -0.15567479804E+02 -0.13335345034E+00 -0.98772734251E+01  0.18437048060E+02  0.51100000000E-03 0.  1.
         12    1    4    4    0    0  0.11401248929E+01 -0.18555660644E+02  0.89115316100E+01  0.20616202908E+02  0.00000000000E+00 0. -1.
</event>
<event>
 8    1  0.1253488E-006  0.9118800E+02  0.7816164E-02  0.1184000E+00
        -11   -1    0    0    0    0  0.00000000000E+00  0.00000000000E+00  0.45593999997E+02  0.45594000000E+02  0.51100000000E-03 0. -1.
         11   -1    0    0    0    0 -0.00000000000E+00 -0.00000000000E+00 -0.45593999997E+02  0.45594000000E+02  0.51100000000E-03 0.  1.
         23    2    1    2    0    0  0.00000000000E+00 -0.35527136788E-14  0.00000000000E+00  0.91188000000E+02  0.91188000000E+02 0.  0.
    9900012    2    3    3    0    0  0.31126341303E+02 -0.17288471399E+02 -0.93829542139E+01  0.54367079370E+02  0.39999989040E+02 0.  0.
         12    1    3    3    0    0 -0.31126341303E+02  0.17288471399E+02  0.93829542139E+01  0.36820920630E+02  0.00000000000E+00 0. -1.
         11    1    4    4    0    0 -0.12407415048E+01 -0.93695182227E+01  0.49715693686E+01  0.10679129808E+02  0.51100000000E-03 0. -1.
        -11    1    4    4    0    0  0.42618586888E+01  0.60077434980E+01 -0.93847188572E+01  0.11930187329E+02  0.51100000000E-03 0.  1.
        -12    1    4    4    0    0  0.28105224119E+02 -0.13926696675E+02 -0.49698047253E+01  0.31757762233E+02  0.00000000000E+00 0.  1.
</event>
<event>
 8    1  0.1253488E-006  0.9118800E+02  0.7816164E-02  0.1184000E+00
        -11   -1    0    0    0    0  0.00000000000E+00  0.00000000000E+00  0.45593999997E+02  0.45594000000E+02  0.51100000000E-03 0.  1.
         11   -1    0    0    0    0 -0.00000000000E+00 -0.00000000000E+00 -0.45593999997E+02  0.45594000000E+02  0.51100000000E-03 0. -1.
         23    2    1    2    0    0 -0.14210854715E-13  0.00000000000E+00  0.17763568394E-14  0.91188000000E+02  0.91188000000E+02 0.  0.
    9900012    2    3    3    0    0  0.31605241414E+02 -0.15326255896E+02 -0.11045135552E+02  0.54367076275E+02  0.39999981983E+02 0.  0.
         12    1    3    3    0    0 -0.31605241414E+02  0.15326255896E+02  0.11045135552E+02  0.36820923725E+02  0.00000000000E+00 0. -1.
         11    1    4    4    0    0  0.23974564093E+02 -0.10048832289E+02 -0.15221167252E+02  0.30123789380E+02  0.51100000000E-03 0.  1.
        -11    1    4    4    0    0 -0.68466493252E+01  0.10718186754E+01 -0.20899709326E+01  0.72383272250E+01  0.51100000000E-03 0. -1.
        -12    1    4    4    0    0  0.14477326646E+02 -0.63492422820E+01  0.62660026326E+01  0.17004959670E+02  0.00000000000E+00 0.  1.
</event>
<event>
 8    1  0.1253488E-006  0.9118800E+02  0.7816164E-02  0.1184000E+00
        -11   -1    0    0    0    0  0.00000000000E+00  0.00000000000E+00  0.45593999997E+02  0.45594000000E+02  0.51100000000E-03 0.  1.
         11   -1    0    0    0    0 -0.00000000000E+00 -0.00000000000E+00 -0.45593999997E+02  0.45594000000E+02  0.51100000000E-03 0. -1.
         23    2    1    2    0    0  0.00000000000E+00  0.71054273576E-14  0.26645352591E-14  0.91188000000E+02  0.91188000000E+02 0.  0.
    9900012    2    3    3    0    0  0.51004448928E+01  0.36056090412E+02 -0.54519335597E+01  0.54367085109E+02  0.40000002123E+02 0.  0.
         12    1    3    3    0    0 -0.51004448928E+01 -0.36056090412E+02  0.54519335597E+01  0.36820914891E+02  0.00000000000E+00 0. -1.
         11    1    4    4    0    0  0.49477127841E+01  0.75960255874E+00  0.68365436366E+01  0.84732040573E+01  0.51100000000E-03 0. -1.
        -11    1    4    4    0    0 -0.77350057936E+01  0.31970198333E+02 -0.26446402128E+01  0.32998757828E+02  0.51100000000E-03 0.  1.
         12    1    4    4    0    0  0.78877379024E+01  0.33262895199E+01 -0.96438369835E+01  0.12895123224E+02  0.00000000000E+00 0. -1.
</event>
<event>
 8    1  0.1253488E-006  0.9118800E+02  0.7816164E-02  0.1184000E+00
        -11   -1    0    0    0    0  0.00000000000E+00  0.00000000000E+00  0.45593999997E+02  0.45594000000E+02  0.51100000000E-03 0.  1.
         11   -1    0    0    0    0 -0.00000000000E+00 -0.00000000000E+00 -0.45593999997E+02  0.45594000000E+02  0.51100000000E-03 0. -1.
         23    2    1    2    0    0  0.00000000000E+00 -0.35527136788E-14 -0.35527136788E-14  0.91188000000E+02  0.91188000000E+02 0.  0.
    9900012    2    3    3    0    0  0.22853547951E+02  0.21739077793E+02  0.18997572392E+02  0.54367083200E+02  0.39999997770E+02 0.  0.
         12    1    3    3    0    0 -0.22853547951E+02 -0.21739077793E+02 -0.18997572392E+02  0.36820916800E+02  0.00000000000E+00 0. -1.
         11    1    4    4    0    0  0.11736757094E+02 -0.61130844353E-01  0.28729426124E+01  0.12083418538E+02  0.51100000000E-03 0.  1.
        -11    1    4    4    0    0 -0.39763854751E+01  0.37248484920E+01 -0.72731362286E+01  0.90876096194E+01  0.51100000000E-03 0. -1.
         12    1    4    4    0    0  0.15093176332E+02  0.18075360145E+02  0.23397766008E+02  0.33196055042E+02  0.00000000000E+00 0. -1.
</event>
<event>
 8    1  0.1253488E-006  0.9118800E+02  0.7816164E-02  0.1184000E+00
        -11   -1    0    0    0    0  0.00000000000E+00  0.00000000000E+00  0.45593999997E+02  0.45594000000E+02  0.51100000000E-03 0. -1.
         11   -1    0    0    0    0 -0.00000000000E+00 -0.00000000000E+00 -0.45593999997E+02  0.45594000000E+02  0.51100000000E-03 0.  1.
         23    2    1    2    0    0 -0.17763568394E-14 -0.71054273576E-14  0.17763568394E-14  0.91188000000E+02  0.91188000000E+02 0.  0.
    9900012    2    3    3    0    0  0.83138697341E+01  0.32952380542E+02 -0.14170433049E+02  0.54367068641E+02  0.39999964582E+02 0.  0.
         12    1    3    3    0    0 -0.83138697341E+01 -0.32952380542E+02  0.14170433049E+02  0.36820931359E+02  0.00000000000E+00 0. -1.
         11    1    4    4    0    0  0.94403178889E+00  0.11617200386E+02  0.11760084132E+01  0.11714671864E+02  0.51100000000E-03 0.  1.
        -11    1    4    4    0    0  0.10607703816E+02  0.26102788015E+02 -0.20561019539E+02  0.34880287372E+02  0.51100000000E-03 0. -1.
         12    1    4    4    0    0 -0.32378658707E+01 -0.47676078589E+01  0.52145780771E+01  0.77721094058E+01  0.00000000000E+00 0. -1.
</event>
<event>
 8    1  0.1253488E-006  0.9118800E+02  0.7816164E-02  0.1184000E+00
        -11   -1    0    0    0    0  0.00000000000E+00  0.00000000000E+00  0.45593999997E+02  0.45594000000E+02  0.51100000000E-03 0. -1.
         11   -1    0    0    0    0 -0.00000000000E+00 -0.00000000000E+00 -0.45593999997E+02  0.45594000000E+02  0.51100000000E-03 0.  1.
         23    2    1    2    0    0  0.00000000000E+00  0.00000000000E+00  0.00000000000E+00  0.91188000000E+02  0.91188000000E+02 0.  0.
    9900012    2    3    3    0    0  0.22049913155E+02 -0.25064925115E+02  0.15534838277E+02  0.54367077395E+02  0.39999984537E+02 0.  0.
         12    1    3    3    0    0 -0.22049913155E+02  0.25064925115E+02 -0.15534838277E+02  0.36820922605E+02  0.00000000000E+00 0. -1.
         11    1    4    4    0    0  0.17773746594E+02 -0.15980654974E+02  0.13212942142E+02  0.27310606761E+02  0.51100000000E-03 0. -1.
        -11    1    4    4    0    0 -0.61190890095E+01 -0.24724737068E+01  0.10405106154E+02  0.12321631826E+02  0.51100000000E-03 0.  1.
        -12    1    4    4    0    0  0.10395255571E+02 -0.66117964339E+01 -0.80832100180E+01  0.14734838807E+02  0.00000000000E+00 0.  1.
</event>
<event>
 8    1  0.1253488E-006  0.9118800E+02  0.7816164E-02  0.1184000E+00
        -11   -1    0    0    0    0  0.00000000000E+00  0.00000000000E+00  0.45593999997E+02  0.45594000000E+02  0.51100000000E-03 0. -1.
         11   -1    0    0    0    0 -0.00000000000E+00 -0.00000000000E+00 -0.45593999997E+02  0.45594000000E+02  0.51100000000E-03 0.  1.
         23    2    1    2    0    0  0.00000000000E+00 -0.17763568394E-14  0.00000000000E+00  0.91188000000E+02  0.91188000000E+02 0.  0.
    9900012    2    3    3    0    0 -0.11751394557E+02 -0.73416347293E+01 -0.34114306721E+02  0.54367071201E+02  0.39999970417E+02 0.  0.
         12    1    3    3    0    0  0.11751394557E+02  0.73416347293E+01  0.34114306721E+02  0.36820928799E+02  0.00000000000E+00 0. -1.
         11    1    4    4    0    0  0.56219945736E+01 -0.50990031210E+01 -0.27774962830E+02  0.28793318952E+02  0.51100000000E-03 0. -1.
        -11    1    4    4    0    0 -0.40686864888E+01  0.70283738142E+01 -0.44153005351E+01  0.92437615337E+01  0.51100000000E-03 0.  1.
        -12    1    4    4    0    0 -0.13304702641E+02 -0.92710054224E+01 -0.19240433561E+01  0.16329990715E+02  0.00000000000E+00 0.  1.
</event>
<event>
 8    1  0.1253488E-006  0.9118800E+02  0.7816164E-02  0.1184000E+00
        -11   -1    0    0    0    0  0.00000000000E+00  0.00000000000E+00  0.45593999997E+02  0.45594000000E+02  0.51100000000E-03 0.  1.
         11   -1    0    0    0    0 -0.00000000000E+00 -0.00000000000E+00 -0.45593999997E+02  0.45594000000E+02  0.51100000000E-03 0. -1.
         23    2    1    2    0    0  0.00000000000E+00  0.00000000000E+00  0.00000000000E+00  0.91188000000E+02  0.91188000000E+02 0.  0.
    9900012    2    3    3    0    0  0.12345363199E+02 -0.33505063013E+02  0.89884241799E+01  0.54366959693E+02  0.39999716212E+02 0.  0.
         12    1    3    3    0    0 -0.12345363199E+02  0.33505063013E+02 -0.89884241799E+01  0.36821040307E+02  0.00000000000E+00 0. -1.
         11    1    4    4    0    0 -0.45790803475E+01  0.20689851362E+01 -0.31571806411E+01  0.59343463148E+01  0.51100000000E-03 0. -1.
        -11    1    4    4    0    0  0.96274714010E+01 -0.35778042908E+02  0.15788290168E+02  0.40274392194E+02  0.51100000000E-03 0.  1.
        -12    1    4    4    0    0  0.72969721454E+01  0.20399475854E+00 -0.36426853475E+01  0.81582211844E+01  0.00000000000E+00 0.  1.
</event>
<event>
 8    1  0.1253488E-006  0.9118800E+02  0.7816164E-02  0.1184000E+00
        -11   -1    0    0    0    0  0.00000000000E+00  0.00000000000E+00  0.45593999997E+02  0.45594000000E+02  0.51100000000E-03 0. -1.
         11   -1    0    0    0    0 -0.00000000000E+00 -0.00000000000E+00 -0.45593999997E+02  0.45594000000E+02  0.51100000000E-03 0.  1.
         23    2    1    2    0    0  0.00000000000E+00  0.12212453271E-14  0.71054273576E-14  0.91188000000E+02  0.91188000000E+02 0.  0.
    9900012    2    3    3    0    0  0.16310596837E+02 -0.90871434515E+00 -0.32998814625E+02  0.54367039969E+02  0.39999899217E+02 0.  0.
         12    1    3    3    0    0 -0.16310596837E+02  0.90871434515E+00  0.32998814625E+02  0.36820960031E+02  0.00000000000E+00 0. -1.
         11    1    4    4    0    0 -0.67924920721E+00  0.55678784634E+01  0.16156664568E+01  0.58372106720E+01  0.51100000000E-03 0. -1.
        -11    1    4    4    0    0  0.23120507674E+02 -0.96641230184E+01 -0.18976974180E+02  0.31433719126E+02  0.51100000000E-03 0.  1.
        -12    1    4    4    0    0 -0.61306616301E+01  0.31875302099E+01 -0.15637506902E+02  0.17096110171E+02  0.00000000000E+00 0.  1.
</event>
<event>
 8    1  0.1253488E-006  0.9118800E+02  0.7816164E-02  0.1184000E+00
        -11   -1    0    0    0    0  0.00000000000E+00  0.00000000000E+00  0.45593999997E+02  0.45594000000E+02  0.51100000000E-03 0. -1.
         11   -1    0    0    0    0 -0.00000000000E+00 -0.00000000000E+00 -0.45593999997E+02  0.45594000000E+02  0.51100000000E-03 0.  1.
         23    2    1    2    0    0 -0.35527136788E-14  0.17763568394E-14  0.00000000000E+00  0.91188000000E+02  0.91188000000E+02 0.  0.
    9900012    2    3    3    0    0 -0.26097971494E+02 -0.12491347295E+02  0.22773701042E+02  0.54367091096E+02  0.40000015772E+02 0.  0.
        -12    1    3    3    0    0  0.26097971494E+02  0.12491347295E+02 -0.22773701042E+02  0.36820908904E+02  0.00000000000E+00 0.  1.
         11    1    4    4    0    0 -0.19553816196E+02 -0.28462247981E+01  0.14243036682E+02  0.24358095525E+02  0.51100000000E-03 0. -1.
        -11    1    4    4    0    0 -0.16094147296E+02 -0.14351175076E+01  0.42518350665E+01  0.16708059167E+02  0.51100000000E-03 0.  1.
         12    1    4    4    0    0  0.95499919976E+01 -0.82100049898E+01  0.42788292930E+01  0.13300936403E+02  0.00000000000E+00 0. -1.
</event>
<event>
 8    1  0.1253488E-006  0.9118800E+02  0.7816164E-02  0.1184000E+00
        -11   -1    0    0    0    0  0.00000000000E+00  0.00000000000E+00  0.45593999997E+02  0.45594000000E+02  0.51100000000E-03 0.  1.
         11   -1    0    0    0    0 -0.00000000000E+00 -0.00000000000E+00 -0.45593999997E+02  0.45594000000E+02  0.51100000000E-03 0. -1.
         23    2    1    2    0    0 -0.17763568394E-14 -0.71054273576E-14  0.17763568394E-14  0.91188000000E+02  0.91188000000E+02 0.  0.
    9900012    2    3    3    0    0 -0.10604926452E+02  0.32487786744E+02 -0.13706153436E+02  0.54367090253E+02  0.40000013849E+02 0.  0.
        -12    1    3    3    0    0  0.10604926452E+02 -0.32487786744E+02  0.13706153436E+02  0.36820909747E+02  0.00000000000E+00 0.  1.
         11    1    4    4    0    0  0.41278308510E+01 -0.63509515802E+00  0.13143108442E+01  0.43783269237E+01  0.51100000000E-03 0. -1.
        -11    1    4    4    0    0 -0.48309991717E+01  0.32255702697E+02 -0.78290358533E+00  0.32624865483E+02  0.51100000000E-03 0.  1.
         12    1    4    4    0    0 -0.99017581311E+01  0.86717920503E+00 -0.14237560695E+02  0.17363897846E+02  0.00000000000E+00 0. -1.
</event>
<event>
 8    1  0.1253488E-006  0.9118800E+02  0.7816164E-02  0.1184000E+00
        -11   -1    0    0    0    0  0.00000000000E+00  0.00000000000E+00  0.45593999997E+02  0.45594000000E+02  0.51100000000E-03 0. -1.
         11   -1    0    0    0    0 -0.00000000000E+00 -0.00000000000E+00 -0.45593999997E+02  0.45594000000E+02  0.51100000000E-03 0.  1.
         23    2    1    2    0    0 -0.17763568394E-14  0.88817841970E-15  0.00000000000E+00  0.91188000000E+02  0.91188000000E+02 0.  0.
    9900012    2    3    3    0    0 -0.42150047341E+01  0.76716599777E+01  0.35765332631E+02  0.54367086785E+02  0.40000005945E+02 0.  0.
        -12    1    3    3    0    0  0.42150047341E+01 -0.76716599777E+01 -0.35765332631E+02  0.36820913215E+02  0.00000000000E+00 0.  1.
         11    1    4    4    0    0 -0.11314925335E+02  0.81672975394E+01  0.11688031001E+02  0.18202811688E+02  0.51100000000E-03 0. -1.
        -11    1    4    4    0    0  0.14945391196E+02 -0.62319181758E+01  0.19711944631E+02  0.25510042798E+02  0.51100000000E-03 0.  1.
        -12    1    4    4    0    0 -0.78454705955E+01  0.57362806141E+01  0.43653569999E+01  0.10654232299E+02  0.00000000000E+00 0.  1.
</event>
<event>
 8    1  0.1253488E-006  0.9118800E+02  0.7816164E-02  0.1184000E+00
        -11   -1    0    0    0    0  0.00000000000E+00  0.00000000000E+00  0.45593999997E+02  0.45594000000E+02  0.51100000000E-03 0.  1.
         11   -1    0    0    0    0 -0.00000000000E+00 -0.00000000000E+00 -0.45593999997E+02  0.45594000000E+02  0.51100000000E-03 0. -1.
         23    2    1    2    0    0  0.00000000000E+00  0.00000000000E+00  0.17763568394E-14  0.91188000000E+02  0.91188000000E+02 0.  0.
    9900012    2    3    3    0    0 -0.46040454166E+01 -0.35212782096E+02 -0.97284320420E+01  0.54367086824E+02  0.40000006032E+02 0.  0.
        -12    1    3    3    0    0  0.46040454166E+01  0.35212782096E+02  0.97284320420E+01  0.36820913176E+02  0.00000000000E+00 0.  1.
         11    1    4    4    0    0 -0.50162128548E+01 -0.17372842629E+02 -0.39004572593E+01  0.18498422081E+02  0.51100000000E-03 0.  1.
        -11    1    4    4    0    0  0.13992905508E+02 -0.16585290238E+02 -0.45396051245E+01  0.22169376892E+02  0.51100000000E-03 0. -1.
        -12    1    4    4    0    0 -0.13580738070E+02 -0.12546492294E+01 -0.12883696582E+01  0.13699287850E+02  0.00000000000E+00 0.  1.
</event>
<event>
 8    1  0.1253488E-006  0.9118800E+02  0.7816164E-02  0.1184000E+00
        -11   -1    0    0    0    0  0.00000000000E+00  0.00000000000E+00  0.45593999997E+02  0.45594000000E+02  0.51100000000E-03 0. -1.
         11   -1    0    0    0    0 -0.00000000000E+00 -0.00000000000E+00 -0.45593999997E+02  0.45594000000E+02  0.51100000000E-03 0.  1.
         23    2    1    2    0    0 -0.17763568394E-14  0.00000000000E+00  0.00000000000E+00  0.91188000000E+02  0.91188000000E+02 0.  0.
    9900012    2    3    3    0    0 -0.79600811288E+01 -0.21074742133E+02 -0.29125118633E+02  0.54367079548E+02  0.39999989445E+02 0.  0.
         12    1    3    3    0    0  0.79600811288E+01  0.21074742133E+02  0.29125118633E+02  0.36820920452E+02  0.00000000000E+00 0. -1.
         11    1    4    4    0    0  0.65000083009E+01 -0.49807045574E+01  0.37804048924E+01  0.90193673399E+01  0.51100000000E-03 0. -1.
        -11    1    4    4    0    0  0.92746920956E+00 -0.15785303677E+02 -0.16714476859E+02  0.23008905846E+02  0.51100000000E-03 0.  1.
         12    1    4    4    0    0 -0.15387558639E+02 -0.30873389830E+00 -0.16191046667E+02  0.22338806362E+02  0.00000000000E+00 0. -1.
</event>
<event>
 8    1  0.1253488E-006  0.9118800E+02  0.7816164E-02  0.1184000E+00
        -11   -1    0    0    0    0  0.00000000000E+00  0.00000000000E+00  0.45593999997E+02  0.45594000000E+02  0.51100000000E-03 0. -1.
         11   -1    0    0    0    0 -0.00000000000E+00 -0.00000000000E+00 -0.45593999997E+02  0.45594000000E+02  0.51100000000E-03 0.  1.
         23    2    1    2    0    0  0.16653345369E-15  0.00000000000E+00  0.00000000000E+00  0.91188000000E+02  0.91188000000E+02 0.  0.
    9900012    2    3    3    0    0  0.37884593478E+00 -0.11353493986E+02 -0.35024763815E+02  0.54367089769E+02  0.40000012746E+02 0.  0.
         12    1    3    3    0    0 -0.37884593478E+00  0.11353493986E+02  0.35024763815E+02  0.36820910231E+02  0.00000000000E+00 0. -1.
         11    1    4    4    0    0  0.58673888111E+01 -0.26709780874E+01  0.26842718223E+01  0.69832435788E+01  0.51100000000E-03 0. -1.
        -11    1    4    4    0    0 -0.10193959523E+02 -0.15548149183E+02 -0.17519568381E+02  0.25545978750E+02  0.51100000000E-03 0.  1.
         12    1    4    4    0    0  0.47054166465E+01  0.68656332847E+01 -0.20189467257E+02  0.21837867440E+02  0.00000000000E+00 0. -1.
</event>
<event>
 8    1  0.1253488E-006  0.9118800E+02  0.7816164E-02  0.1184000E+00
        -11   -1    0    0    0    0  0.00000000000E+00  0.00000000000E+00  0.45593999997E+02  0.45594000000E+02  0.51100000000E-03 0.  1.
         11   -1    0    0    0    0 -0.00000000000E+00 -0.00000000000E+00 -0.45593999997E+02  0.45594000000E+02  0.51100000000E-03 0. -1.
         23    2    1    2    0    0  0.00000000000E+00 -0.35527136788E-14 -0.26645352591E-14  0.91188000000E+02  0.91188000000E+02 0.  0.
    9900012    2    3    3    0    0 -0.28030615244E+02 -0.22729668256E+02  0.73092646599E+01  0.54367101588E+02  0.40000039689E+02 0.  0.
         12    1    3    3    0    0  0.28030615244E+02  0.22729668256E+02 -0.73092646599E+01  0.36820898412E+02  0.00000000000E+00 0. -1.
         11    1    4    4    0    0 -0.54371953607E+01 -0.95843165047E+00 -0.10645140209E+02  0.11991692748E+02  0.51100000000E-03 0. -1.
        -11    1    4    4    0    0 -0.37725273119E+01 -0.12050624720E+02  0.16992565178E+02  0.21170658706E+02  0.51100000000E-03 0.  1.
         12    1    4    4    0    0 -0.18820892572E+02 -0.97206118859E+01  0.96183969143E+00  0.21204750134E+02  0.00000000000E+00 0. -1.
</event>
<event>
 8    1  0.1253488E-006  0.9118800E+02  0.7816164E-02  0.1184000E+00
        -11   -1    0    0    0    0  0.00000000000E+00  0.00000000000E+00  0.45593999997E+02  0.45594000000E+02  0.51100000000E-03 0.  1.
         11   -1    0    0    0    0 -0.00000000000E+00 -0.00000000000E+00 -0.45593999997E+02  0.45594000000E+02  0.51100000000E-03 0. -1.
         23    2    1    2    0    0  0.71054273576E-14  0.00000000000E+00  0.17763568394E-14  0.91188000000E+02  0.91188000000E+02 0.  0.
    9900012    2    3    3    0    0  0.29144613758E+02 -0.19466115162E+02  0.11289012518E+02  0.54367082654E+02  0.39999996525E+02 0.  0.
        -12    1    3    3    0    0 -0.29144613758E+02  0.19466115162E+02 -0.11289012518E+02  0.36820917346E+02  0.00000000000E+00 0.  1.
         11    1    4    4    0    0  0.93386200269E+01 -0.48773598500E+01 -0.17936439221E+01  0.10687170902E+02  0.51100000000E-03 0. -1.
        -11    1    4    4    0    0  0.13409409535E+02 -0.23219267519E+02  0.17549428554E+02  0.32045734366E+02  0.51100000000E-03 0.  1.
         12    1    4    4    0    0  0.63965841956E+01  0.86305122068E+01 -0.44667721138E+01  0.11634177386E+02  0.00000000000E+00 0. -1.
</event>
<event>
 8    1  0.1253488E-006  0.9118800E+02  0.7816164E-02  0.1184000E+00
        -11   -1    0    0    0    0  0.00000000000E+00  0.00000000000E+00  0.45593999997E+02  0.45594000000E+02  0.51100000000E-03 0.  1.
         11   -1    0    0    0    0 -0.00000000000E+00 -0.00000000000E+00 -0.45593999997E+02  0.45594000000E+02  0.51100000000E-03 0. -1.
         23    2    1    2    0    0  0.00000000000E+00 -0.71054273576E-14  0.35527136788E-14  0.91188000000E+02  0.91188000000E+02 0.  0.
    9900012    2    3    3    0    0 -0.18795885253E+02 -0.29450236999E+02  0.11626636756E+02  0.54367076003E+02  0.39999981363E+02 0.  0.
         12    1    3    3    0    0  0.18795885253E+02  0.29450236999E+02 -0.11626636756E+02  0.36820923997E+02  0.00000000000E+00 0. -1.
         11    1    4    4    0    0  0.19795457541E+01  0.62733458396E+00  0.10079706009E+02  0.10291385891E+02  0.51100000000E-03 0. -1.
        -11    1    4    4    0    0 -0.54195185446E+01  0.26171589452E+01  0.49526246285E+01  0.77941768759E+01  0.51100000000E-03 0.  1.
        -12    1    4    4    0    0 -0.15355912462E+02 -0.32694730528E+02 -0.34056938809E+01  0.36281513236E+02  0.00000000000E+00 0.  1.
</event>
<event>
 8    1  0.1253488E-006  0.9118800E+02  0.7816164E-02  0.1184000E+00
        -11   -1    0    0    0    0  0.00000000000E+00  0.00000000000E+00  0.45593999997E+02  0.45594000000E+02  0.51100000000E-03 0.  1.
         11   -1    0    0    0    0 -0.00000000000E+00 -0.00000000000E+00 -0.45593999997E+02  0.45594000000E+02  0.51100000000E-03 0. -1.
         23    2    1    2    0    0  0.44408920985E-15  0.00000000000E+00  0.35527136788E-14  0.91188000000E+02  0.91188000000E+02 0.  0.
    9900012    2    3    3    0    0  0.33276134646E+01 -0.19113589247E+02  0.31295030210E+02  0.54367065450E+02  0.39999957307E+02 0.  0.
         12    1    3    3    0    0 -0.33276134646E+01  0.19113589247E+02 -0.31295030210E+02  0.36820934550E+02  0.00000000000E+00 0. -1.
         11    1    4    4    0    0  0.62674268527E+00 -0.10592644843E+02 -0.73611453632E+00  0.10636672226E+02  0.51100000000E-03 0. -1.
        -11    1    4    4    0    0  0.11754666616E+02  0.54007876115E+01  0.16741333853E+02  0.21156865399E+02  0.51100000000E-03 0.  1.
        -12    1    4    4    0    0 -0.90537958362E+01 -0.13921732015E+02  0.15289810893E+02  0.22573527825E+02  0.00000000000E+00 0.  1.
</event>
<event>
 8    1  0.1253488E-006  0.9118800E+02  0.7816164E-02  0.1184000E+00
        -11   -1    0    0    0    0  0.00000000000E+00  0.00000000000E+00  0.45593999997E+02  0.45594000000E+02  0.51100000000E-03 0. -1.
         11   -1    0    0    0    0 -0.00000000000E+00 -0.00000000000E+00 -0.45593999997E+02  0.45594000000E+02  0.51100000000E-03 0.  1.
         23    2    1    2    0    0  0.00000000000E+00  0.00000000000E+00  0.00000000000E+00  0.91188000000E+02  0.91188000000E+02 0.  0.
    9900012    2    3    3    0    0 -0.19629518893E+02 -0.25496491120E+02 -0.17899484158E+02  0.54367073823E+02  0.39999976394E+02 0.  0.
         12    1    3    3    0    0  0.19629518893E+02  0.25496491120E+02  0.17899484158E+02  0.36820926177E+02  0.00000000000E+00 0. -1.
         11    1    4    4    0    0  0.73068665622E+01  0.26433369196E+01 -0.24892382765E+01  0.81592791646E+01  0.51100000000E-03 0. -1.
        -11    1    4    4    0    0 -0.15150359181E+02 -0.22191658862E+02 -0.18532927781E+02  0.32641576536E+02  0.51100000000E-03 0.  1.
        -12    1    4    4    0    0 -0.11786026274E+02 -0.59481691782E+01  0.31226818997E+01  0.13566218122E+02  0.00000000000E+00 0.  1.
</event>
<event>
 8    1  0.1253488E-006  0.9118800E+02  0.7816164E-02  0.1184000E+00
        -11   -1    0    0    0    0  0.00000000000E+00  0.00000000000E+00  0.45593999997E+02  0.45594000000E+02  0.51100000000E-03 0. -1.
         11   -1    0    0    0    0 -0.00000000000E+00 -0.00000000000E+00 -0.45593999997E+02  0.45594000000E+02  0.51100000000E-03 0.  1.
         23    2    1    2    0    0  0.35527136788E-14  0.17763568394E-14  0.00000000000E+00  0.91188000000E+02  0.91188000000E+02 0.  0.
    9900012    2    3    3    0    0 -0.13491484109E+02 -0.14331797814E+02  0.31118476269E+02  0.54367080166E+02  0.39999990855E+02 0.  0.
        -12    1    3    3    0    0  0.13491484109E+02  0.14331797814E+02 -0.31118476269E+02  0.36820919834E+02  0.00000000000E+00 0.  1.
         11    1    4    4    0    0 -0.10281855167E+02  0.78553001960E+01  0.11244341063E+02  0.17142272109E+02  0.51100000000E-03 0. -1.
        -11    1    4    4    0    0 -0.86748756309E+01 -0.32540004173E+01  0.39576495624E-01  0.92651795713E+01  0.51100000000E-03 0.  1.
         12    1    4    4    0    0  0.54652466889E+01 -0.18933097593E+02  0.19834558710E+02  0.27959628486E+02  0.00000000000E+00 0. -1.
</event>
<event>
 8    1  0.1253488E-006  0.9118800E+02  0.7816164E-02  0.1184000E+00
        -11   -1    0    0    0    0  0.00000000000E+00  0.00000000000E+00  0.45593999997E+02  0.45594000000E+02  0.51100000000E-03 0.  1.
         11   -1    0    0    0    0 -0.00000000000E+00 -0.00000000000E+00 -0.45593999997E+02  0.45594000000E+02  0.51100000000E-03 0. -1.
         23    2    1    2    0    0 -0.17763568394E-14  0.00000000000E+00  0.44408920985E-15  0.91188000000E+02  0.91188000000E+02 0.  0.
    9900012    2    3    3    0    0  0.12545447841E+02 -0.34471397071E+02  0.31807686688E+01  0.54367044460E+02  0.39999909455E+02 0.  0.
         12    1    3    3    0    0 -0.12545447841E+02  0.34471397071E+02 -0.31807686688E+01  0.36820955540E+02  0.00000000000E+00 0. -1.
         11    1    4    4    0    0  0.54230457724E+01 -0.77727165487E+00 -0.32458616472E+01  0.63678249638E+01  0.51100000000E-03 0. -1.
        -11    1    4    4    0    0 -0.93666018183E+01 -0.27604199534E+02 -0.37243505124E+00  0.29152423050E+02  0.51100000000E-03 0.  1.
        -12    1    4    4    0    0  0.16489003887E+02 -0.60899258818E+01  0.67990653673E+01  0.18846796446E+02  0.00000000000E+00 0.  1.
</event>
<event>
 8    1  0.1253488E-006  0.9118800E+02  0.7816164E-02  0.1184000E+00
        -11   -1    0    0    0    0  0.00000000000E+00  0.00000000000E+00  0.45593999997E+02  0.45594000000E+02  0.51100000000E-03 0.  1.
         11   -1    0    0    0    0 -0.00000000000E+00 -0.00000000000E+00 -0.45593999997E+02  0.45594000000E+02  0.51100000000E-03 0. -1.
         23    2    1    2    0    0  0.71054273576E-14  0.17763568394E-14  0.00000000000E+00  0.91188000000E+02  0.91188000000E+02 0.  0.
    9900012    2    3    3    0    0 -0.34993368206E+02 -0.81008447962E+01  0.81007438113E+01  0.54367060915E+02  0.39999946968E+02 0.  0.
         12    1    3    3    0    0  0.34993368206E+02  0.81008447962E+01 -0.81007438113E+01  0.36820939085E+02  0.00000000000E+00 0. -1.
         11    1    4    4    0    0 -0.48773538808E+01  0.40113980783E+01 -0.41642626412E+00  0.63287681673E+01  0.51100000000E-03 0. -1.
        -11    1    4    4    0    0 -0.30860982991E+02 -0.88197789026E+01  0.18812628396E+02  0.37203544972E+02  0.51100000000E-03 0.  1.
        -12    1    4    4    0    0  0.74496866564E+00 -0.32924639719E+01 -0.10295458321E+02  0.10834747775E+02  0.00000000000E+00 0.  1.
</event>
<event>
 8    1  0.1253488E-006  0.9118800E+02  0.7816164E-02  0.1184000E+00
        -11   -1    0    0    0    0  0.00000000000E+00  0.00000000000E+00  0.45593999997E+02  0.45594000000E+02  0.51100000000E-03 0. -1.
         11   -1    0    0    0    0 -0.00000000000E+00 -0.00000000000E+00 -0.45593999997E+02  0.45594000000E+02  0.51100000000E-03 0.  1.
         23    2    1    2    0    0  0.00000000000E+00  0.00000000000E+00 -0.88817841970E-15  0.91188000000E+02  0.91188000000E+02 0.  0.
    9900012    2    3    3    0    0 -0.20415861647E+02  0.30502872216E+02  0.29236930288E+01  0.54367073869E+02  0.39999976499E+02 0.  0.
         12    1    3    3    0    0  0.20415861647E+02 -0.30502872216E+02 -0.29236930288E+01  0.36820926131E+02  0.00000000000E+00 0. -1.
         11    1    4    4    0    0 -0.30473291352E+01  0.11455148127E+02  0.98084081253E+01  0.15385431540E+02  0.51100000000E-03 0. -1.
        -11    1    4    4    0    0 -0.13067746921E+02  0.32045119232E+01  0.89604728005E+01  0.16165549150E+02  0.51100000000E-03 0.  1.
        -12    1    4    4    0    0 -0.43007855902E+01  0.15843212166E+02 -0.15845187897E+02  0.22816093179E+02  0.00000000000E+00 0.  1.
</event>
<event>
 8    1  0.1253488E-006  0.9118800E+02  0.7816164E-02  0.1184000E+00
        -11   -1    0    0    0    0  0.00000000000E+00  0.00000000000E+00  0.45593999997E+02  0.45594000000E+02  0.51100000000E-03 0.  1.
         11   -1    0    0    0    0 -0.00000000000E+00 -0.00000000000E+00 -0.45593999997E+02  0.45594000000E+02  0.51100000000E-03 0. -1.
         23    2    1    2    0    0  0.00000000000E+00  0.44408920985E-15 -0.71054273576E-14  0.91188000000E+02  0.91188000000E+02 0.  0.
    9900012    2    3    3    0    0  0.26399734198E+01 -0.46488567268E+00 -0.36723179407E+02  0.54367116197E+02  0.40000072993E+02 0.  0.
        -12    1    3    3    0    0 -0.26399734198E+01  0.46488567268E+00  0.36723179407E+02  0.36820883803E+02  0.00000000000E+00 0.  1.
         11    1    4    4    0    0  0.28869072278E+01 -0.21502693312E+01 -0.26004914734E+02  0.26252875693E+02  0.51100000000E-03 0. -1.
        -11    1    4    4    0    0  0.73836034160E+01 -0.60962480117E+01 -0.13792553700E+02  0.16790365602E+02  0.51100000000E-03 0.  1.
        -12    1    4    4    0    0 -0.76305372239E+01  0.77816316702E+01  0.30742890273E+01  0.11323874902E+02  0.00000000000E+00 0.  1.
</event>
<event>
 8    1  0.1253488E-006  0.9118800E+02  0.7816164E-02  0.1184000E+00
        -11   -1    0    0    0    0  0.00000000000E+00  0.00000000000E+00  0.45593999997E+02  0.45594000000E+02  0.51100000000E-03 0. -1.
         11   -1    0    0    0    0 -0.00000000000E+00 -0.00000000000E+00 -0.45593999997E+02  0.45594000000E+02  0.51100000000E-03 0.  1.
         23    2    1    2    0    0 -0.17763568394E-14  0.71054273576E-14 -0.66613381478E-15  0.91188000000E+02  0.91188000000E+02 0.  0.
    9900012    2    3    3    0    0  0.11655422797E+02 -0.34921277245E+02  0.65888872685E+00  0.54367100780E+02  0.40000037849E+02 0.  0.
        -12    1    3    3    0    0 -0.11655422797E+02  0.34921277245E+02 -0.65888872685E+00  0.36820899220E+02  0.00000000000E+00 0.  1.
         11    1    4    4    0    0 -0.60365061585E+01  0.29759037850E+01  0.10723812337E+01  0.68150870655E+01  0.51100000000E-03 0. -1.
        -11    1    4    4    0    0  0.10547220916E+02 -0.75304049907E+01 -0.82808352379E+01  0.15379307555E+02  0.51100000000E-03 0.  1.
        -12    1    4    4    0    0  0.71447080403E+01 -0.30366776039E+02  0.78673427311E+01  0.32172706160E+02  0.00000000000E+00 0.  1.
</event>
<event>
 8    1  0.1253488E-006  0.9118800E+02  0.7816164E-02  0.1184000E+00
        -11   -1    0    0    0    0  0.00000000000E+00  0.00000000000E+00  0.45593999997E+02  0.45594000000E+02  0.51100000000E-03 0. -1.
         11   -1    0    0    0    0 -0.00000000000E+00 -0.00000000000E+00 -0.45593999997E+02  0.45594000000E+02  0.51100000000E-03 0.  1.
         23    2    1    2    0    0  0.00000000000E+00  0.00000000000E+00  0.00000000000E+00  0.91188000000E+02  0.91188000000E+02 0.  0.
    9900012    2    3    3    0    0 -0.33482521740E+02 -0.61305970177E+01 -0.14039788445E+02  0.54367093691E+02  0.40000021687E+02 0.  0.
         12    1    3    3    0    0  0.33482521740E+02  0.61305970177E+01  0.14039788445E+02  0.36820906309E+02  0.00000000000E+00 0. -1.
         11    1    4    4    0    0 -0.50519808510E+01  0.12790619327E+02  0.76735465523E+00  0.13773572039E+02  0.51100000000E-03 0. -1.
        -11    1    4    4    0    0 -0.25968723725E+02 -0.11148765255E+02 -0.15804387527E+02  0.32379750524E+02  0.51100000000E-03 0.  1.
        -12    1    4    4    0    0 -0.24618171640E+01 -0.77724510900E+01  0.99724442663E+00  0.82137711279E+01  0.00000000000E+00 0.  1.
</event>
<event>
 8    1  0.1253488E-006  0.9118800E+02  0.7816164E-02  0.1184000E+00
        -11   -1    0    0    0    0  0.00000000000E+00  0.00000000000E+00  0.45593999997E+02  0.45594000000E+02  0.51100000000E-03 0. -1.
         11   -1    0    0    0    0 -0.00000000000E+00 -0.00000000000E+00 -0.45593999997E+02  0.45594000000E+02  0.51100000000E-03 0.  1.
         23    2    1    2    0    0  0.00000000000E+00  0.00000000000E+00  0.00000000000E+00  0.91188000000E+02  0.91188000000E+02 0.  0.
    9900012    2    3    3    0    0  0.46499684353E+01 -0.34512314302E+02  0.11960387322E+02  0.54367178312E+02  0.40000214597E+02 0.  0.
        -12    1    3    3    0    0 -0.46499684353E+01  0.34512314302E+02 -0.11960387322E+02  0.36820821688E+02  0.00000000000E+00 0.  1.
         11    1    4    4    0    0 -0.12692640491E+02 -0.59266697080E+01 -0.17251073001E+01  0.14113983559E+02  0.51100000000E-03 0.  1.
        -11    1    4    4    0    0  0.18601505058E+02 -0.18527330434E+02  0.14659758424E+02  0.30069693725E+02  0.51100000000E-03 0. -1.
         12    1    4    4    0    0 -0.12588961318E+01 -0.10058314160E+02 -0.97426380254E+00  0.10183501027E+02  0.00000000000E+00 0. -1.
</event>
<event>
 8    1  0.1253488E-006  0.9118800E+02  0.7816164E-02  0.1184000E+00
        -11   -1    0    0    0    0  0.00000000000E+00  0.00000000000E+00  0.45593999997E+02  0.45594000000E+02  0.51100000000E-03 0. -1.
         11   -1    0    0    0    0 -0.00000000000E+00 -0.00000000000E+00 -0.45593999997E+02  0.45594000000E+02  0.51100000000E-03 0.  1.
         23    2    1    2    0    0 -0.35527136788E-14 -0.35527136788E-14 -0.17763568394E-14  0.91188000000E+02  0.91188000000E+02 0.  0.
    9900012    2    3    3    0    0  0.21133373545E+02  0.26278389456E+02  0.14785131956E+02  0.54367172242E+02  0.40000200760E+02 0.  0.
         12    1    3    3    0    0 -0.21133373545E+02 -0.26278389456E+02 -0.14785131956E+02  0.36820827758E+02  0.00000000000E+00 0. -1.
         11    1    4    4    0    0  0.33575886069E+01 -0.69811188780E+01 -0.27845294907E+01  0.82318300996E+01  0.51100000000E-03 0. -1.
        -11    1    4    4    0    0  0.17393384783E+02  0.11838194080E+02  0.10905135909E+02  0.23697988580E+02  0.51100000000E-03 0.  1.
        -12    1    4    4    0    0  0.38240015567E+00  0.21421314254E+02  0.66645255374E+01  0.22437353563E+02  0.00000000000E+00 0.  1.
</event>
<event>
 8    1  0.1253488E-006  0.9118800E+02  0.7816164E-02  0.1184000E+00
        -11   -1    0    0    0    0  0.00000000000E+00  0.00000000000E+00  0.45593999997E+02  0.45594000000E+02  0.51100000000E-03 0.  1.
         11   -1    0    0    0    0 -0.00000000000E+00 -0.00000000000E+00 -0.45593999997E+02  0.45594000000E+02  0.51100000000E-03 0. -1.
         23    2    1    2    0    0  0.17763568394E-14  0.44408920985E-15  0.00000000000E+00  0.91188000000E+02  0.91188000000E+02 0.  0.
    9900012    2    3    3    0    0 -0.14368872052E+02 -0.28355872452E+01  0.33782765190E+02  0.54367078461E+02  0.39999986968E+02 0.  0.
         12    1    3    3    0    0  0.14368872052E+02  0.28355872452E+01 -0.33782765190E+02  0.36820921539E+02  0.00000000000E+00 0. -1.
         11    1    4    4    0    0  0.20811492986E+00  0.18282536587E+01  0.23140402500E+02  0.23213445487E+02  0.51100000000E-03 0.  1.
        -11    1    4    4    0    0  0.18003060508E+01 -0.28480804468E+01 -0.65339645193E+01  0.73515547137E+01  0.51100000000E-03 0. -1.
         12    1    4    4    0    0 -0.16377293032E+02 -0.18157604571E+01  0.17176327209E+02  0.23802078260E+02  0.00000000000E+00 0. -1.
</event>
<event>
 8    1  0.1253488E-006  0.9118800E+02  0.7816164E-02  0.1184000E+00
        -11   -1    0    0    0    0  0.00000000000E+00  0.00000000000E+00  0.45593999997E+02  0.45594000000E+02  0.51100000000E-03 0.  1.
         11   -1    0    0    0    0 -0.00000000000E+00 -0.00000000000E+00 -0.45593999997E+02  0.45594000000E+02  0.51100000000E-03 0. -1.
         23    2    1    2    0    0  0.00000000000E+00 -0.35527136788E-14  0.00000000000E+00  0.91188000000E+02  0.91188000000E+02 0.  0.
    9900012    2    3    3    0    0 -0.48165895735E+01 -0.23344875508E+02 -0.28064143787E+02  0.54367096777E+02  0.40000028724E+02 0.  0.
        -12    1    3    3    0    0  0.48165895735E+01  0.23344875508E+02  0.28064143787E+02  0.36820903223E+02  0.00000000000E+00 0.  1.
         11    1    4    4    0    0 -0.33097513499E+01  0.62707226652E+01  0.26469467529E+01  0.75685364580E+01  0.51100000000E-03 0.  1.
        -11    1    4    4    0    0  0.81706041932E+01 -0.20277354236E+02 -0.19261038504E+02  0.29136188361E+02  0.51100000000E-03 0. -1.
         12    1    4    4    0    0 -0.96774424169E+01 -0.93382439368E+01 -0.11450052037E+02  0.17662371958E+02  0.00000000000E+00 0. -1.
</event>
<event>
 8    1  0.1253488E-006  0.9118800E+02  0.7816164E-02  0.1184000E+00
        -11   -1    0    0    0    0  0.00000000000E+00  0.00000000000E+00  0.45593999997E+02  0.45594000000E+02  0.51100000000E-03 0. -1.
         11   -1    0    0    0    0 -0.00000000000E+00 -0.00000000000E+00 -0.45593999997E+02  0.45594000000E+02  0.51100000000E-03 0.  1.
         23    2    1    2    0    0  0.00000000000E+00  0.35527136788E-14  0.88817841970E-15  0.91188000000E+02  0.91188000000E+02 0.  0.
    9900012    2    3    3    0    0  0.22226183335E+02  0.28970955483E+02  0.47393421562E+01  0.54367070472E+02  0.39999968755E+02 0.  0.
        -12    1    3    3    0    0 -0.22226183335E+02 -0.28970955483E+02 -0.47393421562E+01  0.36820929528E+02  0.00000000000E+00 0.  1.
         11    1    4    4    0    0 -0.51317922362E+01  0.14777695214E+02  0.41118763909E+01  0.16174767235E+02  0.51100000000E-03 0.  1.
        -11    1    4    4    0    0  0.19718069254E+02  0.10070248736E+02  0.10953270901E+02  0.24701949486E+02  0.51100000000E-03 0. -1.
        -12    1    4    4    0    0  0.76399063168E+01  0.41230115328E+01 -0.10325805136E+02  0.13490353751E+02  0.00000000000E+00 0.  1.
</event>
<event>
 8    1  0.1253488E-006  0.9118800E+02  0.7816164E-02  0.1184000E+00
        -11   -1    0    0    0    0  0.00000000000E+00  0.00000000000E+00  0.45593999997E+02  0.45594000000E+02  0.51100000000E-03 0.  1.
         11   -1    0    0    0    0 -0.00000000000E+00 -0.00000000000E+00 -0.45593999997E+02  0.45594000000E+02  0.51100000000E-03 0. -1.
         23    2    1    2    0    0  0.17763568394E-14  0.35527136788E-14  0.00000000000E+00  0.91188000000E+02  0.91188000000E+02 0.  0.
    9900012    2    3    3    0    0  0.14584758318E+02 -0.25768359408E+02 -0.21887364948E+02  0.54367078418E+02  0.39999986871E+02 0.  0.
        -12    1    3    3    0    0 -0.14584758318E+02  0.25768359408E+02  0.21887364948E+02  0.36820921582E+02  0.00000000000E+00 0.  1.
         11    1    4    4    0    0  0.13102565587E+02 -0.22912845605E+02 -0.31845892824E+02  0.41362260682E+02  0.51100000000E-03 0. -1.
        -11    1    4    4    0    0 -0.14458411667E+01 -0.39575417974E+01  0.86344316705E+01  0.96076013807E+01  0.51100000000E-03 0.  1.
         12    1    4    4    0    0  0.29280338979E+01  0.11020279952E+01  0.13240962053E+01  0.33972163562E+01  0.00000000000E+00 0. -1.
</event>
<event>
 8    1  0.1253488E-006  0.9118800E+02  0.7816164E-02  0.1184000E+00
        -11   -1    0    0    0    0  0.00000000000E+00  0.00000000000E+00  0.45593999997E+02  0.45594000000E+02  0.51100000000E-03 0. -1.
         11   -1    0    0    0    0 -0.00000000000E+00 -0.00000000000E+00 -0.45593999997E+02  0.45594000000E+02  0.51100000000E-03 0.  1.
         23    2    1    2    0    0 -0.26645352591E-14  0.00000000000E+00  0.00000000000E+00  0.91188000000E+02  0.91188000000E+02 0.  0.
    9900012    2    3    3    0    0  0.57469858096E+01 -0.36140231993E+02  0.40788993793E+01  0.54367059836E+02  0.39999944508E+02 0.  0.
        -12    1    3    3    0    0 -0.57469858096E+01  0.36140231993E+02 -0.40788993793E+01  0.36820940164E+02  0.00000000000E+00 0.  1.
         11    1    4    4    0    0 -0.11627214032E+02 -0.10459255145E+02  0.76403256589E+00  0.15657965077E+02  0.51100000000E-03 0.  1.
        -11    1    4    4    0    0  0.17537797891E+02 -0.24265392469E+02  0.10237292113E+02  0.31641519822E+02  0.51100000000E-03 0. -1.
         12    1    4    4    0    0 -0.16359805024E+00 -0.14155843788E+01 -0.69224252999E+01  0.70675749368E+01  0.00000000000E+00 0. -1.
</event>
<event>
 8    1  0.1253488E-006  0.9118800E+02  0.7816164E-02  0.1184000E+00
        -11   -1    0    0    0    0  0.00000000000E+00  0.00000000000E+00  0.45593999997E+02  0.45594000000E+02  0.51100000000E-03 0.  1.
         11   -1    0    0    0    0 -0.00000000000E+00 -0.00000000000E+00 -0.45593999997E+02  0.45594000000E+02  0.51100000000E-03 0. -1.
         23    2    1    2    0    0 -0.35527136788E-14  0.35527136788E-14  0.35527136788E-14  0.91188000000E+02  0.91188000000E+02 0.  0.
    9900012    2    3    3    0    0  0.25723810878E+02 -0.17434363203E+02 -0.19750887617E+02  0.54367231023E+02  0.40000334762E+02 0.  0.
        -12    1    3    3    0    0 -0.25723810878E+02  0.17434363203E+02  0.19750887617E+02  0.36820768977E+02  0.00000000000E+00 0.  1.
         11    1    4    4    0    0  0.88669120961E+00 -0.16565510324E+02 -0.27488736860E+01  0.16815429236E+02  0.51100000000E-03 0. -1.
        -11    1    4    4    0    0  0.10478645578E+01 -0.75252067797E+01 -0.85615186357E+01  0.11446674575E+02  0.51100000000E-03 0.  1.
        -12    1    4    4    0    0  0.23789255110E+02  0.66563539004E+01 -0.84404952953E+01  0.26105127212E+02  0.00000000000E+00 0.  1.
</event>
<event>
 8    1  0.1253488E-006  0.9118800E+02  0.7816164E-02  0.1184000E+00
        -11   -1    0    0    0    0  0.00000000000E+00  0.00000000000E+00  0.45593999997E+02  0.45594000000E+02  0.51100000000E-03 0. -1.
         11   -1    0    0    0    0 -0.00000000000E+00 -0.00000000000E+00 -0.45593999997E+02  0.45594000000E+02  0.51100000000E-03 0.  1.
         23    2    1    2    0    0  0.00000000000E+00  0.00000000000E+00 -0.17763568394E-14  0.91188000000E+02  0.91188000000E+02 0.  0.
    9900012    2    3    3    0    0 -0.35052843047E+02  0.49559657844E+01 -0.10125052200E+02  0.54367080883E+02  0.39999992489E+02 0.  0.
         12    1    3    3    0    0  0.35052843047E+02 -0.49559657844E+01  0.10125052200E+02  0.36820919117E+02  0.00000000000E+00 0. -1.
         11    1    4    4    0    0 -0.80702432427E+01 -0.69528551955E+00  0.60459380913E+01  0.10107700808E+02  0.51100000000E-03 0. -1.
        -11    1    4    4    0    0  0.22391538918E+01 -0.11829684878E+01  0.62859901316E+01  0.67769386001E+01  0.51100000000E-03 0.  1.
        -12    1    4    4    0    0 -0.29221753697E+02  0.68342197918E+01 -0.22456980423E+02  0.37482441475E+02  0.00000000000E+00 0.  1.
</event>
<event>
 8    1  0.1253488E-006  0.9118800E+02  0.7816164E-02  0.1184000E+00
        -11   -1    0    0    0    0  0.00000000000E+00  0.00000000000E+00  0.45593999997E+02  0.45594000000E+02  0.51100000000E-03 0.  1.
         11   -1    0    0    0    0 -0.00000000000E+00 -0.00000000000E+00 -0.45593999997E+02  0.45594000000E+02  0.51100000000E-03 0. -1.
         23    2    1    2    0    0  0.17763568394E-14  0.00000000000E+00  0.00000000000E+00  0.91188000000E+02  0.91188000000E+02 0.  0.
    9900012    2    3    3    0    0 -0.15193951423E+02  0.32152597228E+02  0.95461903932E+01  0.54367144234E+02  0.40000136909E+02 0.  0.
         12    1    3    3    0    0  0.15193951423E+02 -0.32152597228E+02 -0.95461903932E+01  0.36820855766E+02  0.00000000000E+00 0. -1.
         11    1    4    4    0    0 -0.36824166060E+01  0.64671231370E+01 -0.16627287552E+01  0.76255190580E+01  0.51100000000E-03 0. -1.
        -11    1    4    4    0    0  0.55171877443E+00  0.78910552191E+01 -0.12465075515E+02  0.14763172218E+02  0.51100000000E-03 0.  1.
         12    1    4    4    0    0 -0.12063253592E+02  0.17794418872E+02  0.23673994664E+02  0.31978452957E+02  0.00000000000E+00 0. -1.
</event>
<event>
 8    1  0.1253488E-006  0.9118800E+02  0.7816164E-02  0.1184000E+00
        -11   -1    0    0    0    0  0.00000000000E+00  0.00000000000E+00  0.45593999997E+02  0.45594000000E+02  0.51100000000E-03 0.  1.
         11   -1    0    0    0    0 -0.00000000000E+00 -0.00000000000E+00 -0.45593999997E+02  0.45594000000E+02  0.51100000000E-03 0. -1.
         23    2    1    2    0    0  0.00000000000E+00  0.00000000000E+00  0.35527136788E-14  0.91188000000E+02  0.91188000000E+02 0.  0.
    9900012    2    3    3    0    0 -0.16778985466E+02 -0.14877126578E+02  0.29204781663E+02  0.54367047806E+02  0.39999917082E+02 0.  0.
         12    1    3    3    0    0  0.16778985466E+02  0.14877126578E+02 -0.29204781663E+02  0.36820952194E+02  0.00000000000E+00 0. -1.
         11    1    4    4    0    0 -0.16304134609E+02 -0.11544598851E+01 -0.58534958573E-02  0.16344956944E+02  0.51100000000E-03 0. -1.
        -11    1    4    4    0    0 -0.25726315579E+01 -0.11742441048E+02  0.31892806762E+02  0.34083052656E+02  0.51100000000E-03 0.  1.
        -12    1    4    4    0    0  0.20977807008E+01 -0.19802256454E+01 -0.26821716032E+01  0.39390382055E+01  0.00000000000E+00 0.  1.
</event>
<event>
 8    1  0.1253488E-006  0.9118800E+02  0.7816164E-02  0.1184000E+00
        -11   -1    0    0    0    0  0.00000000000E+00  0.00000000000E+00  0.45593999997E+02  0.45594000000E+02  0.51100000000E-03 0. -1.
         11   -1    0    0    0    0 -0.00000000000E+00 -0.00000000000E+00 -0.45593999997E+02  0.45594000000E+02  0.51100000000E-03 0.  1.
         23    2    1    2    0    0  0.00000000000E+00  0.17763568394E-14 -0.71054273576E-14  0.91188000000E+02  0.91188000000E+02 0.  0.
    9900012    2    3    3    0    0 -0.20246059598E+02 -0.10320953151E+02  0.28971607580E+02  0.54367094947E+02  0.40000024550E+02 0.  0.
        -12    1    3    3    0    0  0.20246059598E+02  0.10320953151E+02 -0.28971607580E+02  0.36820905053E+02  0.00000000000E+00 0.  1.
         11    1    4    4    0    0 -0.95314859766E+01  0.35727520531E+01  0.45729376440E+01  0.11159101268E+02  0.51100000000E-03 0. -1.
        -11    1    4    4    0    0 -0.10352656329E+02  0.81087366051E+01  0.57056622223E+01  0.14334702092E+02  0.51100000000E-03 0.  1.
        -12    1    4    4    0    0 -0.36191729162E+00 -0.22002441809E+02  0.18693007714E+02  0.28873291587E+02  0.00000000000E+00 0.  1.
</event>
<event>
 8    1  0.1253488E-006  0.9118800E+02  0.7816164E-02  0.1184000E+00
        -11   -1    0    0    0    0  0.00000000000E+00  0.00000000000E+00  0.45593999997E+02  0.45594000000E+02  0.51100000000E-03 0.  1.
         11   -1    0    0    0    0 -0.00000000000E+00 -0.00000000000E+00 -0.45593999997E+02  0.45594000000E+02  0.51100000000E-03 0. -1.
         23    2    1    2    0    0  0.17763568394E-14 -0.71054273576E-14 -0.17763568394E-14  0.91188000000E+02  0.91188000000E+02 0.  0.
    9900012    2    3    3    0    0  0.68704752282E+01 -0.32725183035E+02 -0.15415538874E+02  0.54367083752E+02  0.39999999030E+02 0.  0.
        -12    1    3    3    0    0 -0.68704752282E+01  0.32725183035E+02  0.15415538874E+02  0.36820916248E+02  0.00000000000E+00 0.  1.
         11    1    4    4    0    0  0.11214255573E+02 -0.16186225183E+02 -0.38138153563E+00  0.19695148282E+02  0.51100000000E-03 0. -1.
        -11    1    4    4    0    0 -0.95064399013E+01 -0.18487676386E+02 -0.18769602740E+02  0.28008294576E+02  0.51100000000E-03 0.  1.
        -12    1    4    4    0    0  0.51626595570E+01  0.19487185344E+01  0.37354454011E+01  0.66636408946E+01  0.00000000000E+00 0.  1.
</event>
<event>
 8    1  0.1253488E-006  0.9118800E+02  0.7816164E-02  0.1184000E+00
        -11   -1    0    0    0    0  0.00000000000E+00  0.00000000000E+00  0.45593999997E+02  0.45594000000E+02  0.51100000000E-03 0.  1.
         11   -1    0    0    0    0 -0.00000000000E+00 -0.00000000000E+00 -0.45593999997E+02  0.45594000000E+02  0.51100000000E-03 0. -1.
         23    2    1    2    0    0  0.00000000000E+00  0.35527136788E-14  0.88817841970E-15  0.91188000000E+02  0.91188000000E+02 0.  0.
    9900012    2    3    3    0    0 -0.29865114262E+02  0.21035064449E+02  0.46237474174E+01  0.54367108832E+02  0.40000056205E+02 0.  0.
         12    1    3    3    0    0  0.29865114262E+02 -0.21035064449E+02 -0.46237474174E+01  0.36820891168E+02  0.00000000000E+00 0. -1.
         11    1    4    4    0    0 -0.26342050554E+02  0.12537518322E+01 -0.94094464452E-01  0.26372037750E+02  0.51100000000E-03 0. -1.
        -11    1    4    4    0    0 -0.79724337105E+01  0.21710480412E+01 -0.22130530110E+01  0.85539904580E+01  0.51100000000E-03 0.  1.
        -12    1    4    4    0    0  0.44493700027E+01  0.17610264575E+02  0.69308948929E+01  0.19441080624E+02  0.00000000000E+00 0.  1.
</event>
<event>
 8    1  0.1253488E-006  0.9118800E+02  0.7816164E-02  0.1184000E+00
        -11   -1    0    0    0    0  0.00000000000E+00  0.00000000000E+00  0.45593999997E+02  0.45594000000E+02  0.51100000000E-03 0.  1.
         11   -1    0    0    0    0 -0.00000000000E+00 -0.00000000000E+00 -0.45593999997E+02  0.45594000000E+02  0.51100000000E-03 0. -1.
         23    2    1    2    0    0 -0.14210854715E-13  0.13322676296E-14  0.17763568394E-14  0.91188000000E+02  0.91188000000E+02 0.  0.
    9900012    2    3    3    0    0  0.35850054150E+02 -0.98781672611E+00 -0.83413308814E+01  0.54367082503E+02  0.39999996183E+02 0.  0.
        -12    1    3    3    0    0 -0.35850054150E+02  0.98781672611E+00  0.83413308814E+01  0.36820917497E+02  0.00000000000E+00 0.  1.
         11    1    4    4    0    0  0.29147228432E+01  0.36863196060E+01 -0.25228086340E+01  0.53337721319E+01  0.51100000000E-03 0. -1.
        -11    1    4    4    0    0  0.36025661457E+02 -0.10997944194E+02  0.29581102136E+01  0.37782978657E+02  0.51100000000E-03 0.  1.
         12    1    4    4    0    0 -0.30903301507E+01  0.63238078623E+01 -0.87766324609E+01  0.11250331714E+02  0.00000000000E+00 0. -1.
</event>
<event>
 8    1  0.1253488E-006  0.9118800E+02  0.7816164E-02  0.1184000E+00
        -11   -1    0    0    0    0  0.00000000000E+00  0.00000000000E+00  0.45593999997E+02  0.45594000000E+02  0.51100000000E-03 0. -1.
         11   -1    0    0    0    0 -0.00000000000E+00 -0.00000000000E+00 -0.45593999997E+02  0.45594000000E+02  0.51100000000E-03 0.  1.
         23    2    1    2    0    0  0.71054273576E-14  0.00000000000E+00 -0.17763568394E-14  0.91188000000E+02  0.91188000000E+02 0.  0.
    9900012    2    3    3    0    0 -0.34099551424E+02  0.38175466782E+01  0.13357647932E+02  0.54367084365E+02  0.40000000426E+02 0.  0.
        -12    1    3    3    0    0  0.34099551424E+02 -0.38175466782E+01 -0.13357647932E+02  0.36820915635E+02  0.00000000000E+00 0.  1.
         11    1    4    4    0    0  0.18172348010E+01 -0.32263724910E+01  0.91133131876E+01  0.98368846333E+01  0.51100000000E-03 0. -1.
        -11    1    4    4    0    0  0.10733010482E+01 -0.49937599434E+01  0.22448406809E+01  0.55793300186E+01  0.51100000000E-03 0.  1.
         12    1    4    4    0    0 -0.36990087273E+02  0.12037679113E+02  0.19994940633E+01  0.38950869713E+02  0.00000000000E+00 0. -1.
</event>
<event>
 8    1  0.1253488E-006  0.9118800E+02  0.7816164E-02  0.1184000E+00
        -11   -1    0    0    0    0  0.00000000000E+00  0.00000000000E+00  0.45593999997E+02  0.45594000000E+02  0.51100000000E-03 0. -1.
         11   -1    0    0    0    0 -0.00000000000E+00 -0.00000000000E+00 -0.45593999997E+02  0.45594000000E+02  0.51100000000E-03 0.  1.
         23    2    1    2    0    0  0.35527136788E-14 -0.88817841970E-15  0.00000000000E+00  0.91188000000E+02  0.91188000000E+02 0.  0.
    9900012    2    3    3    0    0 -0.26366410092E+02  0.54296857835E+01 -0.25121896535E+02  0.54367098947E+02  0.40000033669E+02 0.  0.
         12    1    3    3    0    0  0.26366410092E+02 -0.54296857835E+01  0.25121896535E+02  0.36820901053E+02  0.00000000000E+00 0. -1.
         11    1    4    4    0    0  0.19221716873E+01  0.91077847991E+01 -0.13666863269E+02  0.16535708023E+02  0.51100000000E-03 0. -1.
        -11    1    4    4    0    0 -0.10013946528E+02 -0.83233050863E+01  0.38141396056E+01  0.13568500058E+02  0.51100000000E-03 0.  1.
         12    1    4    4    0    0 -0.18274635252E+02  0.46452060707E+01 -0.15269172871E+02  0.24262890866E+02  0.00000000000E+00 0. -1.
</event>
<event>
 8    1  0.1253488E-006  0.9118800E+02  0.7816164E-02  0.1184000E+00
        -11   -1    0    0    0    0  0.00000000000E+00  0.00000000000E+00  0.45593999997E+02  0.45594000000E+02  0.51100000000E-03 0. -1.
         11   -1    0    0    0    0 -0.00000000000E+00 -0.00000000000E+00 -0.45593999997E+02  0.45594000000E+02  0.51100000000E-03 0.  1.
         23    2    1    2    0    0 -0.35527136788E-14  0.00000000000E+00  0.00000000000E+00  0.91188000000E+02  0.91188000000E+02 0.  0.
    9900012    2    3    3    0    0  0.20506804838E+02 -0.29589995018E+02 -0.77255041818E+01  0.54367078438E+02  0.39999986915E+02 0.  0.
         12    1    3    3    0    0 -0.20506804838E+02  0.29589995018E+02  0.77255041818E+01  0.36820921562E+02  0.00000000000E+00 0. -1.
         11    1    4    4    0    0  0.16017567330E+01 -0.60897834917E+01  0.12519098211E+02  0.14013525890E+02  0.51100000000E-03 0. -1.
        -11    1    4    4    0    0  0.50052701179E+01 -0.37200399465E+01 -0.14087637366E+02  0.15406263433E+02  0.51100000000E-03 0.  1.
        -12    1    4    4    0    0  0.13899777988E+02 -0.19780171579E+02 -0.61569650261E+01  0.24947289114E+02  0.00000000000E+00 0.  1.
</event>
<event>
 8    1  0.1253488E-006  0.9118800E+02  0.7816164E-02  0.1184000E+00
        -11   -1    0    0    0    0  0.00000000000E+00  0.00000000000E+00  0.45593999997E+02  0.45594000000E+02  0.51100000000E-03 0. -1.
         11   -1    0    0    0    0 -0.00000000000E+00 -0.00000000000E+00 -0.45593999997E+02  0.45594000000E+02  0.51100000000E-03 0.  1.
         23    2    1    2    0    0  0.00000000000E+00  0.00000000000E+00 -0.17763568394E-14  0.91188000000E+02  0.91188000000E+02 0.  0.
    9900012    2    3    3    0    0 -0.34554596208E+02  0.54172601957E+01  0.11507120659E+02  0.54367073165E+02  0.39999974894E+02 0.  0.
        -12    1    3    3    0    0  0.34554596208E+02 -0.54172601957E+01 -0.11507120659E+02  0.36820926835E+02  0.00000000000E+00 0.  1.
         11    1    4    4    0    0 -0.95824182955E+01  0.15430765316E+00  0.39457763180E+01  0.10364154681E+02  0.51100000000E-03 0. -1.
        -11    1    4    4    0    0 -0.33848838921E+02  0.50790435766E+01  0.78626098109E+01  0.35119242777E+02  0.51100000000E-03 0.  1.
        -12    1    4    4    0    0  0.88766610089E+01  0.18390896599E+00 -0.30126546946E+00  0.88836757064E+01  0.00000000000E+00 0.  1.
</event>
<event>
 8    1  0.1253488E-006  0.9118800E+02  0.7816164E-02  0.1184000E+00
        -11   -1    0    0    0    0  0.00000000000E+00  0.00000000000E+00  0.45593999997E+02  0.45594000000E+02  0.51100000000E-03 0. -1.
         11   -1    0    0    0    0 -0.00000000000E+00 -0.00000000000E+00 -0.45593999997E+02  0.45594000000E+02  0.51100000000E-03 0.  1.
         23    2    1    2    0    0 -0.44408920985E-15 -0.17763568394E-14  0.00000000000E+00  0.91188000000E+02  0.91188000000E+02 0.  0.
    9900012    2    3    3    0    0 -0.39979506181E+01  0.14033778304E+02 -0.33806065563E+02  0.54367073729E+02  0.39999976180E+02 0.  0.
         12    1    3    3    0    0  0.39979506181E+01 -0.14033778304E+02  0.33806065563E+02  0.36820926271E+02  0.00000000000E+00 0. -1.
         11    1    4    4    0    0 -0.42434224459E+00  0.12257300786E+02 -0.16837203587E+02  0.20830576415E+02  0.51100000000E-03 0. -1.
        -11    1    4    4    0    0 -0.15185564245E+02 -0.36532799658E+01 -0.12348065814E+02  0.19910362768E+02  0.51100000000E-03 0.  1.
         12    1    4    4    0    0  0.11611955872E+02  0.54297574836E+01 -0.46207961617E+01  0.13626134546E+02  0.00000000000E+00 0. -1.
</event>
<event>
 8    1  0.1253488E-006  0.9118800E+02  0.7816164E-02  0.1184000E+00
        -11   -1    0    0    0    0  0.00000000000E+00  0.00000000000E+00  0.45593999997E+02  0.45594000000E+02  0.51100000000E-03 0.  1.
         11   -1    0    0    0    0 -0.00000000000E+00 -0.00000000000E+00 -0.45593999997E+02  0.45594000000E+02  0.51100000000E-03 0. -1.
         23    2    1    2    0    0  0.00000000000E+00 -0.22204460493E-15  0.00000000000E+00  0.91188000000E+02  0.91188000000E+02 0.  0.
    9900012    2    3    3    0    0 -0.93507053622E+01 -0.11047025554E+01 -0.35596679750E+02  0.54367086544E+02  0.40000005395E+02 0.  0.
        -12    1    3    3    0    0  0.93507053622E+01  0.11047025554E+01  0.35596679750E+02  0.36820913456E+02  0.00000000000E+00 0.  1.
         11    1    4    4    0    0  0.53048236009E+01  0.14021578213E+02 -0.21166239147E+02  0.25937530509E+02  0.51100000000E-03 0. -1.
        -11    1    4    4    0    0 -0.11935225260E+02 -0.14704568934E+02 -0.16393611366E+02  0.25048441936E+02  0.51100000000E-03 0.  1.
         12    1    4    4    0    0 -0.27203037030E+01 -0.42171183406E+00  0.19631707631E+01  0.33811140993E+01  0.00000000000E+00 0. -1.
</event>
<event>
 8    1  0.1253488E-006  0.9118800E+02  0.7816164E-02  0.1184000E+00
        -11   -1    0    0    0    0  0.00000000000E+00  0.00000000000E+00  0.45593999997E+02  0.45594000000E+02  0.51100000000E-03 0. -1.
         11   -1    0    0    0    0 -0.00000000000E+00 -0.00000000000E+00 -0.45593999997E+02  0.45594000000E+02  0.51100000000E-03 0.  1.
         23    2    1    2    0    0  0.00000000000E+00  0.17763568394E-14  0.00000000000E+00  0.91188000000E+02  0.91188000000E+02 0.  0.
    9900012    2    3    3    0    0  0.32511805640E+02  0.15026943962E+02  0.85413263960E+01  0.54367071068E+02  0.39999970114E+02 0.  0.
        -12    1    3    3    0    0 -0.32511805640E+02 -0.15026943962E+02 -0.85413263960E+01  0.36820928932E+02  0.00000000000E+00 0.  1.
         11    1    4    4    0    0  0.22950484698E+02 -0.26764471676E+01  0.10817957747E+01  0.23131329397E+02  0.51100000000E-03 0. -1.
        -11    1    4    4    0    0 -0.10471526953E+01 -0.49619941896E+01 -0.16768673311E+00  0.50740550063E+01  0.51100000000E-03 0.  1.
         12    1    4    4    0    0  0.10608473637E+02  0.22665385319E+02  0.76272173544E+01  0.26161686665E+02  0.00000000000E+00 0. -1.
</event>
<event>
 8    1  0.1253488E-006  0.9118800E+02  0.7816164E-02  0.1184000E+00
        -11   -1    0    0    0    0  0.00000000000E+00  0.00000000000E+00  0.45593999997E+02  0.45594000000E+02  0.51100000000E-03 0. -1.
         11   -1    0    0    0    0 -0.00000000000E+00 -0.00000000000E+00 -0.45593999997E+02  0.45594000000E+02  0.51100000000E-03 0.  1.
         23    2    1    2    0    0  0.17763568394E-14  0.00000000000E+00 -0.71054273576E-14  0.91188000000E+02  0.91188000000E+02 0.  0.
    9900012    2    3    3    0    0 -0.12913502060E+02 -0.66165541183E+01  0.33841414116E+02  0.54367100592E+02  0.40000037419E+02 0.  0.
        -12    1    3    3    0    0  0.12913502060E+02  0.66165541183E+01 -0.33841414116E+02  0.36820899408E+02  0.00000000000E+00 0.  1.
         11    1    4    4    0    0 -0.36712963535E-01  0.27468166711E+01  0.14110710466E+02  0.14375621718E+02  0.51100000000E-03 0. -1.
        -11    1    4    4    0    0  0.57353669960E+01 -0.13675555946E+02  0.43208520820E+01  0.15446197849E+02  0.51100000000E-03 0.  1.
         12    1    4    4    0    0 -0.18612156092E+02  0.43121851568E+01  0.15409851568E+02  0.24545281025E+02  0.00000000000E+00 0. -1.
</event>
<event>
 8    1  0.1253488E-006  0.9118800E+02  0.7816164E-02  0.1184000E+00
        -11   -1    0    0    0    0  0.00000000000E+00  0.00000000000E+00  0.45593999997E+02  0.45594000000E+02  0.51100000000E-03 0. -1.
         11   -1    0    0    0    0 -0.00000000000E+00 -0.00000000000E+00 -0.45593999997E+02  0.45594000000E+02  0.51100000000E-03 0.  1.
         23    2    1    2    0    0  0.00000000000E+00  0.00000000000E+00 -0.17763568394E-14  0.91188000000E+02  0.91188000000E+02 0.  0.
    9900012    2    3    3    0    0  0.20730866363E+02 -0.30020557616E+02 -0.49776475731E+01  0.54367086444E+02  0.40000005167E+02 0.  0.
         12    1    3    3    0    0 -0.20730866363E+02  0.30020557616E+02  0.49776475731E+01  0.36820913556E+02  0.00000000000E+00 0. -1.
         11    1    4    4    0    0  0.15331326142E+02 -0.10141941865E+02  0.11101897961E+02  0.21474652143E+02  0.51100000000E-03 0. -1.
        -11    1    4    4    0    0  0.11421593242E+02 -0.13969836639E+02 -0.45565720402E+01  0.18611057921E+02  0.51100000000E-03 0.  1.
         12    1    4    4    0    0 -0.60220530208E+01 -0.59087791120E+01 -0.11522973494E+02  0.14281376381E+02  0.00000000000E+00 0. -1.
</event>
<event>
 8    1  0.1253488E-006  0.9118800E+02  0.7816164E-02  0.1184000E+00
        -11   -1    0    0    0    0  0.00000000000E+00  0.00000000000E+00  0.45593999997E+02  0.45594000000E+02  0.51100000000E-03 0. -1.
         11   -1    0    0    0    0 -0.00000000000E+00 -0.00000000000E+00 -0.45593999997E+02  0.45594000000E+02  0.51100000000E-03 0.  1.
         23    2    1    2    0    0  0.35527136788E-14  0.00000000000E+00  0.00000000000E+00  0.91188000000E+02  0.91188000000E+02 0.  0.
    9900012    2    3    3    0    0 -0.30299619345E+02 -0.19667688444E+02  0.71341846681E+01  0.54367061771E+02  0.39999948919E+02 0.  0.
        -12    1    3    3    0    0  0.30299619345E+02  0.19667688444E+02 -0.71341846681E+01  0.36820938229E+02  0.00000000000E+00 0.  1.
         11    1    4    4    0    0  0.11555123464E+01  0.54636536004E+01  0.19364176055E+01  0.59107049370E+01  0.51100000000E-03 0. -1.
        -11    1    4    4    0    0  0.23867767051E-01  0.34948473784E+01 -0.35894115424E+01  0.50098306708E+01  0.51100000000E-03 0.  1.
         12    1    4    4    0    0 -0.31478999459E+02 -0.28626189423E+02  0.87871786050E+01  0.43446526163E+02  0.00000000000E+00 0. -1.
</event>
<event>
 8    1  0.1253488E-006  0.9118800E+02  0.7816164E-02  0.1184000E+00
        -11   -1    0    0    0    0  0.00000000000E+00  0.00000000000E+00  0.45593999997E+02  0.45594000000E+02  0.51100000000E-03 0. -1.
         11   -1    0    0    0    0 -0.00000000000E+00 -0.00000000000E+00 -0.45593999997E+02  0.45594000000E+02  0.51100000000E-03 0.  1.
         23    2    1    2    0    0  0.35527136788E-14 -0.17763568394E-14  0.00000000000E+00  0.91188000000E+02  0.91188000000E+02 0.  0.
    9900012    2    3    3    0    0  0.14967126911E+02 -0.85376560242E+01 -0.32540416308E+02  0.54367012073E+02  0.39999835623E+02 0.  0.
         12    1    3    3    0    0 -0.14967126911E+02  0.85376560242E+01  0.32540416308E+02  0.36820987927E+02  0.00000000000E+00 0. -1.
         11    1    4    4    0    0 -0.23298749962E+01  0.15455846127E+01 -0.18675072867E+02  0.18883206723E+02  0.51100000000E-03 0.  1.
        -11    1    4    4    0    0  0.13787815612E+02 -0.17851523505E+02 -0.48403805616E+01  0.23069677827E+02  0.51100000000E-03 0. -1.
         12    1    4    4    0    0  0.35091862954E+01  0.77682828683E+01 -0.90249628798E+01  0.12414127523E+02  0.00000000000E+00 0. -1.
</event>
<event>
 8    1  0.1253488E-006  0.9118800E+02  0.7816164E-02  0.1184000E+00
        -11   -1    0    0    0    0  0.00000000000E+00  0.00000000000E+00  0.45593999997E+02  0.45594000000E+02  0.51100000000E-03 0. -1.
         11   -1    0    0    0    0 -0.00000000000E+00 -0.00000000000E+00 -0.45593999997E+02  0.45594000000E+02  0.51100000000E-03 0.  1.
         23    2    1    2    0    0  0.00000000000E+00 -0.35527136788E-14 -0.17763568394E-14  0.91188000000E+02  0.91188000000E+02 0.  0.
    9900012    2    3    3    0    0  0.30201223711E+02 -0.19282194019E+02 -0.84772623657E+01  0.54367069850E+02  0.39999967338E+02 0.  0.
         12    1    3    3    0    0 -0.30201223711E+02  0.19282194019E+02  0.84772623657E+01  0.36820930150E+02  0.00000000000E+00 0. -1.
         11    1    4    4    0    0  0.34178351115E+02 -0.62539607110E+01  0.44225623356E+01  0.35026144055E+02  0.51100000000E-03 0. -1.
        -11    1    4    4    0    0 -0.39555415694E+01 -0.52789597373E+01 -0.68495257995E+01  0.95094547138E+01  0.51100000000E-03 0.  1.
         12    1    4    4    0    0 -0.21585833934E-01 -0.77492735710E+01 -0.60502989018E+01  0.98314710815E+01  0.00000000000E+00 0. -1.
</event>
<event>
 8    1  0.1253488E-006  0.9118800E+02  0.7816164E-02  0.1184000E+00
        -11   -1    0    0    0    0  0.00000000000E+00  0.00000000000E+00  0.45593999997E+02  0.45594000000E+02  0.51100000000E-03 0. -1.
         11   -1    0    0    0    0 -0.00000000000E+00 -0.00000000000E+00 -0.45593999997E+02  0.45594000000E+02  0.51100000000E-03 0.  1.
         23    2    1    2    0    0 -0.88817841970E-15 -0.35527136788E-14 -0.35527136788E-14  0.91188000000E+02  0.91188000000E+02 0.  0.
    9900012    2    3    3    0    0 -0.42211816592E+01  0.18973688415E+02  0.31272375356E+02  0.54367072702E+02  0.39999973840E+02 0.  0.
        -12    1    3    3    0    0  0.42211816592E+01 -0.18973688415E+02 -0.31272375356E+02  0.36820927298E+02  0.00000000000E+00 0.  1.
         11    1    4    4    0    0  0.30729997951E+01  0.21690874490E+02  0.18027328565E+02  0.28371146247E+02  0.51100000000E-03 0. -1.
        -11    1    4    4    0    0 -0.60197546377E+01 -0.85922255559E+01  0.16197588615E+02  0.19298333169E+02  0.51100000000E-03 0.  1.
         12    1    4    4    0    0 -0.12744268165E+01  0.58750394801E+01 -0.29525418246E+01  0.66975932864E+01  0.00000000000E+00 0. -1.
</event>
<event>
 8    1  0.1253488E-006  0.9118800E+02  0.7816164E-02  0.1184000E+00
        -11   -1    0    0    0    0  0.00000000000E+00  0.00000000000E+00  0.45593999997E+02  0.45594000000E+02  0.51100000000E-03 0.  1.
         11   -1    0    0    0    0 -0.00000000000E+00 -0.00000000000E+00 -0.45593999997E+02  0.45594000000E+02  0.51100000000E-03 0. -1.
         23    2    1    2    0    0  0.00000000000E+00 -0.88817841970E-15  0.10658141036E-13  0.91188000000E+02  0.91188000000E+02 0.  0.
    9900012    2    3    3    0    0 -0.21743485218E+02 -0.77173783764E+01  0.28695678067E+02  0.54367095365E+02  0.40000025503E+02 0.  0.
         12    1    3    3    0    0  0.21743485218E+02  0.77173783764E+01 -0.28695678067E+02  0.36820904635E+02  0.00000000000E+00 0. -1.
         11    1    4    4    0    0 -0.57034583047E+01 -0.60751824179E+01 -0.47477871755E+01  0.95905558425E+01  0.51100000000E-03 0. -1.
        -11    1    4    4    0    0 -0.23945178650E+01  0.30741805655E+01 -0.34212519882E+01  0.51854862244E+01  0.51100000000E-03 0.  1.
        -12    1    4    4    0    0 -0.13645509048E+02 -0.47163765241E+01  0.36864717231E+02  0.39591053298E+02  0.00000000000E+00 0.  1.
</event>
<event>
 8    1  0.1253488E-006  0.9118800E+02  0.7816164E-02  0.1184000E+00
        -11   -1    0    0    0    0  0.00000000000E+00  0.00000000000E+00  0.45593999997E+02  0.45594000000E+02  0.51100000000E-03 0.  1.
         11   -1    0    0    0    0 -0.00000000000E+00 -0.00000000000E+00 -0.45593999997E+02  0.45594000000E+02  0.51100000000E-03 0. -1.
         23    2    1    2    0    0 -0.26645352591E-14  0.00000000000E+00  0.00000000000E+00  0.91188000000E+02  0.91188000000E+02 0.  0.
    9900012    2    3    3    0    0 -0.50505796510E+01  0.34946048750E+02  0.10442464563E+02  0.54367085505E+02  0.40000003027E+02 0.  0.
         12    1    3    3    0    0  0.50505796510E+01 -0.34946048750E+02 -0.10442464563E+02  0.36820914495E+02  0.00000000000E+00 0. -1.
         11    1    4    4    0    0  0.12751053262E+02  0.11623152579E+02  0.10254576574E+02  0.20070958525E+02  0.51100000000E-03 0. -1.
        -11    1    4    4    0    0 -0.17860665514E+02  0.25316693156E+02  0.26863279379E+01  0.31099110646E+02  0.51100000000E-03 0.  1.
        -12    1    4    4    0    0  0.59032600564E-01 -0.19937969840E+01 -0.24984399486E+01  0.31970163337E+01  0.00000000000E+00 0.  1.
</event>
<event>
 8    1  0.1253488E-006  0.9118800E+02  0.7816164E-02  0.1184000E+00
        -11   -1    0    0    0    0  0.00000000000E+00  0.00000000000E+00  0.45593999997E+02  0.45594000000E+02  0.51100000000E-03 0.  1.
         11   -1    0    0    0    0 -0.00000000000E+00 -0.00000000000E+00 -0.45593999997E+02  0.45594000000E+02  0.51100000000E-03 0. -1.
         23    2    1    2    0    0  0.00000000000E+00  0.00000000000E+00  0.00000000000E+00  0.91188000000E+02  0.91188000000E+02 0.  0.
    9900012    2    3    3    0    0 -0.88360917268E+01  0.34333241542E+02  0.99464368451E+01  0.54367087495E+02  0.40000007563E+02 0.  0.
         12    1    3    3    0    0  0.88360917268E+01 -0.34333241542E+02 -0.99464368451E+01  0.36820912505E+02  0.00000000000E+00 0. -1.
         11    1    4    4    0    0 -0.69883339221E+01  0.30252896631E+00  0.74690360338E+01  0.10233026645E+02  0.51100000000E-03 0. -1.
        -11    1    4    4    0    0 -0.33111892654E+01  0.22714171541E+02  0.14821778685E+02  0.27323665325E+02  0.51100000000E-03 0.  1.
        -12    1    4    4    0    0  0.14634314607E+01  0.11316541034E+02 -0.12344377874E+02  0.16810395525E+02  0.00000000000E+00 0.  1.
</event>
<event>
 8    1  0.1253488E-006  0.9118800E+02  0.7816164E-02  0.1184000E+00
        -11   -1    0    0    0    0  0.00000000000E+00  0.00000000000E+00  0.45593999997E+02  0.45594000000E+02  0.51100000000E-03 0.  1.
         11   -1    0    0    0    0 -0.00000000000E+00 -0.00000000000E+00 -0.45593999997E+02  0.45594000000E+02  0.51100000000E-03 0. -1.
         23    2    1    2    0    0  0.00000000000E+00  0.35527136788E-14  0.35527136788E-14  0.91188000000E+02  0.91188000000E+02 0.  0.
    9900012    2    3    3    0    0 -0.13186884263E+02 -0.30345390787E+02 -0.16156811401E+02  0.54367092716E+02  0.40000019464E+02 0.  0.
        -12    1    3    3    0    0  0.13186884263E+02  0.30345390787E+02  0.16156811401E+02  0.36820907284E+02  0.00000000000E+00 0.  1.
         11    1    4    4    0    0 -0.19595089641E+02 -0.15294757019E+02  0.28449144137E+01  0.25019805526E+02  0.51100000000E-03 0. -1.
        -11    1    4    4    0    0  0.23246966219E+01 -0.83568471194E+00  0.23261300351E+01  0.33931496464E+01  0.51100000000E-03 0.  1.
         12    1    4    4    0    0  0.40835087566E+01 -0.14214949057E+02 -0.21327855850E+02  0.25954137543E+02  0.00000000000E+00 0. -1.
</event>
<event>
 8    1  0.1253488E-006  0.9118800E+02  0.7816164E-02  0.1184000E+00
        -11   -1    0    0    0    0  0.00000000000E+00  0.00000000000E+00  0.45593999997E+02  0.45594000000E+02  0.51100000000E-03 0. -1.
         11   -1    0    0    0    0 -0.00000000000E+00 -0.00000000000E+00 -0.45593999997E+02  0.45594000000E+02  0.51100000000E-03 0.  1.
         23    2    1    2    0    0  0.10547118734E-14  0.35527136788E-14 -0.35527136788E-14  0.91188000000E+02  0.91188000000E+02 0.  0.
    9900012    2    3    3    0    0  0.42286831252E+00  0.28916802873E+02  0.22790768023E+02  0.54367090002E+02  0.40000013279E+02 0.  0.
        -12    1    3    3    0    0 -0.42286831252E+00 -0.28916802873E+02 -0.22790768023E+02  0.36820909998E+02  0.00000000000E+00 0.  1.
         11    1    4    4    0    0 -0.64392707217E-02  0.21505741029E+02  0.17721207192E+02  0.27866433630E+02  0.51100000000E-03 0. -1.
        -11    1    4    4    0    0 -0.69515501325E+01  0.13264384795E+02  0.75334202411E+01  0.16763662309E+02  0.51100000000E-03 0.  1.
        -12    1    4    4    0    0  0.73808577158E+01 -0.58533229508E+01 -0.24638594107E+01  0.97369940630E+01  0.00000000000E+00 0.  1.
</event>
<event>
 8    1  0.1253488E-006  0.9118800E+02  0.7816164E-02  0.1184000E+00
        -11   -1    0    0    0    0  0.00000000000E+00  0.00000000000E+00  0.45593999997E+02  0.45594000000E+02  0.51100000000E-03 0. -1.
         11   -1    0    0    0    0 -0.00000000000E+00 -0.00000000000E+00 -0.45593999997E+02  0.45594000000E+02  0.51100000000E-03 0.  1.
         23    2    1    2    0    0 -0.35527136788E-14  0.00000000000E+00  0.00000000000E+00  0.91188000000E+02  0.91188000000E+02 0.  0.
    9900012    2    3    3    0    0  0.18989655350E+02 -0.20048998709E+02  0.24355911800E+02  0.54367084759E+02  0.40000001326E+02 0.  0.
        -12    1    3    3    0    0 -0.18989655350E+02  0.20048998709E+02 -0.24355911800E+02  0.36820915241E+02  0.00000000000E+00 0.  1.
         11    1    4    4    0    0  0.14944357556E+02 -0.21633375481E+02  0.18028055210E+02  0.31880205965E+02  0.51100000000E-03 0. -1.
        -11    1    4    4    0    0  0.65243223038E+01  0.60333335657E+01  0.11955783949E+02  0.14896599127E+02  0.51100000000E-03 0.  1.
        -12    1    4    4    0    0 -0.24790245099E+01 -0.44489567939E+01 -0.56279273589E+01  0.75902796675E+01  0.00000000000E+00 0.  1.
</event>
<event>
 8    1  0.1253488E-006  0.9118800E+02  0.7816164E-02  0.1184000E+00
        -11   -1    0    0    0    0  0.00000000000E+00  0.00000000000E+00  0.45593999997E+02  0.45594000000E+02  0.51100000000E-03 0.  1.
         11   -1    0    0    0    0 -0.00000000000E+00 -0.00000000000E+00 -0.45593999997E+02  0.45594000000E+02  0.51100000000E-03 0. -1.
         23    2    1    2    0    0  0.00000000000E+00 -0.35527136788E-14  0.00000000000E+00  0.91188000000E+02  0.91188000000E+02 0.  0.
    9900012    2    3    3    0    0  0.25361342850E+02 -0.19678912702E+02 -0.18036750139E+02  0.54367059329E+02  0.39999943353E+02 0.  0.
        -12    1    3    3    0    0 -0.25361342850E+02  0.19678912702E+02  0.18036750139E+02  0.36820940671E+02  0.00000000000E+00 0.  1.
         11    1    4    4    0    0 -0.22911185473E+00 -0.21849230197E+01  0.39513542233E+01  0.45210155168E+01  0.51100000000E-03 0. -1.
        -11    1    4    4    0    0 -0.51353916322E+01  0.73040855389E+00 -0.11497702736E+02  0.12613600292E+02  0.51100000000E-03 0.  1.
         12    1    4    4    0    0  0.30725846337E+02 -0.18224398236E+02 -0.10490401627E+02  0.37232443520E+02  0.00000000000E+00 0. -1.
</event>
<event>
 8    1  0.1253488E-006  0.9118800E+02  0.7816164E-02  0.1184000E+00
        -11   -1    0    0    0    0  0.00000000000E+00  0.00000000000E+00  0.45593999997E+02  0.45594000000E+02  0.51100000000E-03 0.  1.
         11   -1    0    0    0    0 -0.00000000000E+00 -0.00000000000E+00 -0.45593999997E+02  0.45594000000E+02  0.51100000000E-03 0. -1.
         23    2    1    2    0    0  0.00000000000E+00 -0.17763568394E-14  0.00000000000E+00  0.91188000000E+02  0.91188000000E+02 0.  0.
    9900012    2    3    3    0    0 -0.53297712249E+01 -0.48281050654E+01  0.36111835411E+02  0.54367058722E+02  0.39999941969E+02 0.  0.
         12    1    3    3    0    0  0.53297712249E+01  0.48281050654E+01 -0.36111835411E+02  0.36820941278E+02  0.00000000000E+00 0. -1.
         11    1    4    4    0    0  0.10527785137E+02  0.88312837152E+01  0.92185596326E+01  0.16547134916E+02  0.51100000000E-03 0. -1.
        -11    1    4    4    0    0 -0.68173251372E+01 -0.70268262829E+01  0.12974655256E+01  0.98760126918E+01  0.51100000000E-03 0.  1.
         12    1    4    4    0    0 -0.90402312250E+01 -0.66325624976E+01  0.25595810253E+02  0.27943911115E+02  0.00000000000E+00 0. -1.
</event>
<event>
 8    1  0.1253488E-006  0.9118800E+02  0.7816164E-02  0.1184000E+00
        -11   -1    0    0    0    0  0.00000000000E+00  0.00000000000E+00  0.45593999997E+02  0.45594000000E+02  0.51100000000E-03 0.  1.
         11   -1    0    0    0    0 -0.00000000000E+00 -0.00000000000E+00 -0.45593999997E+02  0.45594000000E+02  0.51100000000E-03 0. -1.
         23    2    1    2    0    0  0.00000000000E+00  0.00000000000E+00  0.00000000000E+00  0.91188000000E+02  0.91188000000E+02 0.  0.
    9900012    2    3    3    0    0  0.20630967637E+02 -0.26387095351E+02  0.15292691294E+02  0.54367054416E+02  0.39999932151E+02 0.  0.
         12    1    3    3    0    0 -0.20630967637E+02  0.26387095351E+02 -0.15292691294E+02  0.36820945584E+02  0.00000000000E+00 0. -1.
         11    1    4    4    0    0  0.40789669736E+01  0.13960205181E+01 -0.10625998496E+01  0.44402661587E+01  0.51100000000E-03 0. -1.
        -11    1    4    4    0    0  0.24700387745E+02 -0.86322351692E+01  0.68532571923E+01  0.27047953216E+02  0.51100000000E-03 0.  1.
        -12    1    4    4    0    0 -0.81483870815E+01 -0.19150880700E+02  0.95020339510E+01  0.22878835041E+02  0.00000000000E+00 0.  1.
</event>
<event>
 8    1  0.1253488E-006  0.9118800E+02  0.7816164E-02  0.1184000E+00
        -11   -1    0    0    0    0  0.00000000000E+00  0.00000000000E+00  0.45593999997E+02  0.45594000000E+02  0.51100000000E-03 0. -1.
         11   -1    0    0    0    0 -0.00000000000E+00 -0.00000000000E+00 -0.45593999997E+02  0.45594000000E+02  0.51100000000E-03 0.  1.
         23    2    1    2    0    0  0.00000000000E+00  0.44408920985E-15  0.00000000000E+00  0.91188000000E+02  0.91188000000E+02 0.  0.
    9900012    2    3    3    0    0  0.31733201861E+02 -0.13316509254E+01 -0.18628228108E+02  0.54367078271E+02  0.39999986534E+02 0.  0.
         12    1    3    3    0    0 -0.31733201861E+02  0.13316509254E+01  0.18628228108E+02  0.36820921729E+02  0.00000000000E+00 0. -1.
         11    1    4    4    0    0  0.13238459996E+02  0.92781603264E+00  0.67643401549E+00  0.13288161230E+02  0.51100000000E-03 0. -1.
        -11    1    4    4    0    0  0.26244445110E+02  0.34287840733E+01 -0.12309012941E+02  0.29189711530E+02  0.51100000000E-03 0.  1.
        -12    1    4    4    0    0 -0.77497032447E+01 -0.56882510314E+01 -0.69956491826E+01  0.11889205510E+02  0.00000000000E+00 0.  1.
</event>
<event>
 8    1  0.1253488E-006  0.9118800E+02  0.7816164E-02  0.1184000E+00
        -11   -1    0    0    0    0  0.00000000000E+00  0.00000000000E+00  0.45593999997E+02  0.45594000000E+02  0.51100000000E-03 0.  1.
         11   -1    0    0    0    0 -0.00000000000E+00 -0.00000000000E+00 -0.45593999997E+02  0.45594000000E+02  0.51100000000E-03 0. -1.
         23    2    1    2    0    0  0.00000000000E+00  0.00000000000E+00  0.00000000000E+00  0.91188000000E+02  0.91188000000E+02 0.  0.
    9900012    2    3    3    0    0 -0.79388541448E+01  0.15554865946E+02 -0.32416030128E+02  0.54367105538E+02  0.40000048695E+02 0.  0.
        -12    1    3    3    0    0  0.79388541448E+01 -0.15554865946E+02  0.32416030128E+02  0.36820894462E+02  0.00000000000E+00 0.  1.
         11    1    4    4    0    0 -0.37736211140E+01  0.72730436816E+01 -0.11808319597E+02  0.14372675209E+02  0.51100000000E-03 0. -1.
        -11    1    4    4    0    0  0.84642980759E+01  0.15266951265E+02 -0.38452966339E+01  0.17874855225E+02  0.51100000000E-03 0.  1.
         12    1    4    4    0    0 -0.12629531107E+02 -0.69851290000E+01 -0.16762413897E+02  0.22119575104E+02  0.00000000000E+00 0. -1.
</event>
<event>
 8    1  0.1253488E-006  0.9118800E+02  0.7816164E-02  0.1184000E+00
        -11   -1    0    0    0    0  0.00000000000E+00  0.00000000000E+00  0.45593999997E+02  0.45594000000E+02  0.51100000000E-03 0. -1.
         11   -1    0    0    0    0 -0.00000000000E+00 -0.00000000000E+00 -0.45593999997E+02  0.45594000000E+02  0.51100000000E-03 0.  1.
         23    2    1    2    0    0  0.00000000000E+00 -0.71054273576E-14  0.00000000000E+00  0.91188000000E+02  0.91188000000E+02 0.  0.
    9900012    2    3    3    0    0  0.92814655690E+01 -0.35373762482E+02  0.42821299355E+01  0.54367009899E+02  0.39999830667E+02 0.  0.
         12    1    3    3    0    0 -0.92814655690E+01  0.35373762482E+02 -0.42821299355E+01  0.36820990101E+02  0.00000000000E+00 0. -1.
         11    1    4    4    0    0 -0.18272039977E+01 -0.10695214781E+02 -0.11718032424E+02  0.15969927295E+02  0.51100000000E-03 0. -1.
        -11    1    4    4    0    0  0.65457146845E+01  0.27493275801E+01  0.32178012182E+01  0.77948334052E+01  0.51100000000E-03 0.  1.
        -12    1    4    4    0    0  0.45629548821E+01 -0.27427875281E+02  0.12782361141E+02  0.30602249199E+02  0.00000000000E+00 0.  1.
</event>
<event>
 8    1  0.1253488E-006  0.9118800E+02  0.7816164E-02  0.1184000E+00
        -11   -1    0    0    0    0  0.00000000000E+00  0.00000000000E+00  0.45593999997E+02  0.45594000000E+02  0.51100000000E-03 0. -1.
         11   -1    0    0    0    0 -0.00000000000E+00 -0.00000000000E+00 -0.45593999997E+02  0.45594000000E+02  0.51100000000E-03 0.  1.
         23    2    1    2    0    0  0.17763568394E-14  0.71054273576E-14  0.88817841970E-15  0.91188000000E+02  0.91188000000E+02 0.  0.
    9900012    2    3    3    0    0 -0.15466815722E+02 -0.32917154282E+02 -0.57461725009E+01  0.54367082942E+02  0.39999997183E+02 0.  0.
         12    1    3    3    0    0  0.15466815722E+02  0.32917154282E+02  0.57461725009E+01  0.36820917058E+02  0.00000000000E+00 0. -1.
         11    1    4    4    0    0 -0.65860743952E+01 -0.16770440316E+02 -0.51978488994E+01  0.18752111289E+02  0.51100000000E-03 0.  1.
        -11    1    4    4    0    0 -0.19545305550E+02 -0.14251835970E+02  0.26161139671E+01  0.24330594940E+02  0.51100000000E-03 0. -1.
         12    1    4    4    0    0  0.10664564223E+02 -0.18948779953E+01 -0.31644375686E+01  0.11284376714E+02  0.00000000000E+00 0. -1.
</event>
<event>
 8    1  0.1253488E-006  0.9118800E+02  0.7816164E-02  0.1184000E+00
        -11   -1    0    0    0    0  0.00000000000E+00  0.00000000000E+00  0.45593999997E+02  0.45594000000E+02  0.51100000000E-03 0.  1.
         11   -1    0    0    0    0 -0.00000000000E+00 -0.00000000000E+00 -0.45593999997E+02  0.45594000000E+02  0.51100000000E-03 0. -1.
         23    2    1    2    0    0  0.88817841970E-15  0.71054273576E-14  0.00000000000E+00  0.91188000000E+02  0.91188000000E+02 0.  0.
    9900012    2    3    3    0    0  0.62530732956E+01 -0.33687157960E+02  0.13485488378E+02  0.54367028614E+02  0.39999873331E+02 0.  0.
         12    1    3    3    0    0 -0.62530732956E+01  0.33687157960E+02 -0.13485488378E+02  0.36820971386E+02  0.00000000000E+00 0. -1.
         11    1    4    4    0    0  0.10152848785E+02 -0.12345792277E+02  0.17762836486E+01  0.16082727047E+02  0.51100000000E-03 0. -1.
        -11    1    4    4    0    0  0.10212816934E+02  0.73422774914E+00  0.28994490913E+01  0.10641782060E+02  0.51100000000E-03 0.  1.
        -12    1    4    4    0    0 -0.14112592424E+02 -0.22075593432E+02  0.88097556378E+01  0.27642519507E+02  0.00000000000E+00 0.  1.
</event>
<event>
 8    1  0.1253488E-006  0.9118800E+02  0.7816164E-02  0.1184000E+00
        -11   -1    0    0    0    0  0.00000000000E+00  0.00000000000E+00  0.45593999997E+02  0.45594000000E+02  0.51100000000E-03 0.  1.
         11   -1    0    0    0    0 -0.00000000000E+00 -0.00000000000E+00 -0.45593999997E+02  0.45594000000E+02  0.51100000000E-03 0. -1.
         23    2    1    2    0    0 -0.35527136788E-14  0.00000000000E+00  0.35527136788E-14  0.91188000000E+02  0.91188000000E+02 0.  0.
    9900012    2    3    3    0    0  0.20001097271E+02  0.20374499712E+02 -0.23251115158E+02  0.54367102582E+02  0.40000041957E+02 0.  0.
        -12    1    3    3    0    0 -0.20001097271E+02 -0.20374499712E+02  0.23251115158E+02  0.36820897418E+02  0.00000000000E+00 0.  1.
         11    1    4    4    0    0  0.22752570651E+01  0.99673605944E+01 -0.21982348591E+01  0.10457404491E+02  0.51100000000E-03 0. -1.
        -11    1    4    4    0    0  0.53724504904E+01 -0.10471486593E+02  0.29877778742E-01  0.11769288368E+02  0.51100000000E-03 0.  1.
         12    1    4    4    0    0  0.12353389715E+02  0.20878625711E+02 -0.21082758078E+02  0.32140409724E+02  0.00000000000E+00 0. -1.
</event>
<event>
 8    1  0.1253488E-006  0.9118800E+02  0.7816164E-02  0.1184000E+00
        -11   -1    0    0    0    0  0.00000000000E+00  0.00000000000E+00  0.45593999997E+02  0.45594000000E+02  0.51100000000E-03 0.  1.
         11   -1    0    0    0    0 -0.00000000000E+00 -0.00000000000E+00 -0.45593999997E+02  0.45594000000E+02  0.51100000000E-03 0. -1.
         23    2    1    2    0    0  0.00000000000E+00  0.00000000000E+00  0.00000000000E+00  0.91188000000E+02  0.91188000000E+02 0.  0.
    9900012    2    3    3    0    0  0.16614197312E+02  0.27918659471E+02 -0.17329096729E+02  0.54367072630E+02  0.39999973674E+02 0.  0.
        -12    1    3    3    0    0 -0.16614197312E+02 -0.27918659471E+02  0.17329096729E+02  0.36820927370E+02  0.00000000000E+00 0.  1.
         11    1    4    4    0    0  0.63447555887E+01  0.24191413301E+02 -0.16268485161E+02  0.29835281307E+02  0.51100000000E-03 0. -1.
        -11    1    4    4    0    0  0.31579587940E+01 -0.63155196296E+01  0.69024668692E+01  0.98743375007E+01  0.51100000000E-03 0.  1.
        -12    1    4    4    0    0  0.71114829298E+01  0.10042765799E+02 -0.79630784366E+01  0.14657453822E+02  0.00000000000E+00 0.  1.
</event>
<event>
 8    1  0.1253488E-006  0.9118800E+02  0.7816164E-02  0.1184000E+00
        -11   -1    0    0    0    0  0.00000000000E+00  0.00000000000E+00  0.45593999997E+02  0.45594000000E+02  0.51100000000E-03 0. -1.
         11   -1    0    0    0    0 -0.00000000000E+00 -0.00000000000E+00 -0.45593999997E+02  0.45594000000E+02  0.51100000000E-03 0.  1.
         23    2    1    2    0    0  0.00000000000E+00  0.00000000000E+00  0.00000000000E+00  0.91188000000E+02  0.91188000000E+02 0.  0.
    9900012    2    3    3    0    0 -0.21930044530E+02  0.10638658452E+02  0.27598393751E+02  0.54367092293E+02  0.40000018499E+02 0.  0.
        -12    1    3    3    0    0  0.21930044530E+02 -0.10638658452E+02 -0.27598393751E+02  0.36820907707E+02  0.00000000000E+00 0.  1.
         11    1    4    4    0    0 -0.72902564411E+01 -0.37499338317E+01  0.18972140780E+02  0.20667655134E+02  0.51100000000E-03 0. -1.
        -11    1    4    4    0    0  0.30050265850E+01 -0.43700773040E+01  0.56915672532E+01  0.77795692990E+01  0.51100000000E-03 0.  1.
         12    1    4    4    0    0 -0.17644814674E+02  0.18758669588E+02  0.29346857184E+01  0.25919867860E+02  0.00000000000E+00 0. -1.
</event>
<event>
 8    1  0.1253488E-006  0.9118800E+02  0.7816164E-02  0.1184000E+00
        -11   -1    0    0    0    0  0.00000000000E+00  0.00000000000E+00  0.45593999997E+02  0.45594000000E+02  0.51100000000E-03 0.  1.
         11   -1    0    0    0    0 -0.00000000000E+00 -0.00000000000E+00 -0.45593999997E+02  0.45594000000E+02  0.51100000000E-03 0. -1.
         23    2    1    2    0    0  0.22204460493E-15  0.00000000000E+00  0.00000000000E+00  0.91188000000E+02  0.91188000000E+02 0.  0.
    9900012    2    3    3    0    0  0.13900284393E+01  0.90087266253E+01  0.35674757036E+02  0.54367114295E+02  0.40000068659E+02 0.  0.
         12    1    3    3    0    0 -0.13900284393E+01 -0.90087266253E+01 -0.35674757036E+02  0.36820885705E+02  0.00000000000E+00 0. -1.
         11    1    4    4    0    0  0.30299749509E+01  0.68337379252E+00 -0.36504748373E+01  0.47930903124E+01  0.51100000000E-03 0. -1.
        -11    1    4    4    0    0 -0.57491946511E+01 -0.92508414007E+01  0.22029577391E+02  0.24575060245E+02  0.51100000000E-03 0.  1.
        -12    1    4    4    0    0  0.41092481395E+01  0.17576194233E+02  0.17295654483E+02  0.24998963738E+02  0.00000000000E+00 0.  1.
</event>
<event>
 8    1  0.1253488E-006  0.9118800E+02  0.7816164E-02  0.1184000E+00
        -11   -1    0    0    0    0  0.00000000000E+00  0.00000000000E+00  0.45593999997E+02  0.45594000000E+02  0.51100000000E-03 0. -1.
         11   -1    0    0    0    0 -0.00000000000E+00 -0.00000000000E+00 -0.45593999997E+02  0.45594000000E+02  0.51100000000E-03 0.  1.
         23    2    1    2    0    0  0.00000000000E+00  0.00000000000E+00 -0.35527136788E-14  0.91188000000E+02  0.91188000000E+02 0.  0.
    9900012    2    3    3    0    0  0.22516300796E+02  0.26887727665E+01 -0.29009744787E+02  0.54367101136E+02  0.40000038661E+02 0.  0.
         12    1    3    3    0    0 -0.22516300796E+02 -0.26887727665E+01  0.29009744787E+02  0.36820898864E+02  0.00000000000E+00 0. -1.
         11    1    4    4    0    0  0.10999392490E+02  0.31101744610E+01 -0.42588055700E+01  0.12198247640E+02  0.51100000000E-03 0. -1.
        -11    1    4    4    0    0 -0.38896163154E+00 -0.80078061216E+01  0.48525700987E+01  0.93714292856E+01  0.51100000000E-03 0.  1.
        -12    1    4    4    0    0  0.11905869937E+02  0.75864044270E+01 -0.29603509315E+02  0.32797424211E+02  0.00000000000E+00 0.  1.
</event>
<event>
 8    1  0.1253488E-006  0.9118800E+02  0.7816164E-02  0.1184000E+00
        -11   -1    0    0    0    0  0.00000000000E+00  0.00000000000E+00  0.45593999997E+02  0.45594000000E+02  0.51100000000E-03 0.  1.
         11   -1    0    0    0    0 -0.00000000000E+00 -0.00000000000E+00 -0.45593999997E+02  0.45594000000E+02  0.51100000000E-03 0. -1.
         23    2    1    2    0    0 -0.55511151231E-15  0.17763568394E-14 -0.71054273576E-14  0.91188000000E+02  0.91188000000E+02 0.  0.
    9900012    2    3    3    0    0  0.83595130894E+00  0.14949423251E+02 -0.33639194607E+02  0.54367089040E+02  0.40000011084E+02 0.  0.
        -12    1    3    3    0    0 -0.83595130894E+00 -0.14949423251E+02  0.33639194607E+02  0.36820910960E+02  0.00000000000E+00 0.  1.
         11    1    4    4    0    0  0.11708006247E+02 -0.37684367030E+01 -0.53595103627E+01  0.13416515086E+02  0.51100000000E-03 0. -1.
        -11    1    4    4    0    0 -0.11714423350E+02  0.67822615151E+01 -0.25184068831E+02  0.28591329259E+02  0.51100000000E-03 0.  1.
         12    1    4    4    0    0  0.84236841115E+00  0.11935598439E+02 -0.30956154137E+01  0.12359244695E+02  0.00000000000E+00 0. -1.
</event>
<event>
 8    1  0.1253488E-006  0.9118800E+02  0.7816164E-02  0.1184000E+00
        -11   -1    0    0    0    0  0.00000000000E+00  0.00000000000E+00  0.45593999997E+02  0.45594000000E+02  0.51100000000E-03 0.  1.
         11   -1    0    0    0    0 -0.00000000000E+00 -0.00000000000E+00 -0.45593999997E+02  0.45594000000E+02  0.51100000000E-03 0. -1.
         23    2    1    2    0    0 -0.35527136788E-14  0.00000000000E+00 -0.88817841970E-15  0.91188000000E+02  0.91188000000E+02 0.  0.
    9900012    2    3    3    0    0  0.27825580500E+02 -0.23506969738E+02 -0.53794231280E+01  0.54367099012E+02  0.40000033817E+02 0.  0.
         12    1    3    3    0    0 -0.27825580500E+02  0.23506969738E+02  0.53794231280E+01  0.36820900988E+02  0.00000000000E+00 0. -1.
         11    1    4    4    0    0  0.10415772049E+02  0.19035797007E+01 -0.82141830608E+01  0.13400922606E+02  0.51100000000E-03 0. -1.
        -11    1    4    4    0    0  0.35310699989E+01  0.53478439199E+01  0.33215295314E+01  0.72180640492E+01  0.51100000000E-03 0.  1.
         12    1    4    4    0    0  0.13878738451E+02 -0.30758393359E+02 -0.48676959860E+00  0.33748112357E+02  0.00000000000E+00 0. -1.
</event>
<event>
 8    1  0.1253488E-006  0.9118800E+02  0.7816164E-02  0.1184000E+00
        -11   -1    0    0    0    0  0.00000000000E+00  0.00000000000E+00  0.45593999997E+02  0.45594000000E+02  0.51100000000E-03 0.  1.
         11   -1    0    0    0    0 -0.00000000000E+00 -0.00000000000E+00 -0.45593999997E+02  0.45594000000E+02  0.51100000000E-03 0. -1.
         23    2    1    2    0    0 -0.17763568394E-14  0.17763568394E-14  0.00000000000E+00  0.91188000000E+02  0.91188000000E+02 0.  0.
    9900012    2    3    3    0    0  0.15186451418E+02 -0.57366860980E+01  0.33049104461E+02  0.54367066012E+02  0.39999958587E+02 0.  0.
         12    1    3    3    0    0 -0.15186451418E+02  0.57366860980E+01 -0.33049104461E+02  0.36820933988E+02  0.00000000000E+00 0. -1.
         11    1    4    4    0    0 -0.82700620312E+01  0.31286070619E+01  0.16027560087E+02  0.18304775081E+02  0.51100000000E-03 0. -1.
        -11    1    4    4    0    0  0.10821175856E+02  0.35613167782E+01  0.14057511080E+02  0.18094044383E+02  0.51100000000E-03 0.  1.
         12    1    4    4    0    0  0.12635337594E+02 -0.12426609938E+02  0.29640332941E+01  0.17968246549E+02  0.00000000000E+00 0. -1.
</event>
<event>
 8    1  0.1253488E-006  0.9118800E+02  0.7816164E-02  0.1184000E+00
        -11   -1    0    0    0    0  0.00000000000E+00  0.00000000000E+00  0.45593999997E+02  0.45594000000E+02  0.51100000000E-03 0. -1.
         11   -1    0    0    0    0 -0.00000000000E+00 -0.00000000000E+00 -0.45593999997E+02  0.45594000000E+02  0.51100000000E-03 0.  1.
         23    2    1    2    0    0 -0.35527136788E-14  0.17763568394E-14  0.00000000000E+00  0.91188000000E+02  0.91188000000E+02 0.  0.
    9900012    2    3    3    0    0  0.28159284278E+02 -0.13862502651E+02 -0.19252677261E+02  0.54367084035E+02  0.39999999675E+02 0.  0.
         12    1    3    3    0    0 -0.28159284278E+02  0.13862502651E+02  0.19252677261E+02  0.36820915965E+02  0.00000000000E+00 0. -1.
         11    1    4    4    0    0  0.25286832337E+01 -0.44261928238E+01 -0.81351038965E+01  0.96002779896E+01  0.51100000000E-03 0. -1.
        -11    1    4    4    0    0  0.75096285895E+01 -0.20594422835E+02 -0.75771844087E+01  0.23193501186E+02  0.51100000000E-03 0.  1.
         12    1    4    4    0    0  0.18120972455E+02  0.11158113008E+02 -0.35403889556E+01  0.21573304859E+02  0.00000000000E+00 0. -1.
</event>
<event>
 8    1  0.1253488E-006  0.9118800E+02  0.7816164E-02  0.1184000E+00
        -11   -1    0    0    0    0  0.00000000000E+00  0.00000000000E+00  0.45593999997E+02  0.45594000000E+02  0.51100000000E-03 0. -1.
         11   -1    0    0    0    0 -0.00000000000E+00 -0.00000000000E+00 -0.45593999997E+02  0.45594000000E+02  0.51100000000E-03 0.  1.
         23    2    1    2    0    0  0.00000000000E+00  0.88817841970E-15  0.00000000000E+00  0.91188000000E+02  0.91188000000E+02 0.  0.
    9900012    2    3    3    0    0  0.21863222334E+02  0.65682804007E+01 -0.28890061734E+02  0.54367102873E+02  0.40000042620E+02 0.  0.
         12    1    3    3    0    0 -0.21863222334E+02 -0.65682804007E+01  0.28890061734E+02  0.36820897127E+02  0.00000000000E+00 0. -1.
         11    1    4    4    0    0  0.12310191952E+02  0.95025232234E+01 -0.11805797647E+02  0.19524744092E+02  0.51100000000E-03 0. -1.
        -11    1    4    4    0    0  0.15702457749E+02  0.77961557514E+01 -0.12973135561E+02  0.21809389501E+02  0.51100000000E-03 0.  1.
         12    1    4    4    0    0 -0.61494273673E+01 -0.10730398574E+02 -0.41111285252E+01  0.13032969280E+02  0.00000000000E+00 0. -1.
</event>
<event>
 8    1  0.1253488E-006  0.9118800E+02  0.7816164E-02  0.1184000E+00
        -11   -1    0    0    0    0  0.00000000000E+00  0.00000000000E+00  0.45593999997E+02  0.45594000000E+02  0.51100000000E-03 0. -1.
         11   -1    0    0    0    0 -0.00000000000E+00 -0.00000000000E+00 -0.45593999997E+02  0.45594000000E+02  0.51100000000E-03 0.  1.
         23    2    1    2    0    0  0.35527136788E-14  0.17763568394E-14  0.00000000000E+00  0.91188000000E+02  0.91188000000E+02 0.  0.
    9900012    2    3    3    0    0  0.28065178637E+02  0.13730229270E+02 -0.19483514730E+02  0.54367071251E+02  0.39999970530E+02 0.  0.
         12    1    3    3    0    0 -0.28065178637E+02 -0.13730229270E+02  0.19483514730E+02  0.36820928749E+02  0.00000000000E+00 0. -1.
         11    1    4    4    0    0  0.21950090010E+02  0.14417568733E+02 -0.15498465945E+02  0.30493854897E+02  0.51100000000E-03 0. -1.
        -11    1    4    4    0    0  0.28083691754E+01  0.39183123551E+01 -0.12639090148E+02  0.13527258006E+02  0.51100000000E-03 0.  1.
         12    1    4    4    0    0  0.33067194520E+01 -0.46056518182E+01  0.86540413630E+01  0.10345958347E+02  0.00000000000E+00 0. -1.
</event>
<event>
 8    1  0.1253488E-006  0.9118800E+02  0.7816164E-02  0.1184000E+00
        -11   -1    0    0    0    0  0.00000000000E+00  0.00000000000E+00  0.45593999997E+02  0.45594000000E+02  0.51100000000E-03 0. -1.
         11   -1    0    0    0    0 -0.00000000000E+00 -0.00000000000E+00 -0.45593999997E+02  0.45594000000E+02  0.51100000000E-03 0.  1.
         23    2    1    2    0    0  0.35527136788E-14  0.00000000000E+00  0.00000000000E+00  0.91188000000E+02  0.91188000000E+02 0.  0.
    9900012    2    3    3    0    0 -0.19981323948E+02  0.24183031094E+02 -0.19279702786E+02  0.54367092364E+02  0.40000018662E+02 0.  0.
         12    1    3    3    0    0  0.19981323948E+02 -0.24183031094E+02  0.19279702786E+02  0.36820907636E+02  0.00000000000E+00 0. -1.
         11    1    4    4    0    0 -0.26237200110E+02  0.11313898899E+02 -0.89456882709E+01  0.29940279171E+02  0.51100000000E-03 0. -1.
        -11    1    4    4    0    0  0.10596088908E+02  0.13606354966E+02 -0.60281785970E+01  0.18268796706E+02  0.51100000000E-03 0.  1.
         12    1    4    4    0    0 -0.43402127469E+01 -0.73722277134E+00 -0.43058359182E+01  0.61580164873E+01  0.00000000000E+00 0. -1.
</event>
<event>
 8    1  0.1253488E-006  0.9118800E+02  0.7816164E-02  0.1184000E+00
        -11   -1    0    0    0    0  0.00000000000E+00  0.00000000000E+00  0.45593999997E+02  0.45594000000E+02  0.51100000000E-03 0.  1.
         11   -1    0    0    0    0 -0.00000000000E+00 -0.00000000000E+00 -0.45593999997E+02  0.45594000000E+02  0.51100000000E-03 0. -1.
         23    2    1    2    0    0  0.00000000000E+00 -0.35527136788E-14  0.35527136788E-14  0.91188000000E+02  0.91188000000E+02 0.  0.
    9900012    2    3    3    0    0  0.13977520769E+02  0.30297467049E+02 -0.15571538694E+02  0.54367076414E+02  0.39999982301E+02 0.  0.
        -12    1    3    3    0    0 -0.13977520769E+02 -0.30297467049E+02  0.15571538694E+02  0.36820923586E+02  0.00000000000E+00 0.  1.
         11    1    4    4    0    0 -0.58315195920E+01  0.16451837092E+02 -0.68440634068E+01  0.18748620446E+02  0.51100000000E-03 0. -1.
        -11    1    4    4    0    0  0.55067976594E+01  0.18530539219E+02 -0.65543109049E+01  0.20412366250E+02  0.51100000000E-03 0.  1.
         12    1    4    4    0    0  0.14302242701E+02 -0.46849092625E+01 -0.21731643824E+01  0.15206089718E+02  0.00000000000E+00 0. -1.
</event>
<event>
 8    1  0.1253488E-006  0.9118800E+02  0.7816164E-02  0.1184000E+00
        -11   -1    0    0    0    0  0.00000000000E+00  0.00000000000E+00  0.45593999997E+02  0.45594000000E+02  0.51100000000E-03 0. -1.
         11   -1    0    0    0    0 -0.00000000000E+00 -0.00000000000E+00 -0.45593999997E+02  0.45594000000E+02  0.51100000000E-03 0.  1.
         23    2    1    2    0    0  0.00000000000E+00  0.35527136788E-14  0.66613381478E-15  0.91188000000E+02  0.91188000000E+02 0.  0.
    9900012    2    3    3    0    0  0.19454716260E+02  0.31203179318E+02 -0.19113643257E+01  0.54367113293E+02  0.40000066374E+02 0.  0.
         12    1    3    3    0    0 -0.19454716260E+02 -0.31203179318E+02  0.19113643257E+01  0.36820886707E+02  0.00000000000E+00 0. -1.
         11    1    4    4    0    0 -0.34999837678E+01  0.10962535105E+02  0.74742201481E+01  0.13721917847E+02  0.51100000000E-03 0. -1.
        -11    1    4    4    0    0  0.62507925040E+01  0.13315364299E+02 -0.15678847278E+02  0.21498781026E+02  0.51100000000E-03 0.  1.
        -12    1    4    4    0    0  0.16703907524E+02  0.69252799136E+01  0.62932628042E+01  0.19146414421E+02  0.00000000000E+00 0.  1.
</event>
<event>
 8    1  0.1253488E-006  0.9118800E+02  0.7816164E-02  0.1184000E+00
        -11   -1    0    0    0    0  0.00000000000E+00  0.00000000000E+00  0.45593999997E+02  0.45594000000E+02  0.51100000000E-03 0. -1.
         11   -1    0    0    0    0 -0.00000000000E+00 -0.00000000000E+00 -0.45593999997E+02  0.45594000000E+02  0.51100000000E-03 0.  1.
         23    2    1    2    0    0  0.00000000000E+00  0.00000000000E+00 -0.35527136788E-14  0.91188000000E+02  0.91188000000E+02 0.  0.
    9900012    2    3    3    0    0 -0.20589834506E+02 -0.61760633623E+01  0.29894735499E+02  0.54367078580E+02  0.39999987239E+02 0.  0.
        -12    1    3    3    0    0  0.20589834506E+02  0.61760633623E+01 -0.29894735499E+02  0.36820921420E+02  0.00000000000E+00 0.  1.
         11    1    4    4    0    0 -0.20068905418E+02  0.49684046951E+01  0.13020387526E+02  0.24433102576E+02  0.51100000000E-03 0. -1.
        -11    1    4    4    0    0 -0.73896431074E+01 -0.30435642360E+01  0.17557794089E+02  0.19291092298E+02  0.51100000000E-03 0.  1.
        -12    1    4    4    0    0  0.68687140188E+01 -0.81009038215E+01 -0.68344611605E+00  0.10642883707E+02  0.00000000000E+00 0.  1.
</event>
<event>
 8    1  0.1253488E-006  0.9118800E+02  0.7816164E-02  0.1184000E+00
        -11   -1    0    0    0    0  0.00000000000E+00  0.00000000000E+00  0.45593999997E+02  0.45594000000E+02  0.51100000000E-03 0. -1.
         11   -1    0    0    0    0 -0.00000000000E+00 -0.00000000000E+00 -0.45593999997E+02  0.45594000000E+02  0.51100000000E-03 0.  1.
         23    2    1    2    0    0  0.00000000000E+00  0.00000000000E+00 -0.35527136788E-14  0.91188000000E+02  0.91188000000E+02 0.  0.
    9900012    2    3    3    0    0 -0.35415158322E+01  0.23968493162E+02  0.27726324744E+02  0.54367080910E+02  0.39999992550E+02 0.  0.
        -12    1    3    3    0    0  0.35415158322E+01 -0.23968493162E+02 -0.27726324744E+02  0.36820919090E+02  0.00000000000E+00 0.  1.
         11    1    4    4    0    0 -0.21345244401E+01  0.42976829298E+01  0.23524316200E+02  0.24008742701E+02  0.51100000000E-03 0. -1.
        -11    1    4    4    0    0 -0.50807252664E+00  0.20428921903E+02 -0.50353229529E+01  0.21046459686E+02  0.51100000000E-03 0.  1.
        -12    1    4    4    0    0 -0.89891886551E+00 -0.75811167104E+00  0.92373314972E+01  0.93118785227E+01  0.00000000000E+00 0.  1.
</event>
<event>
 8    1  0.1253488E-006  0.9118800E+02  0.7816164E-02  0.1184000E+00
        -11   -1    0    0    0    0  0.00000000000E+00  0.00000000000E+00  0.45593999997E+02  0.45594000000E+02  0.51100000000E-03 0. -1.
         11   -1    0    0    0    0 -0.00000000000E+00 -0.00000000000E+00 -0.45593999997E+02  0.45594000000E+02  0.51100000000E-03 0.  1.
         23    2    1    2    0    0  0.00000000000E+00  0.71054273576E-14  0.00000000000E+00  0.91188000000E+02  0.91188000000E+02 0.  0.
    9900012    2    3    3    0    0 -0.13990016639E+02  0.32760703756E+02 -0.93164327926E+01  0.54367079369E+02  0.39999989037E+02 0.  0.
         12    1    3    3    0    0  0.13990016639E+02 -0.32760703756E+02  0.93164327926E+01  0.36820920631E+02  0.00000000000E+00 0. -1.
         11    1    4    4    0    0 -0.17250825475E+02  0.10607459767E+02  0.16848606165E+01  0.20321120487E+02  0.51100000000E-03 0. -1.
        -11    1    4    4    0    0 -0.84948911215E+01  0.11312245930E+02 -0.11215459632E+02  0.18053160892E+02  0.51100000000E-03 0.  1.
        -12    1    4    4    0    0  0.11755699957E+02  0.10840998059E+02  0.21416622313E+00  0.15992797990E+02  0.00000000000E+00 0.  1.
</event>
<event>
 8    1  0.1253488E-006  0.9118800E+02  0.7816164E-02  0.1184000E+00
        -11   -1    0    0    0    0  0.00000000000E+00  0.00000000000E+00  0.45593999997E+02  0.45594000000E+02  0.51100000000E-03 0.  1.
         11   -1    0    0    0    0 -0.00000000000E+00 -0.00000000000E+00 -0.45593999997E+02  0.45594000000E+02  0.51100000000E-03 0. -1.
         23    2    1    2    0    0 -0.13322676296E-14  0.00000000000E+00 -0.35527136788E-14  0.91188000000E+02  0.91188000000E+02 0.  0.
    9900012    2    3    3    0    0  0.22739055637E+01  0.25571004523E+02  0.26395695022E+02  0.54367086995E+02  0.40000006422E+02 0.  0.
         12    1    3    3    0    0 -0.22739055637E+01 -0.25571004523E+02 -0.26395695022E+02  0.36820913005E+02  0.00000000000E+00 0. -1.
         11    1    4    4    0    0  0.11698807462E+02  0.24825365669E+00  0.32991047688E+01  0.12157623882E+02  0.51100000000E-03 0. -1.
        -11    1    4    4    0    0  0.69054302594E+01  0.12853185451E+02  0.74451754131E+01  0.16380475588E+02  0.51100000000E-03 0.  1.
         12    1    4    4    0    0 -0.16330332158E+02  0.12469565416E+02  0.15651414840E+02  0.25828987525E+02  0.00000000000E+00 0. -1.
</event>
<event>
 8    1  0.1253488E-006  0.9118800E+02  0.7816164E-02  0.1184000E+00
        -11   -1    0    0    0    0  0.00000000000E+00  0.00000000000E+00  0.45593999997E+02  0.45594000000E+02  0.51100000000E-03 0. -1.
         11   -1    0    0    0    0 -0.00000000000E+00 -0.00000000000E+00 -0.45593999997E+02  0.45594000000E+02  0.51100000000E-03 0.  1.
         23    2    1    2    0    0  0.00000000000E+00  0.00000000000E+00  0.00000000000E+00  0.91188000000E+02  0.91188000000E+02 0.  0.
    9900012    2    3    3    0    0  0.19240720446E+02 -0.29125123657E+01  0.31258547593E+02  0.54367016184E+02  0.39999844996E+02 0.  0.
        -12    1    3    3    0    0 -0.19240720446E+02  0.29125123657E+01 -0.31258547593E+02  0.36820983816E+02  0.00000000000E+00 0.  1.
         11    1    4    4    0    0  0.18076505820E+00 -0.14643383286E+01 -0.18561933798E+01  0.23711636113E+01  0.51100000000E-03 0. -1.
        -11    1    4    4    0    0  0.11008192581E+01  0.15398767135E+02  0.13658224054E+02  0.20612639737E+02  0.51100000000E-03 0.  1.
         12    1    4    4    0    0  0.17959136129E+02 -0.16846941172E+02  0.19456516918E+02  0.31383212837E+02  0.00000000000E+00 0. -1.
</event>
<event>
 8    1  0.1253488E-006  0.9118800E+02  0.7816164E-02  0.1184000E+00
        -11   -1    0    0    0    0  0.00000000000E+00  0.00000000000E+00  0.45593999997E+02  0.45594000000E+02  0.51100000000E-03 0.  1.
         11   -1    0    0    0    0 -0.00000000000E+00 -0.00000000000E+00 -0.45593999997E+02  0.45594000000E+02  0.51100000000E-03 0. -1.
         23    2    1    2    0    0  0.00000000000E+00  0.00000000000E+00  0.00000000000E+00  0.91188000000E+02  0.91188000000E+02 0.  0.
    9900012    2    3    3    0    0 -0.33671423147E+02 -0.13516450183E+02 -0.62706887380E+01  0.54367072532E+02  0.39999973452E+02 0.  0.
        -12    1    3    3    0    0  0.33671423147E+02  0.13516450183E+02  0.62706887380E+01  0.36820927468E+02  0.00000000000E+00 0.  1.
         11    1    4    4    0    0 -0.38240129921E+02 -0.12143817076E+02 -0.69895160700E+00  0.40128149261E+02  0.51100000000E-03 0. -1.
        -11    1    4    4    0    0 -0.29936691212E+01  0.19062089131E+01  0.10111127356E+01  0.36902623827E+01  0.51100000000E-03 0.  1.
        -12    1    4    4    0    0  0.75623758946E+01 -0.32788420204E+01 -0.65828498667E+01  0.10548660888E+02  0.00000000000E+00 0.  1.
</event>
<event>
 8    1  0.1253488E-006  0.9118800E+02  0.7816164E-02  0.1184000E+00
        -11   -1    0    0    0    0  0.00000000000E+00  0.00000000000E+00  0.45593999997E+02  0.45594000000E+02  0.51100000000E-03 0. -1.
         11   -1    0    0    0    0 -0.00000000000E+00 -0.00000000000E+00 -0.45593999997E+02  0.45594000000E+02  0.51100000000E-03 0.  1.
         23    2    1    2    0    0  0.00000000000E+00  0.26645352591E-14  0.00000000000E+00  0.91188000000E+02  0.91188000000E+02 0.  0.
    9900012    2    3    3    0    0  0.12393509781E+02  0.57622541976E+01 -0.34190195034E+02  0.54367189381E+02  0.40000239832E+02 0.  0.
         12    1    3    3    0    0 -0.12393509781E+02 -0.57622541976E+01  0.34190195034E+02  0.36820810619E+02  0.00000000000E+00 0. -1.
         11    1    4    4    0    0  0.63563976079E+01  0.62076578056E+01  0.60219027470E+00  0.89051355615E+01  0.51100000000E-03 0. -1.
        -11    1    4    4    0    0 -0.94243005357E+01 -0.54930952493E+01 -0.22732379046E+02  0.25214134793E+02  0.51100000000E-03 0.  1.
        -12    1    4    4    0    0  0.15461412709E+02  0.50476916413E+01 -0.12060006263E+02  0.20247919027E+02  0.00000000000E+00 0.  1.
</event>
<event>
 8    1  0.1253488E-006  0.9118800E+02  0.7816164E-02  0.1184000E+00
        -11   -1    0    0    0    0  0.00000000000E+00  0.00000000000E+00  0.45593999997E+02  0.45594000000E+02  0.51100000000E-03 0.  1.
         11   -1    0    0    0    0 -0.00000000000E+00 -0.00000000000E+00 -0.45593999997E+02  0.45594000000E+02  0.51100000000E-03 0. -1.
         23    2    1    2    0    0  0.35527136788E-14  0.35527136788E-14 -0.17763568394E-14  0.91188000000E+02  0.91188000000E+02 0.  0.
    9900012    2    3    3    0    0  0.25116010445E+02  0.24408820474E+02 -0.11365542550E+02  0.54367081284E+02  0.39999993404E+02 0.  0.
        -12    1    3    3    0    0 -0.25116010445E+02 -0.24408820474E+02  0.11365542550E+02  0.36820918716E+02  0.00000000000E+00 0.  1.
         11    1    4    4    0    0 -0.47110466201E+01  0.78001162583E+01 -0.11506366115E+02  0.14677610001E+02  0.51100000000E-03 0. -1.
        -11    1    4    4    0    0  0.81738421602E+01  0.36658426910E+01  0.92422714770E+01  0.12871273465E+02  0.51100000000E-03 0.  1.
        -12    1    4    4    0    0  0.21653214904E+02  0.12942861525E+02 -0.91014479123E+01  0.26818197819E+02  0.00000000000E+00 0.  1.
</event>
<event>
 8    1  0.1253488E-006  0.9118800E+02  0.7816164E-02  0.1184000E+00
        -11   -1    0    0    0    0  0.00000000000E+00  0.00000000000E+00  0.45593999997E+02  0.45594000000E+02  0.51100000000E-03 0. -1.
         11   -1    0    0    0    0 -0.00000000000E+00 -0.00000000000E+00 -0.45593999997E+02  0.45594000000E+02  0.51100000000E-03 0.  1.
         23    2    1    2    0    0  0.00000000000E+00  0.00000000000E+00 -0.17763568394E-14  0.91188000000E+02  0.91188000000E+02 0.  0.
    9900012    2    3    3    0    0  0.29137412828E+02  0.15887161891E+02 -0.15949296489E+02  0.54367206991E+02  0.40000279977E+02 0.  0.
         12    1    3    3    0    0 -0.29137412828E+02 -0.15887161891E+02  0.15949296489E+02  0.36820793009E+02  0.00000000000E+00 0. -1.
         11    1    4    4    0    0  0.10266034238E+02  0.12630813156E+02 -0.44298198609E+01  0.16868675236E+02  0.51100000000E-03 0. -1.
        -11    1    4    4    0    0 -0.39398131557E+01  0.88941328258E+01 -0.10001525938E+02  0.13951997985E+02  0.51100000000E-03 0.  1.
        -12    1    4    4    0    0  0.22811191746E+02 -0.56377840899E+01 -0.15179506902E+01  0.23546533771E+02  0.00000000000E+00 0.  1.
</event>
<event>
 8    1  0.1253488E-006  0.9118800E+02  0.7816164E-02  0.1184000E+00
        -11   -1    0    0    0    0  0.00000000000E+00  0.00000000000E+00  0.45593999997E+02  0.45594000000E+02  0.51100000000E-03 0. -1.
         11   -1    0    0    0    0 -0.00000000000E+00 -0.00000000000E+00 -0.45593999997E+02  0.45594000000E+02  0.51100000000E-03 0.  1.
         23    2    1    2    0    0  0.00000000000E+00  0.00000000000E+00  0.35527136788E-14  0.91188000000E+02  0.91188000000E+02 0.  0.
    9900012    2    3    3    0    0  0.24406918190E+02  0.71610397280E+01 -0.26623316741E+02  0.54367093713E+02  0.40000021737E+02 0.  0.
         12    1    3    3    0    0 -0.24406918190E+02 -0.71610397280E+01  0.26623316741E+02  0.36820906287E+02  0.00000000000E+00 0. -1.
         11    1    4    4    0    0 -0.66436252615E+01 -0.85254246592E+01 -0.36423937078E+01  0.11405597504E+02  0.51100000000E-03 0. -1.
        -11    1    4    4    0    0  0.98381769827E+01  0.85778824610E+01 -0.40832037790E+01  0.13676342611E+02  0.51100000000E-03 0.  1.
         12    1    4    4    0    0  0.21212366469E+02  0.71085819262E+01 -0.18897719255E+02  0.29285153597E+02  0.00000000000E+00 0. -1.
</event>
<event>
 8    1  0.1253488E-006  0.9118800E+02  0.7816164E-02  0.1184000E+00
        -11   -1    0    0    0    0  0.00000000000E+00  0.00000000000E+00  0.45593999997E+02  0.45594000000E+02  0.51100000000E-03 0.  1.
         11   -1    0    0    0    0 -0.00000000000E+00 -0.00000000000E+00 -0.45593999997E+02  0.45594000000E+02  0.51100000000E-03 0. -1.
         23    2    1    2    0    0 -0.13322676296E-14  0.35527136788E-14 -0.35527136788E-14  0.91188000000E+02  0.91188000000E+02 0.  0.
    9900012    2    3    3    0    0  0.24497600960E+01 -0.28086176305E+02  0.23684291366E+02  0.54367078210E+02  0.39999986395E+02 0.  0.
         12    1    3    3    0    0 -0.24497600960E+01  0.28086176305E+02 -0.23684291366E+02  0.36820921790E+02  0.00000000000E+00 0. -1.
         11    1    4    4    0    0  0.35597940836E+00 -0.13032751669E+02  0.21029363421E+02  0.24742947754E+02  0.51100000000E-03 0. -1.
        -11    1    4    4    0    0  0.10152973529E+02 -0.18111627408E+02  0.30964426189E+01  0.20992900609E+02  0.51100000000E-03 0.  1.
         12    1    4    4    0    0 -0.80591928413E+01  0.30582027722E+01 -0.44151467444E+00  0.86312298462E+01  0.00000000000E+00 0. -1.
</event>
<event>
 8    1  0.1253488E-006  0.9118800E+02  0.7816164E-02  0.1184000E+00
        -11   -1    0    0    0    0  0.00000000000E+00  0.00000000000E+00  0.45593999997E+02  0.45594000000E+02  0.51100000000E-03 0.  1.
         11   -1    0    0    0    0 -0.00000000000E+00 -0.00000000000E+00 -0.45593999997E+02  0.45594000000E+02  0.51100000000E-03 0. -1.
         23    2    1    2    0    0  0.88817841970E-15  0.00000000000E+00  0.00000000000E+00  0.91188000000E+02  0.91188000000E+02 0.  0.
    9900012    2    3    3    0    0  0.88202357172E+00 -0.18132140885E+02 -0.32034829882E+02  0.54367043682E+02  0.39999907681E+02 0.  0.
         12    1    3    3    0    0 -0.88202357172E+00  0.18132140885E+02  0.32034829882E+02  0.36820956318E+02  0.00000000000E+00 0. -1.
         11    1    4    4    0    0 -0.12204888056E+02 -0.41453952659E+01 -0.30788022266E+02  0.33377326281E+02  0.51100000000E-03 0. -1.
        -11    1    4    4    0    0  0.62456355837E+01 -0.13148655024E+01  0.84379977588E+00  0.64380768446E+01  0.51100000000E-03 0.  1.
         12    1    4    4    0    0  0.68412760444E+01 -0.12671880116E+02 -0.20906073919E+01  0.14551640556E+02  0.00000000000E+00 0. -1.
</event>
<event>
 8    1  0.1253488E-006  0.9118800E+02  0.7816164E-02  0.1184000E+00
        -11   -1    0    0    0    0  0.00000000000E+00  0.00000000000E+00  0.45593999997E+02  0.45594000000E+02  0.51100000000E-03 0. -1.
         11   -1    0    0    0    0 -0.00000000000E+00 -0.00000000000E+00 -0.45593999997E+02  0.45594000000E+02  0.51100000000E-03 0.  1.
         23    2    1    2    0    0  0.88817841970E-15 -0.35527136788E-14 -0.35527136788E-14  0.91188000000E+02  0.91188000000E+02 0.  0.
    9900012    2    3    3    0    0  0.77182862457E+01  0.19444753970E+02  0.30300325361E+02  0.54367080450E+02  0.39999991503E+02 0.  0.
        -12    1    3    3    0    0 -0.77182862457E+01 -0.19444753970E+02 -0.30300325361E+02  0.36820919550E+02  0.00000000000E+00 0.  1.
         11    1    4    4    0    0  0.10324310952E+02  0.50454623393E+01 -0.16103096544E+01  0.11603498795E+02  0.51100000000E-03 0. -1.
        -11    1    4    4    0    0 -0.83590665805E+01 -0.28861815519E+01  0.17229873325E+02  0.19366790470E+02  0.51100000000E-03 0.  1.
         12    1    4    4    0    0  0.57530418743E+01  0.17285473183E+02  0.14680761690E+02  0.23396791185E+02  0.00000000000E+00 0. -1.
</event>
<event>
 8    1  0.1253488E-006  0.9118800E+02  0.7816164E-02  0.1184000E+00
        -11   -1    0    0    0    0  0.00000000000E+00  0.00000000000E+00  0.45593999997E+02  0.45594000000E+02  0.51100000000E-03 0. -1.
         11   -1    0    0    0    0 -0.00000000000E+00 -0.00000000000E+00 -0.45593999997E+02  0.45594000000E+02  0.51100000000E-03 0.  1.
         23    2    1    2    0    0  0.00000000000E+00 -0.88817841970E-15  0.00000000000E+00  0.91188000000E+02  0.91188000000E+02 0.  0.
    9900012    2    3    3    0    0  0.97226631043E+01  0.51004904267E+01  0.35145908237E+02  0.54367081404E+02  0.39999993678E+02 0.  0.
        -12    1    3    3    0    0 -0.97226631043E+01 -0.51004904267E+01 -0.35145908237E+02  0.36820918596E+02  0.00000000000E+00 0.  1.
         11    1    4    4    0    0 -0.92013226002E+01 -0.35939097070E+01 -0.22491612383E+01  0.10131103154E+02  0.51100000000E-03 0. -1.
        -11    1    4    4    0    0  0.55522025536E+01 -0.20931876219E+01  0.59474275742E+01  0.84012072126E+01  0.51100000000E-03 0.  1.
         12    1    4    4    0    0  0.13371783151E+02  0.10787587756E+02  0.31447641901E+02  0.35834771038E+02  0.00000000000E+00 0. -1.
</event>
<event>
 8    1  0.1253488E-006  0.9118800E+02  0.7816164E-02  0.1184000E+00
        -11   -1    0    0    0    0  0.00000000000E+00  0.00000000000E+00  0.45593999997E+02  0.45594000000E+02  0.51100000000E-03 0.  1.
         11   -1    0    0    0    0 -0.00000000000E+00 -0.00000000000E+00 -0.45593999997E+02  0.45594000000E+02  0.51100000000E-03 0. -1.
         23    2    1    2    0    0  0.00000000000E+00  0.00000000000E+00  0.00000000000E+00  0.91188000000E+02  0.91188000000E+02 0.  0.
    9900012    2    3    3    0    0 -0.24237779057E+02  0.21874378293E+02  0.17024151703E+02  0.54367080667E+02  0.39999991996E+02 0.  0.
         12    1    3    3    0    0  0.24237779057E+02 -0.21874378293E+02 -0.17024151703E+02  0.36820919333E+02  0.00000000000E+00 0. -1.
         11    1    4    4    0    0 -0.22541026409E+02  0.24986625385E+02  0.17187165573E+02  0.37786611126E+02  0.51100000000E-03 0. -1.
        -11    1    4    4    0    0 -0.25776940828E+01 -0.88585358219E-02  0.76793904166E+01  0.81004705228E+01  0.51100000000E-03 0.  1.
         12    1    4    4    0    0  0.88094143460E+00 -0.31033885562E+01 -0.78424042870E+01  0.84799990179E+01  0.00000000000E+00 0. -1.
</event>
<event>
 8    1  0.1253488E-006  0.9118800E+02  0.7816164E-02  0.1184000E+00
        -11   -1    0    0    0    0  0.00000000000E+00  0.00000000000E+00  0.45593999997E+02  0.45594000000E+02  0.51100000000E-03 0. -1.
         11   -1    0    0    0    0 -0.00000000000E+00 -0.00000000000E+00 -0.45593999997E+02  0.45594000000E+02  0.51100000000E-03 0.  1.
         23    2    1    2    0    0 -0.35527136788E-14  0.00000000000E+00  0.00000000000E+00  0.91188000000E+02  0.91188000000E+02 0.  0.
    9900012    2    3    3    0    0 -0.21077937096E+02 -0.16749154710E+02  0.25118831725E+02  0.54367227019E+02  0.40000325634E+02 0.  0.
        -12    1    3    3    0    0  0.21077937096E+02  0.16749154710E+02 -0.25118831725E+02  0.36820772981E+02  0.00000000000E+00 0.  1.
         11    1    4    4    0    0 -0.52634507948E+01 -0.15967059831E+02  0.56811884950E+01  0.17746177529E+02  0.51100000000E-03 0. -1.
        -11    1    4    4    0    0 -0.40195150903E+01 -0.94078695257E+01 -0.22451135216E+01  0.10474017642E+02  0.51100000000E-03 0.  1.
        -12    1    4    4    0    0 -0.11794971210E+02  0.86257746469E+01  0.21682756751E+02  0.26147031848E+02  0.00000000000E+00 0.  1.
</event>
<event>
 8    1  0.1253488E-006  0.9118800E+02  0.7816164E-02  0.1184000E+00
        -11   -1    0    0    0    0  0.00000000000E+00  0.00000000000E+00  0.45593999997E+02  0.45594000000E+02  0.51100000000E-03 0. -1.
         11   -1    0    0    0    0 -0.00000000000E+00 -0.00000000000E+00 -0.45593999997E+02  0.45594000000E+02  0.51100000000E-03 0.  1.
         23    2    1    2    0    0  0.00000000000E+00 -0.26645352591E-14  0.35527136788E-14  0.91188000000E+02  0.91188000000E+02 0.  0.
    9900012    2    3    3    0    0  0.25383233246E+02  0.52066253112E+01  0.26160354121E+02  0.54367060239E+02  0.39999945426E+02 0.  0.
        -12    1    3    3    0    0 -0.25383233246E+02 -0.52066253112E+01 -0.26160354121E+02  0.36820939761E+02  0.00000000000E+00 0.  1.
         11    1    4    4    0    0  0.91155745541E+01 -0.15225744742E+01  0.16403507186E+02  0.18827824642E+02  0.51100000000E-03 0. -1.
        -11    1    4    4    0    0  0.75215664208E+01 -0.11591483522E+02  0.29699253937E+01  0.14133538437E+02  0.51100000000E-03 0.  1.
        -12    1    4    4    0    0  0.87460922712E+01  0.18320683307E+02  0.67869215412E+01  0.21405697159E+02  0.00000000000E+00 0.  1.
</event>
<event>
 8    1  0.1253488E-006  0.9118800E+02  0.7816164E-02  0.1184000E+00
        -11   -1    0    0    0    0  0.00000000000E+00  0.00000000000E+00  0.45593999997E+02  0.45594000000E+02  0.51100000000E-03 0. -1.
         11   -1    0    0    0    0 -0.00000000000E+00 -0.00000000000E+00 -0.45593999997E+02  0.45594000000E+02  0.51100000000E-03 0.  1.
         23    2    1    2    0    0  0.35527136788E-14  0.35527136788E-14 -0.17763568394E-14  0.91188000000E+02  0.91188000000E+02 0.  0.
    9900012    2    3    3    0    0  0.15694589850E+02  0.31514388536E+02 -0.10784371333E+02  0.54367088816E+02  0.40000010575E+02 0.  0.
         12    1    3    3    0    0 -0.15694589850E+02 -0.31514388536E+02  0.10784371333E+02  0.36820911184E+02  0.00000000000E+00 0. -1.
         11    1    4    4    0    0 -0.46643262694E+01 -0.61727502641E+01 -0.16185617688E+01  0.79043360145E+01  0.51100000000E-03 0. -1.
        -11    1    4    4    0    0  0.37556859680E+01 -0.44697777891E+00  0.34338008376E+00  0.37977462222E+01  0.51100000000E-03 0.  1.
        -12    1    4    4    0    0  0.16603230152E+02  0.38134116579E+02 -0.95091896482E+01  0.42665006580E+02  0.00000000000E+00 0.  1.
</event>
<event>
 8    1  0.1253488E-006  0.9118800E+02  0.7816164E-02  0.1184000E+00
        -11   -1    0    0    0    0  0.00000000000E+00  0.00000000000E+00  0.45593999997E+02  0.45594000000E+02  0.51100000000E-03 0. -1.
         11   -1    0    0    0    0 -0.00000000000E+00 -0.00000000000E+00 -0.45593999997E+02  0.45594000000E+02  0.51100000000E-03 0.  1.
         23    2    1    2    0    0  0.35527136788E-14  0.00000000000E+00  0.35527136788E-14  0.91188000000E+02  0.91188000000E+02 0.  0.
    9900012    2    3    3    0    0  0.29573241881E+02 -0.17440386970E+02  0.13305475165E+02  0.54367090147E+02  0.40000013609E+02 0.  0.
        -12    1    3    3    0    0 -0.29573241881E+02  0.17440386970E+02 -0.13305475165E+02  0.36820909853E+02  0.00000000000E+00 0.  1.
         11    1    4    4    0    0  0.19397404397E+02 -0.12116909194E+02  0.10140439864E+02  0.25018139553E+02  0.51100000000E-03 0. -1.
        -11    1    4    4    0    0 -0.63326712452E+00 -0.12228457190E+02 -0.59497492675E+01  0.13613805827E+02  0.51100000000E-03 0.  1.
        -12    1    4    4    0    0  0.10809104608E+02  0.69049794140E+01  0.91147845684E+01  0.15735144768E+02  0.00000000000E+00 0.  1.
</event>
<event>
 8    1  0.1253488E-006  0.9118800E+02  0.7816164E-02  0.1184000E+00
        -11   -1    0    0    0    0  0.00000000000E+00  0.00000000000E+00  0.45593999997E+02  0.45594000000E+02  0.51100000000E-03 0.  1.
         11   -1    0    0    0    0 -0.00000000000E+00 -0.00000000000E+00 -0.45593999997E+02  0.45594000000E+02  0.51100000000E-03 0. -1.
         23    2    1    2    0    0  0.71054273576E-14  0.44408920985E-15 -0.17763568394E-14  0.91188000000E+02  0.91188000000E+02 0.  0.
    9900012    2    3    3    0    0 -0.34909309906E+02  0.37278091429E+01 -0.11100546422E+02  0.54367100907E+02  0.40000038138E+02 0.  0.
        -12    1    3    3    0    0  0.34909309906E+02 -0.37278091429E+01  0.11100546422E+02  0.36820899093E+02  0.00000000000E+00 0.  1.
         11    1    4    4    0    0 -0.15243263398E+02 -0.13291398601E+00 -0.14792626067E+02  0.21241387228E+02  0.51100000000E-03 0. -1.
        -11    1    4    4    0    0 -0.25479531352E+02  0.18635030122E+01  0.65094338514E+01  0.26363836798E+02  0.51100000000E-03 0.  1.
         12    1    4    4    0    0  0.58134848441E+01  0.19972201167E+01 -0.28173542060E+01  0.67618768807E+01  0.00000000000E+00 0. -1.
</event>
<event>
 8    1  0.1253488E-006  0.9118800E+02  0.7816164E-02  0.1184000E+00
        -11   -1    0    0    0    0  0.00000000000E+00  0.00000000000E+00  0.45593999997E+02  0.45594000000E+02  0.51100000000E-03 0. -1.
         11   -1    0    0    0    0 -0.00000000000E+00 -0.00000000000E+00 -0.45593999997E+02  0.45594000000E+02  0.51100000000E-03 0.  1.
         23    2    1    2    0    0  0.00000000000E+00 -0.35527136788E-14 -0.17763568394E-14  0.91188000000E+02  0.91188000000E+02 0.  0.
    9900012    2    3    3    0    0  0.28642703858E+02  0.19893767035E+02 -0.11815756843E+02  0.54367101574E+02  0.40000039658E+02 0.  0.
        -12    1    3    3    0    0 -0.28642703858E+02 -0.19893767035E+02  0.11815756843E+02  0.36820898426E+02  0.00000000000E+00 0.  1.
         11    1    4    4    0    0  0.14958474360E+02  0.26345561308E+02 -0.37109605737E+00  0.30298222198E+02  0.51100000000E-03 0. -1.
        -11    1    4    4    0    0  0.74563229459E+01  0.22357365434E+01  0.78783898297E+00  0.78240629017E+01  0.51100000000E-03 0.  1.
        -12    1    4    4    0    0  0.62279065518E+01 -0.86875308163E+01 -0.12232499768E+02  0.16244816474E+02  0.00000000000E+00 0.  1.
</event>
<event>
 8    1  0.1253488E-006  0.9118800E+02  0.7816164E-02  0.1184000E+00
        -11   -1    0    0    0    0  0.00000000000E+00  0.00000000000E+00  0.45593999997E+02  0.45594000000E+02  0.51100000000E-03 0. -1.
         11   -1    0    0    0    0 -0.00000000000E+00 -0.00000000000E+00 -0.45593999997E+02  0.45594000000E+02  0.51100000000E-03 0.  1.
         23    2    1    2    0    0  0.17763568394E-14 -0.88817841970E-15  0.00000000000E+00  0.91188000000E+02  0.91188000000E+02 0.  0.
    9900012    2    3    3    0    0 -0.53515632240E+01  0.64467413936E+01  0.35854979083E+02  0.54367092507E+02  0.40000018988E+02 0.  0.
        -12    1    3    3    0    0  0.53515632240E+01 -0.64467413936E+01 -0.35854979083E+02  0.36820907493E+02  0.00000000000E+00 0.  1.
         11    1    4    4    0    0  0.15319460274E+01  0.14991723292E+02  0.69037777565E+01  0.16575909431E+02  0.51100000000E-03 0. -1.
        -11    1    4    4    0    0  0.44610170282E+01  0.83531154402E+00 -0.78967081783E+00  0.46067340452E+01  0.51100000000E-03 0.  1.
         12    1    4    4    0    0 -0.11344526280E+02 -0.93802934421E+01  0.29740872145E+02  0.33184449031E+02  0.00000000000E+00 0. -1.
</event>
<event>
 8    1  0.1253488E-006  0.9118800E+02  0.7816164E-02  0.1184000E+00
        -11   -1    0    0    0    0  0.00000000000E+00  0.00000000000E+00  0.45593999997E+02  0.45594000000E+02  0.51100000000E-03 0.  1.
         11   -1    0    0    0    0 -0.00000000000E+00 -0.00000000000E+00 -0.45593999997E+02  0.45594000000E+02  0.51100000000E-03 0. -1.
         23    2    1    2    0    0  0.00000000000E+00  0.00000000000E+00  0.00000000000E+00  0.91188000000E+02  0.91188000000E+02 0.  0.
    9900012    2    3    3    0    0  0.11080342601E+02 -0.17418494682E+02  0.30489393308E+02  0.54367067727E+02  0.39999962497E+02 0.  0.
         12    1    3    3    0    0 -0.11080342601E+02  0.17418494682E+02 -0.30489393308E+02  0.36820932273E+02  0.00000000000E+00 0. -1.
         11    1    4    4    0    0 -0.34702073425E+01  0.52049414779E+01  0.26178284870E+01  0.67813553983E+01  0.51100000000E-03 0. -1.
        -11    1    4    4    0    0  0.74246764143E+01  0.52129252299E+01  0.29203021998E+01  0.95304026415E+01  0.51100000000E-03 0.  1.
        -12    1    4    4    0    0  0.71258735290E+01 -0.27836361390E+02  0.24951262621E+02  0.38055309687E+02  0.00000000000E+00 0.  1.
</event>
<event>
 8    1  0.1253488E-006  0.9118800E+02  0.7816164E-02  0.1184000E+00
        -11   -1    0    0    0    0  0.00000000000E+00  0.00000000000E+00  0.45593999997E+02  0.45594000000E+02  0.51100000000E-03 0.  1.
         11   -1    0    0    0    0 -0.00000000000E+00 -0.00000000000E+00 -0.45593999997E+02  0.45594000000E+02  0.51100000000E-03 0. -1.
         23    2    1    2    0    0  0.71054273576E-14  0.00000000000E+00  0.35527136788E-14  0.91188000000E+02  0.91188000000E+02 0.  0.
    9900012    2    3    3    0    0  0.27118777032E+02 -0.18757851479E+02  0.16385805450E+02  0.54367086376E+02  0.40000005012E+02 0.  0.
         12    1    3    3    0    0 -0.27118777032E+02  0.18757851479E+02 -0.16385805450E+02  0.36820913624E+02  0.00000000000E+00 0. -1.
         11    1    4    4    0    0  0.17389826455E+02  0.94145250227E+00  0.80239984244E+01  0.19174904118E+02  0.51100000000E-03 0. -1.
        -11    1    4    4    0    0 -0.21472826869E+01 -0.12812283527E+02  0.15083180576E+02  0.19906475546E+02  0.51100000000E-03 0.  1.
        -12    1    4    4    0    0  0.11876233264E+02 -0.68870204543E+01 -0.67213735505E+01  0.15285706712E+02  0.00000000000E+00 0.  1.
</event>
<event>
 8    1  0.1253488E-006  0.9118800E+02  0.7816164E-02  0.1184000E+00
        -11   -1    0    0    0    0  0.00000000000E+00  0.00000000000E+00  0.45593999997E+02  0.45594000000E+02  0.51100000000E-03 0. -1.
         11   -1    0    0    0    0 -0.00000000000E+00 -0.00000000000E+00 -0.45593999997E+02  0.45594000000E+02  0.51100000000E-03 0.  1.
         23    2    1    2    0    0 -0.13322676296E-14 -0.71054273576E-14  0.17763568394E-14  0.91188000000E+02  0.91188000000E+02 0.  0.
    9900012    2    3    3    0    0  0.33758636825E+01 -0.33778505338E+02 -0.14261202650E+02  0.54367275136E+02  0.40000435325E+02 0.  0.
        -12    1    3    3    0    0 -0.33758636825E+01  0.33778505338E+02  0.14261202650E+02  0.36820724864E+02  0.00000000000E+00 0.  1.
         11    1    4    4    0    0  0.94615400309E+01  0.23272813461E+01  0.32863963502E-01  0.97436162959E+01  0.51100000000E-03 0. -1.
        -11    1    4    4    0    0 -0.12416542607E+02 -0.11718299180E+02 -0.54934291344E+01  0.17935072620E+02  0.51100000000E-03 0.  1.
        -12    1    4    4    0    0  0.63308662586E+01 -0.24387487505E+02 -0.88006374794E+01  0.26688586220E+02  0.00000000000E+00 0.  1.
</event>
<event>
 8    1  0.1253488E-006  0.9118800E+02  0.7816164E-02  0.1184000E+00
        -11   -1    0    0    0    0  0.00000000000E+00  0.00000000000E+00  0.45593999997E+02  0.45594000000E+02  0.51100000000E-03 0.  1.
         11   -1    0    0    0    0 -0.00000000000E+00 -0.00000000000E+00 -0.45593999997E+02  0.45594000000E+02  0.51100000000E-03 0. -1.
         23    2    1    2    0    0  0.00000000000E+00  0.26645352591E-14  0.00000000000E+00  0.91188000000E+02  0.91188000000E+02 0.  0.
    9900012    2    3    3    0    0 -0.35735795818E+02  0.57596498502E+01  0.67497899647E+01  0.54367077500E+02  0.39999984778E+02 0.  0.
         12    1    3    3    0    0  0.35735795818E+02 -0.57596498502E+01 -0.67497899647E+01  0.36820922500E+02  0.00000000000E+00 0. -1.
         11    1    4    4    0    0 -0.18587792557E+02  0.19136103141E+02  0.46275694763E+01  0.27076020296E+02  0.51100000000E-03 0. -1.
        -11    1    4    4    0    0 -0.10620439177E+02 -0.15236992531E+02  0.59446110165E+01  0.19501232528E+02  0.51100000000E-03 0.  1.
        -12    1    4    4    0    0 -0.65275640842E+01  0.18605392400E+01 -0.38223905282E+01  0.77898246763E+01  0.00000000000E+00 0.  1.
</event>
<event>
 8    1  0.1253488E-006  0.9118800E+02  0.7816164E-02  0.1184000E+00
        -11   -1    0    0    0    0  0.00000000000E+00  0.00000000000E+00  0.45593999997E+02  0.45594000000E+02  0.51100000000E-03 0. -1.
         11   -1    0    0    0    0 -0.00000000000E+00 -0.00000000000E+00 -0.45593999997E+02  0.45594000000E+02  0.51100000000E-03 0.  1.
         23    2    1    2    0    0  0.71054273576E-14  0.00000000000E+00  0.17763568394E-14  0.91188000000E+02  0.91188000000E+02 0.  0.
    9900012    2    3    3    0    0 -0.33664541516E+02  0.50313439485E+01 -0.14041485454E+02  0.54367094374E+02  0.40000023243E+02 0.  0.
         12    1    3    3    0    0  0.33664541516E+02 -0.50313439485E+01  0.14041485454E+02  0.36820905626E+02  0.00000000000E+00 0. -1.
         11    1    4    4    0    0 -0.68701654888E+01 -0.28882793552E+01  0.50737089041E+01  0.90157558630E+01  0.51100000000E-03 0. -1.
        -11    1    4    4    0    0 -0.32587117138E+02  0.21081473668E+01 -0.13134925077E+02  0.35197879848E+02  0.51100000000E-03 0.  1.
        -12    1    4    4    0    0  0.57927411114E+01  0.58114759368E+01 -0.59802692808E+01  0.10153458663E+02  0.00000000000E+00 0.  1.
</event>
<event>
 8    1  0.1253488E-006  0.9118800E+02  0.7816164E-02  0.1184000E+00
        -11   -1    0    0    0    0  0.00000000000E+00  0.00000000000E+00  0.45593999997E+02  0.45594000000E+02  0.51100000000E-03 0. -1.
         11   -1    0    0    0    0 -0.00000000000E+00 -0.00000000000E+00 -0.45593999997E+02  0.45594000000E+02  0.51100000000E-03 0.  1.
         23    2    1    2    0    0  0.00000000000E+00 -0.17763568394E-14  0.00000000000E+00  0.91188000000E+02  0.91188000000E+02 0.  0.
    9900012    2    3    3    0    0  0.33495519930E+02 -0.11661294106E+02  0.98916126439E+01  0.54367086971E+02  0.40000006367E+02 0.  0.
        -12    1    3    3    0    0 -0.33495519930E+02  0.11661294106E+02 -0.98916126439E+01  0.36820913029E+02  0.00000000000E+00 0.  1.
         11    1    4    4    0    0  0.17659078267E+02  0.10231733474E+02  0.61264846629E+01  0.21308806388E+02  0.51100000000E-03 0. -1.
        -11    1    4    4    0    0  0.57365127480E+01 -0.21430850851E+01  0.84013929589E+01  0.10396335705E+02  0.51100000000E-03 0.  1.
        -12    1    4    4    0    0  0.10099928915E+02 -0.19749942495E+02 -0.46362649780E+01  0.22661944877E+02  0.00000000000E+00 0.  1.
</event>
<event>
 8    1  0.1253488E-006  0.9118800E+02  0.7816164E-02  0.1184000E+00
        -11   -1    0    0    0    0  0.00000000000E+00  0.00000000000E+00  0.45593999997E+02  0.45594000000E+02  0.51100000000E-03 0.  1.
         11   -1    0    0    0    0 -0.00000000000E+00 -0.00000000000E+00 -0.45593999997E+02  0.45594000000E+02  0.51100000000E-03 0. -1.
         23    2    1    2    0    0 -0.44408920985E-15  0.00000000000E+00  0.35527136788E-14  0.91188000000E+02  0.91188000000E+02 0.  0.
    9900012    2    3    3    0    0  0.23457154750E+01  0.27526924352E+02 -0.24342257374E+02  0.54367089644E+02  0.40000012460E+02 0.  0.
        -12    1    3    3    0    0 -0.23457154750E+01 -0.27526924352E+02  0.24342257374E+02  0.36820910356E+02  0.00000000000E+00 0.  1.
         11    1    4    4    0    0 -0.78487404676E+01  0.19420170232E+02 -0.18019064104E+02  0.27630280676E+02  0.51100000000E-03 0. -1.
        -11    1    4    4    0    0 -0.63843732888E+01  0.51985330826E+01  0.11634156489E+01  0.83149566887E+01  0.51100000000E-03 0.  1.
         12    1    4    4    0    0  0.16578829231E+02  0.29082210379E+01 -0.74866089188E+01  0.18421852279E+02  0.00000000000E+00 0. -1.
</event>
<event>
 8    1  0.1253488E-006  0.9118800E+02  0.7816164E-02  0.1184000E+00
        -11   -1    0    0    0    0  0.00000000000E+00  0.00000000000E+00  0.45593999997E+02  0.45594000000E+02  0.51100000000E-03 0.  1.
         11   -1    0    0    0    0 -0.00000000000E+00 -0.00000000000E+00 -0.45593999997E+02  0.45594000000E+02  0.51100000000E-03 0. -1.
         23    2    1    2    0    0 -0.17763568394E-14  0.00000000000E+00  0.00000000000E+00  0.91188000000E+02  0.91188000000E+02 0.  0.
    9900012    2    3    3    0    0  0.13779074867E+02  0.74082775583E+01 -0.33332173187E+02  0.54367092218E+02  0.40000018328E+02 0.  0.
        -12    1    3    3    0    0 -0.13779074867E+02 -0.74082775583E+01  0.33332173187E+02  0.36820907782E+02  0.00000000000E+00 0.  1.
         11    1    4    4    0    0  0.55679929607E+01  0.11104729845E+02 -0.28185742273E+02  0.30801844722E+02  0.51100000000E-03 0. -1.
        -11    1    4    4    0    0 -0.16880506640E+01 -0.86028749272E+00  0.72248391953E+01  0.74691305567E+01  0.51100000000E-03 0.  1.
        -12    1    4    4    0    0  0.98991325706E+01 -0.28361647943E+01 -0.12371270109E+02  0.16096116939E+02  0.00000000000E+00 0.  1.
</event>
<event>
 8    1  0.1253488E-006  0.9118800E+02  0.7816164E-02  0.1184000E+00
        -11   -1    0    0    0    0  0.00000000000E+00  0.00000000000E+00  0.45593999997E+02  0.45594000000E+02  0.51100000000E-03 0. -1.
         11   -1    0    0    0    0 -0.00000000000E+00 -0.00000000000E+00 -0.45593999997E+02  0.45594000000E+02  0.51100000000E-03 0.  1.
         23    2    1    2    0    0  0.00000000000E+00 -0.17763568394E-14  0.00000000000E+00  0.91188000000E+02  0.91188000000E+02 0.  0.
    9900012    2    3    3    0    0  0.10282471101E+02  0.69348996148E+01  0.34669262360E+02  0.54367084786E+02  0.40000001387E+02 0.  0.
        -12    1    3    3    0    0 -0.10282471101E+02 -0.69348996148E+01 -0.34669262360E+02  0.36820915214E+02  0.00000000000E+00 0.  1.
         11    1    4    4    0    0  0.15556434322E+02  0.21390990893E+01  0.14492812044E+02  0.21368668534E+02  0.51100000000E-03 0. -1.
        -11    1    4    4    0    0  0.14710093570E+01 -0.95131381430E+01  0.11354310146E+02  0.14885698674E+02  0.51100000000E-03 0.  1.
         12    1    4    4    0    0 -0.67449725782E+01  0.14308938668E+02  0.88221401703E+01  0.18112717579E+02  0.00000000000E+00 0. -1.
</event>
<event>
 8    1  0.1253488E-006  0.9118800E+02  0.7816164E-02  0.1184000E+00
        -11   -1    0    0    0    0  0.00000000000E+00  0.00000000000E+00  0.45593999997E+02  0.45594000000E+02  0.51100000000E-03 0.  1.
         11   -1    0    0    0    0 -0.00000000000E+00 -0.00000000000E+00 -0.45593999997E+02  0.45594000000E+02  0.51100000000E-03 0. -1.
         23    2    1    2    0    0 -0.35527136788E-14  0.00000000000E+00  0.00000000000E+00  0.91188000000E+02  0.91188000000E+02 0.  0.
    9900012    2    3    3    0    0 -0.27026314840E+02  0.21288097305E+02 -0.13121520683E+02  0.54367094447E+02  0.40000023411E+02 0.  0.
         12    1    3    3    0    0  0.27026314840E+02 -0.21288097305E+02  0.13121520683E+02  0.36820905553E+02  0.00000000000E+00 0. -1.
         11    1    4    4    0    0 -0.17583188339E+02  0.23866956743E+01 -0.91935180972E+01  0.19984634189E+02  0.51100000000E-03 0. -1.
        -11    1    4    4    0    0 -0.17529551543E+02  0.18150998944E+02 -0.61307423088E+01  0.25967863629E+02  0.51100000000E-03 0.  1.
         12    1    4    4    0    0  0.80864250416E+01  0.75040268675E+00  0.22027397228E+01  0.84145966292E+01  0.00000000000E+00 0. -1.
</event>
<event>
 8    1  0.1253488E-006  0.9118800E+02  0.7816164E-02  0.1184000E+00
        -11   -1    0    0    0    0  0.00000000000E+00  0.00000000000E+00  0.45593999997E+02  0.45594000000E+02  0.51100000000E-03 0. -1.
         11   -1    0    0    0    0 -0.00000000000E+00 -0.00000000000E+00 -0.45593999997E+02  0.45594000000E+02  0.51100000000E-03 0.  1.
         23    2    1    2    0    0  0.00000000000E+00 -0.35527136788E-14  0.00000000000E+00  0.91188000000E+02  0.91188000000E+02 0.  0.
    9900012    2    3    3    0    0  0.17050654246E+02  0.28439212992E+02 -0.16008191572E+02  0.54367138478E+02  0.40000123789E+02 0.  0.
         12    1    3    3    0    0 -0.17050654246E+02 -0.28439212992E+02  0.16008191572E+02  0.36820861522E+02  0.00000000000E+00 0. -1.
         11    1    4    4    0    0  0.67928659663E+01  0.70285244153E+01 -0.41235762078E+00  0.97833134756E+01  0.51100000000E-03 0. -1.
        -11    1    4    4    0    0 -0.66347107638E+01  0.17076715339E+02  0.35766642920E+01  0.18666175865E+02  0.51100000000E-03 0.  1.
        -12    1    4    4    0    0  0.16892499044E+02  0.43339732373E+01 -0.19172498243E+02  0.25917649138E+02  0.00000000000E+00 0.  1.
</event>
<event>
 8    1  0.1253488E-006  0.9118800E+02  0.7816164E-02  0.1184000E+00
        -11   -1    0    0    0    0  0.00000000000E+00  0.00000000000E+00  0.45593999997E+02  0.45594000000E+02  0.51100000000E-03 0. -1.
         11   -1    0    0    0    0 -0.00000000000E+00 -0.00000000000E+00 -0.45593999997E+02  0.45594000000E+02  0.51100000000E-03 0.  1.
         23    2    1    2    0    0 -0.35527136788E-14  0.00000000000E+00 -0.35527136788E-14  0.91188000000E+02  0.91188000000E+02 0.  0.
    9900012    2    3    3    0    0  0.16203209473E+02  0.16654939184E+02  0.28563068995E+02  0.54367083296E+02  0.39999997990E+02 0.  0.
        -12    1    3    3    0    0 -0.16203209473E+02 -0.16654939184E+02 -0.28563068995E+02  0.36820916704E+02  0.00000000000E+00 0.  1.
         11    1    4    4    0    0 -0.91084235270E+01  0.23048041077E-01  0.19999854401E+01  0.93254411360E+01  0.51100000000E-03 0. -1.
        -11    1    4    4    0    0  0.96491453786E+01  0.15871287931E+01 -0.11350009653E+01  0.98444508123E+01  0.51100000000E-03 0.  1.
         12    1    4    4    0    0  0.15662487621E+02  0.15044762350E+02  0.27698084521E+02  0.35197191348E+02  0.00000000000E+00 0. -1.
</event>
<event>
 8    1  0.1253488E-006  0.9118800E+02  0.7816164E-02  0.1184000E+00
        -11   -1    0    0    0    0  0.00000000000E+00  0.00000000000E+00  0.45593999997E+02  0.45594000000E+02  0.51100000000E-03 0.  1.
         11   -1    0    0    0    0 -0.00000000000E+00 -0.00000000000E+00 -0.45593999997E+02  0.45594000000E+02  0.51100000000E-03 0. -1.
         23    2    1    2    0    0  0.17763568394E-14 -0.13322676296E-14  0.00000000000E+00  0.91188000000E+02  0.91188000000E+02 0.  0.
    9900012    2    3    3    0    0  0.14457308069E+02  0.31913124361E+01 -0.33713217277E+02  0.54367092205E+02  0.40000018299E+02 0.  0.
        -12    1    3    3    0    0 -0.14457308069E+02 -0.31913124361E+01  0.33713217277E+02  0.36820907795E+02  0.00000000000E+00 0.  1.
         11    1    4    4    0    0  0.71724757684E+01  0.16878238842E+02 -0.56981972789E+01  0.19203874806E+02  0.51100000000E-03 0. -1.
        -11    1    4    4    0    0  0.15492671917E+01  0.11989477985E+01  0.88734687507E+00  0.21506021000E+01  0.51100000000E-03 0.  1.
        -12    1    4    4    0    0  0.57355651092E+01 -0.14885874205E+02 -0.28902366874E+02  0.33012615299E+02  0.00000000000E+00 0.  1.
</event>
<event>
 8    1  0.1253488E-006  0.9118800E+02  0.7816164E-02  0.1184000E+00
        -11   -1    0    0    0    0  0.00000000000E+00  0.00000000000E+00  0.45593999997E+02  0.45594000000E+02  0.51100000000E-03 0. -1.
         11   -1    0    0    0    0 -0.00000000000E+00 -0.00000000000E+00 -0.45593999997E+02  0.45594000000E+02  0.51100000000E-03 0.  1.
         23    2    1    2    0    0  0.00000000000E+00  0.35527136788E-14 -0.35527136788E-14  0.91188000000E+02  0.91188000000E+02 0.  0.
    9900012    2    3    3    0    0  0.20447542934E+02  0.21690229457E+02 -0.21615075523E+02  0.54367088064E+02  0.40000008859E+02 0.  0.
         12    1    3    3    0    0 -0.20447542934E+02 -0.21690229457E+02  0.21615075523E+02  0.36820911936E+02  0.00000000000E+00 0. -1.
         11    1    4    4    0    0  0.37422811604E+01  0.64134239742E+01 -0.19193943508E+02  0.20580188119E+02  0.51100000000E-03 0. -1.
        -11    1    4    4    0    0  0.92358685233E+01 -0.11498138181E+01 -0.10486779106E+02  0.14021265117E+02  0.51100000000E-03 0.  1.
         12    1    4    4    0    0  0.74693932506E+01  0.16426619301E+02  0.80656470907E+01  0.19765634829E+02  0.00000000000E+00 0. -1.
</event>
<event>
 8    1  0.1253488E-006  0.9118800E+02  0.7816164E-02  0.1184000E+00
        -11   -1    0    0    0    0  0.00000000000E+00  0.00000000000E+00  0.45593999997E+02  0.45594000000E+02  0.51100000000E-03 0. -1.
         11   -1    0    0    0    0 -0.00000000000E+00 -0.00000000000E+00 -0.45593999997E+02  0.45594000000E+02  0.51100000000E-03 0.  1.
         23    2    1    2    0    0  0.00000000000E+00  0.00000000000E+00 -0.35527136788E-14  0.91188000000E+02  0.91188000000E+02 0.  0.
    9900012    2    3    3    0    0  0.11440288976E+02  0.28824488959E+02  0.19850649525E+02  0.54367086620E+02  0.40000005568E+02 0.  0.
        -12    1    3    3    0    0 -0.11440288976E+02 -0.28824488959E+02 -0.19850649525E+02  0.36820913380E+02  0.00000000000E+00 0.  1.
         11    1    4    4    0    0  0.14682352095E+01  0.61278110370E+01 -0.33741920570E+00  0.63102800823E+01  0.51100000000E-03 0. -1.
        -11    1    4    4    0    0  0.10850481463E+02 -0.73604259344E+01  0.31085603034E+01  0.13474864204E+02  0.51100000000E-03 0.  1.
         12    1    4    4    0    0 -0.87842769639E+00  0.30057103856E+02  0.17079508427E+02  0.34581942333E+02  0.00000000000E+00 0. -1.
</event>
<event>
 8    1  0.1253488E-006  0.9118800E+02  0.7816164E-02  0.1184000E+00
        -11   -1    0    0    0    0  0.00000000000E+00  0.00000000000E+00  0.45593999997E+02  0.45594000000E+02  0.51100000000E-03 0.  1.
         11   -1    0    0    0    0 -0.00000000000E+00 -0.00000000000E+00 -0.45593999997E+02  0.45594000000E+02  0.51100000000E-03 0. -1.
         23    2    1    2    0    0  0.17763568394E-14  0.00000000000E+00 -0.35527136788E-14  0.91188000000E+02  0.91188000000E+02 0.  0.
    9900012    2    3    3    0    0  0.13761881172E+02 -0.21105204198E+02 -0.26850687862E+02  0.54367102995E+02  0.40000042897E+02 0.  0.
        -12    1    3    3    0    0 -0.13761881172E+02  0.21105204198E+02  0.26850687862E+02  0.36820897005E+02  0.00000000000E+00 0.  1.
         11    1    4    4    0    0  0.11647624280E+02 -0.17139630967E+02 -0.36380071085E+02  0.41868170171E+02  0.51100000000E-03 0. -1.
        -11    1    4    4    0    0  0.42074305116E+01 -0.34150720086E+01  0.45732695793E+01  0.70908379787E+01  0.51100000000E-03 0.  1.
         12    1    4    4    0    0 -0.20931736198E+01 -0.55050122226E+00  0.49561136443E+01  0.54080948450E+01  0.00000000000E+00 0. -1.
</event>
<event>
 8    1  0.1253488E-006  0.9118800E+02  0.7816164E-02  0.1184000E+00
        -11   -1    0    0    0    0  0.00000000000E+00  0.00000000000E+00  0.45593999997E+02  0.45594000000E+02  0.51100000000E-03 0.  1.
         11   -1    0    0    0    0 -0.00000000000E+00 -0.00000000000E+00 -0.45593999997E+02  0.45594000000E+02  0.51100000000E-03 0. -1.
         23    2    1    2    0    0 -0.17763568394E-14  0.00000000000E+00  0.00000000000E+00  0.91188000000E+02  0.91188000000E+02 0.  0.
    9900012    2    3    3    0    0 -0.15306120946E+02  0.14463039509E+01 -0.33457595655E+02  0.54367084197E+02  0.40000000045E+02 0.  0.
         12    1    3    3    0    0  0.15306120946E+02 -0.14463039509E+01  0.33457595655E+02  0.36820915803E+02  0.00000000000E+00 0. -1.
         11    1    4    4    0    0 -0.65079901019E+01 -0.95250946549E+01 -0.25490927899E+02  0.27979792150E+02  0.51100000000E-03 0. -1.
        -11    1    4    4    0    0 -0.14165165937E+02  0.14681518415E+01 -0.46165233442E+01  0.14970627371E+02  0.51100000000E-03 0.  1.
        -12    1    4    4    0    0  0.53670350927E+01  0.95032467643E+01 -0.33501444121E+01  0.11416664676E+02  0.00000000000E+00 0.  1.
</event>
<event>
 8    1  0.1253488E-006  0.9118800E+02  0.7816164E-02  0.1184000E+00
        -11   -1    0    0    0    0  0.00000000000E+00  0.00000000000E+00  0.45593999997E+02  0.45594000000E+02  0.51100000000E-03 0.  1.
         11   -1    0    0    0    0 -0.00000000000E+00 -0.00000000000E+00 -0.45593999997E+02  0.45594000000E+02  0.51100000000E-03 0. -1.
         23    2    1    2    0    0  0.00000000000E+00  0.00000000000E+00  0.00000000000E+00  0.91188000000E+02  0.91188000000E+02 0.  0.
    9900012    2    3    3    0    0  0.26925337219E+02 -0.11559668888E+02 -0.22297513357E+02  0.54367097906E+02  0.40000031296E+02 0.  0.
        -12    1    3    3    0    0 -0.26925337219E+02  0.11559668888E+02  0.22297513357E+02  0.36820902094E+02  0.00000000000E+00 0.  1.
         11    1    4    4    0    0  0.37737904757E+01 -0.13902775822E+02 -0.13279738985E+02  0.19592859360E+02  0.51100000000E-03 0. -1.
        -11    1    4    4    0    0  0.17359972832E+02 -0.33807201040E+01  0.51609185872E+01  0.18423707718E+02  0.51100000000E-03 0.  1.
         12    1    4    4    0    0  0.57915739111E+01  0.57238270388E+01 -0.14178692959E+02  0.16350530828E+02  0.00000000000E+00 0. -1.
</event>
<event>
 8    1  0.1253488E-006  0.9118800E+02  0.7816164E-02  0.1184000E+00
        -11   -1    0    0    0    0  0.00000000000E+00  0.00000000000E+00  0.45593999997E+02  0.45594000000E+02  0.51100000000E-03 0.  1.
         11   -1    0    0    0    0 -0.00000000000E+00 -0.00000000000E+00 -0.45593999997E+02  0.45594000000E+02  0.51100000000E-03 0. -1.
         23    2    1    2    0    0 -0.66613381478E-15  0.17763568394E-14 -0.71054273576E-14  0.91188000000E+02  0.91188000000E+02 0.  0.
    9900012    2    3    3    0    0 -0.17799262217E+01 -0.11224867149E+02  0.35023041538E+02  0.54367092645E+02  0.40000019303E+02 0.  0.
         12    1    3    3    0    0  0.17799262217E+01  0.11224867149E+02 -0.35023041538E+02  0.36820907355E+02  0.00000000000E+00 0. -1.
         11    1    4    4    0    0 -0.81320785515E+01 -0.12475495761E+02  0.16210236702E+02  0.22012279988E+02  0.51100000000E-03 0. -1.
        -11    1    4    4    0    0 -0.23523696621E+01 -0.83690013001E+01  0.17212431529E+02  0.19283195410E+02  0.51100000000E-03 0.  1.
         12    1    4    4    0    0  0.87045219919E+01  0.96196299121E+01  0.16003733064E+01  0.13071617248E+02  0.00000000000E+00 0. -1.
</event>
<event>
 8    1  0.1253488E-006  0.9118800E+02  0.7816164E-02  0.1184000E+00
        -11   -1    0    0    0    0  0.00000000000E+00  0.00000000000E+00  0.45593999997E+02  0.45594000000E+02  0.51100000000E-03 0. -1.
         11   -1    0    0    0    0 -0.00000000000E+00 -0.00000000000E+00 -0.45593999997E+02  0.45594000000E+02  0.51100000000E-03 0.  1.
         23    2    1    2    0    0  0.71054273576E-14  0.88817841970E-15  0.00000000000E+00  0.91188000000E+02  0.91188000000E+02 0.  0.
    9900012    2    3    3    0    0 -0.28363745870E+02 -0.64174177740E+01  0.22585269901E+02  0.54367085465E+02  0.40000002935E+02 0.  0.
        -12    1    3    3    0    0  0.28363745870E+02  0.64174177740E+01 -0.22585269901E+02  0.36820914535E+02  0.00000000000E+00 0.  1.
         11    1    4    4    0    0  0.83921142927E+01 -0.23479987323E+01  0.94559893620E+01  0.12859098546E+02  0.51100000000E-03 0. -1.
        -11    1    4    4    0    0 -0.21271587252E+02 -0.90406794055E+01  0.75585445925E+01  0.24317604836E+02  0.51100000000E-03 0.  1.
         12    1    4    4    0    0 -0.15484272910E+02  0.49712603638E+01  0.55707359466E+01  0.17190382083E+02  0.00000000000E+00 0. -1.
</event>
<event>
 8    1  0.1253488E-006  0.9118800E+02  0.7816164E-02  0.1184000E+00
        -11   -1    0    0    0    0  0.00000000000E+00  0.00000000000E+00  0.45593999997E+02  0.45594000000E+02  0.51100000000E-03 0. -1.
         11   -1    0    0    0    0 -0.00000000000E+00 -0.00000000000E+00 -0.45593999997E+02  0.45594000000E+02  0.51100000000E-03 0.  1.
         23    2    1    2    0    0  0.00000000000E+00  0.00000000000E+00 -0.12490009027E-15  0.91188000000E+02  0.91188000000E+02 0.  0.
    9900012    2    3    3    0    0 -0.10782437988E+02 -0.35206613784E+02 -0.12199456018E+00  0.54367061585E+02  0.39999948495E+02 0.  0.
        -12    1    3    3    0    0  0.10782437988E+02  0.35206613784E+02  0.12199456018E+00  0.36820938415E+02  0.00000000000E+00 0.  1.
         11    1    4    4    0    0 -0.15746173768E+02 -0.23918525616E+02 -0.48078680973E+01  0.29037104743E+02  0.51100000000E-03 0.  1.
        -11    1    4    4    0    0  0.11028495892E+02 -0.16276846065E+01 -0.30380094130E+01  0.11554504761E+02  0.51100000000E-03 0. -1.
         12    1    4    4    0    0 -0.60647601123E+01 -0.96604035614E+01  0.77238829501E+01  0.13775452080E+02  0.00000000000E+00 0. -1.
</event>
<event>
 8    1  0.1253488E-006  0.9118800E+02  0.7816164E-02  0.1184000E+00
        -11   -1    0    0    0    0  0.00000000000E+00  0.00000000000E+00  0.45593999997E+02  0.45594000000E+02  0.51100000000E-03 0.  1.
         11   -1    0    0    0    0 -0.00000000000E+00 -0.00000000000E+00 -0.45593999997E+02  0.45594000000E+02  0.51100000000E-03 0. -1.
         23    2    1    2    0    0 -0.35527136788E-14  0.71054273576E-14  0.00000000000E+00  0.91188000000E+02  0.91188000000E+02 0.  0.
    9900012    2    3    3    0    0 -0.10373742112E+02  0.34266617725E+02  0.86002904349E+01  0.54367073732E+02  0.39999976186E+02 0.  0.
         12    1    3    3    0    0  0.10373742112E+02 -0.34266617725E+02 -0.86002904349E+01  0.36820926268E+02  0.00000000000E+00 0. -1.
         11    1    4    4    0    0 -0.15371803887E+01  0.15011371495E+02 -0.74813415716E+01  0.16842644379E+02  0.51100000000E-03 0. -1.
        -11    1    4    4    0    0 -0.47106507790E+01  0.25116474115E+02  0.81242371982E+01  0.26814748424E+02  0.51100000000E-03 0.  1.
         12    1    4    4    0    0 -0.41259109447E+01 -0.58612278855E+01  0.79573948083E+01  0.10709680928E+02  0.00000000000E+00 0. -1.
</event>
<event>
 8    1  0.1253488E-006  0.9118800E+02  0.7816164E-02  0.1184000E+00
        -11   -1    0    0    0    0  0.00000000000E+00  0.00000000000E+00  0.45593999997E+02  0.45594000000E+02  0.51100000000E-03 0.  1.
         11   -1    0    0    0    0 -0.00000000000E+00 -0.00000000000E+00 -0.45593999997E+02  0.45594000000E+02  0.51100000000E-03 0. -1.
         23    2    1    2    0    0  0.88817841970E-15  0.00000000000E+00  0.00000000000E+00  0.91188000000E+02  0.91188000000E+02 0.  0.
    9900012    2    3    3    0    0  0.78467309682E+01 -0.20261431889E+02  0.29726815446E+02  0.54367077067E+02  0.39999983790E+02 0.  0.
         12    1    3    3    0    0 -0.78467309682E+01  0.20261431889E+02 -0.29726815446E+02  0.36820922933E+02  0.00000000000E+00 0. -1.
         11    1    4    4    0    0  0.14144083745E+01 -0.20158315737E+02  0.89654039991E+01  0.22107390473E+02  0.51100000000E-03 0. -1.
        -11    1    4    4    0    0  0.10603420247E+02  0.81417142751E+01  0.55776981259E+01  0.14485535852E+02  0.51100000000E-03 0.  1.
         12    1    4    4    0    0 -0.41710976533E+01 -0.82448304268E+01  0.15183713321E+02  0.17774150742E+02  0.00000000000E+00 0. -1.
</event>
<event>
 8    1  0.1253488E-006  0.9118800E+02  0.7816164E-02  0.1184000E+00
        -11   -1    0    0    0    0  0.00000000000E+00  0.00000000000E+00  0.45593999997E+02  0.45594000000E+02  0.51100000000E-03 0.  1.
         11   -1    0    0    0    0 -0.00000000000E+00 -0.00000000000E+00 -0.45593999997E+02  0.45594000000E+02  0.51100000000E-03 0. -1.
         23    2    1    2    0    0  0.88817841970E-15  0.71054273576E-14  0.00000000000E+00  0.91188000000E+02  0.91188000000E+02 0.  0.
    9900012    2    3    3    0    0 -0.25956504437E+00 -0.27680987386E+02  0.24279111642E+02  0.54367086122E+02  0.40000004431E+02 0.  0.
         12    1    3    3    0    0  0.25956504437E+00  0.27680987386E+02 -0.24279111642E+02  0.36820913878E+02  0.00000000000E+00 0. -1.
         11    1    4    4    0    0  0.13772993639E+02 -0.25976010692E+01  0.24176758327E+01  0.14222800069E+02  0.51100000000E-03 0. -1.
        -11    1    4    4    0    0 -0.26440102381E+01  0.14688101677E+01  0.70629748952E+01  0.76833461512E+01  0.51100000000E-03 0.  1.
         12    1    4    4    0    0 -0.11388548445E+02 -0.26552196485E+02  0.14798460914E+02  0.32460939902E+02  0.00000000000E+00 0. -1.
</event>
<event>
 8    1  0.1253488E-006  0.9118800E+02  0.7816164E-02  0.1184000E+00
        -11   -1    0    0    0    0  0.00000000000E+00  0.00000000000E+00  0.45593999997E+02  0.45594000000E+02  0.51100000000E-03 0. -1.
         11   -1    0    0    0    0 -0.00000000000E+00 -0.00000000000E+00 -0.45593999997E+02  0.45594000000E+02  0.51100000000E-03 0.  1.
         23    2    1    2    0    0  0.00000000000E+00 -0.17763568394E-14  0.00000000000E+00  0.91188000000E+02  0.91188000000E+02 0.  0.
    9900012    2    3    3    0    0  0.10340493948E+02 -0.11006818483E+02  0.33581453791E+02  0.54366947504E+02  0.39999688424E+02 0.  0.
        -12    1    3    3    0    0 -0.10340493948E+02  0.11006818483E+02 -0.33581453791E+02  0.36821052496E+02  0.00000000000E+00 0.  1.
         11    1    4    4    0    0  0.18605288944E+02  0.76855608940E+01  0.24009547068E+02  0.31331820464E+02  0.51100000000E-03 0. -1.
        -11    1    4    4    0    0 -0.77826490670E+01 -0.12395860470E+02  0.67777456337E+01  0.16129625520E+02  0.51100000000E-03 0.  1.
         12    1    4    4    0    0 -0.48214592902E+00 -0.62965189074E+01  0.27941610893E+01  0.69055015199E+01  0.00000000000E+00 0. -1.
</event>
<event>
 8    1  0.1253488E-006  0.9118800E+02  0.7816164E-02  0.1184000E+00
        -11   -1    0    0    0    0  0.00000000000E+00  0.00000000000E+00  0.45593999997E+02  0.45594000000E+02  0.51100000000E-03 0.  1.
         11   -1    0    0    0    0 -0.00000000000E+00 -0.00000000000E+00 -0.45593999997E+02  0.45594000000E+02  0.51100000000E-03 0. -1.
         23    2    1    2    0    0 -0.17763568394E-14  0.00000000000E+00  0.71054273576E-14  0.91188000000E+02  0.91188000000E+02 0.  0.
    9900012    2    3    3    0    0  0.10518947861E+02 -0.60865173229E+01 -0.34757505024E+02  0.54367107660E+02  0.40000053533E+02 0.  0.
        -12    1    3    3    0    0 -0.10518947861E+02  0.60865173229E+01  0.34757505024E+02  0.36820892340E+02  0.00000000000E+00 0.  1.
         11    1    4    4    0    0  0.11245597002E+02 -0.87408454477E+01 -0.16052137258E+02  0.21460124461E+02  0.51100000000E-03 0. -1.
        -11    1    4    4    0    0  0.14240351137E+00 -0.12793262847E+00 -0.25506672271E+02  0.25507390617E+02  0.51100000000E-03 0.  1.
        -12    1    4    4    0    0 -0.86905265272E+00  0.27822607533E+01  0.68013045048E+01  0.73995925820E+01  0.00000000000E+00 0.  1.
</event>
<event>
 8    1  0.1253488E-006  0.9118800E+02  0.7816164E-02  0.1184000E+00
        -11   -1    0    0    0    0  0.00000000000E+00  0.00000000000E+00  0.45593999997E+02  0.45594000000E+02  0.51100000000E-03 0.  1.
         11   -1    0    0    0    0 -0.00000000000E+00 -0.00000000000E+00 -0.45593999997E+02  0.45594000000E+02  0.51100000000E-03 0. -1.
         23    2    1    2    0    0  0.00000000000E+00 -0.17763568394E-14  0.71054273576E-14  0.91188000000E+02  0.91188000000E+02 0.  0.
    9900012    2    3    3    0    0 -0.77850416850E+01 -0.12494006003E+02  0.33750152450E+02  0.54367084063E+02  0.39999999739E+02 0.  0.
         12    1    3    3    0    0  0.77850416850E+01  0.12494006003E+02 -0.33750152450E+02  0.36820915937E+02  0.00000000000E+00 0. -1.
         11    1    4    4    0    0 -0.68788570187E+01 -0.97515176113E+01 -0.26274201684E+01  0.12219415150E+02  0.51100000000E-03 0. -1.
        -11    1    4    4    0    0 -0.71677732002E+01 -0.91457310178E+01  0.15033064059E+02  0.19000378516E+02  0.51100000000E-03 0.  1.
         12    1    4    4    0    0  0.62615885338E+01  0.64032426256E+01  0.21344508559E+02  0.23147290397E+02  0.00000000000E+00 0. -1.
</event>
<event>
 8    1  0.1253488E-006  0.9118800E+02  0.7816164E-02  0.1184000E+00
        -11   -1    0    0    0    0  0.00000000000E+00  0.00000000000E+00  0.45593999997E+02  0.45594000000E+02  0.51100000000E-03 0.  1.
         11   -1    0    0    0    0 -0.00000000000E+00 -0.00000000000E+00 -0.45593999997E+02  0.45594000000E+02  0.51100000000E-03 0. -1.
         23    2    1    2    0    0  0.00000000000E+00 -0.35527136788E-14  0.35527136788E-14  0.91188000000E+02  0.91188000000E+02 0.  0.
    9900012    2    3    3    0    0 -0.15664424332E+02  0.17923776019E+02 -0.28091726081E+02  0.54367068308E+02  0.39999963822E+02 0.  0.
        -12    1    3    3    0    0  0.15664424332E+02 -0.17923776019E+02  0.28091726081E+02  0.36820931692E+02  0.00000000000E+00 0.  1.
         11    1    4    4    0    0 -0.60595306993E+01 -0.10658115874E+02 -0.21845972289E+01  0.12453345397E+02  0.51100000000E-03 0. -1.
        -11    1    4    4    0    0  0.22220741214E+01  0.81078547178E+01 -0.28202594810E+01  0.88672873715E+01  0.51100000000E-03 0.  1.
         12    1    4    4    0    0 -0.11826967754E+02  0.20474037175E+02 -0.23086869371E+02  0.33046435539E+02  0.00000000000E+00 0. -1.
</event>
<event>
 8    1  0.1253488E-006  0.9118800E+02  0.7816164E-02  0.1184000E+00
        -11   -1    0    0    0    0  0.00000000000E+00  0.00000000000E+00  0.45593999997E+02  0.45594000000E+02  0.51100000000E-03 0.  1.
         11   -1    0    0    0    0 -0.00000000000E+00 -0.00000000000E+00 -0.45593999997E+02  0.45594000000E+02  0.51100000000E-03 0. -1.
         23    2    1    2    0    0  0.00000000000E+00  0.00000000000E+00  0.00000000000E+00  0.91188000000E+02  0.91188000000E+02 0.  0.
    9900012    2    3    3    0    0 -0.33371532701E+02 -0.67812124738E+01  0.14004688675E+02  0.54367145280E+02  0.40000139295E+02 0.  0.
        -12    1    3    3    0    0  0.33371532701E+02  0.67812124738E+01 -0.14004688675E+02  0.36820854720E+02  0.00000000000E+00 0.  1.
         11    1    4    4    0    0 -0.11813673571E+02  0.27687352077E+01  0.13502499009E+02  0.18153408982E+02  0.51100000000E-03 0. -1.
        -11    1    4    4    0    0  0.35292400571E+01  0.12101219714E+01  0.71977860797E+01  0.81072840875E+01  0.51100000000E-03 0.  1.
         12    1    4    4    0    0 -0.25087099187E+02 -0.10760069653E+02 -0.66955964137E+01  0.28106452211E+02  0.00000000000E+00 0. -1.
</event>
<event>
 8    1  0.1253488E-006  0.9118800E+02  0.7816164E-02  0.1184000E+00
        -11   -1    0    0    0    0  0.00000000000E+00  0.00000000000E+00  0.45593999997E+02  0.45594000000E+02  0.51100000000E-03 0.  1.
         11   -1    0    0    0    0 -0.00000000000E+00 -0.00000000000E+00 -0.45593999997E+02  0.45594000000E+02  0.51100000000E-03 0. -1.
         23    2    1    2    0    0  0.71054273576E-14  0.17763568394E-14  0.35527136788E-14  0.91188000000E+02  0.91188000000E+02 0.  0.
    9900012    2    3    3    0    0 -0.19622435746E+02 -0.87147150913E+01 -0.29913080247E+02  0.54367100859E+02  0.40000038028E+02 0.  0.
        -12    1    3    3    0    0  0.19622435746E+02  0.87147150913E+01  0.29913080247E+02  0.36820899141E+02  0.00000000000E+00 0.  1.
         11    1    4    4    0    0 -0.55758798694E+01  0.89656202318E+01 -0.39281698108E+01  0.11265136519E+02  0.51100000000E-03 0. -1.
        -11    1    4    4    0    0 -0.34727152293E+01  0.23281528104E+01  0.38306992378E+01  0.56704764777E+01  0.51100000000E-03 0.  1.
        -12    1    4    4    0    0 -0.10573840647E+02 -0.20008488133E+02 -0.29815609674E+02  0.37431487863E+02  0.00000000000E+00 0.  1.
</event>
<event>
 8    1  0.1253488E-006  0.9118800E+02  0.7816164E-02  0.1184000E+00
        -11   -1    0    0    0    0  0.00000000000E+00  0.00000000000E+00  0.45593999997E+02  0.45594000000E+02  0.51100000000E-03 0.  1.
         11   -1    0    0    0    0 -0.00000000000E+00 -0.00000000000E+00 -0.45593999997E+02  0.45594000000E+02  0.51100000000E-03 0. -1.
         23    2    1    2    0    0  0.00000000000E+00  0.35527136788E-14  0.00000000000E+00  0.91188000000E+02  0.91188000000E+02 0.  0.
    9900012    2    3    3    0    0 -0.10125480366E+02  0.13831500133E+02  0.32587505077E+02  0.54367065252E+02  0.39999956855E+02 0.  0.
         12    1    3    3    0    0  0.10125480366E+02 -0.13831500133E+02 -0.32587505077E+02  0.36820934748E+02  0.00000000000E+00 0. -1.
         11    1    4    4    0    0  0.36235370636E+01 -0.30308393789E+01  0.25550903869E+01  0.53707071544E+01  0.51100000000E-03 0. -1.
        -11    1    4    4    0    0  0.58015957369E+00  0.10728683099E+02  0.31556296838E+02  0.33335283059E+02  0.51100000000E-03 0.  1.
         12    1    4    4    0    0 -0.14329177003E+02  0.61336564122E+01 -0.15238821481E+01  0.15661075039E+02  0.00000000000E+00 0. -1.
</event>
<event>
 8    1  0.1253488E-006  0.9118800E+02  0.7816164E-02  0.1184000E+00
        -11   -1    0    0    0    0  0.00000000000E+00  0.00000000000E+00  0.45593999997E+02  0.45594000000E+02  0.51100000000E-03 0.  1.
         11   -1    0    0    0    0 -0.00000000000E+00 -0.00000000000E+00 -0.45593999997E+02  0.45594000000E+02  0.51100000000E-03 0. -1.
         23    2    1    2    0    0 -0.35527136788E-14  0.00000000000E+00 -0.88817841970E-15  0.91188000000E+02  0.91188000000E+02 0.  0.
    9900012    2    3    3    0    0  0.31448473776E+02  0.18244125011E+02  0.58243976666E+01  0.54367106360E+02  0.40000050568E+02 0.  0.
        -12    1    3    3    0    0 -0.31448473776E+02 -0.18244125011E+02 -0.58243976666E+01  0.36820893640E+02  0.00000000000E+00 0.  1.
         11    1    4    4    0    0  0.29973585278E+02  0.20537595710E+02  0.29594198966E+01  0.36454997166E+02  0.51100000000E-03 0. -1.
        -11    1    4    4    0    0  0.68842943120E+01 -0.39155711350E+01  0.72693679285E+01  0.10750298406E+02  0.51100000000E-03 0.  1.
        -12    1    4    4    0    0 -0.54094058139E+01  0.16221004359E+01 -0.44043901585E+01  0.71618107872E+01  0.00000000000E+00 0.  1.
</event>
<event>
 8    1  0.1253488E-006  0.9118800E+02  0.7816164E-02  0.1184000E+00
        -11   -1    0    0    0    0  0.00000000000E+00  0.00000000000E+00  0.45593999997E+02  0.45594000000E+02  0.51100000000E-03 0.  1.
         11   -1    0    0    0    0 -0.00000000000E+00 -0.00000000000E+00 -0.45593999997E+02  0.45594000000E+02  0.51100000000E-03 0. -1.
         23    2    1    2    0    0  0.17763568394E-14  0.13322676296E-14  0.00000000000E+00  0.91188000000E+02  0.91188000000E+02 0.  0.
    9900012    2    3    3    0    0 -0.48971733475E+01 -0.24172310212E+01 -0.36413659411E+02  0.54367083332E+02  0.39999998072E+02 0.  0.
        -12    1    3    3    0    0  0.48971733475E+01  0.24172310212E+01  0.36413659411E+02  0.36820916668E+02  0.00000000000E+00 0.  1.
         11    1    4    4    0    0  0.99850688698E+01 -0.62262963283E+01 -0.12027792440E+02  0.16826650217E+02  0.51100000000E-03 0. -1.
        -11    1    4    4    0    0 -0.11171126271E+02  0.10815821672E+02 -0.45849620214E+01  0.16211043692E+02  0.51100000000E-03 0.  1.
        -12    1    4    4    0    0 -0.37111159465E+01 -0.70067563647E+01 -0.19800904949E+02  0.21329389422E+02  0.00000000000E+00 0.  1.
</event>
<event>
 8    1  0.1253488E-006  0.9118800E+02  0.7816164E-02  0.1184000E+00
        -11   -1    0    0    0    0  0.00000000000E+00  0.00000000000E+00  0.45593999997E+02  0.45594000000E+02  0.51100000000E-03 0. -1.
         11   -1    0    0    0    0 -0.00000000000E+00 -0.00000000000E+00 -0.45593999997E+02  0.45594000000E+02  0.51100000000E-03 0.  1.
         23    2    1    2    0    0  0.17763568394E-14  0.00000000000E+00  0.00000000000E+00  0.91188000000E+02  0.91188000000E+02 0.  0.
    9900012    2    3    3    0    0 -0.10284123106E+02 -0.11552119794E+02 -0.33415052911E+02  0.54367076317E+02  0.39999982080E+02 0.  0.
         12    1    3    3    0    0  0.10284123106E+02  0.11552119794E+02  0.33415052911E+02  0.36820923683E+02  0.00000000000E+00 0. -1.
         11    1    4    4    0    0  0.59861548878E+01  0.51483398902E+01  0.24976768520E+01  0.82811740644E+01  0.51100000000E-03 0. -1.
        -11    1    4    4    0    0 -0.17430917874E+02 -0.92633065746E+01 -0.18237897034E+02  0.26875018793E+02  0.51100000000E-03 0.  1.
         12    1    4    4    0    0  0.11606398804E+01 -0.74371531092E+01 -0.17674832730E+02  0.19210883460E+02  0.00000000000E+00 0. -1.
</event>
<event>
 8    1  0.1253488E-006  0.9118800E+02  0.7816164E-02  0.1184000E+00
        -11   -1    0    0    0    0  0.00000000000E+00  0.00000000000E+00  0.45593999997E+02  0.45594000000E+02  0.51100000000E-03 0.  1.
         11   -1    0    0    0    0 -0.00000000000E+00 -0.00000000000E+00 -0.45593999997E+02  0.45594000000E+02  0.51100000000E-03 0. -1.
         23    2    1    2    0    0  0.14210854715E-13 -0.22204460493E-14  0.35527136788E-14  0.91188000000E+02  0.91188000000E+02 0.  0.
    9900012    2    3    3    0    0  0.34004758114E+02 -0.37988852512E+01  0.13601801458E+02  0.54367297855E+02  0.40000487116E+02 0.  0.
         12    1    3    3    0    0 -0.34004758114E+02  0.37988852512E+01 -0.13601801458E+02  0.36820702145E+02  0.00000000000E+00 0. -1.
         11    1    4    4    0    0  0.66533986212E+01  0.13416517746E+02  0.49291954471E+01  0.15766027707E+02  0.51100000000E-03 0. -1.
        -11    1    4    4    0    0  0.14336721398E+02 -0.11170377670E+01  0.10520644956E+02  0.17817781130E+02  0.51100000000E-03 0.  1.
        -12    1    4    4    0    0  0.13014638095E+02 -0.16098365230E+02 -0.18480389453E+01  0.20783489018E+02  0.00000000000E+00 0.  1.
</event>
<event>
 8    1  0.1253488E-006  0.9118800E+02  0.7816164E-02  0.1184000E+00
        -11   -1    0    0    0    0  0.00000000000E+00  0.00000000000E+00  0.45593999997E+02  0.45594000000E+02  0.51100000000E-03 0. -1.
         11   -1    0    0    0    0 -0.00000000000E+00 -0.00000000000E+00 -0.45593999997E+02  0.45594000000E+02  0.51100000000E-03 0.  1.
         23    2    1    2    0    0  0.00000000000E+00  0.00000000000E+00  0.00000000000E+00  0.91188000000E+02  0.91188000000E+02 0.  0.
    9900012    2    3    3    0    0 -0.16378205003E+02 -0.19500460364E+02 -0.26594447433E+02  0.54367106641E+02  0.40000051209E+02 0.  0.
         12    1    3    3    0    0  0.16378205003E+02  0.19500460364E+02  0.26594447433E+02  0.36820893359E+02  0.00000000000E+00 0. -1.
         11    1    4    4    0    0  0.67788312351E+01  0.46543584069E+00  0.14041534007E+01  0.69383593500E+01  0.51100000000E-03 0. -1.
        -11    1    4    4    0    0  0.32234249762E+01  0.53494501205E+00 -0.76283677700E+01  0.82987125411E+01  0.51100000000E-03 0.  1.
        -12    1    4    4    0    0 -0.26380461214E+02 -0.20500841216E+02 -0.20370233063E+02  0.39130034750E+02  0.00000000000E+00 0.  1.
</event>
<event>
 8    1  0.1253488E-006  0.9118800E+02  0.7816164E-02  0.1184000E+00
        -11   -1    0    0    0    0  0.00000000000E+00  0.00000000000E+00  0.45593999997E+02  0.45594000000E+02  0.51100000000E-03 0.  1.
         11   -1    0    0    0    0 -0.00000000000E+00 -0.00000000000E+00 -0.45593999997E+02  0.45594000000E+02  0.51100000000E-03 0. -1.
         23    2    1    2    0    0  0.00000000000E+00  0.00000000000E+00  0.17763568394E-14  0.91188000000E+02  0.91188000000E+02 0.  0.
    9900012    2    3    3    0    0  0.23578109859E+02  0.26175014031E+02 -0.10710833426E+02  0.54367074200E+02  0.39999977254E+02 0.  0.
         12    1    3    3    0    0 -0.23578109859E+02 -0.26175014031E+02  0.10710833426E+02  0.36820925800E+02  0.00000000000E+00 0. -1.
         11    1    4    4    0    0 -0.64925022257E+00  0.53001098639E+01 -0.14096826024E+02  0.15074256022E+02  0.51100000000E-03 0. -1.
        -11    1    4    4    0    0  0.20141148636E+02  0.19119086660E+02  0.11485967753E+02  0.30052167951E+02  0.51100000000E-03 0.  1.
        -12    1    4    4    0    0  0.40862114457E+01  0.17558175076E+01 -0.80999751549E+01  0.92406502265E+01  0.00000000000E+00 0.  1.
</event>
<event>
 8    1  0.1253488E-006  0.9118800E+02  0.7816164E-02  0.1184000E+00
        -11   -1    0    0    0    0  0.00000000000E+00  0.00000000000E+00  0.45593999997E+02  0.45594000000E+02  0.51100000000E-03 0.  1.
         11   -1    0    0    0    0 -0.00000000000E+00 -0.00000000000E+00 -0.45593999997E+02  0.45594000000E+02  0.51100000000E-03 0. -1.
         23    2    1    2    0    0  0.35527136788E-14  0.17763568394E-14 -0.17763568394E-14  0.91188000000E+02  0.91188000000E+02 0.  0.
    9900012    2    3    3    0    0  0.31568765726E+02  0.10934653996E+02 -0.15479871208E+02  0.54367081487E+02  0.39999993867E+02 0.  0.
        -12    1    3    3    0    0 -0.31568765726E+02 -0.10934653996E+02  0.15479871208E+02  0.36820918513E+02  0.00000000000E+00 0.  1.
         11    1    4    4    0    0  0.22048862408E+02 -0.21285202741E+00 -0.16255007910E+02  0.27393848249E+02  0.51100000000E-03 0. -1.
        -11    1    4    4    0    0  0.16563774057E+02  0.43358655859E+01 -0.22740901439E+00  0.17123377486E+02  0.51100000000E-03 0.  1.
         12    1    4    4    0    0 -0.70438707388E+01  0.68116404376E+01  0.10025457163E+01  0.98498557528E+01  0.00000000000E+00 0. -1.
</event>
<event>
 8    1  0.1253488E-006  0.9118800E+02  0.7816164E-02  0.1184000E+00
        -11   -1    0    0    0    0  0.00000000000E+00  0.00000000000E+00  0.45593999997E+02  0.45594000000E+02  0.51100000000E-03 0.  1.
         11   -1    0    0    0    0 -0.00000000000E+00 -0.00000000000E+00 -0.45593999997E+02  0.45594000000E+02  0.51100000000E-03 0. -1.
         23    2    1    2    0    0  0.00000000000E+00 -0.88817841970E-15  0.00000000000E+00  0.91188000000E+02  0.91188000000E+02 0.  0.
    9900012    2    3    3    0    0  0.32354913583E+02  0.62370220187E+01 -0.16432855881E+02  0.54367087070E+02  0.40000006593E+02 0.  0.
        -12    1    3    3    0    0 -0.32354913583E+02 -0.62370220187E+01  0.16432855881E+02  0.36820912930E+02  0.00000000000E+00 0.  1.
         11    1    4    4    0    0  0.17133267920E+01 -0.96651335719E+00  0.53453180983E+01  0.56957934126E+01  0.51100000000E-03 0.  1.
        -11    1    4    4    0    0  0.12752619239E+02  0.18415097535E+02 -0.10562907339E+02  0.24765300854E+02  0.51100000000E-03 0. -1.
         12    1    4    4    0    0  0.17888967551E+02 -0.11211562159E+02 -0.11215266640E+02  0.23905992803E+02  0.00000000000E+00 0. -1.
</event>
<event>
 8    1  0.1253488E-006  0.9118800E+02  0.7816164E-02  0.1184000E+00
        -11   -1    0    0    0    0  0.00000000000E+00  0.00000000000E+00  0.45593999997E+02  0.45594000000E+02  0.51100000000E-03 0.  1.
         11   -1    0    0    0    0 -0.00000000000E+00 -0.00000000000E+00 -0.45593999997E+02  0.45594000000E+02  0.51100000000E-03 0. -1.
         23    2    1    2    0    0  0.00000000000E+00  0.17763568394E-14  0.00000000000E+00  0.91188000000E+02  0.91188000000E+02 0.  0.
    9900012    2    3    3    0    0 -0.30712891516E+02 -0.15662798221E+02  0.12929543755E+02  0.54367108443E+02  0.40000055317E+02 0.  0.
         12    1    3    3    0    0  0.30712891516E+02  0.15662798221E+02 -0.12929543755E+02  0.36820891557E+02  0.00000000000E+00 0. -1.
         11    1    4    4    0    0  0.31393997376E+01 -0.51895287457E+01  0.27644235706E+01  0.66655140277E+01  0.51100000000E-03 0. -1.
        -11    1    4    4    0    0 -0.16862440225E+02  0.35155994816E+01  0.17449967897E+02  0.24519435351E+02  0.51100000000E-03 0.  1.
        -12    1    4    4    0    0 -0.16989851028E+02 -0.13988868957E+02 -0.72848477131E+01  0.23182159064E+02  0.00000000000E+00 0.  1.
</event>
<event>
 8    1  0.1253488E-006  0.9118800E+02  0.7816164E-02  0.1184000E+00
        -11   -1    0    0    0    0  0.00000000000E+00  0.00000000000E+00  0.45593999997E+02  0.45594000000E+02  0.51100000000E-03 0.  1.
         11   -1    0    0    0    0 -0.00000000000E+00 -0.00000000000E+00 -0.45593999997E+02  0.45594000000E+02  0.51100000000E-03 0. -1.
         23    2    1    2    0    0  0.00000000000E+00  0.35527136788E-14  0.11102230246E-15  0.91188000000E+02  0.91188000000E+02 0.  0.
    9900012    2    3    3    0    0 -0.28361352993E+02 -0.23463659762E+02  0.93306315478E+00  0.54367078232E+02  0.39999986445E+02 0.  0.
         12    1    3    3    0    0  0.28361352993E+02  0.23463659762E+02 -0.93306315478E+00  0.36820921768E+02  0.00000000000E+00 0. -1.
         11    1    4    4    0    0 -0.25075032778E+02 -0.22648060031E+02 -0.80521536688E+01  0.34735127334E+02  0.51100000000E-03 0. -1.
        -11    1    4    4    0    0  0.30860197487E+01 -0.47553880823E+01  0.10551606753E+02  0.11978048215E+02  0.51100000000E-03 0.  1.
         12    1    4    4    0    0 -0.63723399637E+01  0.39397883508E+01 -0.15663899297E+01  0.76539026826E+01  0.00000000000E+00 0. -1.
</event>
<event>
 8    1  0.1253488E-006  0.9118800E+02  0.7816164E-02  0.1184000E+00
        -11   -1    0    0    0    0  0.00000000000E+00  0.00000000000E+00  0.45593999997E+02  0.45594000000E+02  0.51100000000E-03 0. -1.
         11   -1    0    0    0    0 -0.00000000000E+00 -0.00000000000E+00 -0.45593999997E+02  0.45594000000E+02  0.51100000000E-03 0.  1.
         23    2    1    2    0    0  0.00000000000E+00  0.35527136788E-14  0.00000000000E+00  0.91188000000E+02  0.91188000000E+02 0.  0.
    9900012    2    3    3    0    0  0.12655587126E+02  0.31680299657E+02 -0.13855461026E+02  0.54367094632E+02  0.40000023833E+02 0.  0.
        -12    1    3    3    0    0 -0.12655587126E+02 -0.31680299657E+02  0.13855461026E+02  0.36820905368E+02  0.00000000000E+00 0.  1.
         11    1    4    4    0    0  0.47817707053E+01  0.45661083187E+00 -0.64224533753E+01  0.80200830512E+01  0.51100000000E-03 0. -1.
        -11    1    4    4    0    0 -0.11216703673E+02  0.52014517385E+01  0.24281185933E+01  0.12600210381E+02  0.51100000000E-03 0.  1.
         12    1    4    4    0    0  0.19090520094E+02  0.26022237087E+02 -0.98611262441E+01  0.33746801200E+02  0.00000000000E+00 0. -1.
</event>
<event>
 8    1  0.1253488E-006  0.9118800E+02  0.7816164E-02  0.1184000E+00
        -11   -1    0    0    0    0  0.00000000000E+00  0.00000000000E+00  0.45593999997E+02  0.45594000000E+02  0.51100000000E-03 0. -1.
         11   -1    0    0    0    0 -0.00000000000E+00 -0.00000000000E+00 -0.45593999997E+02  0.45594000000E+02  0.51100000000E-03 0.  1.
         23    2    1    2    0    0 -0.17763568394E-14  0.00000000000E+00  0.17763568394E-14  0.91188000000E+02  0.91188000000E+02 0.  0.
    9900012    2    3    3    0    0 -0.15736987232E+02 -0.33286966696E+02 -0.32429851025E+00  0.54367080831E+02  0.39999992369E+02 0.  0.
        -12    1    3    3    0    0  0.15736987232E+02  0.33286966696E+02  0.32429851025E+00  0.36820919169E+02  0.00000000000E+00 0.  1.
         11    1    4    4    0    0 -0.28611511406E+01  0.78203235857E+01  0.31772133698E+01  0.89128184035E+01  0.51100000000E-03 0. -1.
        -11    1    4    4    0    0 -0.74529817180E+01 -0.28803853789E+02 -0.87627366421E+01  0.31016035905E+02  0.51100000000E-03 0.  1.
        -12    1    4    4    0    0 -0.54228543734E+01 -0.12303436493E+02  0.52612247621E+01  0.14438226522E+02  0.00000000000E+00 0.  1.
</event>
<event>
 8    1  0.1253488E-006  0.9118800E+02  0.7816164E-02  0.1184000E+00
        -11   -1    0    0    0    0  0.00000000000E+00  0.00000000000E+00  0.45593999997E+02  0.45594000000E+02  0.51100000000E-03 0. -1.
         11   -1    0    0    0    0 -0.00000000000E+00 -0.00000000000E+00 -0.45593999997E+02  0.45594000000E+02  0.51100000000E-03 0.  1.
         23    2    1    2    0    0  0.00000000000E+00 -0.88817841970E-15 -0.44408920985E-15  0.91188000000E+02  0.91188000000E+02 0.  0.
    9900012    2    3    3    0    0  0.35903387744E+02 -0.72249144004E+01 -0.38115227710E+01  0.54367077341E+02  0.39999984415E+02 0.  0.
        -12    1    3    3    0    0 -0.35903387744E+02  0.72249144004E+01  0.38115227710E+01  0.36820922659E+02  0.00000000000E+00 0.  1.
         11    1    4    4    0    0  0.25702725541E+02 -0.16480438236E+01 -0.12773957631E+02  0.28749263338E+02  0.51100000000E-03 0. -1.
        -11    1    4    4    0    0 -0.38621652487E+01  0.31494403908E+01 -0.24112305026E+01  0.55361835213E+01  0.51100000000E-03 0.  1.
         12    1    4    4    0    0  0.14062827452E+02 -0.87263109675E+01  0.11373665362E+02  0.20081630482E+02  0.00000000000E+00 0. -1.
</event>
<event>
 8    1  0.1253488E-006  0.9118800E+02  0.7816164E-02  0.1184000E+00
        -11   -1    0    0    0    0  0.00000000000E+00  0.00000000000E+00  0.45593999997E+02  0.45594000000E+02  0.51100000000E-03 0.  1.
         11   -1    0    0    0    0 -0.00000000000E+00 -0.00000000000E+00 -0.45593999997E+02  0.45594000000E+02  0.51100000000E-03 0. -1.
         23    2    1    2    0    0  0.71054273576E-14  0.00000000000E+00  0.13322676296E-14  0.91188000000E+02  0.91188000000E+02 0.  0.
    9900012    2    3    3    0    0 -0.27513086046E+02  0.24267229758E+02 -0.31480392802E+01  0.54367102466E+02  0.40000041692E+02 0.  0.
        -12    1    3    3    0    0  0.27513086046E+02 -0.24267229758E+02  0.31480392802E+01  0.36820897534E+02  0.00000000000E+00 0.  1.
         11    1    4    4    0    0 -0.11431339670E+01 -0.76940833458E+01  0.23409627993E+01  0.81231632317E+01  0.51100000000E-03 0. -1.
        -11    1    4    4    0    0 -0.21497092126E+02  0.24193087572E+02  0.45099264691E+01  0.32676748510E+02  0.51100000000E-03 0.  1.
         12    1    4    4    0    0 -0.48728599527E+01  0.77682255323E+01 -0.99989285487E+01  0.13567190725E+02  0.00000000000E+00 0. -1.
</event>
<event>
 8    1  0.1253488E-006  0.9118800E+02  0.7816164E-02  0.1184000E+00
        -11   -1    0    0    0    0  0.00000000000E+00  0.00000000000E+00  0.45593999997E+02  0.45594000000E+02  0.51100000000E-03 0.  1.
         11   -1    0    0    0    0 -0.00000000000E+00 -0.00000000000E+00 -0.45593999997E+02  0.45594000000E+02  0.51100000000E-03 0. -1.
         23    2    1    2    0    0  0.88817841970E-15  0.35527136788E-14  0.00000000000E+00  0.91188000000E+02  0.91188000000E+02 0.  0.
    9900012    2    3    3    0    0 -0.20546689244E+01 -0.16978707269E+02  0.32607968265E+02  0.54367112460E+02  0.40000064474E+02 0.  0.
         12    1    3    3    0    0  0.20546689244E+01  0.16978707269E+02 -0.32607968265E+02  0.36820887540E+02  0.00000000000E+00 0. -1.
         11    1    4    4    0    0 -0.15145183478E+02 -0.16595314264E+02  0.21098721019E+02  0.30821049090E+02  0.51100000000E-03 0. -1.
        -11    1    4    4    0    0  0.15534353945E+01 -0.41252604651E+01  0.10485299722E+02  0.11374200893E+02  0.51100000000E-03 0.  1.
        -12    1    4    4    0    0  0.11537079159E+02  0.37418674606E+01  0.10239475237E+01  0.12171862477E+02  0.00000000000E+00 0.  1.
</event>
<event>
 8    1  0.1253488E-006  0.9118800E+02  0.7816164E-02  0.1184000E+00
        -11   -1    0    0    0    0  0.00000000000E+00  0.00000000000E+00  0.45593999997E+02  0.45594000000E+02  0.51100000000E-03 0.  1.
         11   -1    0    0    0    0 -0.00000000000E+00 -0.00000000000E+00 -0.45593999997E+02  0.45594000000E+02  0.51100000000E-03 0. -1.
         23    2    1    2    0    0 -0.71054273576E-14  0.88817841970E-15  0.88817841970E-15  0.91188000000E+02  0.91188000000E+02 0.  0.
    9900012    2    3    3    0    0 -0.36354479494E+02 -0.11909659807E+01 -0.57195178842E+01  0.54367089310E+02  0.40000011700E+02 0.  0.
         12    1    3    3    0    0  0.36354479494E+02  0.11909659807E+01  0.57195178842E+01  0.36820910690E+02  0.00000000000E+00 0. -1.
         11    1    4    4    0    0 -0.51375291765E+01 -0.10510439887E+02  0.60938079052E+01  0.13190831957E+02  0.51100000000E-03 0. -1.
        -11    1    4    4    0    0 -0.44231911132E+00 -0.25659303083E+01  0.38570417834E+01  0.46536454660E+01  0.51100000000E-03 0.  1.
        -12    1    4    4    0    0 -0.30774631206E+02  0.11885404215E+02 -0.15670367573E+02  0.36522611887E+02  0.00000000000E+00 0.  1.
</event>
<event>
 8    1  0.1253488E-006  0.9118800E+02  0.7816164E-02  0.1184000E+00
        -11   -1    0    0    0    0  0.00000000000E+00  0.00000000000E+00  0.45593999997E+02  0.45594000000E+02  0.51100000000E-03 0.  1.
         11   -1    0    0    0    0 -0.00000000000E+00 -0.00000000000E+00 -0.45593999997E+02  0.45594000000E+02  0.51100000000E-03 0. -1.
         23    2    1    2    0    0  0.35527136788E-14 -0.35527136788E-14 -0.35527136788E-14  0.91188000000E+02  0.91188000000E+02 0.  0.
    9900012    2    3    3    0    0  0.16891531740E+02 -0.16664356094E+02 -0.28155898127E+02  0.54367092789E+02  0.40000019630E+02 0.  0.
        -12    1    3    3    0    0 -0.16891531740E+02  0.16664356094E+02  0.28155898127E+02  0.36820907211E+02  0.00000000000E+00 0.  1.
         11    1    4    4    0    0  0.78503498749E+01 -0.23490147248E+01 -0.98446552493E+01  0.12808711901E+02  0.51100000000E-03 0. -1.
        -11    1    4    4    0    0  0.64751108658E+00 -0.21730844227E+02 -0.20825349751E+01  0.21840004890E+02  0.51100000000E-03 0.  1.
        -12    1    4    4    0    0  0.83936707788E+01  0.74155028582E+01 -0.16228707902E+02  0.19718375997E+02  0.00000000000E+00 0.  1.
</event>
<event>
 8    1  0.1253488E-006  0.9118800E+02  0.7816164E-02  0.1184000E+00
        -11   -1    0    0    0    0  0.00000000000E+00  0.00000000000E+00  0.45593999997E+02  0.45594000000E+02  0.51100000000E-03 0.  1.
         11   -1    0    0    0    0 -0.00000000000E+00 -0.00000000000E+00 -0.45593999997E+02  0.45594000000E+02  0.51100000000E-03 0. -1.
         23    2    1    2    0    0  0.00000000000E+00 -0.35527136788E-14  0.00000000000E+00  0.91188000000E+02  0.91188000000E+02 0.  0.
    9900012    2    3    3    0    0 -0.19689243143E+02 -0.25902025964E+02  0.17239431828E+02  0.54367092158E+02  0.40000018192E+02 0.  0.
         12    1    3    3    0    0  0.19689243143E+02  0.25902025964E+02 -0.17239431828E+02  0.36820907842E+02  0.00000000000E+00 0. -1.
         11    1    4    4    0    0  0.52085539701E+01 -0.10707149426E+02  0.48081653205E-01  0.11906905366E+02  0.51100000000E-03 0. -1.
        -11    1    4    4    0    0 -0.26166129556E+02 -0.33932669287E+01  0.15122447806E+02  0.30411659348E+02  0.51100000000E-03 0.  1.
        -12    1    4    4    0    0  0.12683324432E+01 -0.11801609609E+02  0.20689023692E+01  0.12048527444E+02  0.00000000000E+00 0.  1.
</event>
<event>
 8    1  0.1253488E-006  0.9118800E+02  0.7816164E-02  0.1184000E+00
        -11   -1    0    0    0    0  0.00000000000E+00  0.00000000000E+00  0.45593999997E+02  0.45594000000E+02  0.51100000000E-03 0. -1.
         11   -1    0    0    0    0 -0.00000000000E+00 -0.00000000000E+00 -0.45593999997E+02  0.45594000000E+02  0.51100000000E-03 0.  1.
         23    2    1    2    0    0  0.00000000000E+00 -0.17763568394E-14 -0.17763568394E-14  0.91188000000E+02  0.91188000000E+02 0.  0.
    9900012    2    3    3    0    0  0.31119334103E+02  0.15717673943E+02 -0.11845727232E+02  0.54367089055E+02  0.40000011119E+02 0.  0.
         12    1    3    3    0    0 -0.31119334103E+02 -0.15717673943E+02  0.11845727232E+02  0.36820910945E+02  0.00000000000E+00 0. -1.
         11    1    4    4    0    0  0.12401379091E+02 -0.91375918897E+00  0.17099252180E+01  0.12552011939E+02  0.51100000000E-03 0. -1.
        -11    1    4    4    0    0 -0.18994271099E+00  0.46954354412E+01 -0.18353851398E+02  0.18945898068E+02  0.51100000000E-03 0.  1.
        -12    1    4    4    0    0  0.18907897723E+02  0.11935997690E+02  0.47981989486E+01  0.22869179048E+02  0.00000000000E+00 0.  1.
</event>
<event>
 8    1  0.1253488E-006  0.9118800E+02  0.7816164E-02  0.1184000E+00
        -11   -1    0    0    0    0  0.00000000000E+00  0.00000000000E+00  0.45593999997E+02  0.45594000000E+02  0.51100000000E-03 0. -1.
         11   -1    0    0    0    0 -0.00000000000E+00 -0.00000000000E+00 -0.45593999997E+02  0.45594000000E+02  0.51100000000E-03 0.  1.
         23    2    1    2    0    0  0.71054273576E-14 -0.11102230246E-15  0.22204460493E-15  0.91188000000E+02  0.91188000000E+02 0.  0.
    9900012    2    3    3    0    0 -0.36809742346E+02  0.76793545375E+00 -0.48254765513E+00  0.54367085988E+02  0.40000004126E+02 0.  0.
        -12    1    3    3    0    0  0.36809742346E+02 -0.76793545375E+00  0.48254765513E+00  0.36820914012E+02  0.00000000000E+00 0.  1.
         11    1    4    4    0    0 -0.47151439332E+01  0.45149157763E+01 -0.35894419578E+00  0.65380339534E+01  0.51100000000E-03 0. -1.
        -11    1    4    4    0    0 -0.12800177155E+02  0.14835621894E+02  0.57180528555E+01  0.20411671683E+02  0.51100000000E-03 0.  1.
         12    1    4    4    0    0 -0.19294421259E+02 -0.18582602216E+02 -0.58416563149E+01  0.27417380352E+02  0.00000000000E+00 0. -1.
</event>
<event>
 8    1  0.1253488E-006  0.9118800E+02  0.7816164E-02  0.1184000E+00
        -11   -1    0    0    0    0  0.00000000000E+00  0.00000000000E+00  0.45593999997E+02  0.45594000000E+02  0.51100000000E-03 0.  1.
         11   -1    0    0    0    0 -0.00000000000E+00 -0.00000000000E+00 -0.45593999997E+02  0.45594000000E+02  0.51100000000E-03 0. -1.
         23    2    1    2    0    0  0.00000000000E+00 -0.44408920985E-15  0.00000000000E+00  0.91188000000E+02  0.91188000000E+02 0.  0.
    9900012    2    3    3    0    0 -0.16974390927E+02  0.10380154811E+01  0.32658417825E+02  0.54367086400E+02  0.40000005066E+02 0.  0.
         12    1    3    3    0    0  0.16974390927E+02 -0.10380154811E+01 -0.32658417825E+02  0.36820913600E+02  0.00000000000E+00 0. -1.
         11    1    4    4    0    0 -0.13014588121E+02  0.18765913310E+02  0.11856643996E+02  0.25731673350E+02  0.51100000000E-03 0. -1.
        -11    1    4    4    0    0 -0.46447963949E+00 -0.53754979169E+01  0.11744185462E+02  0.12924303139E+02  0.51100000000E-03 0.  1.
         12    1    4    4    0    0 -0.34953231667E+01 -0.12352399912E+02  0.90575883675E+01  0.15711109911E+02  0.00000000000E+00 0. -1.
</event>
<event>
 8    1  0.1253488E-006  0.9118800E+02  0.7816164E-02  0.1184000E+00
        -11   -1    0    0    0    0  0.00000000000E+00  0.00000000000E+00  0.45593999997E+02  0.45594000000E+02  0.51100000000E-03 0.  1.
         11   -1    0    0    0    0 -0.00000000000E+00 -0.00000000000E+00 -0.45593999997E+02  0.45594000000E+02  0.51100000000E-03 0. -1.
         23    2    1    2    0    0  0.35527136788E-14  0.31086244690E-14 -0.10658141036E-13  0.91188000000E+02  0.91188000000E+02 0.  0.
    9900012    2    3    3    0    0 -0.18019727952E+02 -0.38330040872E+01  0.31880657905E+02  0.54367097454E+02  0.40000030267E+02 0.  0.
         12    1    3    3    0    0  0.18019727952E+02  0.38330040872E+01 -0.31880657905E+02  0.36820902546E+02  0.00000000000E+00 0. -1.
         11    1    4    4    0    0 -0.51414092802E+01  0.10748969756E+02  0.87087231411E-01  0.11915621035E+02  0.51100000000E-03 0. -1.
        -11    1    4    4    0    0 -0.13170476397E+02 -0.28981463703E+01  0.26259803651E+02  0.29520128539E+02  0.51100000000E-03 0.  1.
         12    1    4    4    0    0  0.29215772563E+00 -0.11683827473E+02  0.55337670227E+01  0.12931347881E+02  0.00000000000E+00 0. -1.
</event>
<event>
 8    1  0.1253488E-006  0.9118800E+02  0.7816164E-02  0.1184000E+00
        -11   -1    0    0    0    0  0.00000000000E+00  0.00000000000E+00  0.45593999997E+02  0.45594000000E+02  0.51100000000E-03 0.  1.
         11   -1    0    0    0    0 -0.00000000000E+00 -0.00000000000E+00 -0.45593999997E+02  0.45594000000E+02  0.51100000000E-03 0. -1.
         23    2    1    2    0    0 -0.88817841970E-15  0.00000000000E+00  0.00000000000E+00  0.91188000000E+02  0.91188000000E+02 0.  0.
    9900012    2    3    3    0    0  0.59772276044E+00  0.13834908177E+02 -0.34117677297E+02  0.54367111079E+02  0.40000061328E+02 0.  0.
        -12    1    3    3    0    0 -0.59772276044E+00 -0.13834908177E+02  0.34117677297E+02  0.36820888921E+02  0.00000000000E+00 0.  1.
         11    1    4    4    0    0  0.11497653505E+02  0.14304855396E+01 -0.17027310618E+02  0.20595427457E+02  0.51100000000E-03 0. -1.
        -11    1    4    4    0    0  0.56805574696E+01 -0.78612749178E+00  0.11091306754E+01  0.58409674468E+01  0.51100000000E-03 0.  1.
         12    1    4    4    0    0 -0.16580488214E+02  0.13190550129E+02 -0.18199497354E+02  0.27930716175E+02  0.00000000000E+00 0. -1.
</event>
