<event>
 8    1  0.1247338E-006  0.9118800E+02  0.7816164E-02  0.1184000E+00
        -11   -1    0    0    0    0  0.00000000000E+00  0.00000000000E+00  0.45593999997E+02  0.45594000000E+02  0.51100000000E-03 0.  1.
         11   -1    0    0    0    0 -0.00000000000E+00 -0.00000000000E+00 -0.45593999997E+02  0.45594000000E+02  0.51100000000E-03 0. -1.
         23    2    1    2    0    0  0.22204460493E-15 -0.44408920985E-15  0.00000000000E+00  0.91188000000E+02  0.91188000000E+02 0.  0.
    9900012    2    3    3    0    0  0.15209568391E+01  0.38560234022E+01  0.36586840363E+02  0.54367094064E+02  0.40000022537E+02 0.  0.
         12    1    3    3    0    0 -0.15209568391E+01 -0.38560234022E+01 -0.36586840363E+02  0.36820905936E+02  0.00000000000E+00 0. -1.
         11    1    4    4    0    0 -0.31016685754E+01 -0.30588130553E+01 -0.33362202555E+01  0.54869892577E+01  0.51100000000E-03 0. -1.
        -11    1    4    4    0    0  0.51597840138E+01  0.32771230736E+00  0.41713657334E+02  0.42032844002E+02  0.51100000000E-03 0.  1.
         12    1    4    4    0    0 -0.53715859925E+00  0.65871241501E+01 -0.17905967151E+01  0.68472608046E+01  0.00000000000E+00 0. -1.
</event>
<event>
 8    1  0.1247338E-006  0.9118800E+02  0.7816164E-02  0.1184000E+00
        -11   -1    0    0    0    0  0.00000000000E+00  0.00000000000E+00  0.45593999997E+02  0.45594000000E+02  0.51100000000E-03 0. -1.
         11   -1    0    0    0    0 -0.00000000000E+00 -0.00000000000E+00 -0.45593999997E+02  0.45594000000E+02  0.51100000000E-03 0.  1.
         23    2    1    2    0    0  0.44408920985E-15  0.00000000000E+00  0.22204460493E-14  0.91188000000E+02  0.91188000000E+02 0.  0.
    9900012    2    3    3    0    0  0.16126154598E+01 -0.36760980453E+02  0.13394286306E+01  0.54367295478E+02  0.40000481697E+02 0.  0.
        -12    1    3    3    0    0 -0.16126154598E+01  0.36760980453E+02 -0.13394286306E+01  0.36820704522E+02  0.00000000000E+00 0.  1.
         11    1    4    4    0    0  0.28093847732E+01  0.31228611219E+01  0.11701483128E+02  0.12432602786E+02  0.51100000000E-03 0. -1.
        -11    1    4    4    0    0  0.87327910560E+00 -0.31894602117E+00 -0.67415550575E+00  0.11484027463E+01  0.51100000000E-03 0.  1.
         12    1    4    4    0    0 -0.20700484190E+01 -0.39564895554E+02 -0.96878989913E+01  0.40786289945E+02  0.00000000000E+00 0. -1.
</event>
<event>
 8    1  0.1247338E-006  0.9118800E+02  0.7816164E-02  0.1184000E+00
        -11   -1    0    0    0    0  0.00000000000E+00  0.00000000000E+00  0.45593999997E+02  0.45594000000E+02  0.51100000000E-03 0.  1.
         11   -1    0    0    0    0 -0.00000000000E+00 -0.00000000000E+00 -0.45593999997E+02  0.45594000000E+02  0.51100000000E-03 0. -1.
         23    2    1    2    0    0  0.13322676296E-14  0.00000000000E+00  0.00000000000E+00  0.91188000000E+02  0.91188000000E+02 0.  0.
    9900012    2    3    3    0    0 -0.39292207668E+01  0.35727008400E+02 -0.79949423085E+01  0.54367122667E+02  0.40000087744E+02 0.  0.
        -12    1    3    3    0    0  0.39292207668E+01 -0.35727008400E+02  0.79949423085E+01  0.36820877333E+02  0.00000000000E+00 0.  1.
         11    1    4    4    0    0  0.91028255768E+01  0.81309548902E+01 -0.82796590315E+01  0.14748783504E+02  0.51100000000E-03 0. -1.
        -11    1    4    4    0    0 -0.13328572421E+01  0.18619137860E+02 -0.10436768962E+02  0.21386326232E+02  0.51100000000E-03 0.  1.
        -12    1    4    4    0    0 -0.11699189102E+02  0.89769156496E+01  0.10721485685E+02  0.18232012931E+02  0.00000000000E+00 0.  1.
</event>
<event>
 8    1  0.1247338E-006  0.9118800E+02  0.7816164E-02  0.1184000E+00
        -11   -1    0    0    0    0  0.00000000000E+00  0.00000000000E+00  0.45593999997E+02  0.45594000000E+02  0.51100000000E-03 0.  1.
         11   -1    0    0    0    0 -0.00000000000E+00 -0.00000000000E+00 -0.45593999997E+02  0.45594000000E+02  0.51100000000E-03 0. -1.
         23    2    1    2    0    0  0.71054273576E-14  0.00000000000E+00  0.00000000000E+00  0.91188000000E+02  0.91188000000E+02 0.  0.
    9900012    2    3    3    0    0  0.31001699268E+02  0.10452953490E+02 -0.16894087820E+02  0.54367084783E+02  0.40000001379E+02 0.  0.
        -12    1    3    3    0    0 -0.31001699268E+02 -0.10452953490E+02  0.16894087820E+02  0.36820915217E+02  0.00000000000E+00 0.  1.
         11    1    4    4    0    0  0.87887097176E+01  0.18335921137E+02 -0.73560816611E+01  0.21623120962E+02  0.51100000000E-03 0. -1.
        -11    1    4    4    0    0  0.61595260370E+01 -0.96806521935E+00  0.65104586004E+01  0.90145983115E+01  0.51100000000E-03 0.  1.
         12    1    4    4    0    0  0.16053463514E+02 -0.69149024279E+01 -0.16048464759E+02  0.23729365510E+02  0.00000000000E+00 0. -1.
</event>
<event>
 8    1  0.1247338E-006  0.9118800E+02  0.7816164E-02  0.1184000E+00
        -11   -1    0    0    0    0  0.00000000000E+00  0.00000000000E+00  0.45593999997E+02  0.45594000000E+02  0.51100000000E-03 0.  1.
         11   -1    0    0    0    0 -0.00000000000E+00 -0.00000000000E+00 -0.45593999997E+02  0.45594000000E+02  0.51100000000E-03 0. -1.
         23    2    1    2    0    0  0.35527136788E-14  0.00000000000E+00  0.00000000000E+00  0.91188000000E+02  0.91188000000E+02 0.  0.
    9900012    2    3    3    0    0 -0.26121107929E+02  0.18992252542E+02 -0.17685065417E+02  0.54367089163E+02  0.40000011365E+02 0.  0.
        -12    1    3    3    0    0  0.26121107929E+02 -0.18992252542E+02  0.17685065417E+02  0.36820910837E+02  0.00000000000E+00 0.  1.
         11    1    4    4    0    0 -0.87489289161E+01 -0.19991155647E+01 -0.20481618131E+02  0.22361504908E+02  0.51100000000E-03 0. -1.
        -11    1    4    4    0    0  0.28815971342E+01  0.60723474244E+01  0.32800255693E+00  0.67293826779E+01  0.51100000000E-03 0.  1.
         12    1    4    4    0    0 -0.20253776147E+02  0.14919020682E+02  0.24685501563E+01  0.25276201578E+02  0.00000000000E+00 0. -1.
</event>
<event>
 8    1  0.1247338E-006  0.9118800E+02  0.7816164E-02  0.1184000E+00
        -11   -1    0    0    0    0  0.00000000000E+00  0.00000000000E+00  0.45593999997E+02  0.45594000000E+02  0.51100000000E-03 0.  1.
         11   -1    0    0    0    0 -0.00000000000E+00 -0.00000000000E+00 -0.45593999997E+02  0.45594000000E+02  0.51100000000E-03 0. -1.
         23    2    1    2    0    0  0.00000000000E+00  0.00000000000E+00  0.35527136788E-14  0.91188000000E+02  0.91188000000E+02 0.  0.
    9900012    2    3    3    0    0  0.17448386201E+02 -0.19795435307E+02  0.25680270287E+02  0.54367058649E+02  0.39999941801E+02 0.  0.
         12    1    3    3    0    0 -0.17448386201E+02  0.19795435307E+02 -0.25680270287E+02  0.36820941351E+02  0.00000000000E+00 0. -1.
         11    1    4    4    0    0  0.24026109667E+01  0.50513340218E+01  0.16515536841E+02  0.17437071780E+02  0.51100000000E-03 0. -1.
        -11    1    4    4    0    0  0.77290508078E+01 -0.25938848272E+02  0.11146667213E+02  0.29271321567E+02  0.51100000000E-03 0.  1.
        -12    1    4    4    0    0  0.73167244262E+01  0.10920789436E+01 -0.19819337665E+01  0.76586653016E+01  0.00000000000E+00 0.  1.
</event>
<event>
 8    1  0.1247338E-006  0.9118800E+02  0.7816164E-02  0.1184000E+00
        -11   -1    0    0    0    0  0.00000000000E+00  0.00000000000E+00  0.45593999997E+02  0.45594000000E+02  0.51100000000E-03 0. -1.
         11   -1    0    0    0    0 -0.00000000000E+00 -0.00000000000E+00 -0.45593999997E+02  0.45594000000E+02  0.51100000000E-03 0.  1.
         23    2    1    2    0    0  0.00000000000E+00  0.26645352591E-14  0.00000000000E+00  0.91188000000E+02  0.91188000000E+02 0.  0.
    9900012    2    3    3    0    0 -0.13223642424E+02 -0.61310350174E+01  0.33813089879E+02  0.54367090770E+02  0.40000015028E+02 0.  0.
        -12    1    3    3    0    0  0.13223642424E+02  0.61310350174E+01 -0.33813089879E+02  0.36820909230E+02  0.00000000000E+00 0.  1.
         11    1    4    4    0    0 -0.10600800599E+02 -0.15955910310E+02  0.66205041238E+01  0.20268180044E+02  0.51100000000E-03 0. -1.
        -11    1    4    4    0    0  0.67631399809E+01  0.57843531422E+01  0.19073139419E+02  0.21047172048E+02  0.51100000000E-03 0.  1.
        -12    1    4    4    0    0 -0.93859818061E+01  0.40405221505E+01  0.81194463362E+01  0.13051738678E+02  0.00000000000E+00 0.  1.
</event>
<event>
 8    1  0.1247338E-006  0.9118800E+02  0.7816164E-02  0.1184000E+00
        -11   -1    0    0    0    0  0.00000000000E+00  0.00000000000E+00  0.45593999997E+02  0.45594000000E+02  0.51100000000E-03 0.  1.
         11   -1    0    0    0    0 -0.00000000000E+00 -0.00000000000E+00 -0.45593999997E+02  0.45594000000E+02  0.51100000000E-03 0. -1.
         23    2    1    2    0    0 -0.17763568394E-14  0.00000000000E+00  0.00000000000E+00  0.91188000000E+02  0.91188000000E+02 0.  0.
    9900012    2    3    3    0    0 -0.14861760934E+02 -0.33446009060E+02 -0.40330388439E+01  0.54367178955E+02  0.40000216063E+02 0.  0.
         12    1    3    3    0    0  0.14861760934E+02  0.33446009060E+02  0.40330388439E+01  0.36820821045E+02  0.00000000000E+00 0. -1.
         11    1    4    4    0    0 -0.31402518386E+00 -0.10216280570E+02 -0.28421496638E+01  0.10608902652E+02  0.51100000000E-03 0. -1.
        -11    1    4    4    0    0 -0.69177088234E+01 -0.28670558801E+02  0.80758904515E+01  0.30579006592E+02  0.51100000000E-03 0.  1.
         12    1    4    4    0    0 -0.76300269267E+01  0.54408303109E+01 -0.92667796316E+01  0.13179269711E+02  0.00000000000E+00 0. -1.
</event>
<event>
 8    1  0.1247338E-006  0.9118800E+02  0.7816164E-02  0.1184000E+00
        -11   -1    0    0    0    0  0.00000000000E+00  0.00000000000E+00  0.45593999997E+02  0.45594000000E+02  0.51100000000E-03 0.  1.
         11   -1    0    0    0    0 -0.00000000000E+00 -0.00000000000E+00 -0.45593999997E+02  0.45594000000E+02  0.51100000000E-03 0. -1.
         23    2    1    2    0    0  0.35527136788E-14 -0.35527136788E-14  0.00000000000E+00  0.91188000000E+02  0.91188000000E+02 0.  0.
    9900012    2    3    3    0    0  0.15021647232E+02  0.31231826023E+02  0.12437927044E+02  0.54367097357E+02  0.40000030044E+02 0.  0.
         12    1    3    3    0    0 -0.15021647232E+02 -0.31231826023E+02 -0.12437927044E+02  0.36820902643E+02  0.00000000000E+00 0. -1.
         11    1    4    4    0    0 -0.55085771165E+01  0.76793775367E+01  0.45473364988E+01  0.10487875414E+02  0.51100000000E-03 0. -1.
        -11    1    4    4    0    0  0.80923508661E+01  0.25909157390E+02  0.13162011416E+02  0.30166357486E+02  0.51100000000E-03 0.  1.
         12    1    4    4    0    0  0.12437873482E+02 -0.23567089034E+01 -0.52714208710E+01  0.13712864457E+02  0.00000000000E+00 0. -1.
</event>
<event>
 8    1  0.1247338E-006  0.9118800E+02  0.7816164E-02  0.1184000E+00
        -11   -1    0    0    0    0  0.00000000000E+00  0.00000000000E+00  0.45593999997E+02  0.45594000000E+02  0.51100000000E-03 0.  1.
         11   -1    0    0    0    0 -0.00000000000E+00 -0.00000000000E+00 -0.45593999997E+02  0.45594000000E+02  0.51100000000E-03 0. -1.
         23    2    1    2    0    0 -0.71054273576E-14  0.00000000000E+00  0.00000000000E+00  0.91188000000E+02  0.91188000000E+02 0.  0.
    9900012    2    3    3    0    0  0.26639323395E+02 -0.16407334107E+02 -0.19414709145E+02  0.54367012851E+02  0.39999837395E+02 0.  0.
        -12    1    3    3    0    0 -0.26639323395E+02  0.16407334107E+02  0.19414709145E+02  0.36820987149E+02  0.00000000000E+00 0.  1.
         11    1    4    4    0    0  0.37474653952E+01  0.40151808061E+01  0.72261185719E+01  0.90764510504E+01  0.51100000000E-03 0.  1.
        -11    1    4    4    0    0  0.15510893651E+01  0.27372149013E+01 -0.82302909079E+01  0.88111243507E+01  0.51100000000E-03 0. -1.
        -12    1    4    4    0    0  0.21340768635E+02 -0.23159729815E+02 -0.18410536809E+02  0.36479437449E+02  0.00000000000E+00 0.  1.
</event>
<event>
 8    1  0.1247338E-006  0.9118800E+02  0.7816164E-02  0.1184000E+00
        -11   -1    0    0    0    0  0.00000000000E+00  0.00000000000E+00  0.45593999997E+02  0.45594000000E+02  0.51100000000E-03 0. -1.
         11   -1    0    0    0    0 -0.00000000000E+00 -0.00000000000E+00 -0.45593999997E+02  0.45594000000E+02  0.51100000000E-03 0.  1.
         23    2    1    2    0    0  0.35527136788E-14 -0.17763568394E-14 -0.35527136788E-14  0.91188000000E+02  0.91188000000E+02 0.  0.
    9900012    2    3    3    0    0 -0.30690165642E+02 -0.80256747724E+01 -0.18694440303E+02  0.54367084464E+02  0.40000000653E+02 0.  0.
         12    1    3    3    0    0  0.30690165642E+02  0.80256747724E+01  0.18694440303E+02  0.36820915536E+02  0.00000000000E+00 0. -1.
         11    1    4    4    0    0  0.17514937433E+01 -0.36598494899E+01 -0.85672415417E+01  0.94794438927E+01  0.51100000000E-03 0. -1.
        -11    1    4    4    0    0 -0.28511480452E+02 -0.68209805681E+01 -0.18960091381E+02  0.34912968349E+02  0.51100000000E-03 0.  1.
         12    1    4    4    0    0 -0.39301789327E+01  0.24551552856E+01  0.88328926196E+01  0.99746722226E+01  0.00000000000E+00 0. -1.
</event>
<event>
 8    1  0.1247338E-006  0.9118800E+02  0.7816164E-02  0.1184000E+00
        -11   -1    0    0    0    0  0.00000000000E+00  0.00000000000E+00  0.45593999997E+02  0.45594000000E+02  0.51100000000E-03 0. -1.
         11   -1    0    0    0    0 -0.00000000000E+00 -0.00000000000E+00 -0.45593999997E+02  0.45594000000E+02  0.51100000000E-03 0.  1.
         23    2    1    2    0    0  0.35527136788E-14  0.00000000000E+00  0.00000000000E+00  0.91188000000E+02  0.91188000000E+02 0.  0.
    9900012    2    3    3    0    0  0.31136467638E+02  0.15707560032E+02  0.11814094754E+02  0.54367083472E+02  0.39999998391E+02 0.  0.
        -12    1    3    3    0    0 -0.31136467638E+02 -0.15707560032E+02 -0.11814094754E+02  0.36820916528E+02  0.00000000000E+00 0.  1.
         11    1    4    4    0    0  0.15987973987E+02 -0.21595417510E+01  0.73999055872E+01  0.17749296768E+02  0.51100000000E-03 0. -1.
        -11    1    4    4    0    0  0.22207909487E+02  0.68054971317E+01  0.29632455726E+01  0.23415526037E+02  0.51100000000E-03 0.  1.
         12    1    4    4    0    0 -0.70594158367E+01  0.11061604651E+02  0.14509435942E+01  0.13202260668E+02  0.00000000000E+00 0. -1.
</event>
<event>
 8    1  0.1247338E-006  0.9118800E+02  0.7816164E-02  0.1184000E+00
        -11   -1    0    0    0    0  0.00000000000E+00  0.00000000000E+00  0.45593999997E+02  0.45594000000E+02  0.51100000000E-03 0.  1.
         11   -1    0    0    0    0 -0.00000000000E+00 -0.00000000000E+00 -0.45593999997E+02  0.45594000000E+02  0.51100000000E-03 0. -1.
         23    2    1    2    0    0  0.17763568394E-14 -0.71054273576E-14  0.00000000000E+00  0.91188000000E+02  0.91188000000E+02 0.  0.
    9900012    2    3    3    0    0  0.78981679166E+01 -0.35685197387E+02  0.44683709788E+01  0.54367072415E+02  0.39999973185E+02 0.  0.
         12    1    3    3    0    0 -0.78981679166E+01  0.35685197387E+02 -0.44683709788E+01  0.36820927585E+02  0.00000000000E+00 0. -1.
         11    1    4    4    0    0 -0.13116576883E+01  0.37333598721E+01  0.36284265787E+01  0.53687895772E+01  0.51100000000E-03 0. -1.
        -11    1    4    4    0    0  0.11256855618E+02 -0.20452507645E+01  0.16541296556E+01  0.11560103558E+02  0.51100000000E-03 0.  1.
         12    1    4    4    0    0 -0.20470300127E+01 -0.37373306495E+02 -0.81418525547E+00  0.37438179281E+02  0.00000000000E+00 0. -1.
</event>
<event>
 8    1  0.1247338E-006  0.9118800E+02  0.7816164E-02  0.1184000E+00
        -11   -1    0    0    0    0  0.00000000000E+00  0.00000000000E+00  0.45593999997E+02  0.45594000000E+02  0.51100000000E-03 0.  1.
         11   -1    0    0    0    0 -0.00000000000E+00 -0.00000000000E+00 -0.45593999997E+02  0.45594000000E+02  0.51100000000E-03 0. -1.
         23    2    1    2    0    0  0.00000000000E+00 -0.35527136788E-14  0.00000000000E+00  0.91188000000E+02  0.91188000000E+02 0.  0.
    9900012    2    3    3    0    0 -0.19677401947E+02  0.24250344469E+02 -0.19506385927E+02  0.54367103132E+02  0.40000043210E+02 0.  0.
         12    1    3    3    0    0  0.19677401947E+02 -0.24250344469E+02  0.19506385927E+02  0.36820896868E+02  0.00000000000E+00 0. -1.
         11    1    4    4    0    0  0.23599110341E+01  0.94484751336E+01 -0.11525487525E+02  0.15089059792E+02  0.51100000000E-03 0. -1.
        -11    1    4    4    0    0  0.54915450151E+01 -0.22516660525E+01 -0.39052635709E-01  0.59353678937E+01  0.51100000000E-03 0.  1.
        -12    1    4    4    0    0 -0.27528857996E+02  0.17053535387E+02 -0.79418457662E+01  0.33342675447E+02  0.00000000000E+00 0.  1.
</event>
<event>
 8    1  0.1247338E-006  0.9118800E+02  0.7816164E-02  0.1184000E+00
        -11   -1    0    0    0    0  0.00000000000E+00  0.00000000000E+00  0.45593999997E+02  0.45594000000E+02  0.51100000000E-03 0.  1.
         11   -1    0    0    0    0 -0.00000000000E+00 -0.00000000000E+00 -0.45593999997E+02  0.45594000000E+02  0.51100000000E-03 0. -1.
         23    2    1    2    0    0  0.00000000000E+00  0.00000000000E+00 -0.17763568394E-14  0.91188000000E+02  0.91188000000E+02 0.  0.
    9900012    2    3    3    0    0  0.32809940070E+02 -0.13214892201E+02 -0.10230074425E+02  0.54367082493E+02  0.39999996159E+02 0.  0.
         12    1    3    3    0    0 -0.32809940070E+02  0.13214892201E+02  0.10230074425E+02  0.36820917507E+02  0.00000000000E+00 0. -1.
         11    1    4    4    0    0  0.13024762692E+01  0.93502712936E+01 -0.40883666700E+01  0.10287796654E+02  0.51100000000E-03 0. -1.
        -11    1    4    4    0    0  0.10620652035E+02 -0.18343871695E+02  0.19487732781E+01  0.21285995301E+02  0.51100000000E-03 0.  1.
         12    1    4    4    0    0  0.20886811766E+02 -0.42212917996E+01 -0.80904810329E+01  0.22793290538E+02  0.00000000000E+00 0. -1.
</event>
<event>
 8    1  0.1247338E-006  0.9118800E+02  0.7816164E-02  0.1184000E+00
        -11   -1    0    0    0    0  0.00000000000E+00  0.00000000000E+00  0.45593999997E+02  0.45594000000E+02  0.51100000000E-03 0.  1.
         11   -1    0    0    0    0 -0.00000000000E+00 -0.00000000000E+00 -0.45593999997E+02  0.45594000000E+02  0.51100000000E-03 0. -1.
         23    2    1    2    0    0  0.00000000000E+00  0.00000000000E+00 -0.88817841970E-15  0.91188000000E+02  0.91188000000E+02 0.  0.
    9900012    2    3    3    0    0  0.94167353048E+01 -0.34940236424E+02 -0.68033262675E+01  0.54367078318E+02  0.39999986643E+02 0.  0.
        -12    1    3    3    0    0 -0.94167353048E+01  0.34940236424E+02  0.68033262675E+01  0.36820921682E+02  0.00000000000E+00 0.  1.
         11    1    4    4    0    0 -0.10158076788E+02 -0.18641267441E+02 -0.23836268722E+01  0.21362702384E+02  0.51100000000E-03 0. -1.
        -11    1    4    4    0    0  0.12697669044E+02 -0.46739286331E+01  0.70747661874E+01  0.15268553464E+02  0.51100000000E-03 0.  1.
        -12    1    4    4    0    0  0.68771430495E+01 -0.11625040350E+02 -0.11494465583E+02  0.17735822470E+02  0.00000000000E+00 0.  1.
</event>
<event>
 8    1  0.1247338E-006  0.9118800E+02  0.7816164E-02  0.1184000E+00
        -11   -1    0    0    0    0  0.00000000000E+00  0.00000000000E+00  0.45593999997E+02  0.45594000000E+02  0.51100000000E-03 0. -1.
         11   -1    0    0    0    0 -0.00000000000E+00 -0.00000000000E+00 -0.45593999997E+02  0.45594000000E+02  0.51100000000E-03 0.  1.
         23    2    1    2    0    0  0.00000000000E+00  0.00000000000E+00  0.00000000000E+00  0.91188000000E+02  0.91188000000E+02 0.  0.
    9900012    2    3    3    0    0  0.33498806609E+02  0.11322012813E+02  0.10267867611E+02  0.54366985298E+02  0.39999774584E+02 0.  0.
        -12    1    3    3    0    0 -0.33498806609E+02 -0.11322012813E+02 -0.10267867611E+02  0.36821014702E+02  0.00000000000E+00 0.  1.
         11    1    4    4    0    0  0.28285014292E+02  0.44186407760E+01  0.38685822574E+00  0.28630684228E+02  0.51100000000E-03 0. -1.
        -11    1    4    4    0    0  0.11881978688E+02  0.35341157877E+01 -0.11105174913E+01  0.12446069311E+02  0.51100000000E-03 0.  1.
         12    1    4    4    0    0 -0.66681863705E+01  0.33692562488E+01  0.10991526877E+02  0.13290231760E+02  0.00000000000E+00 0. -1.
</event>
<event>
 8    1  0.1247338E-006  0.9118800E+02  0.7816164E-02  0.1184000E+00
        -11   -1    0    0    0    0  0.00000000000E+00  0.00000000000E+00  0.45593999997E+02  0.45594000000E+02  0.51100000000E-03 0. -1.
         11   -1    0    0    0    0 -0.00000000000E+00 -0.00000000000E+00 -0.45593999997E+02  0.45594000000E+02  0.51100000000E-03 0.  1.
         23    2    1    2    0    0  0.00000000000E+00  0.00000000000E+00  0.17763568394E-14  0.91188000000E+02  0.91188000000E+02 0.  0.
    9900012    2    3    3    0    0  0.14061454312E+02 -0.30952297156E+02  0.14142524607E+02  0.54367079332E+02  0.39999988953E+02 0.  0.
        -12    1    3    3    0    0 -0.14061454312E+02  0.30952297156E+02 -0.14142524607E+02  0.36820920668E+02  0.00000000000E+00 0.  1.
         11    1    4    4    0    0 -0.97408652662E+00 -0.18622568079E+02  0.10097495638E+02  0.21206327000E+02  0.51100000000E-03 0. -1.
        -11    1    4    4    0    0  0.49395202227E+00  0.65953882742E+01  0.63681196179E+01  0.91812898231E+01  0.51100000000E-03 0.  1.
         12    1    4    4    0    0  0.14541588816E+02 -0.18925117351E+02 -0.23230906489E+01  0.23979462509E+02  0.00000000000E+00 0. -1.
</event>
<event>
 8    1  0.1247338E-006  0.9118800E+02  0.7816164E-02  0.1184000E+00
        -11   -1    0    0    0    0  0.00000000000E+00  0.00000000000E+00  0.45593999997E+02  0.45594000000E+02  0.51100000000E-03 0. -1.
         11   -1    0    0    0    0 -0.00000000000E+00 -0.00000000000E+00 -0.45593999997E+02  0.45594000000E+02  0.51100000000E-03 0.  1.
         23    2    1    2    0    0  0.00000000000E+00  0.00000000000E+00 -0.17763568394E-14  0.91188000000E+02  0.91188000000E+02 0.  0.
    9900012    2    3    3    0    0 -0.30972039726E+02  0.18237923104E+02  0.79931609266E+01  0.54367086031E+02  0.40000004224E+02 0.  0.
         12    1    3    3    0    0  0.30972039726E+02 -0.18237923104E+02 -0.79931609266E+01  0.36820913969E+02  0.00000000000E+00 0. -1.
         11    1    4    4    0    0 -0.22578210530E+02  0.15800987030E+02 -0.23133074097E+01  0.27654984601E+02  0.51100000000E-03 0. -1.
        -11    1    4    4    0    0 -0.80120127009E+01 -0.25885493616E+01 -0.55430216024E+01  0.10080576574E+02  0.51100000000E-03 0.  1.
         12    1    4    4    0    0 -0.38181649458E+00  0.50254854362E+01  0.15849489939E+02  0.16631524856E+02  0.00000000000E+00 0. -1.
</event>
<event>
 8    1  0.1247338E-006  0.9118800E+02  0.7816164E-02  0.1184000E+00
        -11   -1    0    0    0    0  0.00000000000E+00  0.00000000000E+00  0.45593999997E+02  0.45594000000E+02  0.51100000000E-03 0.  1.
         11   -1    0    0    0    0 -0.00000000000E+00 -0.00000000000E+00 -0.45593999997E+02  0.45594000000E+02  0.51100000000E-03 0. -1.
         23    2    1    2    0    0 -0.17763568394E-14  0.17763568394E-14  0.35527136788E-14  0.91188000000E+02  0.91188000000E+02 0.  0.
    9900012    2    3    3    0    0 -0.13342765077E+02  0.13949699444E+02  0.31355331758E+02  0.54367077631E+02  0.39999985075E+02 0.  0.
         12    1    3    3    0    0  0.13342765077E+02 -0.13949699444E+02 -0.31355331758E+02  0.36820922369E+02  0.00000000000E+00 0. -1.
         11    1    4    4    0    0 -0.35319385481E+01  0.11338816960E+02  0.14245864649E+02  0.18546914024E+02  0.51100000000E-03 0. -1.
        -11    1    4    4    0    0 -0.67139567153E+01 -0.10994354531E+02  0.17656185979E+02  0.21856210786E+02  0.51100000000E-03 0.  1.
         12    1    4    4    0    0 -0.30968698134E+01  0.13605237015E+02 -0.54671887014E+00  0.13963952821E+02  0.00000000000E+00 0. -1.
</event>
<event>
 8    1  0.1247338E-006  0.9118800E+02  0.7816164E-02  0.1184000E+00
        -11   -1    0    0    0    0  0.00000000000E+00  0.00000000000E+00  0.45593999997E+02  0.45594000000E+02  0.51100000000E-03 0. -1.
         11   -1    0    0    0    0 -0.00000000000E+00 -0.00000000000E+00 -0.45593999997E+02  0.45594000000E+02  0.51100000000E-03 0.  1.
         23    2    1    2    0    0  0.53290705182E-14  0.22204460493E-15  0.00000000000E+00  0.91188000000E+02  0.91188000000E+02 0.  0.
    9900012    2    3    3    0    0 -0.14313347282E+02  0.12465419655E+01 -0.33902100306E+02  0.54367106713E+02  0.40000051374E+02 0.  0.
         12    1    3    3    0    0  0.14313347282E+02 -0.12465419655E+01  0.33902100306E+02  0.36820893287E+02  0.00000000000E+00 0. -1.
         11    1    4    4    0    0  0.76024884769E+01  0.23247759673E+01 -0.13395310420E+02  0.15576801849E+02  0.51100000000E-03 0. -1.
        -11    1    4    4    0    0 -0.20325485321E+02  0.93334128693E+01 -0.13186758036E+02  0.25963985385E+02  0.51100000000E-03 0.  1.
         12    1    4    4    0    0 -0.15903504375E+01 -0.10411646871E+02 -0.73200318508E+01  0.12826319479E+02  0.00000000000E+00 0. -1.
</event>
<event>
 8    1  0.1247338E-006  0.9118800E+02  0.7816164E-02  0.1184000E+00
        -11   -1    0    0    0    0  0.00000000000E+00  0.00000000000E+00  0.45593999997E+02  0.45594000000E+02  0.51100000000E-03 0. -1.
         11   -1    0    0    0    0 -0.00000000000E+00 -0.00000000000E+00 -0.45593999997E+02  0.45594000000E+02  0.51100000000E-03 0.  1.
         23    2    1    2    0    0  0.71054273576E-14  0.00000000000E+00  0.00000000000E+00  0.91188000000E+02  0.91188000000E+02 0.  0.
    9900012    2    3    3    0    0  0.34487252005E+02 -0.36626867710E+01  0.12369070821E+02  0.54367085587E+02  0.40000003213E+02 0.  0.
         12    1    3    3    0    0 -0.34487252005E+02  0.36626867710E+01 -0.12369070821E+02  0.36820914413E+02  0.00000000000E+00 0. -1.
         11    1    4    4    0    0 -0.33535406695E+01 -0.11959837524E+02  0.33979018524E+01  0.12877487561E+02  0.51100000000E-03 0. -1.
        -11    1    4    4    0    0  0.37633138970E+02  0.97751849474E+01  0.92598404181E+01  0.39969388716E+02  0.51100000000E-03 0.  1.
        -12    1    4    4    0    0  0.20765370433E+00 -0.14780341948E+01 -0.28867144966E+00  0.15202093105E+01  0.00000000000E+00 0.  1.
</event>
<event>
 8    1  0.1247338E-006  0.9118800E+02  0.7816164E-02  0.1184000E+00
        -11   -1    0    0    0    0  0.00000000000E+00  0.00000000000E+00  0.45593999997E+02  0.45594000000E+02  0.51100000000E-03 0. -1.
         11   -1    0    0    0    0 -0.00000000000E+00 -0.00000000000E+00 -0.45593999997E+02  0.45594000000E+02  0.51100000000E-03 0.  1.
         23    2    1    2    0    0  0.44408920985E-15  0.00000000000E+00  0.00000000000E+00  0.91188000000E+02  0.91188000000E+02 0.  0.
    9900012    2    3    3    0    0  0.38208142088E+01  0.17317898195E+02  0.32268694234E+02  0.54367124852E+02  0.40000092725E+02 0.  0.
        -12    1    3    3    0    0 -0.38208142088E+01 -0.17317898195E+02 -0.32268694234E+02  0.36820875148E+02  0.00000000000E+00 0.  1.
         11    1    4    4    0    0  0.26790315578E+01 -0.12030552494E+01 -0.47431009732E+01  0.55786700139E+01  0.51100000000E-03 0.  1.
        -11    1    4    4    0    0 -0.36622648675E+01 -0.48860892095E+01  0.15413287420E+02  0.16578765970E+02  0.51100000000E-03 0. -1.
         12    1    4    4    0    0  0.48040475186E+01  0.23407042654E+02  0.21598507787E+02  0.32209688868E+02  0.00000000000E+00 0. -1.
</event>
<event>
 8    1  0.1247338E-006  0.9118800E+02  0.7816164E-02  0.1184000E+00
        -11   -1    0    0    0    0  0.00000000000E+00  0.00000000000E+00  0.45593999997E+02  0.45594000000E+02  0.51100000000E-03 0. -1.
         11   -1    0    0    0    0 -0.00000000000E+00 -0.00000000000E+00 -0.45593999997E+02  0.45594000000E+02  0.51100000000E-03 0.  1.
         23    2    1    2    0    0  0.00000000000E+00 -0.35527136788E-14  0.35527136788E-14  0.91188000000E+02  0.91188000000E+02 0.  0.
    9900012    2    3    3    0    0 -0.86454723279E+01 -0.24874685980E+02  0.25734908181E+02  0.54367086195E+02  0.40000004598E+02 0.  0.
        -12    1    3    3    0    0  0.86454723279E+01  0.24874685980E+02 -0.25734908181E+02  0.36820913805E+02  0.00000000000E+00 0.  1.
         11    1    4    4    0    0  0.37226662451E+00  0.21075335921E+01  0.12491944160E+02  0.12673947666E+02  0.51100000000E-03 0. -1.
        -11    1    4    4    0    0 -0.18704505789E+02 -0.17657767206E+02  0.59686201118E+01  0.26406054340E+02  0.51100000000E-03 0.  1.
        -12    1    4    4    0    0  0.96867668366E+01 -0.93244523660E+01  0.72743439087E+01  0.15287084188E+02  0.00000000000E+00 0.  1.
</event>
<event>
 8    1  0.1247338E-006  0.9118800E+02  0.7816164E-02  0.1184000E+00
        -11   -1    0    0    0    0  0.00000000000E+00  0.00000000000E+00  0.45593999997E+02  0.45594000000E+02  0.51100000000E-03 0. -1.
         11   -1    0    0    0    0 -0.00000000000E+00 -0.00000000000E+00 -0.45593999997E+02  0.45594000000E+02  0.51100000000E-03 0.  1.
         23    2    1    2    0    0 -0.35527136788E-14  0.35527136788E-14 -0.35527136788E-14  0.91188000000E+02  0.91188000000E+02 0.  0.
    9900012    2    3    3    0    0 -0.20622519494E+02  0.16551697213E+02 -0.25622884206E+02  0.54367093086E+02  0.40000020309E+02 0.  0.
         12    1    3    3    0    0  0.20622519494E+02 -0.16551697213E+02  0.25622884206E+02  0.36820906914E+02  0.00000000000E+00 0. -1.
         11    1    4    4    0    0 -0.19232722342E+02  0.48627921833E+01 -0.17165546399E+02  0.26233572764E+02  0.51100000000E-03 0. -1.
        -11    1    4    4    0    0 -0.50678115385E+01  0.15791336477E+02 -0.12936031389E+02  0.21033067534E+02  0.51100000000E-03 0.  1.
         12    1    4    4    0    0  0.36780143863E+01 -0.41024314473E+01  0.44786935819E+01  0.71004527888E+01  0.00000000000E+00 0. -1.
</event>
<event>
 8    1  0.1247338E-006  0.9118800E+02  0.7816164E-02  0.1184000E+00
        -11   -1    0    0    0    0  0.00000000000E+00  0.00000000000E+00  0.45593999997E+02  0.45594000000E+02  0.51100000000E-03 0. -1.
         11   -1    0    0    0    0 -0.00000000000E+00 -0.00000000000E+00 -0.45593999997E+02  0.45594000000E+02  0.51100000000E-03 0.  1.
         23    2    1    2    0    0  0.00000000000E+00  0.00000000000E+00  0.00000000000E+00  0.91188000000E+02  0.91188000000E+02 0.  0.
    9900012    2    3    3    0    0 -0.19773626821E+02 -0.22620156314E+02  0.21286419470E+02  0.54367089594E+02  0.40000012347E+02 0.  0.
        -12    1    3    3    0    0  0.19773626821E+02  0.22620156314E+02 -0.21286419470E+02  0.36820910406E+02  0.00000000000E+00 0.  1.
         11    1    4    4    0    0  0.21392946693E+01 -0.94201644801E-01 -0.38338821880E+01  0.43913675005E+01  0.51100000000E-03 0. -1.
        -11    1    4    4    0    0 -0.21677455165E+02 -0.22679644725E+02  0.73752527502E+01  0.32228445520E+02  0.51100000000E-03 0.  1.
         12    1    4    4    0    0 -0.23546632538E+00  0.15369005604E+00  0.17745048907E+02  0.17747276573E+02  0.00000000000E+00 0. -1.
</event>
<event>
 8    1  0.1247338E-006  0.9118800E+02  0.7816164E-02  0.1184000E+00
        -11   -1    0    0    0    0  0.00000000000E+00  0.00000000000E+00  0.45593999997E+02  0.45594000000E+02  0.51100000000E-03 0. -1.
         11   -1    0    0    0    0 -0.00000000000E+00 -0.00000000000E+00 -0.45593999997E+02  0.45594000000E+02  0.51100000000E-03 0.  1.
         23    2    1    2    0    0 -0.35527136788E-14  0.00000000000E+00  0.00000000000E+00  0.91188000000E+02  0.91188000000E+02 0.  0.
    9900012    2    3    3    0    0 -0.24098137383E+02  0.46739586166E+01  0.27444702585E+02  0.54367111710E+02  0.40000062765E+02 0.  0.
        -12    1    3    3    0    0  0.24098137383E+02 -0.46739586166E+01 -0.27444702585E+02  0.36820888290E+02  0.00000000000E+00 0.  1.
         11    1    4    4    0    0  0.56372098990E+01 -0.46985794395E+01  0.13145872812E+02  0.15055522457E+02  0.51100000000E-03 0. -1.
        -11    1    4    4    0    0 -0.25854673844E+02  0.78632421969E+01  0.29036720585E+01  0.27179515248E+02  0.51100000000E-03 0.  1.
        -12    1    4    4    0    0 -0.38806734385E+01  0.15092958592E+01  0.11395157714E+02  0.12132074005E+02  0.00000000000E+00 0.  1.
</event>
<event>
 8    1  0.1247338E-006  0.9118800E+02  0.7816164E-02  0.1184000E+00
        -11   -1    0    0    0    0  0.00000000000E+00  0.00000000000E+00  0.45593999997E+02  0.45594000000E+02  0.51100000000E-03 0.  1.
         11   -1    0    0    0    0 -0.00000000000E+00 -0.00000000000E+00 -0.45593999997E+02  0.45594000000E+02  0.51100000000E-03 0. -1.
         23    2    1    2    0    0  0.17763568394E-14  0.00000000000E+00  0.00000000000E+00  0.91188000000E+02  0.91188000000E+02 0.  0.
    9900012    2    3    3    0    0 -0.87466056756E+01 -0.34330904943E+02 -0.10033894776E+02  0.54366902930E+02  0.39999586808E+02 0.  0.
        -12    1    3    3    0    0  0.87466056756E+01  0.34330904943E+02  0.10033894776E+02  0.36821097070E+02  0.00000000000E+00 0.  1.
         11    1    4    4    0    0 -0.12172522243E+02 -0.11757756376E+02  0.75547370519E+01  0.18533461224E+02  0.51100000000E-03 0. -1.
        -11    1    4    4    0    0  0.40240775786E+01 -0.17747694336E+02 -0.22489238335E+02  0.28929910054E+02  0.51100000000E-03 0.  1.
        -12    1    4    4    0    0 -0.59816101121E+00 -0.48254542316E+01  0.49006065076E+01  0.69035316527E+01  0.00000000000E+00 0.  1.
</event>
<event>
 8    1  0.1247338E-006  0.9118800E+02  0.7816164E-02  0.1184000E+00
        -11   -1    0    0    0    0  0.00000000000E+00  0.00000000000E+00  0.45593999997E+02  0.45594000000E+02  0.51100000000E-03 0. -1.
         11   -1    0    0    0    0 -0.00000000000E+00 -0.00000000000E+00 -0.45593999997E+02  0.45594000000E+02  0.51100000000E-03 0.  1.
         23    2    1    2    0    0  0.00000000000E+00  0.00000000000E+00  0.35527136788E-14  0.91188000000E+02  0.91188000000E+02 0.  0.
    9900012    2    3    3    0    0  0.19287746840E+02  0.22482910075E+02  0.21869632681E+02  0.54367092118E+02  0.40000018102E+02 0.  0.
         12    1    3    3    0    0 -0.19287746840E+02 -0.22482910075E+02 -0.21869632681E+02  0.36820907882E+02  0.00000000000E+00 0. -1.
         11    1    4    4    0    0  0.11487727184E+01  0.16845873083E+00 -0.46224631462E+01  0.47660489823E+01  0.51100000000E-03 0. -1.
        -11    1    4    4    0    0  0.29989996753E+01  0.23922031280E+02  0.24279107591E+02  0.34215970617E+02  0.51100000000E-03 0.  1.
        -12    1    4    4    0    0  0.15139974446E+02 -0.16075799355E+01  0.22129882365E+01  0.15385072519E+02  0.00000000000E+00 0.  1.
</event>
<event>
 8    1  0.1247338E-006  0.9118800E+02  0.7816164E-02  0.1184000E+00
        -11   -1    0    0    0    0  0.00000000000E+00  0.00000000000E+00  0.45593999997E+02  0.45594000000E+02  0.51100000000E-03 0.  1.
         11   -1    0    0    0    0 -0.00000000000E+00 -0.00000000000E+00 -0.45593999997E+02  0.45594000000E+02  0.51100000000E-03 0. -1.
         23    2    1    2    0    0 -0.35527136788E-14  0.35527136788E-14  0.00000000000E+00  0.91188000000E+02  0.91188000000E+02 0.  0.
    9900012    2    3    3    0    0 -0.25664310042E+02  0.16842733862E+02 -0.20333391156E+02  0.54367064518E+02  0.39999955181E+02 0.  0.
        -12    1    3    3    0    0  0.25664310042E+02 -0.16842733862E+02  0.20333391156E+02  0.36820935482E+02  0.00000000000E+00 0.  1.
         11    1    4    4    0    0  0.52754449127E+00  0.26931093286E+01  0.27391400872E+01  0.38773740759E+01  0.51100000000E-03 0. -1.
        -11    1    4    4    0    0 -0.14659627841E+02  0.11601811225E+01  0.65907598378E+01  0.16114863455E+02  0.51100000000E-03 0.  1.
         12    1    4    4    0    0 -0.11532226692E+02  0.12989443411E+02 -0.29663291081E+02  0.34374826987E+02  0.00000000000E+00 0. -1.
</event>
<event>
 8    1  0.1247338E-006  0.9118800E+02  0.7816164E-02  0.1184000E+00
        -11   -1    0    0    0    0  0.00000000000E+00  0.00000000000E+00  0.45593999997E+02  0.45594000000E+02  0.51100000000E-03 0.  1.
         11   -1    0    0    0    0 -0.00000000000E+00 -0.00000000000E+00 -0.45593999997E+02  0.45594000000E+02  0.51100000000E-03 0. -1.
         23    2    1    2    0    0  0.00000000000E+00  0.00000000000E+00  0.17763568394E-14  0.91188000000E+02  0.91188000000E+02 0.  0.
    9900012    2    3    3    0    0  0.32200035983E+02  0.12314579895E+02 -0.12934008377E+02  0.54367085182E+02  0.40000002290E+02 0.  0.
         12    1    3    3    0    0 -0.32200035983E+02 -0.12314579895E+02  0.12934008377E+02  0.36820914818E+02  0.00000000000E+00 0. -1.
         11    1    4    4    0    0 -0.51147118065E+01  0.68503253321E+01  0.49833782353E+01  0.98955188301E+01  0.51100000000E-03 0. -1.
        -11    1    4    4    0    0  0.20309205842E+02 -0.35083830951E+00 -0.19059445696E+01  0.20401459615E+02  0.51100000000E-03 0.  1.
         12    1    4    4    0    0  0.17005541947E+02  0.58150928728E+01 -0.16011442043E+02  0.24070106737E+02  0.00000000000E+00 0. -1.
</event>
<event>
 8    1  0.1247338E-006  0.9118800E+02  0.7816164E-02  0.1184000E+00
        -11   -1    0    0    0    0  0.00000000000E+00  0.00000000000E+00  0.45593999997E+02  0.45594000000E+02  0.51100000000E-03 0.  1.
         11   -1    0    0    0    0 -0.00000000000E+00 -0.00000000000E+00 -0.45593999997E+02  0.45594000000E+02  0.51100000000E-03 0. -1.
         23    2    1    2    0    0 -0.35527136788E-14 -0.71054273576E-14  0.00000000000E+00  0.91188000000E+02  0.91188000000E+02 0.  0.
    9900012    2    3    3    0    0 -0.18582984912E+02  0.24401227281E+02 -0.20372349306E+02  0.54367084241E+02  0.40000000145E+02 0.  0.
        -12    1    3    3    0    0  0.18582984912E+02 -0.24401227281E+02  0.20372349306E+02  0.36820915759E+02  0.00000000000E+00 0.  1.
         11    1    4    4    0    0 -0.69976141387E+01  0.16633609119E+01 -0.51665383519E+01  0.88558733030E+01  0.51100000000E-03 0. -1.
        -11    1    4    4    0    0  0.10349461767E+02  0.70750835725E+01  0.31190869243E+01  0.12918857145E+02  0.51100000000E-03 0.  1.
        -12    1    4    4    0    0 -0.21934832540E+02  0.15662782797E+02 -0.18324897879E+02  0.32592353793E+02  0.00000000000E+00 0.  1.
</event>
<event>
 8    1  0.1247338E-006  0.9118800E+02  0.7816164E-02  0.1184000E+00
        -11   -1    0    0    0    0  0.00000000000E+00  0.00000000000E+00  0.45593999997E+02  0.45594000000E+02  0.51100000000E-03 0.  1.
         11   -1    0    0    0    0 -0.00000000000E+00 -0.00000000000E+00 -0.45593999997E+02  0.45594000000E+02  0.51100000000E-03 0. -1.
         23    2    1    2    0    0 -0.17763568394E-14  0.00000000000E+00  0.00000000000E+00  0.91188000000E+02  0.91188000000E+02 0.  0.
    9900012    2    3    3    0    0 -0.11178150336E+02  0.33058207252E+02  0.11746739857E+02  0.54367054753E+02  0.39999932919E+02 0.  0.
         12    1    3    3    0    0  0.11178150336E+02 -0.33058207252E+02 -0.11746739857E+02  0.36820945247E+02  0.00000000000E+00 0. -1.
         11    1    4    4    0    0  0.86695422370E+01  0.20623770301E+02  0.15614172287E+02  0.27281921496E+02  0.51100000000E-03 0. -1.
        -11    1    4    4    0    0 -0.82487513787E+01  0.82719022867E+01  0.41343705851E+01  0.12391904097E+02  0.51100000000E-03 0.  1.
         12    1    4    4    0    0 -0.11598941194E+02  0.41625346638E+01 -0.80018030148E+01  0.14693229160E+02  0.00000000000E+00 0. -1.
</event>
<event>
 8    1  0.1247338E-006  0.9118800E+02  0.7816164E-02  0.1184000E+00
        -11   -1    0    0    0    0  0.00000000000E+00  0.00000000000E+00  0.45593999997E+02  0.45594000000E+02  0.51100000000E-03 0.  1.
         11   -1    0    0    0    0 -0.00000000000E+00 -0.00000000000E+00 -0.45593999997E+02  0.45594000000E+02  0.51100000000E-03 0. -1.
         23    2    1    2    0    0  0.00000000000E+00 -0.71054273576E-14  0.00000000000E+00  0.91188000000E+02  0.91188000000E+02 0.  0.
    9900012    2    3    3    0    0 -0.24484501740E+02 -0.23093568212E+02 -0.14932398925E+02  0.54367078558E+02  0.39999987188E+02 0.  0.
        -12    1    3    3    0    0  0.24484501740E+02  0.23093568212E+02  0.14932398925E+02  0.36820921442E+02  0.00000000000E+00 0.  1.
         11    1    4    4    0    0 -0.13475420808E+02 -0.37007932157E+01 -0.36600386846E+01  0.14445716314E+02  0.51100000000E-03 0. -1.
        -11    1    4    4    0    0 -0.89913159415E+01  0.57086983451E+01  0.28821206021E+01  0.11033567808E+02  0.51100000000E-03 0.  1.
        -12    1    4    4    0    0 -0.20177649901E+01 -0.25101473341E+02 -0.14154480843E+02  0.28887794436E+02  0.00000000000E+00 0.  1.
</event>
<event>
 8    1  0.1247338E-006  0.9118800E+02  0.7816164E-02  0.1184000E+00
        -11   -1    0    0    0    0  0.00000000000E+00  0.00000000000E+00  0.45593999997E+02  0.45594000000E+02  0.51100000000E-03 0.  1.
         11   -1    0    0    0    0 -0.00000000000E+00 -0.00000000000E+00 -0.45593999997E+02  0.45594000000E+02  0.51100000000E-03 0. -1.
         23    2    1    2    0    0  0.00000000000E+00  0.00000000000E+00  0.00000000000E+00  0.91188000000E+02  0.91188000000E+02 0.  0.
    9900012    2    3    3    0    0 -0.64316364011E+01  0.33836246117E+02  0.13020182774E+02  0.54367045945E+02  0.39999912841E+02 0.  0.
         12    1    3    3    0    0  0.64316364011E+01 -0.33836246117E+02 -0.13020182774E+02  0.36820954055E+02  0.00000000000E+00 0. -1.
         11    1    4    4    0    0  0.14734792675E+01  0.29100904772E+02  0.66928708901E+01  0.29896961730E+02  0.51100000000E-03 0. -1.
        -11    1    4    4    0    0  0.19966190702E+01  0.11347436564E+02  0.47383915909E+01  0.12458056004E+02  0.51100000000E-03 0.  1.
         12    1    4    4    0    0 -0.99017347388E+01 -0.66120952192E+01  0.15889202928E+01  0.12012028210E+02  0.00000000000E+00 0. -1.
</event>
<event>
 8    1  0.1247338E-006  0.9118800E+02  0.7816164E-02  0.1184000E+00
        -11   -1    0    0    0    0  0.00000000000E+00  0.00000000000E+00  0.45593999997E+02  0.45594000000E+02  0.51100000000E-03 0. -1.
         11   -1    0    0    0    0 -0.00000000000E+00 -0.00000000000E+00 -0.45593999997E+02  0.45594000000E+02  0.51100000000E-03 0.  1.
         23    2    1    2    0    0  0.00000000000E+00 -0.17763568394E-14 -0.35527136788E-14  0.91188000000E+02  0.91188000000E+02 0.  0.
    9900012    2    3    3    0    0 -0.30434166832E+02 -0.94916087150E+01 -0.18424179198E+02  0.54367088471E+02  0.40000009787E+02 0.  0.
         12    1    3    3    0    0  0.30434166832E+02  0.94916087150E+01  0.18424179198E+02  0.36820911529E+02  0.00000000000E+00 0. -1.
         11    1    4    4    0    0  0.21427442461E+01 -0.20945963697E+00 -0.31679618836E+01  0.38303014243E+01  0.51100000000E-03 0. -1.
        -11    1    4    4    0    0 -0.26346562106E+02  0.16427718882E+01  0.48320893311E+01  0.26836339576E+02  0.51100000000E-03 0.  1.
         12    1    4    4    0    0 -0.62303489717E+01 -0.10924920966E+02 -0.20088306645E+02  0.23700447470E+02  0.00000000000E+00 0. -1.
</event>
<event>
 8    1  0.1247338E-006  0.9118800E+02  0.7816164E-02  0.1184000E+00
        -11   -1    0    0    0    0  0.00000000000E+00  0.00000000000E+00  0.45593999997E+02  0.45594000000E+02  0.51100000000E-03 0. -1.
         11   -1    0    0    0    0 -0.00000000000E+00 -0.00000000000E+00 -0.45593999997E+02  0.45594000000E+02  0.51100000000E-03 0.  1.
         23    2    1    2    0    0 -0.88817841970E-15  0.00000000000E+00  0.35527136788E-14  0.91188000000E+02  0.91188000000E+02 0.  0.
    9900012    2    3    3    0    0 -0.41061429197E+01 -0.33365319099E+02  0.15022471160E+02  0.54367087898E+02  0.40000008481E+02 0.  0.
         12    1    3    3    0    0  0.41061429197E+01  0.33365319099E+02 -0.15022471160E+02  0.36820912102E+02  0.00000000000E+00 0. -1.
         11    1    4    4    0    0  0.96014083488E+01 -0.31745732038E+02  0.17573441841E+02  0.37534043258E+02  0.51100000000E-03 0. -1.
        -11    1    4    4    0    0 -0.33913593113E+01  0.37007286122E+01 -0.48119549169E+00  0.50426441082E+01  0.51100000000E-03 0.  1.
         12    1    4    4    0    0 -0.10316191957E+02 -0.53203156739E+01 -0.20697751891E+01  0.11790400532E+02  0.00000000000E+00 0. -1.
</event>
<event>
 8    1  0.1247338E-006  0.9118800E+02  0.7816164E-02  0.1184000E+00
        -11   -1    0    0    0    0  0.00000000000E+00  0.00000000000E+00  0.45593999997E+02  0.45594000000E+02  0.51100000000E-03 0.  1.
         11   -1    0    0    0    0 -0.00000000000E+00 -0.00000000000E+00 -0.45593999997E+02  0.45594000000E+02  0.51100000000E-03 0. -1.
         23    2    1    2    0    0 -0.35527136788E-14  0.35527136788E-14  0.99920072216E-15  0.91188000000E+02  0.91188000000E+02 0.  0.
    9900012    2    3    3    0    0 -0.24122144341E+02 -0.27803819067E+02 -0.92079054271E+00  0.54367108409E+02  0.40000055240E+02 0.  0.
         12    1    3    3    0    0  0.24122144341E+02  0.27803819067E+02  0.92079054271E+00  0.36820891591E+02  0.00000000000E+00 0. -1.
         11    1    4    4    0    0 -0.10385586136E+01  0.19885836153E+01 -0.93305080576E+01  0.95964290058E+01  0.51100000000E-03 0. -1.
        -11    1    4    4    0    0 -0.10603620758E+02 -0.70248163622E+01 -0.70603099159E+01  0.14547604424E+02  0.51100000000E-03 0.  1.
        -12    1    4    4    0    0 -0.12479964969E+02 -0.22767586320E+02  0.15470027431E+02  0.30223074979E+02  0.00000000000E+00 0.  1.
</event>
<event>
 8    1  0.1247338E-006  0.9118800E+02  0.7816164E-02  0.1184000E+00
        -11   -1    0    0    0    0  0.00000000000E+00  0.00000000000E+00  0.45593999997E+02  0.45594000000E+02  0.51100000000E-03 0.  1.
         11   -1    0    0    0    0 -0.00000000000E+00 -0.00000000000E+00 -0.45593999997E+02  0.45594000000E+02  0.51100000000E-03 0. -1.
         23    2    1    2    0    0  0.00000000000E+00  0.00000000000E+00  0.00000000000E+00  0.91188000000E+02  0.91188000000E+02 0.  0.
    9900012    2    3    3    0    0 -0.34453313822E+02 -0.82424431883E+01  0.10040457666E+02  0.54367088914E+02  0.40000010798E+02 0.  0.
        -12    1    3    3    0    0  0.34453313822E+02  0.82424431883E+01 -0.10040457666E+02  0.36820911086E+02  0.00000000000E+00 0.  1.
         11    1    4    4    0    0 -0.17197527026E+01 -0.11538588756E+02  0.58391329400E+01  0.13045767651E+02  0.51100000000E-03 0. -1.
        -11    1    4    4    0    0 -0.21262197870E+02 -0.81766447060E+00  0.14180436016E+02  0.25570185750E+02  0.51100000000E-03 0.  1.
        -12    1    4    4    0    0 -0.11471363250E+02  0.41138100385E+01 -0.99791112893E+01  0.15751135513E+02  0.00000000000E+00 0.  1.
</event>
<event>
 8    1  0.1247338E-006  0.9118800E+02  0.7816164E-02  0.1184000E+00
        -11   -1    0    0    0    0  0.00000000000E+00  0.00000000000E+00  0.45593999997E+02  0.45594000000E+02  0.51100000000E-03 0. -1.
         11   -1    0    0    0    0 -0.00000000000E+00 -0.00000000000E+00 -0.45593999997E+02  0.45594000000E+02  0.51100000000E-03 0.  1.
         23    2    1    2    0    0  0.35527136788E-14  0.35527136788E-14  0.00000000000E+00  0.91188000000E+02  0.91188000000E+02 0.  0.
    9900012    2    3    3    0    0  0.29094370008E+02  0.21761177029E+02  0.59790690476E+01  0.54367075806E+02  0.39999980914E+02 0.  0.
         12    1    3    3    0    0 -0.29094370008E+02 -0.21761177029E+02 -0.59790690476E+01  0.36820924194E+02  0.00000000000E+00 0. -1.
         11    1    4    4    0    0 -0.64149228498E+01 -0.17536188937E+01  0.23164930741E+01  0.70421981523E+01  0.51100000000E-03 0. -1.
        -11    1    4    4    0    0  0.21863269410E+02  0.13385123267E+02  0.12103959572E+02  0.28349072503E+02  0.51100000000E-03 0.  1.
        -12    1    4    4    0    0  0.13646023448E+02  0.10129672656E+02 -0.84413835989E+01  0.18975805151E+02  0.00000000000E+00 0.  1.
</event>
<event>
 8    1  0.1247338E-006  0.9118800E+02  0.7816164E-02  0.1184000E+00
        -11   -1    0    0    0    0  0.00000000000E+00  0.00000000000E+00  0.45593999997E+02  0.45594000000E+02  0.51100000000E-03 0.  1.
         11   -1    0    0    0    0 -0.00000000000E+00 -0.00000000000E+00 -0.45593999997E+02  0.45594000000E+02  0.51100000000E-03 0. -1.
         23    2    1    2    0    0  0.66613381478E-15 -0.88817841970E-15 -0.71054273576E-14  0.91188000000E+02  0.91188000000E+02 0.  0.
    9900012    2    3    3    0    0 -0.11811661619E+01  0.44553926062E+01  0.36531292650E+02  0.54367068188E+02  0.39999963549E+02 0.  0.
         12    1    3    3    0    0  0.11811661619E+01 -0.44553926062E+01 -0.36531292650E+02  0.36820931812E+02  0.00000000000E+00 0. -1.
         11    1    4    4    0    0  0.39416062035E+00  0.79845257325E+00 -0.66115488429E+01  0.66712418236E+01  0.51100000000E-03 0. -1.
        -11    1    4    4    0    0 -0.38097260885E+01  0.11520904328E+02  0.24557331552E+02  0.27391746615E+02  0.51100000000E-03 0.  1.
         12    1    4    4    0    0  0.22343993063E+01 -0.78639642952E+01  0.18585509941E+02  0.20304079749E+02  0.00000000000E+00 0. -1.
</event>
<event>
 8    1  0.1247338E-006  0.9118800E+02  0.7816164E-02  0.1184000E+00
        -11   -1    0    0    0    0  0.00000000000E+00  0.00000000000E+00  0.45593999997E+02  0.45594000000E+02  0.51100000000E-03 0. -1.
         11   -1    0    0    0    0 -0.00000000000E+00 -0.00000000000E+00 -0.45593999997E+02  0.45594000000E+02  0.51100000000E-03 0.  1.
         23    2    1    2    0    0  0.35527136788E-14  0.17763568394E-14  0.35527136788E-14  0.91188000000E+02  0.91188000000E+02 0.  0.
    9900012    2    3    3    0    0 -0.26654601060E+02 -0.12298366283E+02 -0.22227514821E+02  0.54367082222E+02  0.39999995541E+02 0.  0.
         12    1    3    3    0    0  0.26654601060E+02  0.12298366283E+02  0.22227514821E+02  0.36820917778E+02  0.00000000000E+00 0. -1.
         11    1    4    4    0    0 -0.34899001403E+01 -0.16428528383E+02 -0.28022420888E+00  0.16797454382E+02  0.51100000000E-03 0. -1.
        -11    1    4    4    0    0 -0.18144228141E+02  0.10972178811E+02 -0.11539234466E+02  0.24140332538E+02  0.51100000000E-03 0.  1.
        -12    1    4    4    0    0 -0.50204727781E+01 -0.68420167106E+01 -0.10408056146E+02  0.13429295303E+02  0.00000000000E+00 0.  1.
</event>
<event>
 8    1  0.1247338E-006  0.9118800E+02  0.7816164E-02  0.1184000E+00
        -11   -1    0    0    0    0  0.00000000000E+00  0.00000000000E+00  0.45593999997E+02  0.45594000000E+02  0.51100000000E-03 0. -1.
         11   -1    0    0    0    0 -0.00000000000E+00 -0.00000000000E+00 -0.45593999997E+02  0.45594000000E+02  0.51100000000E-03 0.  1.
         23    2    1    2    0    0 -0.17763568394E-14  0.00000000000E+00  0.71054273576E-14  0.91188000000E+02  0.91188000000E+02 0.  0.
    9900012    2    3    3    0    0  0.14827088659E+02 -0.96130157629E+01 -0.32303674490E+02  0.54367081818E+02  0.39999994621E+02 0.  0.
         12    1    3    3    0    0 -0.14827088659E+02  0.96130157629E+01  0.32303674490E+02  0.36820918182E+02  0.00000000000E+00 0. -1.
         11    1    4    4    0    0 -0.19793838483E+01  0.62871528302E+01  0.57133518519E+00  0.66160921459E+01  0.51100000000E-03 0. -1.
        -11    1    4    4    0    0  0.48100826287E-01  0.35628064231E+01  0.22675087860E+01  0.42234464189E+01  0.51100000000E-03 0.  1.
        -12    1    4    4    0    0  0.16758371681E+02 -0.19462975016E+02 -0.35142518462E+02  0.43527543254E+02  0.00000000000E+00 0.  1.
</event>
<event>
 8    1  0.1247338E-006  0.9118800E+02  0.7816164E-02  0.1184000E+00
        -11   -1    0    0    0    0  0.00000000000E+00  0.00000000000E+00  0.45593999997E+02  0.45594000000E+02  0.51100000000E-03 0. -1.
         11   -1    0    0    0    0 -0.00000000000E+00 -0.00000000000E+00 -0.45593999997E+02  0.45594000000E+02  0.51100000000E-03 0.  1.
         23    2    1    2    0    0  0.00000000000E+00  0.26645352591E-14 -0.11102230246E-15  0.91188000000E+02  0.91188000000E+02 0.  0.
    9900012    2    3    3    0    0  0.36530301827E+02 -0.45744945928E+01 -0.62481336285E+00  0.54367090939E+02  0.40000015413E+02 0.  0.
        -12    1    3    3    0    0 -0.36530301827E+02  0.45744945928E+01  0.62481336285E+00  0.36820909061E+02  0.00000000000E+00 0.  1.
         11    1    4    4    0    0 -0.29404200046E+01  0.70653467018E+01 -0.67172130678E+00  0.76822134567E+01  0.51100000000E-03 0. -1.
        -11    1    4    4    0    0  0.51950091213E+01 -0.11267129031E+02  0.24026408213E-01  0.12407130768E+02  0.51100000000E-03 0.  1.
         12    1    4    4    0    0  0.34275712710E+02 -0.37271226360E+00  0.22881535723E-01  0.34277746714E+02  0.00000000000E+00 0. -1.
</event>
<event>
 8    1  0.1247338E-006  0.9118800E+02  0.7816164E-02  0.1184000E+00
        -11   -1    0    0    0    0  0.00000000000E+00  0.00000000000E+00  0.45593999997E+02  0.45594000000E+02  0.51100000000E-03 0. -1.
         11   -1    0    0    0    0 -0.00000000000E+00 -0.00000000000E+00 -0.45593999997E+02  0.45594000000E+02  0.51100000000E-03 0.  1.
         23    2    1    2    0    0 -0.35527136788E-14 -0.17763568394E-14  0.71054273576E-14  0.91188000000E+02  0.91188000000E+02 0.  0.
    9900012    2    3    3    0    0  0.20675664771E+02  0.12352201855E+02 -0.27851784759E+02  0.54367055978E+02  0.39999935714E+02 0.  0.
         12    1    3    3    0    0 -0.20675664771E+02 -0.12352201855E+02  0.27851784759E+02  0.36820944022E+02  0.00000000000E+00 0. -1.
         11    1    4    4    0    0  0.74372697025E+01 -0.14140081605E+01 -0.27249974831E+02  0.28282035434E+02  0.51100000000E-03 0.  1.
        -11    1    4    4    0    0  0.62478487387E+01 -0.34342632110E+01  0.18275704865E+01  0.73600130304E+01  0.51100000000E-03 0. -1.
        -12    1    4    4    0    0  0.69905463299E+01  0.17200473226E+02 -0.24293804140E+01  0.18725007514E+02  0.00000000000E+00 0.  1.
</event>
<event>
 8    1  0.1247338E-006  0.9118800E+02  0.7816164E-02  0.1184000E+00
        -11   -1    0    0    0    0  0.00000000000E+00  0.00000000000E+00  0.45593999997E+02  0.45594000000E+02  0.51100000000E-03 0.  1.
         11   -1    0    0    0    0 -0.00000000000E+00 -0.00000000000E+00 -0.45593999997E+02  0.45594000000E+02  0.51100000000E-03 0. -1.
         23    2    1    2    0    0  0.00000000000E+00  0.00000000000E+00  0.00000000000E+00  0.91188000000E+02  0.91188000000E+02 0.  0.
    9900012    2    3    3    0    0  0.32938872398E+02 -0.93922638173E+01  0.13512901723E+02  0.54367048797E+02  0.39999919343E+02 0.  0.
         12    1    3    3    0    0 -0.32938872398E+02  0.93922638173E+01 -0.13512901723E+02  0.36820951203E+02  0.00000000000E+00 0. -1.
         11    1    4    4    0    0  0.30233499340E+02 -0.16666941969E+01  0.16395363574E+02  0.34433273136E+02  0.51100000000E-03 0. -1.
        -11    1    4    4    0    0  0.38324968013E+01 -0.12003904022E+02  0.26228961962E+01  0.12870949003E+02  0.51100000000E-03 0.  1.
         12    1    4    4    0    0 -0.11271237426E+01  0.42783344021E+01 -0.55053580470E+01  0.70628266588E+01  0.00000000000E+00 0. -1.
</event>
<event>
 8    1  0.1247338E-006  0.9118800E+02  0.7816164E-02  0.1184000E+00
        -11   -1    0    0    0    0  0.00000000000E+00  0.00000000000E+00  0.45593999997E+02  0.45594000000E+02  0.51100000000E-03 0. -1.
         11   -1    0    0    0    0 -0.00000000000E+00 -0.00000000000E+00 -0.45593999997E+02  0.45594000000E+02  0.51100000000E-03 0.  1.
         23    2    1    2    0    0  0.00000000000E+00  0.00000000000E+00  0.00000000000E+00  0.91188000000E+02  0.91188000000E+02 0.  0.
    9900012    2    3    3    0    0  0.70456558540E+01  0.34994340995E+02 -0.90291807611E+01  0.54367200534E+02  0.40000265257E+02 0.  0.
         12    1    3    3    0    0 -0.70456558540E+01 -0.34994340995E+02  0.90291807611E+01  0.36820799466E+02  0.00000000000E+00 0. -1.
         11    1    4    4    0    0 -0.20027207589E+01 -0.29146204062E+01 -0.89567942698E+01  0.96296451857E+01  0.51100000000E-03 0.  1.
        -11    1    4    4    0    0 -0.15845209210E+01  0.19402639913E+01  0.62204498057E+01  0.67059173087E+01  0.51100000000E-03 0. -1.
        -12    1    4    4    0    0  0.10632897534E+02  0.35968697410E+02 -0.62928362970E+01  0.38031638040E+02  0.00000000000E+00 0.  1.
</event>
<event>
 8    1  0.1247338E-006  0.9118800E+02  0.7816164E-02  0.1184000E+00
        -11   -1    0    0    0    0  0.00000000000E+00  0.00000000000E+00  0.45593999997E+02  0.45594000000E+02  0.51100000000E-03 0.  1.
         11   -1    0    0    0    0 -0.00000000000E+00 -0.00000000000E+00 -0.45593999997E+02  0.45594000000E+02  0.51100000000E-03 0. -1.
         23    2    1    2    0    0  0.00000000000E+00 -0.26645352591E-14 -0.83266726847E-16  0.91188000000E+02  0.91188000000E+02 0.  0.
    9900012    2    3    3    0    0 -0.36764355218E+02 -0.20286847952E+01  0.21480474692E+00  0.54367088581E+02  0.40000010039E+02 0.  0.
        -12    1    3    3    0    0  0.36764355218E+02  0.20286847952E+01 -0.21480474692E+00  0.36820911419E+02  0.00000000000E+00 0.  1.
         11    1    4    4    0    0 -0.30945199215E+02 -0.18212286289E+02  0.64087067588E+00  0.35912441324E+02  0.51100000000E-03 0. -1.
        -11    1    4    4    0    0 -0.67469334713E+00  0.99168338848E+01 -0.21401565200E+01  0.10167550128E+02  0.51100000000E-03 0.  1.
         12    1    4    4    0    0 -0.51444626560E+01  0.62667676092E+01  0.17140905911E+01  0.82870971300E+01  0.00000000000E+00 0. -1.
</event>
<event>
 8    1  0.1247338E-006  0.9118800E+02  0.7816164E-02  0.1184000E+00
        -11   -1    0    0    0    0  0.00000000000E+00  0.00000000000E+00  0.45593999997E+02  0.45594000000E+02  0.51100000000E-03 0.  1.
         11   -1    0    0    0    0 -0.00000000000E+00 -0.00000000000E+00 -0.45593999997E+02  0.45594000000E+02  0.51100000000E-03 0. -1.
         23    2    1    2    0    0 -0.17763568394E-14  0.00000000000E+00  0.00000000000E+00  0.91188000000E+02  0.91188000000E+02 0.  0.
    9900012    2    3    3    0    0  0.15889963220E+02  0.28300988837E+02  0.17388010368E+02  0.54367084682E+02  0.40000001149E+02 0.  0.
         12    1    3    3    0    0 -0.15889963220E+02 -0.28300988837E+02 -0.17388010368E+02  0.36820915318E+02  0.00000000000E+00 0. -1.
         11    1    4    4    0    0  0.32992712453E+01 -0.57175834655E+01 -0.34547702452E+00  0.66102425122E+01  0.51100000000E-03 0. -1.
        -11    1    4    4    0    0  0.13288562063E+01  0.17941352469E+02  0.21220542206E+02  0.27820305516E+02  0.51100000000E-03 0.  1.
         12    1    4    4    0    0  0.11261835769E+02  0.16077219834E+02 -0.34870548131E+01  0.19936536653E+02  0.00000000000E+00 0. -1.
</event>
<event>
 8    1  0.1247338E-006  0.9118800E+02  0.7816164E-02  0.1184000E+00
        -11   -1    0    0    0    0  0.00000000000E+00  0.00000000000E+00  0.45593999997E+02  0.45594000000E+02  0.51100000000E-03 0.  1.
         11   -1    0    0    0    0 -0.00000000000E+00 -0.00000000000E+00 -0.45593999997E+02  0.45594000000E+02  0.51100000000E-03 0. -1.
         23    2    1    2    0    0  0.00000000000E+00  0.17763568394E-14  0.35527136788E-14  0.91188000000E+02  0.91188000000E+02 0.  0.
    9900012    2    3    3    0    0 -0.29949965939E+02 -0.12214335659E+02  0.17595161299E+02  0.54367079907E+02  0.39999990265E+02 0.  0.
         12    1    3    3    0    0  0.29949965939E+02  0.12214335659E+02 -0.17595161299E+02  0.36820920093E+02  0.00000000000E+00 0. -1.
         11    1    4    4    0    0  0.51916877574E+01  0.22133464001E+01 -0.25747803289E+01  0.62033876278E+01  0.51100000000E-03 0. -1.
        -11    1    4    4    0    0 -0.11208002748E+02 -0.13393991183E+02  0.10203216759E+01  0.17494552924E+02  0.51100000000E-03 0.  1.
        -12    1    4    4    0    0 -0.23933650948E+02 -0.10336908766E+01  0.19149619952E+02  0.30669139356E+02  0.00000000000E+00 0.  1.
</event>
<event>
 8    1  0.1247338E-006  0.9118800E+02  0.7816164E-02  0.1184000E+00
        -11   -1    0    0    0    0  0.00000000000E+00  0.00000000000E+00  0.45593999997E+02  0.45594000000E+02  0.51100000000E-03 0. -1.
         11   -1    0    0    0    0 -0.00000000000E+00 -0.00000000000E+00 -0.45593999997E+02  0.45594000000E+02  0.51100000000E-03 0.  1.
         23    2    1    2    0    0  0.00000000000E+00  0.00000000000E+00  0.00000000000E+00  0.91188000000E+02  0.91188000000E+02 0.  0.
    9900012    2    3    3    0    0  0.43519832872E+01 -0.21384565860E+02  0.29656922458E+02  0.54367184349E+02  0.40000228359E+02 0.  0.
        -12    1    3    3    0    0 -0.43519832872E+01  0.21384565860E+02 -0.29656922458E+02  0.36820815651E+02  0.00000000000E+00 0.  1.
         11    1    4    4    0    0 -0.73655315568E+01 -0.10205655959E+02  0.28242155531E+02  0.30919667171E+02  0.51100000000E-03 0. -1.
        -11    1    4    4    0    0  0.15851499060E+02 -0.84330288224E+01  0.30705249781E+01  0.18215765739E+02  0.51100000000E-03 0.  1.
         12    1    4    4    0    0 -0.41339842156E+01 -0.27458810784E+01 -0.16557580512E+01  0.52317514387E+01  0.00000000000E+00 0. -1.
</event>
<event>
 8    1  0.1247338E-006  0.9118800E+02  0.7816164E-02  0.1184000E+00
        -11   -1    0    0    0    0  0.00000000000E+00  0.00000000000E+00  0.45593999997E+02  0.45594000000E+02  0.51100000000E-03 0.  1.
         11   -1    0    0    0    0 -0.00000000000E+00 -0.00000000000E+00 -0.45593999997E+02  0.45594000000E+02  0.51100000000E-03 0. -1.
         23    2    1    2    0    0  0.17763568394E-14 -0.35527136788E-14  0.35527136788E-14  0.91188000000E+02  0.91188000000E+02 0.  0.
    9900012    2    3    3    0    0  0.12145978075E+02 -0.31798262652E+02  0.14040184504E+02  0.54367067476E+02  0.39999961925E+02 0.  0.
         12    1    3    3    0    0 -0.12145978075E+02  0.31798262652E+02 -0.14040184504E+02  0.36820932524E+02  0.00000000000E+00 0. -1.
         11    1    4    4    0    0 -0.30692767944E+01 -0.81479499971E+00 -0.16335475875E+01  0.35711103195E+01  0.51100000000E-03 0. -1.
        -11    1    4    4    0    0  0.22735610643E+02 -0.12856389117E+02  0.73020712775E+00  0.26129063037E+02  0.51100000000E-03 0.  1.
        -12    1    4    4    0    0 -0.75203557745E+01 -0.18127078535E+02  0.14943524963E+02  0.24666894120E+02  0.00000000000E+00 0.  1.
</event>
<event>
 8    1  0.1247338E-006  0.9118800E+02  0.7816164E-02  0.1184000E+00
        -11   -1    0    0    0    0  0.00000000000E+00  0.00000000000E+00  0.45593999997E+02  0.45594000000E+02  0.51100000000E-03 0.  1.
         11   -1    0    0    0    0 -0.00000000000E+00 -0.00000000000E+00 -0.45593999997E+02  0.45594000000E+02  0.51100000000E-03 0. -1.
         23    2    1    2    0    0  0.00000000000E+00  0.00000000000E+00 -0.17763568394E-14  0.91188000000E+02  0.91188000000E+02 0.  0.
    9900012    2    3    3    0    0  0.80886875458E+01 -0.33442676715E+02 -0.13112687296E+02  0.54367054056E+02  0.39999931332E+02 0.  0.
         12    1    3    3    0    0 -0.80886875458E+01  0.33442676715E+02  0.13112687296E+02  0.36820945944E+02  0.00000000000E+00 0. -1.
         11    1    4    4    0    0  0.38864955659E+01  0.53532097194E+01  0.17374852675E+01  0.68396313789E+01  0.51100000000E-03 0. -1.
        -11    1    4    4    0    0  0.40735557609E+01 -0.21916851547E+02  0.35328220031E+01  0.22570402518E+02  0.51100000000E-03 0.  1.
        -12    1    4    4    0    0  0.12863621908E+00 -0.16879034887E+02 -0.18382994566E+02  0.24957020159E+02  0.00000000000E+00 0.  1.
</event>
<event>
 8    1  0.1247338E-006  0.9118800E+02  0.7816164E-02  0.1184000E+00
        -11   -1    0    0    0    0  0.00000000000E+00  0.00000000000E+00  0.45593999997E+02  0.45594000000E+02  0.51100000000E-03 0. -1.
         11   -1    0    0    0    0 -0.00000000000E+00 -0.00000000000E+00 -0.45593999997E+02  0.45594000000E+02  0.51100000000E-03 0.  1.
         23    2    1    2    0    0  0.00000000000E+00  0.44408920985E-15  0.00000000000E+00  0.91188000000E+02  0.91188000000E+02 0.  0.
    9900012    2    3    3    0    0  0.68673985005E+01  0.19170882743E+01 -0.36124001532E+02  0.54367083712E+02  0.39999998939E+02 0.  0.
         12    1    3    3    0    0 -0.68673985005E+01 -0.19170882743E+01  0.36124001532E+02  0.36820916288E+02  0.00000000000E+00 0. -1.
         11    1    4    4    0    0 -0.72094068585E+01  0.41097909435E+01 -0.19494948404E+02  0.21187707342E+02  0.51100000000E-03 0. -1.
        -11    1    4    4    0    0  0.17863928131E+01  0.40041568800E+01 -0.18747175498E+02  0.19253079261E+02  0.51100000000E-03 0.  1.
         12    1    4    4    0    0  0.12290412546E+02 -0.61968595491E+01  0.21181223703E+01  0.13926297110E+02  0.00000000000E+00 0. -1.
</event>
<event>
 8    1  0.1247338E-006  0.9118800E+02  0.7816164E-02  0.1184000E+00
        -11   -1    0    0    0    0  0.00000000000E+00  0.00000000000E+00  0.45593999997E+02  0.45594000000E+02  0.51100000000E-03 0.  1.
         11   -1    0    0    0    0 -0.00000000000E+00 -0.00000000000E+00 -0.45593999997E+02  0.45594000000E+02  0.51100000000E-03 0. -1.
         23    2    1    2    0    0  0.88817841970E-15  0.88817841970E-15 -0.71054273576E-14  0.91188000000E+02  0.91188000000E+02 0.  0.
    9900012    2    3    3    0    0  0.79728811404E+01 -0.44936392014E+01 -0.35665390503E+02  0.54367086015E+02  0.40000004189E+02 0.  0.
        -12    1    3    3    0    0 -0.79728811404E+01  0.44936392014E+01  0.35665390503E+02  0.36820913985E+02  0.00000000000E+00 0.  1.
         11    1    4    4    0    0 -0.40192584132E+01 -0.10362735744E+02 -0.83833025210E+01  0.13921942814E+02  0.51100000000E-03 0. -1.
        -11    1    4    4    0    0 -0.72113492592E+01  0.24396123751E+01 -0.94613003066E+00  0.76714033250E+01  0.51100000000E-03 0.  1.
         12    1    4    4    0    0  0.19203488813E+02  0.34294841679E+01 -0.26335957951E+02  0.32773739876E+02  0.00000000000E+00 0. -1.
</event>
<event>
 8    1  0.1247338E-006  0.9118800E+02  0.7816164E-02  0.1184000E+00
        -11   -1    0    0    0    0  0.00000000000E+00  0.00000000000E+00  0.45593999997E+02  0.45594000000E+02  0.51100000000E-03 0. -1.
         11   -1    0    0    0    0 -0.00000000000E+00 -0.00000000000E+00 -0.45593999997E+02  0.45594000000E+02  0.51100000000E-03 0.  1.
         23    2    1    2    0    0  0.00000000000E+00  0.35527136788E-14  0.00000000000E+00  0.91188000000E+02  0.91188000000E+02 0.  0.
    9900012    2    3    3    0    0 -0.10893219027E+02 -0.27881272383E+02 -0.21441799334E+02  0.54367104721E+02  0.40000046833E+02 0.  0.
         12    1    3    3    0    0  0.10893219027E+02  0.27881272383E+02  0.21441799334E+02  0.36820895279E+02  0.00000000000E+00 0. -1.
         11    1    4    4    0    0  0.32743355240E+01 -0.11939922100E+02  0.17392018316E+01  0.12502313232E+02  0.51100000000E-03 0. -1.
        -11    1    4    4    0    0 -0.22568272680E+02 -0.10903774335E+02 -0.16491618365E+02  0.30003211546E+02  0.51100000000E-03 0.  1.
        -12    1    4    4    0    0  0.84007181288E+01 -0.50375759478E+01 -0.66893828010E+01  0.11861579944E+02  0.00000000000E+00 0.  1.
</event>
<event>
 8    1  0.1247338E-006  0.9118800E+02  0.7816164E-02  0.1184000E+00
        -11   -1    0    0    0    0  0.00000000000E+00  0.00000000000E+00  0.45593999997E+02  0.45594000000E+02  0.51100000000E-03 0.  1.
         11   -1    0    0    0    0 -0.00000000000E+00 -0.00000000000E+00 -0.45593999997E+02  0.45594000000E+02  0.51100000000E-03 0. -1.
         23    2    1    2    0    0  0.00000000000E+00 -0.88817841970E-15  0.00000000000E+00  0.91188000000E+02  0.91188000000E+02 0.  0.
    9900012    2    3    3    0    0  0.18852481631E+02  0.61797279325E+01  0.31018933262E+02  0.54367091244E+02  0.40000016108E+02 0.  0.
         12    1    3    3    0    0 -0.18852481631E+02 -0.61797279325E+01 -0.31018933262E+02  0.36820908756E+02  0.00000000000E+00 0. -1.
         11    1    4    4    0    0 -0.71020332583E+01 -0.53387902083E+01  0.12280275298E+02  0.15157398159E+02  0.51100000000E-03 0. -1.
        -11    1    4    4    0    0  0.15548322593E+02 -0.71775517610E+00  0.14838072930E+01  0.15635446661E+02  0.51100000000E-03 0.  1.
         12    1    4    4    0    0  0.10406192296E+02  0.12236273317E+02  0.17254850671E+02  0.23574246424E+02  0.00000000000E+00 0. -1.
</event>
<event>
 8    1  0.1247338E-006  0.9118800E+02  0.7816164E-02  0.1184000E+00
        -11   -1    0    0    0    0  0.00000000000E+00  0.00000000000E+00  0.45593999997E+02  0.45594000000E+02  0.51100000000E-03 0. -1.
         11   -1    0    0    0    0 -0.00000000000E+00 -0.00000000000E+00 -0.45593999997E+02  0.45594000000E+02  0.51100000000E-03 0.  1.
         23    2    1    2    0    0  0.00000000000E+00 -0.35527136788E-14 -0.66613381478E-15  0.91188000000E+02  0.91188000000E+02 0.  0.
    9900012    2    3    3    0    0 -0.21542136054E+02  0.29813227327E+02 -0.17015029040E+01  0.54366983426E+02  0.39999770316E+02 0.  0.
         12    1    3    3    0    0  0.21542136054E+02 -0.29813227327E+02  0.17015029040E+01  0.36821016574E+02  0.00000000000E+00 0. -1.
         11    1    4    4    0    0 -0.18116373251E+02 -0.38722661999E+01 -0.49798066316E+01  0.19183219220E+02  0.51100000000E-03 0. -1.
        -11    1    4    4    0    0  0.21068061091E+01  0.17002678556E+02 -0.75990626976E+00  0.17149552993E+02  0.51100000000E-03 0.  1.
         12    1    4    4    0    0 -0.55325689122E+01  0.16682814971E+02  0.40382099974E+01  0.18034211214E+02  0.00000000000E+00 0. -1.
</event>
<event>
 8    1  0.1247338E-006  0.9118800E+02  0.7816164E-02  0.1184000E+00
        -11   -1    0    0    0    0  0.00000000000E+00  0.00000000000E+00  0.45593999997E+02  0.45594000000E+02  0.51100000000E-03 0.  1.
         11   -1    0    0    0    0 -0.00000000000E+00 -0.00000000000E+00 -0.45593999997E+02  0.45594000000E+02  0.51100000000E-03 0. -1.
         23    2    1    2    0    0  0.22204460493E-15 -0.71054273576E-14  0.35527136788E-14  0.91188000000E+02  0.91188000000E+02 0.  0.
    9900012    2    3    3    0    0 -0.10239260789E+01  0.33716931527E+02 -0.14761456326E+02  0.54367075391E+02  0.39999979969E+02 0.  0.
        -12    1    3    3    0    0  0.10239260789E+01 -0.33716931527E+02  0.14761456326E+02  0.36820924609E+02  0.00000000000E+00 0.  1.
         11    1    4    4    0    0 -0.65574591544E+01 -0.12593861901E+01 -0.47946154242E+01  0.82203808588E+01  0.51100000000E-03 0. -1.
        -11    1    4    4    0    0  0.26477651855E+01 -0.23993961880E+01  0.46901781784E+01  0.58962305035E+01  0.51100000000E-03 0.  1.
        -12    1    4    4    0    0  0.28857678900E+01  0.37375713905E+02 -0.14657019081E+02  0.40250464029E+02  0.00000000000E+00 0.  1.
</event>
<event>
 8    1  0.1247338E-006  0.9118800E+02  0.7816164E-02  0.1184000E+00
        -11   -1    0    0    0    0  0.00000000000E+00  0.00000000000E+00  0.45593999997E+02  0.45594000000E+02  0.51100000000E-03 0.  1.
         11   -1    0    0    0    0 -0.00000000000E+00 -0.00000000000E+00 -0.45593999997E+02  0.45594000000E+02  0.51100000000E-03 0. -1.
         23    2    1    2    0    0 -0.11102230246E-14  0.35527136788E-14  0.71054273576E-14  0.91188000000E+02  0.91188000000E+02 0.  0.
    9900012    2    3    3    0    0 -0.12026927184E+01 -0.21312784905E+02 -0.30001650841E+02  0.54367077641E+02  0.39999985099E+02 0.  0.
        -12    1    3    3    0    0  0.12026927184E+01  0.21312784905E+02  0.30001650841E+02  0.36820922359E+02  0.00000000000E+00 0.  1.
         11    1    4    4    0    0  0.11918065588E+02 -0.16054851715E+02 -0.13961309856E+02  0.24386814554E+02  0.51100000000E-03 0. -1.
        -11    1    4    4    0    0  0.22251434842E+01  0.58258261357E+01 -0.25617809402E+01  0.67419756404E+01  0.51100000000E-03 0.  1.
         12    1    4    4    0    0 -0.15345901791E+02 -0.11083759326E+02 -0.13478560045E+02  0.23238287447E+02  0.00000000000E+00 0. -1.
</event>
<event>
 8    1  0.1247338E-006  0.9118800E+02  0.7816164E-02  0.1184000E+00
        -11   -1    0    0    0    0  0.00000000000E+00  0.00000000000E+00  0.45593999997E+02  0.45594000000E+02  0.51100000000E-03 0.  1.
         11   -1    0    0    0    0 -0.00000000000E+00 -0.00000000000E+00 -0.45593999997E+02  0.45594000000E+02  0.51100000000E-03 0. -1.
         23    2    1    2    0    0  0.00000000000E+00  0.00000000000E+00  0.00000000000E+00  0.91188000000E+02  0.91188000000E+02 0.  0.
    9900012    2    3    3    0    0  0.79986275586E+01  0.93783493583E+01 -0.34696532149E+02  0.54367070861E+02  0.39999969641E+02 0.  0.
        -12    1    3    3    0    0 -0.79986275586E+01 -0.93783493583E+01  0.34696532149E+02  0.36820929139E+02  0.00000000000E+00 0.  1.
         11    1    4    4    0    0  0.64997887356E+01  0.19452277514E+02 -0.18851888451E+02  0.27857351858E+02  0.51100000000E-03 0. -1.
        -11    1    4    4    0    0  0.53394514499E+01 -0.35848506467E+01  0.23241618438E+01  0.68383202969E+01  0.51100000000E-03 0.  1.
         12    1    4    4    0    0 -0.38406126269E+01 -0.64890775085E+01 -0.18168805541E+02  0.19671398706E+02  0.00000000000E+00 0. -1.
</event>
<event>
 8    1  0.1247338E-006  0.9118800E+02  0.7816164E-02  0.1184000E+00
        -11   -1    0    0    0    0  0.00000000000E+00  0.00000000000E+00  0.45593999997E+02  0.45594000000E+02  0.51100000000E-03 0. -1.
         11   -1    0    0    0    0 -0.00000000000E+00 -0.00000000000E+00 -0.45593999997E+02  0.45594000000E+02  0.51100000000E-03 0.  1.
         23    2    1    2    0    0 -0.35527136788E-14 -0.35527136788E-14  0.00000000000E+00  0.91188000000E+02  0.91188000000E+02 0.  0.
    9900012    2    3    3    0    0 -0.17812901352E+02 -0.11978321343E+02  0.29916534919E+02  0.54367099708E+02  0.40000035404E+02 0.  0.
        -12    1    3    3    0    0  0.17812901352E+02  0.11978321343E+02 -0.29916534919E+02  0.36820900292E+02  0.00000000000E+00 0.  1.
         11    1    4    4    0    0 -0.24023376296E+02 -0.19556423974E+01  0.93670728653E+01  0.25859025507E+02  0.51100000000E-03 0. -1.
        -11    1    4    4    0    0 -0.98557267455E+00  0.32526006403E+01  0.86146959114E+01  0.92608720070E+01  0.51100000000E-03 0.  1.
         12    1    4    4    0    0  0.71960476187E+01 -0.13275279586E+02  0.11934766142E+02  0.19247202194E+02  0.00000000000E+00 0. -1.
</event>
<event>
 8    1  0.1247338E-006  0.9118800E+02  0.7816164E-02  0.1184000E+00
        -11   -1    0    0    0    0  0.00000000000E+00  0.00000000000E+00  0.45593999997E+02  0.45594000000E+02  0.51100000000E-03 0. -1.
         11   -1    0    0    0    0 -0.00000000000E+00 -0.00000000000E+00 -0.45593999997E+02  0.45594000000E+02  0.51100000000E-03 0.  1.
         23    2    1    2    0    0 -0.35527136788E-14  0.00000000000E+00  0.00000000000E+00  0.91188000000E+02  0.91188000000E+02 0.  0.
    9900012    2    3    3    0    0  0.27577413209E+02 -0.23708803410E+02  0.57579040025E+01  0.54367156217E+02  0.40000164227E+02 0.  0.
        -12    1    3    3    0    0 -0.27577413209E+02  0.23708803410E+02 -0.57579040025E+01  0.36820843783E+02  0.00000000000E+00 0.  1.
         11    1    4    4    0    0  0.11400462109E+02  0.89955286867E+01 -0.47183136596E+01  0.15269333866E+02  0.51100000000E-03 0. -1.
        -11    1    4    4    0    0  0.22483203146E+01 -0.10193055877E+02  0.65844479341E+01  0.12341324370E+02  0.51100000000E-03 0.  1.
        -12    1    4    4    0    0  0.13928630786E+02 -0.22511276219E+02  0.38917697279E+01  0.26756497981E+02  0.00000000000E+00 0.  1.
</event>
<event>
 8    1  0.1247338E-006  0.9118800E+02  0.7816164E-02  0.1184000E+00
        -11   -1    0    0    0    0  0.00000000000E+00  0.00000000000E+00  0.45593999997E+02  0.45594000000E+02  0.51100000000E-03 0. -1.
         11   -1    0    0    0    0 -0.00000000000E+00 -0.00000000000E+00 -0.45593999997E+02  0.45594000000E+02  0.51100000000E-03 0.  1.
         23    2    1    2    0    0 -0.35527136788E-14  0.17763568394E-14 -0.35527136788E-14  0.91188000000E+02  0.91188000000E+02 0.  0.
    9900012    2    3    3    0    0  0.21837192410E+02 -0.15495625542E+02 -0.25274553326E+02  0.54367076205E+02  0.39999981824E+02 0.  0.
         12    1    3    3    0    0 -0.21837192410E+02  0.15495625542E+02  0.25274553326E+02  0.36820923795E+02  0.00000000000E+00 0. -1.
         11    1    4    4    0    0 -0.35789370546E+01  0.79183238594E+01 -0.72367855149E+01  0.11308391045E+02  0.51100000000E-03 0. -1.
        -11    1    4    4    0    0  0.12095382608E+02 -0.95134083511E+01  0.17049435152E+01  0.15482572511E+02  0.51100000000E-03 0.  1.
        -12    1    4    4    0    0  0.13320746856E+02 -0.13900541051E+02 -0.19742711327E+02  0.27576112649E+02  0.00000000000E+00 0.  1.
</event>
<event>
 8    1  0.1247338E-006  0.9118800E+02  0.7816164E-02  0.1184000E+00
        -11   -1    0    0    0    0  0.00000000000E+00  0.00000000000E+00  0.45593999997E+02  0.45594000000E+02  0.51100000000E-03 0. -1.
         11   -1    0    0    0    0 -0.00000000000E+00 -0.00000000000E+00 -0.45593999997E+02  0.45594000000E+02  0.51100000000E-03 0.  1.
         23    2    1    2    0    0 -0.88817841970E-15 -0.35527136788E-14  0.00000000000E+00  0.91188000000E+02  0.91188000000E+02 0.  0.
    9900012    2    3    3    0    0  0.40048005015E+01 -0.16232832888E+02 -0.32806021114E+02  0.54367104954E+02  0.40000047364E+02 0.  0.
         12    1    3    3    0    0 -0.40048005015E+01  0.16232832888E+02  0.32806021114E+02  0.36820895046E+02  0.00000000000E+00 0. -1.
         11    1    4    4    0    0  0.87169405384E+01 -0.16815965418E+01 -0.89489396295E+01  0.12605409158E+02  0.51100000000E-03 0. -1.
        -11    1    4    4    0    0  0.10038412361E+02 -0.11751383530E+02 -0.25012477024E+01  0.15656339864E+02  0.51100000000E-03 0.  1.
        -12    1    4    4    0    0 -0.14750552398E+02 -0.27998528162E+01 -0.21355833782E+02  0.26105355933E+02  0.00000000000E+00 0.  1.
</event>
<event>
 8    1  0.1247338E-006  0.9118800E+02  0.7816164E-02  0.1184000E+00
        -11   -1    0    0    0    0  0.00000000000E+00  0.00000000000E+00  0.45593999997E+02  0.45594000000E+02  0.51100000000E-03 0.  1.
         11   -1    0    0    0    0 -0.00000000000E+00 -0.00000000000E+00 -0.45593999997E+02  0.45594000000E+02  0.51100000000E-03 0. -1.
         23    2    1    2    0    0  0.71054273576E-14  0.35527136788E-14  0.00000000000E+00  0.91188000000E+02  0.91188000000E+02 0.  0.
    9900012    2    3    3    0    0  0.31926067670E+02 -0.10124579910E+02 -0.15297047366E+02  0.54367074246E+02  0.39999977359E+02 0.  0.
        -12    1    3    3    0    0 -0.31926067670E+02  0.10124579910E+02  0.15297047366E+02  0.36820925754E+02  0.00000000000E+00 0.  1.
         11    1    4    4    0    0  0.92457627278E+00 -0.11031482030E+02  0.30682963135E+00  0.11074411124E+02  0.51100000000E-03 0. -1.
        -11    1    4    4    0    0  0.32305124966E+02  0.75589407522E+01 -0.15222981721E+02  0.36503395145E+02  0.51100000000E-03 0.  1.
        -12    1    4    4    0    0 -0.13036335685E+01 -0.66520386326E+01 -0.38089527645E+00  0.67892679769E+01  0.00000000000E+00 0.  1.
</event>
<event>
 8    1  0.1247338E-006  0.9118800E+02  0.7816164E-02  0.1184000E+00
        -11   -1    0    0    0    0  0.00000000000E+00  0.00000000000E+00  0.45593999997E+02  0.45594000000E+02  0.51100000000E-03 0.  1.
         11   -1    0    0    0    0 -0.00000000000E+00 -0.00000000000E+00 -0.45593999997E+02  0.45594000000E+02  0.51100000000E-03 0. -1.
         23    2    1    2    0    0  0.00000000000E+00  0.00000000000E+00  0.35527136788E-14  0.91188000000E+02  0.91188000000E+02 0.  0.
    9900012    2    3    3    0    0  0.22029731826E+02 -0.13572455832E+02 -0.26196580749E+02  0.54367061873E+02  0.39999949152E+02 0.  0.
        -12    1    3    3    0    0 -0.22029731826E+02  0.13572455832E+02  0.26196580749E+02  0.36820938127E+02  0.00000000000E+00 0.  1.
         11    1    4    4    0    0  0.12842046674E+02 -0.12797215440E+02 -0.17513499479E+01  0.18214118499E+02  0.51100000000E-03 0. -1.
        -11    1    4    4    0    0  0.57239255889E+01 -0.12674708671E+02 -0.15762750939E+02  0.21020843976E+02  0.51100000000E-03 0.  1.
        -12    1    4    4    0    0  0.34637595629E+01  0.11899468279E+02 -0.86824798624E+01  0.15132099398E+02  0.00000000000E+00 0.  1.
</event>
<event>
 8    1  0.1247338E-006  0.9118800E+02  0.7816164E-02  0.1184000E+00
        -11   -1    0    0    0    0  0.00000000000E+00  0.00000000000E+00  0.45593999997E+02  0.45594000000E+02  0.51100000000E-03 0. -1.
         11   -1    0    0    0    0 -0.00000000000E+00 -0.00000000000E+00 -0.45593999997E+02  0.45594000000E+02  0.51100000000E-03 0.  1.
         23    2    1    2    0    0  0.00000000000E+00  0.00000000000E+00  0.00000000000E+00  0.91188000000E+02  0.91188000000E+02 0.  0.
    9900012    2    3    3    0    0 -0.23077590919E+02  0.20651935416E+02  0.19917364006E+02  0.54367095231E+02  0.40000025198E+02 0.  0.
        -12    1    3    3    0    0  0.23077590919E+02 -0.20651935416E+02 -0.19917364006E+02  0.36820904769E+02  0.00000000000E+00 0.  1.
         11    1    4    4    0    0 -0.44166417960E+01 -0.28416798937E+00  0.44137306949E+01  0.62504795903E+01  0.51100000000E-03 0. -1.
        -11    1    4    4    0    0 -0.27491066391E+02  0.22049580630E+02  0.72514825515E+01  0.35979532191E+02  0.51100000000E-03 0.  1.
        -12    1    4    4    0    0  0.88301172678E+01 -0.11134772243E+01  0.82521507600E+01  0.12137083449E+02  0.00000000000E+00 0.  1.
</event>
<event>
 8    1  0.1247338E-006  0.9118800E+02  0.7816164E-02  0.1184000E+00
        -11   -1    0    0    0    0  0.00000000000E+00  0.00000000000E+00  0.45593999997E+02  0.45594000000E+02  0.51100000000E-03 0.  1.
         11   -1    0    0    0    0 -0.00000000000E+00 -0.00000000000E+00 -0.45593999997E+02  0.45594000000E+02  0.51100000000E-03 0. -1.
         23    2    1    2    0    0  0.71054273576E-14 -0.88817841970E-15  0.88817841970E-15  0.91188000000E+02  0.91188000000E+02 0.  0.
    9900012    2    3    3    0    0 -0.36227300844E+02 -0.48144849107E+01 -0.44927100726E+01  0.54367067975E+02  0.39999963063E+02 0.  0.
         12    1    3    3    0    0  0.36227300844E+02  0.48144849107E+01  0.44927100726E+01  0.36820932025E+02  0.00000000000E+00 0. -1.
         11    1    4    4    0    0 -0.13027819107E+02 -0.76386055433E+01 -0.62442611929E+01  0.16342067294E+02  0.51100000000E-03 0. -1.
        -11    1    4    4    0    0 -0.10002541097E+02 -0.96259934447E+01 -0.93665699197E+01  0.16746438741E+02  0.51100000000E-03 0.  1.
         12    1    4    4    0    0 -0.13196940640E+02  0.12450114077E+02  0.11118121040E+02  0.21278561940E+02  0.00000000000E+00 0. -1.
</event>
<event>
 8    1  0.1247338E-006  0.9118800E+02  0.7816164E-02  0.1184000E+00
        -11   -1    0    0    0    0  0.00000000000E+00  0.00000000000E+00  0.45593999997E+02  0.45594000000E+02  0.51100000000E-03 0.  1.
         11   -1    0    0    0    0 -0.00000000000E+00 -0.00000000000E+00 -0.45593999997E+02  0.45594000000E+02  0.51100000000E-03 0. -1.
         23    2    1    2    0    0  0.17763568394E-14  0.35527136788E-14  0.35527136788E-14  0.91188000000E+02  0.91188000000E+02 0.  0.
    9900012    2    3    3    0    0  0.13390353979E+02 -0.28036189688E+02 -0.19759972528E+02  0.54367000201E+02  0.39999808558E+02 0.  0.
        -12    1    3    3    0    0 -0.13390353979E+02  0.28036189688E+02  0.19759972528E+02  0.36820999799E+02  0.00000000000E+00 0.  1.
         11    1    4    4    0    0 -0.40008605272E+01 -0.16627794144E+01 -0.71031735249E+01  0.83202641019E+01  0.51100000000E-03 0. -1.
        -11    1    4    4    0    0 -0.10891754554E+01  0.58313330643E+01 -0.57846154606E+01  0.82856819132E+01  0.51100000000E-03 0.  1.
        -12    1    4    4    0    0  0.18480389962E+02 -0.32204743338E+02 -0.68721835425E+01  0.37761054186E+02  0.00000000000E+00 0.  1.
</event>
<event>
 8    1  0.1247338E-006  0.9118800E+02  0.7816164E-02  0.1184000E+00
        -11   -1    0    0    0    0  0.00000000000E+00  0.00000000000E+00  0.45593999997E+02  0.45594000000E+02  0.51100000000E-03 0. -1.
         11   -1    0    0    0    0 -0.00000000000E+00 -0.00000000000E+00 -0.45593999997E+02  0.45594000000E+02  0.51100000000E-03 0.  1.
         23    2    1    2    0    0  0.00000000000E+00  0.00000000000E+00  0.00000000000E+00  0.91188000000E+02  0.91188000000E+02 0.  0.
    9900012    2    3    3    0    0 -0.30768253412E+02 -0.16574155873E+02  0.11592692711E+02  0.54367101244E+02  0.40000038905E+02 0.  0.
        -12    1    3    3    0    0  0.30768253412E+02  0.16574155873E+02 -0.11592692711E+02  0.36820898756E+02  0.00000000000E+00 0.  1.
         11    1    4    4    0    0 -0.48842424923E+01  0.77292740933E+01  0.91304509386E+01  0.12921402298E+02  0.51100000000E-03 0.  1.
        -11    1    4    4    0    0 -0.10211353320E+02 -0.14112799114E+02 -0.89078744006E+01  0.19565098059E+02  0.51100000000E-03 0. -1.
         12    1    4    4    0    0 -0.15672657600E+02 -0.10190630852E+02  0.11370116173E+02  0.21880600887E+02  0.00000000000E+00 0. -1.
</event>
<event>
 8    1  0.1247338E-006  0.9118800E+02  0.7816164E-02  0.1184000E+00
        -11   -1    0    0    0    0  0.00000000000E+00  0.00000000000E+00  0.45593999997E+02  0.45594000000E+02  0.51100000000E-03 0.  1.
         11   -1    0    0    0    0 -0.00000000000E+00 -0.00000000000E+00 -0.45593999997E+02  0.45594000000E+02  0.51100000000E-03 0. -1.
         23    2    1    2    0    0  0.00000000000E+00  0.00000000000E+00 -0.17763568394E-14  0.91188000000E+02  0.91188000000E+02 0.  0.
    9900012    2    3    3    0    0  0.33907694699E+02 -0.11321827323E+02  0.88239411432E+01  0.54367116374E+02  0.40000073398E+02 0.  0.
         12    1    3    3    0    0 -0.33907694699E+02  0.11321827323E+02 -0.88239411432E+01  0.36820883626E+02  0.00000000000E+00 0. -1.
         11    1    4    4    0    0  0.27848318384E+02 -0.39235637859E+01  0.31380423448E+01  0.28297888607E+02  0.51100000000E-03 0. -1.
        -11    1    4    4    0    0  0.60950541300E+00 -0.42066831896E+01  0.14565295157E+02  0.15172854167E+02  0.51100000000E-03 0.  1.
         12    1    4    4    0    0  0.54498709018E+01 -0.31915803470E+01 -0.88793963581E+01  0.10896373601E+02  0.00000000000E+00 0. -1.
</event>
<event>
 8    1  0.1247338E-006  0.9118800E+02  0.7816164E-02  0.1184000E+00
        -11   -1    0    0    0    0  0.00000000000E+00  0.00000000000E+00  0.45593999997E+02  0.45594000000E+02  0.51100000000E-03 0.  1.
         11   -1    0    0    0    0 -0.00000000000E+00 -0.00000000000E+00 -0.45593999997E+02  0.45594000000E+02  0.51100000000E-03 0. -1.
         23    2    1    2    0    0  0.15543122345E-14 -0.35527136788E-14  0.35527136788E-14  0.91188000000E+02  0.91188000000E+02 0.  0.
    9900012    2    3    3    0    0 -0.18307541888E+01  0.20944454931E+02 -0.30228440719E+02  0.54367075493E+02  0.39999980201E+02 0.  0.
        -12    1    3    3    0    0  0.18307541888E+01 -0.20944454931E+02  0.30228440719E+02  0.36820924507E+02  0.00000000000E+00 0.  1.
         11    1    4    4    0    0 -0.94625606580E+01  0.17737961412E+02 -0.20513573782E+02  0.28722500567E+02  0.51100000000E-03 0. -1.
        -11    1    4    4    0    0  0.27877683501E+01 -0.90291164771E+01 -0.79853076333E+01  0.12371812114E+02  0.51100000000E-03 0.  1.
        -12    1    4    4    0    0  0.48440381191E+01  0.12235609996E+02 -0.17295593039E+01  0.13272762811E+02  0.00000000000E+00 0.  1.
</event>
<event>
 8    1  0.1247338E-006  0.9118800E+02  0.7816164E-02  0.1184000E+00
        -11   -1    0    0    0    0  0.00000000000E+00  0.00000000000E+00  0.45593999997E+02  0.45594000000E+02  0.51100000000E-03 0. -1.
         11   -1    0    0    0    0 -0.00000000000E+00 -0.00000000000E+00 -0.45593999997E+02  0.45594000000E+02  0.51100000000E-03 0.  1.
         23    2    1    2    0    0  0.00000000000E+00  0.00000000000E+00  0.71054273576E-14  0.91188000000E+02  0.91188000000E+02 0.  0.
    9900012    2    3    3    0    0 -0.18268933405E+02 -0.18851731207E+02 -0.25819328559E+02  0.54367089847E+02  0.40000012925E+02 0.  0.
         12    1    3    3    0    0  0.18268933405E+02  0.18851731207E+02  0.25819328559E+02  0.36820910153E+02  0.00000000000E+00 0. -1.
         11    1    4    4    0    0  0.21047376846E+00 -0.41749844709E+01 -0.25158137815E+00  0.41878500439E+01  0.51100000000E-03 0. -1.
        -11    1    4    4    0    0 -0.92864026452E+00 -0.35162184997E+01  0.90726924642E+01  0.97744521120E+01  0.51100000000E-03 0.  1.
        -12    1    4    4    0    0 -0.17550766909E+02 -0.11160528237E+02 -0.34640439645E+02  0.40404787691E+02  0.00000000000E+00 0.  1.
</event>
<event>
 8    1  0.1247338E-006  0.9118800E+02  0.7816164E-02  0.1184000E+00
        -11   -1    0    0    0    0  0.00000000000E+00  0.00000000000E+00  0.45593999997E+02  0.45594000000E+02  0.51100000000E-03 0.  1.
         11   -1    0    0    0    0 -0.00000000000E+00 -0.00000000000E+00 -0.45593999997E+02  0.45594000000E+02  0.51100000000E-03 0. -1.
         23    2    1    2    0    0  0.35527136788E-14 -0.35527136788E-14  0.00000000000E+00  0.91188000000E+02  0.91188000000E+02 0.  0.
    9900012    2    3    3    0    0  0.19620998286E+02  0.30722817802E+02  0.51870275137E+01  0.54367077118E+02  0.39999983906E+02 0.  0.
         12    1    3    3    0    0 -0.19620998286E+02 -0.30722817802E+02 -0.51870275137E+01  0.36820922882E+02  0.00000000000E+00 0. -1.
         11    1    4    4    0    0 -0.33314003311E+01  0.21604287234E+02 -0.52138640749E+00  0.21865847779E+02  0.51100000000E-03 0. -1.
        -11    1    4    4    0    0  0.15251785273E+02  0.13916850840E+02  0.94249007290E+01  0.22696353128E+02  0.51100000000E-03 0.  1.
         12    1    4    4    0    0  0.77006133445E+01 -0.47983202720E+01 -0.37164868078E+01  0.98048762107E+01  0.00000000000E+00 0. -1.
</event>
<event>
 8    1  0.1247338E-006  0.9118800E+02  0.7816164E-02  0.1184000E+00
        -11   -1    0    0    0    0  0.00000000000E+00  0.00000000000E+00  0.45593999997E+02  0.45594000000E+02  0.51100000000E-03 0. -1.
         11   -1    0    0    0    0 -0.00000000000E+00 -0.00000000000E+00 -0.45593999997E+02  0.45594000000E+02  0.51100000000E-03 0.  1.
         23    2    1    2    0    0  0.00000000000E+00  0.00000000000E+00  0.35527136788E-14  0.91188000000E+02  0.91188000000E+02 0.  0.
    9900012    2    3    3    0    0 -0.17002563949E+02 -0.22865165154E+02 -0.23321135126E+02  0.54367105091E+02  0.40000047676E+02 0.  0.
         12    1    3    3    0    0  0.17002563949E+02  0.22865165154E+02  0.23321135126E+02  0.36820894909E+02  0.00000000000E+00 0. -1.
         11    1    4    4    0    0 -0.11596745240E+02 -0.31553843364E+01 -0.87277054157E+01  0.14853073505E+02  0.51100000000E-03 0. -1.
        -11    1    4    4    0    0 -0.15431088231E+02 -0.21499753614E+02 -0.11636545461E+02  0.28909636456E+02  0.51100000000E-03 0.  1.
         12    1    4    4    0    0  0.10025269522E+02  0.17899727969E+01 -0.29568842492E+01  0.10604395130E+02  0.00000000000E+00 0. -1.
</event>
<event>
 8    1  0.1247338E-006  0.9118800E+02  0.7816164E-02  0.1184000E+00
        -11   -1    0    0    0    0  0.00000000000E+00  0.00000000000E+00  0.45593999997E+02  0.45594000000E+02  0.51100000000E-03 0. -1.
         11   -1    0    0    0    0 -0.00000000000E+00 -0.00000000000E+00 -0.45593999997E+02  0.45594000000E+02  0.51100000000E-03 0.  1.
         23    2    1    2    0    0  0.00000000000E+00 -0.17763568394E-14  0.35527136788E-14  0.91188000000E+02  0.91188000000E+02 0.  0.
    9900012    2    3    3    0    0 -0.30821973516E+02 -0.10617885622E+02 -0.17118596534E+02  0.54367083474E+02  0.39999998396E+02 0.  0.
         12    1    3    3    0    0  0.30821973516E+02  0.10617885622E+02  0.17118596534E+02  0.36820916526E+02  0.00000000000E+00 0. -1.
         11    1    4    4    0    0 -0.70676327616E+01 -0.96107791509E+01  0.96889608701E+01  0.15368619708E+02  0.51100000000E-03 0. -1.
        -11    1    4    4    0    0 -0.11151997944E+02  0.23088493491E+01 -0.22595677318E+02  0.25303408410E+02  0.51100000000E-03 0.  1.
        -12    1    4    4    0    0 -0.12602342811E+02 -0.33159558203E+01 -0.42118800858E+01  0.13695055355E+02  0.00000000000E+00 0.  1.
</event>
<event>
 8    1  0.1247338E-006  0.9118800E+02  0.7816164E-02  0.1184000E+00
        -11   -1    0    0    0    0  0.00000000000E+00  0.00000000000E+00  0.45593999997E+02  0.45594000000E+02  0.51100000000E-03 0.  1.
         11   -1    0    0    0    0 -0.00000000000E+00 -0.00000000000E+00 -0.45593999997E+02  0.45594000000E+02  0.51100000000E-03 0. -1.
         23    2    1    2    0    0  0.94368957093E-15  0.00000000000E+00  0.00000000000E+00  0.91188000000E+02  0.91188000000E+02 0.  0.
    9900012    2    3    3    0    0  0.46301253854E+00 -0.91605024308E+01  0.35660199684E+02  0.54367095246E+02  0.40000025232E+02 0.  0.
         12    1    3    3    0    0 -0.46301253854E+00  0.91605024308E+01 -0.35660199684E+02  0.36820904754E+02  0.00000000000E+00 0. -1.
         11    1    4    4    0    0 -0.78616625630E+01 -0.41401521684E+01  0.33332112376E+02  0.34496033307E+02  0.51100000000E-03 0.  1.
        -11    1    4    4    0    0 -0.48397100086E+00  0.29054224341E+01 -0.50974063015E+01  0.58872114549E+01  0.51100000000E-03 0. -1.
         12    1    4    4    0    0  0.88086461024E+01 -0.79257726966E+01  0.74254936098E+01  0.13983850483E+02  0.00000000000E+00 0. -1.
</event>
<event>
 8    1  0.1247338E-006  0.9118800E+02  0.7816164E-02  0.1184000E+00
        -11   -1    0    0    0    0  0.00000000000E+00  0.00000000000E+00  0.45593999997E+02  0.45594000000E+02  0.51100000000E-03 0. -1.
         11   -1    0    0    0    0 -0.00000000000E+00 -0.00000000000E+00 -0.45593999997E+02  0.45594000000E+02  0.51100000000E-03 0.  1.
         23    2    1    2    0    0 -0.17763568394E-14 -0.71054273576E-14  0.88817841970E-15  0.91188000000E+02  0.91188000000E+02 0.  0.
    9900012    2    3    3    0    0 -0.15062225293E+02 -0.33421730375E+02 -0.34492684030E+01  0.54367080069E+02  0.39999990633E+02 0.  0.
         12    1    3    3    0    0  0.15062225293E+02  0.33421730375E+02  0.34492684030E+01  0.36820919931E+02  0.00000000000E+00 0. -1.
         11    1    4    4    0    0  0.79547678353E+01 -0.22492810906E+02  0.28313310379E+01  0.24025430474E+02  0.51100000000E-03 0. -1.
        -11    1    4    4    0    0 -0.18012719055E+02 -0.80706269544E+00 -0.61460310974E+01  0.19049490714E+02  0.51100000000E-03 0.  1.
        -12    1    4    4    0    0 -0.50042740728E+01 -0.10121856774E+02 -0.13456834348E+00  0.11292158881E+02  0.00000000000E+00 0.  1.
</event>
<event>
 8    1  0.1247338E-006  0.9118800E+02  0.7816164E-02  0.1184000E+00
        -11   -1    0    0    0    0  0.00000000000E+00  0.00000000000E+00  0.45593999997E+02  0.45594000000E+02  0.51100000000E-03 0.  1.
         11   -1    0    0    0    0 -0.00000000000E+00 -0.00000000000E+00 -0.45593999997E+02  0.45594000000E+02  0.51100000000E-03 0. -1.
         23    2    1    2    0    0  0.00000000000E+00  0.00000000000E+00 -0.88817841970E-15  0.91188000000E+02  0.91188000000E+02 0.  0.
    9900012    2    3    3    0    0  0.11010722480E+02  0.35014353440E+02  0.29226314885E+01  0.54367044945E+02  0.39999910561E+02 0.  0.
        -12    1    3    3    0    0 -0.11010722480E+02 -0.35014353440E+02 -0.29226314885E+01  0.36820955055E+02  0.00000000000E+00 0.  1.
         11    1    4    4    0    0  0.93863093398E+01  0.21321216123E+02 -0.14674924649E+02  0.27532716424E+02  0.51100000000E-03 0. -1.
        -11    1    4    4    0    0 -0.48017231748E+01  0.14596479751E+01  0.96916747376E+01  0.10914012880E+02  0.51100000000E-03 0.  1.
         12    1    4    4    0    0  0.64261363152E+01  0.12233489341E+02  0.79058813997E+01  0.15920315641E+02  0.00000000000E+00 0. -1.
</event>
<event>
 8    1  0.1247338E-006  0.9118800E+02  0.7816164E-02  0.1184000E+00
        -11   -1    0    0    0    0  0.00000000000E+00  0.00000000000E+00  0.45593999997E+02  0.45594000000E+02  0.51100000000E-03 0.  1.
         11   -1    0    0    0    0 -0.00000000000E+00 -0.00000000000E+00 -0.45593999997E+02  0.45594000000E+02  0.51100000000E-03 0. -1.
         23    2    1    2    0    0 -0.35527136788E-14 -0.35527136788E-14 -0.17763568394E-14  0.91188000000E+02  0.91188000000E+02 0.  0.
    9900012    2    3    3    0    0 -0.29117705878E+02 -0.16361875760E+02 -0.15499257612E+02  0.54367098863E+02  0.40000033478E+02 0.  0.
        -12    1    3    3    0    0  0.29117705878E+02  0.16361875760E+02  0.15499257612E+02  0.36820901137E+02  0.00000000000E+00 0.  1.
         11    1    4    4    0    0 -0.41113039077E+01 -0.24259259662E+01 -0.13790937416E+02  0.14593762082E+02  0.51100000000E-03 0.  1.
        -11    1    4    4    0    0 -0.28407536952E+02 -0.89055683086E+01 -0.82049545783E+01  0.30880715382E+02  0.51100000000E-03 0. -1.
        -12    1    4    4    0    0  0.34011349819E+01 -0.50303814855E+01  0.64966343824E+01  0.88926213994E+01  0.00000000000E+00 0.  1.
</event>
<event>
 8    1  0.1247338E-006  0.9118800E+02  0.7816164E-02  0.1184000E+00
        -11   -1    0    0    0    0  0.00000000000E+00  0.00000000000E+00  0.45593999997E+02  0.45594000000E+02  0.51100000000E-03 0. -1.
         11   -1    0    0    0    0 -0.00000000000E+00 -0.00000000000E+00 -0.45593999997E+02  0.45594000000E+02  0.51100000000E-03 0.  1.
         23    2    1    2    0    0 -0.17763568394E-14  0.00000000000E+00  0.00000000000E+00  0.91188000000E+02  0.91188000000E+02 0.  0.
    9900012    2    3    3    0    0 -0.63154192387E+01 -0.12564543330E+02 -0.34029809394E+02  0.54367079361E+02  0.39999989020E+02 0.  0.
         12    1    3    3    0    0  0.63154192387E+01  0.12564543330E+02  0.34029809394E+02  0.36820920639E+02  0.00000000000E+00 0. -1.
         11    1    4    4    0    0  0.63538541237E+01  0.45371872934E+01 -0.11551932277E+01  0.78925282651E+01  0.51100000000E-03 0. -1.
        -11    1    4    4    0    0 -0.20347770244E+02 -0.12977097028E+02 -0.24253610884E+02  0.34215120084E+02  0.51100000000E-03 0.  1.
        -12    1    4    4    0    0  0.76784968818E+01 -0.41246335958E+01 -0.86210052829E+01  0.12259431013E+02  0.00000000000E+00 0.  1.
</event>
<event>
 8    1  0.1247338E-006  0.9118800E+02  0.7816164E-02  0.1184000E+00
        -11   -1    0    0    0    0  0.00000000000E+00  0.00000000000E+00  0.45593999997E+02  0.45594000000E+02  0.51100000000E-03 0.  1.
         11   -1    0    0    0    0 -0.00000000000E+00 -0.00000000000E+00 -0.45593999997E+02  0.45594000000E+02  0.51100000000E-03 0. -1.
         23    2    1    2    0    0  0.00000000000E+00  0.00000000000E+00  0.17763568394E-14  0.91188000000E+02  0.91188000000E+02 0.  0.
    9900012    2    3    3    0    0  0.33331455477E+02 -0.66753411216E+01  0.14150411726E+02  0.54367078565E+02  0.39999987204E+02 0.  0.
         12    1    3    3    0    0 -0.33331455477E+02  0.66753411216E+01 -0.14150411726E+02  0.36820921435E+02  0.00000000000E+00 0. -1.
         11    1    4    4    0    0  0.66891356089E+01  0.22285112873E+00 -0.10677477064E+01  0.67774835482E+01  0.51100000000E-03 0. -1.
        -11    1    4    4    0    0  0.22625063279E+02 -0.65081575680E+01  0.26594883075E+02  0.35518127898E+02  0.51100000000E-03 0.  1.
        -12    1    4    4    0    0  0.40172565892E+01 -0.39003468232E+00 -0.11376723642E+02  0.12071467118E+02  0.00000000000E+00 0.  1.
</event>
<event>
 8    1  0.1247338E-006  0.9118800E+02  0.7816164E-02  0.1184000E+00
        -11   -1    0    0    0    0  0.00000000000E+00  0.00000000000E+00  0.45593999997E+02  0.45594000000E+02  0.51100000000E-03 0.  1.
         11   -1    0    0    0    0 -0.00000000000E+00 -0.00000000000E+00 -0.45593999997E+02  0.45594000000E+02  0.51100000000E-03 0. -1.
         23    2    1    2    0    0  0.17763568394E-14  0.00000000000E+00  0.17763568394E-14  0.91188000000E+02  0.91188000000E+02 0.  0.
    9900012    2    3    3    0    0  0.13983889414E+02  0.31203067270E+02  0.13660144075E+02  0.54367080588E+02  0.39999991816E+02 0.  0.
        -12    1    3    3    0    0 -0.13983889414E+02 -0.31203067270E+02 -0.13660144075E+02  0.36820919412E+02  0.00000000000E+00 0.  1.
         11    1    4    4    0    0  0.11332639413E+01  0.34298346546E+02 -0.33871427143E+00  0.34318735271E+02  0.51100000000E-03 0. -1.
        -11    1    4    4    0    0  0.58012466068E+01 -0.95737192788E+00  0.24930281194E+01  0.63864084325E+01  0.51100000000E-03 0.  1.
         12    1    4    4    0    0  0.70493788660E+01 -0.21379073483E+01  0.11505830227E+02  0.13661936884E+02  0.00000000000E+00 0. -1.
</event>
<event>
 8    1  0.1247338E-006  0.9118800E+02  0.7816164E-02  0.1184000E+00
        -11   -1    0    0    0    0  0.00000000000E+00  0.00000000000E+00  0.45593999997E+02  0.45594000000E+02  0.51100000000E-03 0.  1.
         11   -1    0    0    0    0 -0.00000000000E+00 -0.00000000000E+00 -0.45593999997E+02  0.45594000000E+02  0.51100000000E-03 0. -1.
         23    2    1    2    0    0 -0.88817841970E-15  0.00000000000E+00 -0.17763568394E-14  0.91188000000E+02  0.91188000000E+02 0.  0.
    9900012    2    3    3    0    0  0.63312940533E+01 -0.33758559662E+02  0.13268305917E+02  0.54367169255E+02  0.40000193951E+02 0.  0.
         12    1    3    3    0    0 -0.63312940533E+01  0.33758559662E+02 -0.13268305917E+02  0.36820830745E+02  0.00000000000E+00 0. -1.
         11    1    4    4    0    0  0.81668457650E+01 -0.53880105850E+01 -0.99678235691E+01  0.13967302344E+02  0.51100000000E-03 0. -1.
        -11    1    4    4    0    0 -0.60451331600E+01 -0.96625360156E+01  0.16543583869E+02  0.20089758701E+02  0.51100000000E-03 0.  1.
         12    1    4    4    0    0  0.42095814484E+01 -0.18708013061E+02  0.66925456171E+01  0.20310108210E+02  0.00000000000E+00 0. -1.
</event>
<event>
 8    1  0.1247338E-006  0.9118800E+02  0.7816164E-02  0.1184000E+00
        -11   -1    0    0    0    0  0.00000000000E+00  0.00000000000E+00  0.45593999997E+02  0.45594000000E+02  0.51100000000E-03 0.  1.
         11   -1    0    0    0    0 -0.00000000000E+00 -0.00000000000E+00 -0.45593999997E+02  0.45594000000E+02  0.51100000000E-03 0. -1.
         23    2    1    2    0    0  0.00000000000E+00 -0.88817841970E-15  0.00000000000E+00  0.91188000000E+02  0.91188000000E+02 0.  0.
    9900012    2    3    3    0    0  0.30943156943E+02 -0.66330861358E+01 -0.18822926828E+02  0.54367090619E+02  0.40000014684E+02 0.  0.
        -12    1    3    3    0    0 -0.30943156943E+02  0.66330861358E+01  0.18822926828E+02  0.36820909381E+02  0.00000000000E+00 0.  1.
         11    1    4    4    0    0  0.21669827135E+02 -0.79073913439E+01  0.60979129725E+01  0.23859857267E+02  0.51100000000E-03 0. -1.
        -11    1    4    4    0    0 -0.11640397959E+01 -0.15131665863E+01  0.11901026230E+01  0.22496680374E+01  0.51100000000E-03 0.  1.
         12    1    4    4    0    0  0.10437369604E+02  0.27874717944E+01 -0.26110942423E+02  0.28257565314E+02  0.00000000000E+00 0. -1.
</event>
<event>
 8    1  0.1247338E-006  0.9118800E+02  0.7816164E-02  0.1184000E+00
        -11   -1    0    0    0    0  0.00000000000E+00  0.00000000000E+00  0.45593999997E+02  0.45594000000E+02  0.51100000000E-03 0.  1.
         11   -1    0    0    0    0 -0.00000000000E+00 -0.00000000000E+00 -0.45593999997E+02  0.45594000000E+02  0.51100000000E-03 0. -1.
         23    2    1    2    0    0  0.00000000000E+00  0.35527136788E-14  0.44408920985E-15  0.91188000000E+02  0.91188000000E+02 0.  0.
    9900012    2    3    3    0    0 -0.20856762398E+02 -0.30255553050E+02  0.23192348102E+01  0.54367056528E+02  0.39999936967E+02 0.  0.
        -12    1    3    3    0    0  0.20856762398E+02  0.30255553050E+02 -0.23192348102E+01  0.36820943472E+02  0.00000000000E+00 0.  1.
         11    1    4    4    0    0 -0.11707193113E+02 -0.36691489650E+02 -0.36286862694E+00  0.38515652106E+02  0.51100000000E-03 0. -1.
        -11    1    4    4    0    0 -0.91771497270E+01  0.53538227488E+00  0.36140267992E+01  0.98776465445E+01  0.51100000000E-03 0.  1.
         12    1    4    4    0    0  0.27580442173E-01  0.59005543248E+01 -0.93192336210E+00  0.59737578771E+01  0.00000000000E+00 0. -1.
</event>
<event>
 8    1  0.1247338E-006  0.9118800E+02  0.7816164E-02  0.1184000E+00
        -11   -1    0    0    0    0  0.00000000000E+00  0.00000000000E+00  0.45593999997E+02  0.45594000000E+02  0.51100000000E-03 0.  1.
         11   -1    0    0    0    0 -0.00000000000E+00 -0.00000000000E+00 -0.45593999997E+02  0.45594000000E+02  0.51100000000E-03 0. -1.
         23    2    1    2    0    0  0.00000000000E+00  0.00000000000E+00 -0.71054273576E-14  0.91188000000E+02  0.91188000000E+02 0.  0.
    9900012    2    3    3    0    0  0.13609640762E+02 -0.29442852291E+01  0.34086608479E+02  0.54366973198E+02  0.39999746998E+02 0.  0.
         12    1    3    3    0    0 -0.13609640762E+02  0.29442852291E+01 -0.34086608479E+02  0.36821026802E+02  0.00000000000E+00 0. -1.
         11    1    4    4    0    0  0.82046296581E+01 -0.16362399220E+01 -0.49368725085E+01  0.97142132638E+01  0.51100000000E-03 0. -1.
        -11    1    4    4    0    0  0.81431081304E+01 -0.33350723064E+00  0.32702089562E+01  0.87815547584E+01  0.51100000000E-03 0.  1.
        -12    1    4    4    0    0 -0.27380970264E+01 -0.97453807643E+00  0.35753272031E+02  0.35871205175E+02  0.00000000000E+00 0.  1.
</event>
<event>
 8    1  0.1247338E-006  0.9118800E+02  0.7816164E-02  0.1184000E+00
        -11   -1    0    0    0    0  0.00000000000E+00  0.00000000000E+00  0.45593999997E+02  0.45594000000E+02  0.51100000000E-03 0.  1.
         11   -1    0    0    0    0 -0.00000000000E+00 -0.00000000000E+00 -0.45593999997E+02  0.45594000000E+02  0.51100000000E-03 0. -1.
         23    2    1    2    0    0  0.00000000000E+00  0.00000000000E+00  0.00000000000E+00  0.91188000000E+02  0.91188000000E+02 0.  0.
    9900012    2    3    3    0    0  0.18197252247E+02 -0.47467905610E+01  0.31656120700E+02  0.54367055040E+02  0.39999933575E+02 0.  0.
         12    1    3    3    0    0 -0.18197252247E+02  0.47467905610E+01 -0.31656120700E+02  0.36820944960E+02  0.00000000000E+00 0. -1.
         11    1    4    4    0    0  0.10434994827E+01 -0.12248540165E+02  0.23415452209E+02  0.26446153403E+02  0.51100000000E-03 0. -1.
        -11    1    4    4    0    0  0.17033822667E+01 -0.87396660827E+00  0.10070896764E+02  0.10251258005E+02  0.51100000000E-03 0.  1.
         12    1    4    4    0    0  0.15450370497E+02  0.83757162127E+01 -0.18302282738E+01  0.17669643633E+02  0.00000000000E+00 0. -1.
</event>
<event>
 8    1  0.1247338E-006  0.9118800E+02  0.7816164E-02  0.1184000E+00
        -11   -1    0    0    0    0  0.00000000000E+00  0.00000000000E+00  0.45593999997E+02  0.45594000000E+02  0.51100000000E-03 0.  1.
         11   -1    0    0    0    0 -0.00000000000E+00 -0.00000000000E+00 -0.45593999997E+02  0.45594000000E+02  0.51100000000E-03 0. -1.
         23    2    1    2    0    0 -0.71054273576E-14  0.26645352591E-14 -0.35527136788E-14  0.91188000000E+02  0.91188000000E+02 0.  0.
    9900012    2    3    3    0    0 -0.33143951505E+02  0.58938159480E+01 -0.14917044322E+02  0.54367125498E+02  0.40000094197E+02 0.  0.
        -12    1    3    3    0    0  0.33143951505E+02 -0.58938159480E+01  0.14917044322E+02  0.36820874502E+02  0.00000000000E+00 0.  1.
         11    1    4    4    0    0 -0.13340257027E+02 -0.11999983460E+02 -0.76430056685E+01  0.19503271431E+02  0.51100000000E-03 0. -1.
        -11    1    4    4    0    0 -0.27267152985E+00  0.12115215661E+02 -0.79352284396E+01  0.14485187294E+02  0.51100000000E-03 0.  1.
         12    1    4    4    0    0 -0.19531022948E+02  0.57785837469E+01  0.66118978599E+00  0.20378666773E+02  0.00000000000E+00 0. -1.
</event>
<event>
 8    1  0.1247338E-006  0.9118800E+02  0.7816164E-02  0.1184000E+00
        -11   -1    0    0    0    0  0.00000000000E+00  0.00000000000E+00  0.45593999997E+02  0.45594000000E+02  0.51100000000E-03 0.  1.
         11   -1    0    0    0    0 -0.00000000000E+00 -0.00000000000E+00 -0.45593999997E+02  0.45594000000E+02  0.51100000000E-03 0. -1.
         23    2    1    2    0    0  0.00000000000E+00  0.35527136788E-14  0.66613381478E-15  0.91188000000E+02  0.91188000000E+02 0.  0.
    9900012    2    3    3    0    0 -0.18233027557E+02  0.31983624379E+02 -0.61944581078E+00  0.54367092415E+02  0.40000018778E+02 0.  0.
         12    1    3    3    0    0  0.18233027557E+02 -0.31983624379E+02  0.61944581078E+00  0.36820907585E+02  0.00000000000E+00 0. -1.
         11    1    4    4    0    0 -0.14813436286E+02  0.11636687081E+01  0.10014608136E+02  0.17918827970E+02  0.51100000000E-03 0. -1.
        -11    1    4    4    0    0 -0.85682106628E+01  0.89480601192E+01 -0.35159704516E+01  0.12878045750E+02  0.51100000000E-03 0.  1.
        -12    1    4    4    0    0  0.51486193918E+01  0.21871895552E+02 -0.71180834952E+01  0.23570218695E+02  0.00000000000E+00 0.  1.
</event>
<event>
 8    1  0.1247338E-006  0.9118800E+02  0.7816164E-02  0.1184000E+00
        -11   -1    0    0    0    0  0.00000000000E+00  0.00000000000E+00  0.45593999997E+02  0.45594000000E+02  0.51100000000E-03 0.  1.
         11   -1    0    0    0    0 -0.00000000000E+00 -0.00000000000E+00 -0.45593999997E+02  0.45594000000E+02  0.51100000000E-03 0. -1.
         23    2    1    2    0    0 -0.17763568394E-14 -0.88817841970E-15  0.00000000000E+00  0.91188000000E+02  0.91188000000E+02 0.  0.
    9900012    2    3    3    0    0 -0.73255227016E+01  0.54217569639E+01 -0.35675218206E+02  0.54367083044E+02  0.39999997416E+02 0.  0.
        -12    1    3    3    0    0  0.73255227016E+01 -0.54217569639E+01  0.35675218206E+02  0.36820916956E+02  0.00000000000E+00 0.  1.
         11    1    4    4    0    0 -0.40441634478E+01  0.32801118298E+01 -0.36445870569E+02  0.36815973074E+02  0.51100000000E-03 0. -1.
        -11    1    4    4    0    0  0.50305161474E+01 -0.45575493840E+01  0.10676057090E+01  0.68714722809E+01  0.51100000000E-03 0.  1.
        -12    1    4    4    0    0 -0.83118754012E+01  0.66991945181E+01 -0.29695334600E+00  0.10679637689E+02  0.00000000000E+00 0.  1.
</event>
<event>
 8    1  0.1247338E-006  0.9118800E+02  0.7816164E-02  0.1184000E+00
        -11   -1    0    0    0    0  0.00000000000E+00  0.00000000000E+00  0.45593999997E+02  0.45594000000E+02  0.51100000000E-03 0.  1.
         11   -1    0    0    0    0 -0.00000000000E+00 -0.00000000000E+00 -0.45593999997E+02  0.45594000000E+02  0.51100000000E-03 0. -1.
         23    2    1    2    0    0  0.00000000000E+00 -0.17763568394E-14  0.00000000000E+00  0.91188000000E+02  0.91188000000E+02 0.  0.
    9900012    2    3    3    0    0  0.24489486595E+02  0.12052636050E+02 -0.24713957854E+02  0.54367072497E+02  0.39999973370E+02 0.  0.
        -12    1    3    3    0    0 -0.24489486595E+02 -0.12052636050E+02  0.24713957854E+02  0.36820927503E+02  0.00000000000E+00 0.  1.
         11    1    4    4    0    0  0.23818870530E+02 -0.61625959272E+01 -0.12686965726E+02  0.27681677722E+02  0.51100000000E-03 0. -1.
        -11    1    4    4    0    0 -0.29414732520E+01 -0.18223314171E+01 -0.18194880982E+01  0.39094365178E+01  0.51100000000E-03 0.  1.
        -12    1    4    4    0    0  0.36120893164E+01  0.20037563394E+02 -0.10207504029E+02  0.22775958257E+02  0.00000000000E+00 0.  1.
</event>
<event>
 8    1  0.1247338E-006  0.9118800E+02  0.7816164E-02  0.1184000E+00
        -11   -1    0    0    0    0  0.00000000000E+00  0.00000000000E+00  0.45593999997E+02  0.45594000000E+02  0.51100000000E-03 0.  1.
         11   -1    0    0    0    0 -0.00000000000E+00 -0.00000000000E+00 -0.45593999997E+02  0.45594000000E+02  0.51100000000E-03 0. -1.
         23    2    1    2    0    0  0.00000000000E+00  0.00000000000E+00  0.00000000000E+00  0.91188000000E+02  0.91188000000E+02 0.  0.
    9900012    2    3    3    0    0  0.30170519702E+02  0.20958905771E+02 -0.24986718447E+01  0.54367090842E+02  0.40000015193E+02 0.  0.
        -12    1    3    3    0    0 -0.30170519702E+02 -0.20958905771E+02  0.24986718447E+01  0.36820909158E+02  0.00000000000E+00 0.  1.
         11    1    4    4    0    0  0.11499782758E+02  0.15771383281E+02 -0.10811996934E+02  0.22313242974E+02  0.51100000000E-03 0. -1.
        -11    1    4    4    0    0  0.18863268345E+02 -0.58862706493E+01  0.39581882569E+01  0.20152873972E+02  0.51100000000E-03 0.  1.
        -12    1    4    4    0    0 -0.19253140097E+00  0.11073793140E+02  0.43551368322E+01  0.11900973896E+02  0.00000000000E+00 0.  1.
</event>
<event>
 8    1  0.1247338E-006  0.9118800E+02  0.7816164E-02  0.1184000E+00
        -11   -1    0    0    0    0  0.00000000000E+00  0.00000000000E+00  0.45593999997E+02  0.45594000000E+02  0.51100000000E-03 0.  1.
         11   -1    0    0    0    0 -0.00000000000E+00 -0.00000000000E+00 -0.45593999997E+02  0.45594000000E+02  0.51100000000E-03 0. -1.
         23    2    1    2    0    0  0.00000000000E+00  0.00000000000E+00 -0.88817841970E-15  0.91188000000E+02  0.91188000000E+02 0.  0.
    9900012    2    3    3    0    0  0.30636389123E+02  0.20233382789E+02  0.27931331000E+01  0.54367085969E+02  0.40000004084E+02 0.  0.
        -12    1    3    3    0    0 -0.30636389123E+02 -0.20233382789E+02 -0.27931331000E+01  0.36820914031E+02  0.00000000000E+00 0.  1.
         11    1    4    4    0    0 -0.13430286966E+01  0.65151107640E+00 -0.41039718667E+01  0.43670102022E+01  0.51100000000E-03 0. -1.
        -11    1    4    4    0    0  0.33091887161E+01  0.84225228200E+01 -0.11128094703E+02  0.14343085881E+02  0.51100000000E-03 0.  1.
        -12    1    4    4    0    0  0.28670229103E+02  0.11159348892E+02  0.18025199670E+02  0.35656989885E+02  0.00000000000E+00 0.  1.
</event>
<event>
 8    1  0.1247338E-006  0.9118800E+02  0.7816164E-02  0.1184000E+00
        -11   -1    0    0    0    0  0.00000000000E+00  0.00000000000E+00  0.45593999997E+02  0.45594000000E+02  0.51100000000E-03 0. -1.
         11   -1    0    0    0    0 -0.00000000000E+00 -0.00000000000E+00 -0.45593999997E+02  0.45594000000E+02  0.51100000000E-03 0.  1.
         23    2    1    2    0    0  0.00000000000E+00  0.00000000000E+00  0.17763568394E-14  0.91188000000E+02  0.91188000000E+02 0.  0.
    9900012    2    3    3    0    0 -0.33134779816E+02  0.81231053194E+01  0.13851938626E+02  0.54367154312E+02  0.40000159884E+02 0.  0.
         12    1    3    3    0    0  0.33134779816E+02 -0.81231053194E+01 -0.13851938626E+02  0.36820845688E+02  0.00000000000E+00 0. -1.
         11    1    4    4    0    0 -0.22401200065E+01  0.38624030990E+01  0.10500827978E+02  0.11410682882E+02  0.51100000000E-03 0. -1.
        -11    1    4    4    0    0 -0.18126532414E+02  0.47868753393E+01  0.16241980432E+02  0.24804985013E+02  0.51100000000E-03 0.  1.
        -12    1    4    4    0    0 -0.12768127396E+02 -0.52617311886E+00 -0.12890869785E+02  0.18151486417E+02  0.00000000000E+00 0.  1.
</event>
<event>
 8    1  0.1247338E-006  0.9118800E+02  0.7816164E-02  0.1184000E+00
        -11   -1    0    0    0    0  0.00000000000E+00  0.00000000000E+00  0.45593999997E+02  0.45594000000E+02  0.51100000000E-03 0. -1.
         11   -1    0    0    0    0 -0.00000000000E+00 -0.00000000000E+00 -0.45593999997E+02  0.45594000000E+02  0.51100000000E-03 0.  1.
         23    2    1    2    0    0  0.17763568394E-14  0.00000000000E+00  0.00000000000E+00  0.91188000000E+02  0.91188000000E+02 0.  0.
    9900012    2    3    3    0    0  0.13727665821E+02  0.33794324351E+02  0.50274269945E+01  0.54367079460E+02  0.39999989245E+02 0.  0.
        -12    1    3    3    0    0 -0.13727665821E+02 -0.33794324351E+02 -0.50274269945E+01  0.36820920540E+02  0.00000000000E+00 0.  1.
         11    1    4    4    0    0 -0.83703843639E+01  0.26296784311E+01  0.24322296973E+01  0.91046298449E+01  0.51100000000E-03 0. -1.
        -11    1    4    4    0    0  0.23681557727E+02  0.23648586309E+02  0.96523890520E+01  0.34831600960E+02  0.51100000000E-03 0.  1.
        -12    1    4    4    0    0 -0.15835075415E+01  0.75160596109E+01 -0.70571917548E+01  0.10430848655E+02  0.00000000000E+00 0.  1.
</event>
<event>
 8    1  0.1247338E-006  0.9118800E+02  0.7816164E-02  0.1184000E+00
        -11   -1    0    0    0    0  0.00000000000E+00  0.00000000000E+00  0.45593999997E+02  0.45594000000E+02  0.51100000000E-03 0.  1.
         11   -1    0    0    0    0 -0.00000000000E+00 -0.00000000000E+00 -0.45593999997E+02  0.45594000000E+02  0.51100000000E-03 0. -1.
         23    2    1    2    0    0  0.00000000000E+00  0.00000000000E+00  0.17763568394E-14  0.91188000000E+02  0.91188000000E+02 0.  0.
    9900012    2    3    3    0    0 -0.18967303525E+02  0.29508489980E+02  0.11192378239E+02  0.54367096771E+02  0.40000028710E+02 0.  0.
         12    1    3    3    0    0  0.18967303525E+02 -0.29508489980E+02 -0.11192378239E+02  0.36820903229E+02  0.00000000000E+00 0. -1.
         11    1    4    4    0    0  0.75758619974E+01  0.20516251864E+01  0.37547313761E+01  0.87006240510E+01  0.51100000000E-03 0. -1.
        -11    1    4    4    0    0 -0.21740848583E+02  0.28837865283E+02  0.12819358241E+02  0.38322616261E+02  0.51100000000E-03 0.  1.
        -12    1    4    4    0    0 -0.48023169399E+01 -0.13810004890E+01 -0.53817113772E+01  0.73438564590E+01  0.00000000000E+00 0.  1.
</event>
<event>
 8    1  0.1247338E-006  0.9118800E+02  0.7816164E-02  0.1184000E+00
        -11   -1    0    0    0    0  0.00000000000E+00  0.00000000000E+00  0.45593999997E+02  0.45594000000E+02  0.51100000000E-03 0.  1.
         11   -1    0    0    0    0 -0.00000000000E+00 -0.00000000000E+00 -0.45593999997E+02  0.45594000000E+02  0.51100000000E-03 0. -1.
         23    2    1    2    0    0  0.00000000000E+00  0.00000000000E+00 -0.17763568394E-14  0.91188000000E+02  0.91188000000E+02 0.  0.
    9900012    2    3    3    0    0 -0.28339423312E+02  0.23124917576E+02  0.42304071957E+01  0.54367067480E+02  0.39999961935E+02 0.  0.
         12    1    3    3    0    0  0.28339423312E+02 -0.23124917576E+02 -0.42304071957E+01  0.36820932520E+02  0.00000000000E+00 0. -1.
         11    1    4    4    0    0 -0.11946175493E+02 -0.13311449557E+01 -0.54908673490E+01  0.13214865883E+02  0.51100000000E-03 0. -1.
        -11    1    4    4    0    0  0.48061802817E+01  0.81748724723E+01  0.10835277283E+02  0.14398997982E+02  0.51100000000E-03 0.  1.
        -12    1    4    4    0    0 -0.21199428101E+02  0.16281190060E+02 -0.11140027380E+01  0.26753203615E+02  0.00000000000E+00 0.  1.
</event>
<event>
 8    1  0.1247338E-006  0.9118800E+02  0.7816164E-02  0.1184000E+00
        -11   -1    0    0    0    0  0.00000000000E+00  0.00000000000E+00  0.45593999997E+02  0.45594000000E+02  0.51100000000E-03 0.  1.
         11   -1    0    0    0    0 -0.00000000000E+00 -0.00000000000E+00 -0.45593999997E+02  0.45594000000E+02  0.51100000000E-03 0. -1.
         23    2    1    2    0    0  0.00000000000E+00  0.88817841970E-15  0.17763568394E-14  0.91188000000E+02  0.91188000000E+02 0.  0.
    9900012    2    3    3    0    0 -0.32506424006E+02  0.65660828644E+01  0.15999968107E+02  0.54367081690E+02  0.39999994328E+02 0.  0.
         12    1    3    3    0    0  0.32506424006E+02 -0.65660828644E+01 -0.15999968107E+02  0.36820918310E+02  0.00000000000E+00 0. -1.
         11    1    4    4    0    0 -0.13212703571E+02  0.19959253110E+02  0.11838933909E+02  0.26704076032E+02  0.51100000000E-03 0. -1.
        -11    1    4    4    0    0 -0.15841099923E+02 -0.63080205926E+01  0.80712878839E+01  0.18864709352E+02  0.51100000000E-03 0.  1.
         12    1    4    4    0    0 -0.34526205112E+01 -0.70851496525E+01 -0.39102536862E+01  0.87982963057E+01  0.00000000000E+00 0. -1.
</event>
<event>
 8    1  0.1247338E-006  0.9118800E+02  0.7816164E-02  0.1184000E+00
        -11   -1    0    0    0    0  0.00000000000E+00  0.00000000000E+00  0.45593999997E+02  0.45594000000E+02  0.51100000000E-03 0. -1.
         11   -1    0    0    0    0 -0.00000000000E+00 -0.00000000000E+00 -0.45593999997E+02  0.45594000000E+02  0.51100000000E-03 0.  1.
         23    2    1    2    0    0 -0.88817841970E-15  0.71054273576E-14  0.53290705182E-14  0.91188000000E+02  0.91188000000E+02 0.  0.
    9900012    2    3    3    0    0  0.58679429364E+01 -0.34607562255E+02 -0.11120451519E+02  0.54367074407E+02  0.39999977727E+02 0.  0.
         12    1    3    3    0    0 -0.58679429364E+01  0.34607562255E+02  0.11120451519E+02  0.36820925593E+02  0.00000000000E+00 0. -1.
         11    1    4    4    0    0  0.30896904581E+01 -0.14532619666E+02  0.98340688401E+01  0.17817186413E+02  0.51100000000E-03 0. -1.
        -11    1    4    4    0    0  0.35503814554E+01 -0.22261848187E+02 -0.23864688459E+02  0.32828622400E+02  0.51100000000E-03 0.  1.
         12    1    4    4    0    0 -0.77212897707E+00  0.21869055977E+01  0.29101681004E+01  0.37212655943E+01  0.00000000000E+00 0. -1.
</event>
<event>
 8    1  0.1247338E-006  0.9118800E+02  0.7816164E-02  0.1184000E+00
        -11   -1    0    0    0    0  0.00000000000E+00  0.00000000000E+00  0.45593999997E+02  0.45594000000E+02  0.51100000000E-03 0. -1.
         11   -1    0    0    0    0 -0.00000000000E+00 -0.00000000000E+00 -0.45593999997E+02  0.45594000000E+02  0.51100000000E-03 0.  1.
         23    2    1    2    0    0  0.00000000000E+00  0.00000000000E+00  0.00000000000E+00  0.91188000000E+02  0.91188000000E+02 0.  0.
    9900012    2    3    3    0    0 -0.14543531666E+02  0.22321189571E+02 -0.25417107894E+02  0.54367093019E+02  0.40000020156E+02 0.  0.
         12    1    3    3    0    0  0.14543531666E+02 -0.22321189571E+02  0.25417107894E+02  0.36820906981E+02  0.00000000000E+00 0. -1.
         11    1    4    4    0    0 -0.13252099486E+02  0.30927792721E+01 -0.28956310539E+02  0.31994551797E+02  0.51100000000E-03 0. -1.
        -11    1    4    4    0    0 -0.17978291797E+01  0.13532093958E+02 -0.26930333854E+01  0.13914100249E+02  0.51100000000E-03 0.  1.
         12    1    4    4    0    0  0.50639699965E+00  0.56963163401E+01  0.62322360300E+01  0.84584409734E+01  0.00000000000E+00 0. -1.
</event>
<event>
 8    1  0.1247338E-006  0.9118800E+02  0.7816164E-02  0.1184000E+00
        -11   -1    0    0    0    0  0.00000000000E+00  0.00000000000E+00  0.45593999997E+02  0.45594000000E+02  0.51100000000E-03 0. -1.
         11   -1    0    0    0    0 -0.00000000000E+00 -0.00000000000E+00 -0.45593999997E+02  0.45594000000E+02  0.51100000000E-03 0.  1.
         23    2    1    2    0    0  0.35527136788E-14  0.00000000000E+00  0.17763568394E-14  0.91188000000E+02  0.91188000000E+02 0.  0.
    9900012    2    3    3    0    0 -0.22180821954E+02 -0.27751742969E+02 -0.96763549800E+01  0.54367082765E+02  0.39999996779E+02 0.  0.
        -12    1    3    3    0    0  0.22180821954E+02  0.27751742969E+02  0.96763549800E+01  0.36820917235E+02  0.00000000000E+00 0.  1.
         11    1    4    4    0    0  0.58104287143E+01 -0.92799842693E+01  0.24947105170E+01  0.11229548998E+02  0.51100000000E-03 0.  1.
        -11    1    4    4    0    0 -0.10419482454E+02 -0.16613797091E+02  0.30118619303E+01  0.19840745473E+02  0.51100000000E-03 0. -1.
        -12    1    4    4    0    0 -0.17571768215E+02 -0.18579616088E+01 -0.15182927427E+02  0.23296788293E+02  0.00000000000E+00 0.  1.
</event>
<event>
 8    1  0.1247338E-006  0.9118800E+02  0.7816164E-02  0.1184000E+00
        -11   -1    0    0    0    0  0.00000000000E+00  0.00000000000E+00  0.45593999997E+02  0.45594000000E+02  0.51100000000E-03 0. -1.
         11   -1    0    0    0    0 -0.00000000000E+00 -0.00000000000E+00 -0.45593999997E+02  0.45594000000E+02  0.51100000000E-03 0.  1.
         23    2    1    2    0    0  0.00000000000E+00  0.00000000000E+00  0.00000000000E+00  0.91188000000E+02  0.91188000000E+02 0.  0.
    9900012    2    3    3    0    0 -0.32640353708E+02 -0.18581322542E+01  0.16939116653E+02  0.54367095358E+02  0.40000025487E+02 0.  0.
        -12    1    3    3    0    0  0.32640353708E+02  0.18581322542E+01 -0.16939116653E+02  0.36820904642E+02  0.00000000000E+00 0.  1.
         11    1    4    4    0    0 -0.11461766016E+02 -0.47875539386E+01  0.18199003536E+02  0.22033984725E+02  0.51100000000E-03 0. -1.
        -11    1    4    4    0    0 -0.80496397875E+01 -0.30244621923E+01  0.10611543543E+02  0.13658291580E+02  0.51100000000E-03 0.  1.
        -12    1    4    4    0    0 -0.13128947905E+02  0.59538838767E+01 -0.11871430425E+02  0.18674819053E+02  0.00000000000E+00 0.  1.
</event>
<event>
 8    1  0.1247338E-006  0.9118800E+02  0.7816164E-02  0.1184000E+00
        -11   -1    0    0    0    0  0.00000000000E+00  0.00000000000E+00  0.45593999997E+02  0.45594000000E+02  0.51100000000E-03 0.  1.
         11   -1    0    0    0    0 -0.00000000000E+00 -0.00000000000E+00 -0.45593999997E+02  0.45594000000E+02  0.51100000000E-03 0. -1.
         23    2    1    2    0    0 -0.71054273576E-14  0.17763568394E-14 -0.21094237468E-14  0.91188000000E+02  0.91188000000E+02 0.  0.
    9900012    2    3    3    0    0  0.34856510930E+02  0.11835093751E+02  0.85608688870E+00  0.54367099915E+02  0.40000035876E+02 0.  0.
         12    1    3    3    0    0 -0.34856510930E+02 -0.11835093751E+02 -0.85608688870E+00  0.36820900085E+02  0.00000000000E+00 0. -1.
         11    1    4    4    0    0  0.19073409029E+02 -0.38874899205E+01 -0.88638439647E+01  0.21388670832E+02  0.51100000000E-03 0.  1.
        -11    1    4    4    0    0 -0.77635304070E+00  0.12222589859E+02 -0.19753601730E+01  0.12405501803E+02  0.51100000000E-03 0. -1.
         12    1    4    4    0    0  0.16559454942E+02  0.34999938118E+01  0.11695291026E+02  0.20572927279E+02  0.00000000000E+00 0. -1.
</event>
<event>
 8    1  0.1247338E-006  0.9118800E+02  0.7816164E-02  0.1184000E+00
        -11   -1    0    0    0    0  0.00000000000E+00  0.00000000000E+00  0.45593999997E+02  0.45594000000E+02  0.51100000000E-03 0. -1.
         11   -1    0    0    0    0 -0.00000000000E+00 -0.00000000000E+00 -0.45593999997E+02  0.45594000000E+02  0.51100000000E-03 0.  1.
         23    2    1    2    0    0 -0.35527136788E-14 -0.35527136788E-14  0.35527136788E-14  0.91188000000E+02  0.91188000000E+02 0.  0.
    9900012    2    3    3    0    0 -0.19161398140E+02 -0.16412331014E+02  0.26818949849E+02  0.54367083947E+02  0.39999999475E+02 0.  0.
        -12    1    3    3    0    0  0.19161398140E+02  0.16412331014E+02 -0.26818949849E+02  0.36820916053E+02  0.00000000000E+00 0.  1.
         11    1    4    4    0    0 -0.13511804957E+02 -0.25383710955E+01 -0.35748783838E+01  0.14205349581E+02  0.51100000000E-03 0. -1.
        -11    1    4    4    0    0 -0.60007226857E+01  0.15700190041E+01  0.15402700371E+00  0.62046238406E+01  0.51100000000E-03 0.  1.
        -12    1    4    4    0    0  0.35112950278E+00 -0.15443978922E+02  0.30239801229E+02  0.33957110525E+02  0.00000000000E+00 0.  1.
</event>
<event>
 8    1  0.1247338E-006  0.9118800E+02  0.7816164E-02  0.1184000E+00
        -11   -1    0    0    0    0  0.00000000000E+00  0.00000000000E+00  0.45593999997E+02  0.45594000000E+02  0.51100000000E-03 0.  1.
         11   -1    0    0    0    0 -0.00000000000E+00 -0.00000000000E+00 -0.45593999997E+02  0.45594000000E+02  0.51100000000E-03 0. -1.
         23    2    1    2    0    0 -0.55511151231E-15 -0.88817841970E-15  0.00000000000E+00  0.91188000000E+02  0.91188000000E+02 0.  0.
    9900012    2    3    3    0    0 -0.38317525446E+00  0.66018040688E+01  0.36222220444E+02  0.54367083469E+02  0.39999998385E+02 0.  0.
         12    1    3    3    0    0  0.38317525446E+00 -0.66018040688E+01 -0.36222220444E+02  0.36820916531E+02  0.00000000000E+00 0. -1.
         11    1    4    4    0    0  0.39379068230E+01 -0.26354106167E+01  0.28132052437E+01  0.55105919164E+01  0.51100000000E-03 0.  1.
        -11    1    4    4    0    0 -0.40701277186E+01  0.76995944679E+01  0.40587246992E+02  0.41511134811E+02  0.51100000000E-03 0. -1.
         12    1    4    4    0    0 -0.25095435883E+00  0.15376202176E+01 -0.71782317912E+01  0.73453567423E+01  0.00000000000E+00 0. -1.
</event>
<event>
 8    1  0.1247338E-006  0.9118800E+02  0.7816164E-02  0.1184000E+00
        -11   -1    0    0    0    0  0.00000000000E+00  0.00000000000E+00  0.45593999997E+02  0.45594000000E+02  0.51100000000E-03 0. -1.
         11   -1    0    0    0    0 -0.00000000000E+00 -0.00000000000E+00 -0.45593999997E+02  0.45594000000E+02  0.51100000000E-03 0.  1.
         23    2    1    2    0    0  0.17763568394E-14 -0.88817841970E-15  0.00000000000E+00  0.91188000000E+02  0.91188000000E+02 0.  0.
    9900012    2    3    3    0    0  0.97438370393E+01  0.78557771935E+01 -0.34628375668E+02  0.54367082073E+02  0.39999995203E+02 0.  0.
         12    1    3    3    0    0 -0.97438370393E+01 -0.78557771935E+01  0.34628375668E+02  0.36820917927E+02  0.00000000000E+00 0. -1.
         11    1    4    4    0    0 -0.23796949276E+01  0.33530585673E+01 -0.11349907719E+02  0.12071717160E+02  0.51100000000E-03 0. -1.
        -11    1    4    4    0    0  0.17056422723E+02  0.14613425271E+02 -0.21139396612E+02  0.30843927176E+02  0.51100000000E-03 0.  1.
         12    1    4    4    0    0 -0.49328907565E+01 -0.10110706645E+02 -0.21390713372E+01  0.11451437737E+02  0.00000000000E+00 0. -1.
</event>
<event>
 8    1  0.1247338E-006  0.9118800E+02  0.7816164E-02  0.1184000E+00
        -11   -1    0    0    0    0  0.00000000000E+00  0.00000000000E+00  0.45593999997E+02  0.45594000000E+02  0.51100000000E-03 0. -1.
         11   -1    0    0    0    0 -0.00000000000E+00 -0.00000000000E+00 -0.45593999997E+02  0.45594000000E+02  0.51100000000E-03 0.  1.
         23    2    1    2    0    0  0.00000000000E+00  0.35527136788E-14  0.00000000000E+00  0.91188000000E+02  0.91188000000E+02 0.  0.
    9900012    2    3    3    0    0 -0.19920063508E+02  0.24801126925E+02 -0.18543877162E+02  0.54367079220E+02  0.39999988698E+02 0.  0.
         12    1    3    3    0    0  0.19920063508E+02 -0.24801126925E+02  0.18543877162E+02  0.36820920780E+02  0.00000000000E+00 0. -1.
         11    1    4    4    0    0 -0.12357244146E+02  0.33249289523E+01  0.43894725387E+01  0.13528640170E+02  0.51100000000E-03 0. -1.
        -11    1    4    4    0    0 -0.10050099188E+02  0.13363349136E+01  0.10250192873E+00  0.10139072522E+02  0.51100000000E-03 0.  1.
         12    1    4    4    0    0  0.24872798261E+01  0.20139863059E+02 -0.23035851629E+02  0.30699366528E+02  0.00000000000E+00 0. -1.
</event>
<event>
 8    1  0.1247338E-006  0.9118800E+02  0.7816164E-02  0.1184000E+00
        -11   -1    0    0    0    0  0.00000000000E+00  0.00000000000E+00  0.45593999997E+02  0.45594000000E+02  0.51100000000E-03 0. -1.
         11   -1    0    0    0    0 -0.00000000000E+00 -0.00000000000E+00 -0.45593999997E+02  0.45594000000E+02  0.51100000000E-03 0.  1.
         23    2    1    2    0    0  0.00000000000E+00  0.88817841970E-15 -0.17763568394E-14  0.91188000000E+02  0.91188000000E+02 0.  0.
    9900012    2    3    3    0    0 -0.36200115273E+02  0.45533432137E+01  0.49597834355E+01  0.54367072093E+02  0.39999972451E+02 0.  0.
         12    1    3    3    0    0  0.36200115273E+02 -0.45533432137E+01 -0.49597834355E+01  0.36820927907E+02  0.00000000000E+00 0. -1.
         11    1    4    4    0    0 -0.17381724478E+01  0.47218903022E+00  0.10739067212E+02  0.10889066571E+02  0.51100000000E-03 0. -1.
        -11    1    4    4    0    0 -0.30848873932E+02  0.26680228357E+01 -0.14306789210E+02  0.34109464764E+02  0.51100000000E-03 0.  1.
        -12    1    4    4    0    0 -0.36130688929E+01  0.14131313478E+01  0.85275054329E+01  0.93685407583E+01  0.00000000000E+00 0.  1.
</event>
<event>
 8    1  0.1247338E-006  0.9118800E+02  0.7816164E-02  0.1184000E+00
        -11   -1    0    0    0    0  0.00000000000E+00  0.00000000000E+00  0.45593999997E+02  0.45594000000E+02  0.51100000000E-03 0.  1.
         11   -1    0    0    0    0 -0.00000000000E+00 -0.00000000000E+00 -0.45593999997E+02  0.45594000000E+02  0.51100000000E-03 0. -1.
         23    2    1    2    0    0  0.00000000000E+00  0.35527136788E-14  0.00000000000E+00  0.91188000000E+02  0.91188000000E+02 0.  0.
    9900012    2    3    3    0    0  0.19290968673E+02 -0.30697838161E+02  0.64250141306E+01  0.54367088188E+02  0.40000009141E+02 0.  0.
         12    1    3    3    0    0 -0.19290968673E+02  0.30697838161E+02 -0.64250141306E+01  0.36820911812E+02  0.00000000000E+00 0. -1.
         11    1    4    4    0    0  0.16091707596E+02 -0.23237950695E+02 -0.11642280572E+01  0.28289588776E+02  0.51100000000E-03 0. -1.
        -11    1    4    4    0    0  0.87396203186E+01 -0.12100345748E+02  0.10538574860E+02  0.18271860629E+02  0.51100000000E-03 0.  1.
         12    1    4    4    0    0 -0.55403592417E+01  0.46404582816E+01 -0.29493326719E+01  0.78056387823E+01  0.00000000000E+00 0. -1.
</event>
<event>
 8    1  0.1247338E-006  0.9118800E+02  0.7816164E-02  0.1184000E+00
        -11   -1    0    0    0    0  0.00000000000E+00  0.00000000000E+00  0.45593999997E+02  0.45594000000E+02  0.51100000000E-03 0.  1.
         11   -1    0    0    0    0 -0.00000000000E+00 -0.00000000000E+00 -0.45593999997E+02  0.45594000000E+02  0.51100000000E-03 0. -1.
         23    2    1    2    0    0  0.71054273576E-14  0.17763568394E-14  0.00000000000E+00  0.91188000000E+02  0.91188000000E+02 0.  0.
    9900012    2    3    3    0    0  0.34256115690E+02  0.68839212128E+01  0.11615403282E+02  0.54366981182E+02  0.39999765199E+02 0.  0.
         12    1    3    3    0    0 -0.34256115690E+02 -0.68839212128E+01 -0.11615403282E+02  0.36821018818E+02  0.00000000000E+00 0. -1.
         11    1    4    4    0    0 -0.34801708839E+01 -0.10551439425E+02  0.91276826326E+00  0.11147986791E+02  0.51100000000E-03 0. -1.
        -11    1    4    4    0    0  0.27469518538E+02  0.14370089828E+02  0.62983967176E+01  0.31634533849E+02  0.51100000000E-03 0.  1.
         12    1    4    4    0    0  0.10266768036E+02  0.30652708099E+01  0.44042383011E+01  0.11584460543E+02  0.00000000000E+00 0. -1.
</event>
<event>
 8    1  0.1247338E-006  0.9118800E+02  0.7816164E-02  0.1184000E+00
        -11   -1    0    0    0    0  0.00000000000E+00  0.00000000000E+00  0.45593999997E+02  0.45594000000E+02  0.51100000000E-03 0.  1.
         11   -1    0    0    0    0 -0.00000000000E+00 -0.00000000000E+00 -0.45593999997E+02  0.45594000000E+02  0.51100000000E-03 0. -1.
         23    2    1    2    0    0  0.00000000000E+00 -0.88817841970E-15 -0.71054273576E-14  0.91188000000E+02  0.91188000000E+02 0.  0.
    9900012    2    3    3    0    0  0.10169454765E+02  0.36625006913E+01  0.35198759799E+02  0.54367022108E+02  0.39999858500E+02 0.  0.
         12    1    3    3    0    0 -0.10169454765E+02 -0.36625006913E+01 -0.35198759799E+02  0.36820977892E+02  0.00000000000E+00 0. -1.
         11    1    4    4    0    0  0.12347116926E+02 -0.55428089723E+01  0.41368077796E+01  0.14152286266E+02  0.51100000000E-03 0. -1.
        -11    1    4    4    0    0 -0.41140089281E+01  0.57806862675E+00  0.31096511407E+02  0.31372794819E+02  0.51100000000E-03 0.  1.
         12    1    4    4    0    0  0.19363467676E+01  0.86272410369E+01 -0.34559387470E-01  0.88419410236E+01  0.00000000000E+00 0. -1.
</event>
<event>
 8    1  0.1247338E-006  0.9118800E+02  0.7816164E-02  0.1184000E+00
        -11   -1    0    0    0    0  0.00000000000E+00  0.00000000000E+00  0.45593999997E+02  0.45594000000E+02  0.51100000000E-03 0.  1.
         11   -1    0    0    0    0 -0.00000000000E+00 -0.00000000000E+00 -0.45593999997E+02  0.45594000000E+02  0.51100000000E-03 0. -1.
         23    2    1    2    0    0  0.00000000000E+00  0.00000000000E+00 -0.88817841970E-15  0.91188000000E+02  0.91188000000E+02 0.  0.
    9900012    2    3    3    0    0  0.30775850478E+02  0.19110742329E+02  0.65883214406E+01  0.54367089848E+02  0.40000012926E+02 0.  0.
         12    1    3    3    0    0 -0.30775850478E+02 -0.19110742329E+02 -0.65883214406E+01  0.36820910152E+02  0.00000000000E+00 0. -1.
         11    1    4    4    0    0  0.32205860627E+01  0.34460502802E+01  0.10355304316E+02  0.11378917561E+02  0.51100000000E-03 0. -1.
        -11    1    4    4    0    0  0.13390208996E+02  0.17353129116E+02  0.91423061230E+01  0.23748906261E+02  0.51100000000E-03 0.  1.
         12    1    4    4    0    0  0.14165055419E+02 -0.16884370667E+01 -0.12909288999E+02  0.19239266026E+02  0.00000000000E+00 0. -1.
</event>
<event>
 8    1  0.1247338E-006  0.9118800E+02  0.7816164E-02  0.1184000E+00
        -11   -1    0    0    0    0  0.00000000000E+00  0.00000000000E+00  0.45593999997E+02  0.45594000000E+02  0.51100000000E-03 0.  1.
         11   -1    0    0    0    0 -0.00000000000E+00 -0.00000000000E+00 -0.45593999997E+02  0.45594000000E+02  0.51100000000E-03 0. -1.
         23    2    1    2    0    0  0.88817841970E-15  0.00000000000E+00  0.00000000000E+00  0.91188000000E+02  0.91188000000E+02 0.  0.
    9900012    2    3    3    0    0  0.34985564981E+01  0.34809396044E+02  0.11482268065E+02  0.54367130504E+02  0.40000105610E+02 0.  0.
        -12    1    3    3    0    0 -0.34985564981E+01 -0.34809396044E+02 -0.11482268065E+02  0.36820869496E+02  0.00000000000E+00 0.  1.
         11    1    4    4    0    0 -0.73258070388E+01  0.28641387028E+02  0.19248184367E+01  0.29626026158E+02  0.51100000000E-03 0. -1.
        -11    1    4    4    0    0 -0.59454683189E+00  0.17017599447E+01 -0.52297630916E+01  0.55317171927E+01  0.51100000000E-03 0.  1.
         12    1    4    4    0    0  0.11418910369E+02  0.44662490720E+01  0.14787212720E+02  0.19209387153E+02  0.00000000000E+00 0. -1.
</event>
<event>
 8    1  0.1247338E-006  0.9118800E+02  0.7816164E-02  0.1184000E+00
        -11   -1    0    0    0    0  0.00000000000E+00  0.00000000000E+00  0.45593999997E+02  0.45594000000E+02  0.51100000000E-03 0. -1.
         11   -1    0    0    0    0 -0.00000000000E+00 -0.00000000000E+00 -0.45593999997E+02  0.45594000000E+02  0.51100000000E-03 0.  1.
         23    2    1    2    0    0  0.00000000000E+00  0.00000000000E+00  0.00000000000E+00  0.91188000000E+02  0.91188000000E+02 0.  0.
    9900012    2    3    3    0    0 -0.12947330582E+02  0.26382453537E+02 -0.22183613323E+02  0.54367083065E+02  0.39999997464E+02 0.  0.
         12    1    3    3    0    0  0.12947330582E+02 -0.26382453537E+02  0.22183613323E+02  0.36820916935E+02  0.00000000000E+00 0. -1.
         11    1    4    4    0    0 -0.19672731537E+02  0.15583361765E+02 -0.18693402980E+02  0.31293782853E+02  0.51100000000E-03 0. -1.
        -11    1    4    4    0    0  0.62437008895E+01  0.20760138045E+00  0.61332867980E+01  0.87546619774E+01  0.51100000000E-03 0.  1.
        -12    1    4    4    0    0  0.48170006567E+00  0.10591490392E+02 -0.96234971420E+01  0.14318638235E+02  0.00000000000E+00 0.  1.
</event>
<event>
 8    1  0.1247338E-006  0.9118800E+02  0.7816164E-02  0.1184000E+00
        -11   -1    0    0    0    0  0.00000000000E+00  0.00000000000E+00  0.45593999997E+02  0.45594000000E+02  0.51100000000E-03 0. -1.
         11   -1    0    0    0    0 -0.00000000000E+00 -0.00000000000E+00 -0.45593999997E+02  0.45594000000E+02  0.51100000000E-03 0.  1.
         23    2    1    2    0    0  0.35527136788E-14  0.00000000000E+00 -0.35527136788E-14  0.91188000000E+02  0.91188000000E+02 0.  0.
    9900012    2    3    3    0    0  0.10296418922E+02  0.18324141560E+02  0.30232282489E+02  0.54367064230E+02  0.39999954525E+02 0.  0.
        -12    1    3    3    0    0 -0.10296418922E+02 -0.18324141560E+02 -0.30232282489E+02  0.36820935770E+02  0.00000000000E+00 0.  1.
         11    1    4    4    0    0 -0.13101056951E+02  0.10763140105E+02  0.16970994024E+02  0.23989529311E+02  0.51100000000E-03 0.  1.
        -11    1    4    4    0    0  0.24760903608E+02  0.77579774208E+01  0.12467539415E+02  0.28787637980E+02  0.51100000000E-03 0. -1.
         12    1    4    4    0    0 -0.13634277350E+01 -0.19697596615E+00  0.79374904983E+00  0.15898969382E+01  0.00000000000E+00 0. -1.
</event>
<event>
 8    1  0.1247338E-006  0.9118800E+02  0.7816164E-02  0.1184000E+00
        -11   -1    0    0    0    0  0.00000000000E+00  0.00000000000E+00  0.45593999997E+02  0.45594000000E+02  0.51100000000E-03 0.  1.
         11   -1    0    0    0    0 -0.00000000000E+00 -0.00000000000E+00 -0.45593999997E+02  0.45594000000E+02  0.51100000000E-03 0. -1.
         23    2    1    2    0    0  0.00000000000E+00  0.88817841970E-15  0.00000000000E+00  0.91188000000E+02  0.91188000000E+02 0.  0.
    9900012    2    3    3    0    0 -0.95943915457E+01  0.60040927182E+01  0.35038239785E+02  0.54367085756E+02  0.40000003599E+02 0.  0.
         12    1    3    3    0    0  0.95943915457E+01 -0.60040927182E+01 -0.35038239785E+02  0.36820914244E+02  0.00000000000E+00 0. -1.
         11    1    4    4    0    0 -0.15932983131E+02  0.43005107620E+01  0.13166191638E+02  0.21111677972E+02  0.51100000000E-03 0.  1.
        -11    1    4    4    0    0  0.96960867419E+00 -0.10852751962E+02  0.64740797710E+01  0.12674228784E+02  0.51100000000E-03 0. -1.
        -12    1    4    4    0    0  0.53689829114E+01  0.12556333918E+02  0.15397968375E+02  0.20581179001E+02  0.00000000000E+00 0.  1.
</event>
<event>
 8    1  0.1247338E-006  0.9118800E+02  0.7816164E-02  0.1184000E+00
        -11   -1    0    0    0    0  0.00000000000E+00  0.00000000000E+00  0.45593999997E+02  0.45594000000E+02  0.51100000000E-03 0. -1.
         11   -1    0    0    0    0 -0.00000000000E+00 -0.00000000000E+00 -0.45593999997E+02  0.45594000000E+02  0.51100000000E-03 0.  1.
         23    2    1    2    0    0  0.35527136788E-14  0.17763568394E-14  0.00000000000E+00  0.91188000000E+02  0.91188000000E+02 0.  0.
    9900012    2    3    3    0    0 -0.28895760723E+02 -0.15835978204E+02 -0.16432795949E+02  0.54367082356E+02  0.39999995848E+02 0.  0.
         12    1    3    3    0    0  0.28895760723E+02  0.15835978204E+02  0.16432795949E+02  0.36820917644E+02  0.00000000000E+00 0. -1.
         11    1    4    4    0    0 -0.43616479852E+01 -0.16550898009E+02 -0.77289099135E+01  0.18780102416E+02  0.51100000000E-03 0. -1.
        -11    1    4    4    0    0 -0.76100881107E+01 -0.10845372945E+02 -0.70933897710E+01  0.15028364318E+02  0.51100000000E-03 0.  1.
         12    1    4    4    0    0 -0.16924024627E+02  0.11560292751E+02 -0.16104962646E+01  0.20558615622E+02  0.00000000000E+00 0. -1.
</event>
<event>
 8    1  0.1247338E-006  0.9118800E+02  0.7816164E-02  0.1184000E+00
        -11   -1    0    0    0    0  0.00000000000E+00  0.00000000000E+00  0.45593999997E+02  0.45594000000E+02  0.51100000000E-03 0.  1.
         11   -1    0    0    0    0 -0.00000000000E+00 -0.00000000000E+00 -0.45593999997E+02  0.45594000000E+02  0.51100000000E-03 0. -1.
         23    2    1    2    0    0  0.88817841970E-15  0.00000000000E+00  0.35527136788E-14  0.91188000000E+02  0.91188000000E+02 0.  0.
    9900012    2    3    3    0    0  0.71039628218E+01 -0.19256185194E+02  0.30569798133E+02  0.54367088633E+02  0.40000010157E+02 0.  0.
         12    1    3    3    0    0 -0.71039628218E+01  0.19256185194E+02 -0.30569798133E+02  0.36820911367E+02  0.00000000000E+00 0. -1.
         11    1    4    4    0    0 -0.87388276696E+01 -0.34590506641E+01 -0.91861804413E+00  0.94433045015E+01  0.51100000000E-03 0. -1.
        -11    1    4    4    0    0 -0.53848634058E+01 -0.67044756840E+00  0.26101855866E+01  0.60215714643E+01  0.51100000000E-03 0.  1.
        -12    1    4    4    0    0  0.21227653897E+02 -0.15126686961E+02  0.28878230590E+02  0.38902212668E+02  0.00000000000E+00 0.  1.
</event>
<event>
 8    1  0.1247338E-006  0.9118800E+02  0.7816164E-02  0.1184000E+00
        -11   -1    0    0    0    0  0.00000000000E+00  0.00000000000E+00  0.45593999997E+02  0.45594000000E+02  0.51100000000E-03 0. -1.
         11   -1    0    0    0    0 -0.00000000000E+00 -0.00000000000E+00 -0.45593999997E+02  0.45594000000E+02  0.51100000000E-03 0.  1.
         23    2    1    2    0    0  0.00000000000E+00 -0.71054273576E-14 -0.17763568394E-14  0.91188000000E+02  0.91188000000E+02 0.  0.
    9900012    2    3    3    0    0  0.11547012686E+02 -0.34343370970E+02  0.65558695756E+01  0.54367081252E+02  0.39999993330E+02 0.  0.
         12    1    3    3    0    0 -0.11547012686E+02  0.34343370970E+02 -0.65558695756E+01  0.36820918748E+02  0.00000000000E+00 0. -1.
         11    1    4    4    0    0  0.75307293272E+01 -0.39150888153E+01 -0.79492812821E+01  0.11628881193E+02  0.51100000000E-03 0. -1.
        -11    1    4    4    0    0  0.83254154938E+01 -0.18909979618E+02 -0.34778711191E+01  0.20952218500E+02  0.51100000000E-03 0.  1.
         12    1    4    4    0    0 -0.43091321349E+01 -0.11518302537E+02  0.17983021977E+02  0.21785981559E+02  0.00000000000E+00 0. -1.
</event>
<event>
 8    1  0.1247338E-006  0.9118800E+02  0.7816164E-02  0.1184000E+00
        -11   -1    0    0    0    0  0.00000000000E+00  0.00000000000E+00  0.45593999997E+02  0.45594000000E+02  0.51100000000E-03 0. -1.
         11   -1    0    0    0    0 -0.00000000000E+00 -0.00000000000E+00 -0.45593999997E+02  0.45594000000E+02  0.51100000000E-03 0.  1.
         23    2    1    2    0    0 -0.35527136788E-14  0.00000000000E+00  0.00000000000E+00  0.91188000000E+02  0.91188000000E+02 0.  0.
    9900012    2    3    3    0    0 -0.18922659206E+02 -0.90648198945E+01 -0.30257903532E+02  0.54367099450E+02  0.40000034817E+02 0.  0.
         12    1    3    3    0    0  0.18922659206E+02  0.90648198945E+01  0.30257903532E+02  0.36820900550E+02  0.00000000000E+00 0. -1.
         11    1    4    4    0    0 -0.51965478433E+01 -0.23548941225E+01  0.49443252396E+01  0.75495687395E+01  0.51100000000E-03 0. -1.
        -11    1    4    4    0    0 -0.17682322081E+02 -0.11290622946E+02 -0.15166554840E+02  0.25887585184E+02  0.51100000000E-03 0.  1.
        -12    1    4    4    0    0  0.39562107182E+01  0.45806971743E+01 -0.20035673932E+02  0.20929945527E+02  0.00000000000E+00 0.  1.
</event>
<event>
 8    1  0.1247338E-006  0.9118800E+02  0.7816164E-02  0.1184000E+00
        -11   -1    0    0    0    0  0.00000000000E+00  0.00000000000E+00  0.45593999997E+02  0.45594000000E+02  0.51100000000E-03 0. -1.
         11   -1    0    0    0    0 -0.00000000000E+00 -0.00000000000E+00 -0.45593999997E+02  0.45594000000E+02  0.51100000000E-03 0.  1.
         23    2    1    2    0    0 -0.88817841970E-15  0.00000000000E+00  0.35527136788E-14  0.91188000000E+02  0.91188000000E+02 0.  0.
    9900012    2    3    3    0    0 -0.61318813298E+01 -0.17416309660E+02 -0.31856671349E+02  0.54367145579E+02  0.40000139977E+02 0.  0.
         12    1    3    3    0    0  0.61318813298E+01  0.17416309660E+02  0.31856671349E+02  0.36820854421E+02  0.00000000000E+00 0. -1.
         11    1    4    4    0    0 -0.91879471255E+01 -0.49905386158E+01  0.30348772231E+01  0.10887347155E+02  0.51100000000E-03 0. -1.
        -11    1    4    4    0    0  0.76126639042E+01  0.14420292917E+01 -0.24132979769E+02  0.25346258363E+02  0.51100000000E-03 0.  1.
         12    1    4    4    0    0 -0.45565981085E+01 -0.13867800336E+02 -0.10758568803E+02  0.18133540062E+02  0.00000000000E+00 0. -1.
</event>
<event>
 8    1  0.1247338E-006  0.9118800E+02  0.7816164E-02  0.1184000E+00
        -11   -1    0    0    0    0  0.00000000000E+00  0.00000000000E+00  0.45593999997E+02  0.45594000000E+02  0.51100000000E-03 0. -1.
         11   -1    0    0    0    0 -0.00000000000E+00 -0.00000000000E+00 -0.45593999997E+02  0.45594000000E+02  0.51100000000E-03 0.  1.
         23    2    1    2    0    0 -0.35527136788E-14  0.35527136788E-14 -0.53290705182E-14  0.91188000000E+02  0.91188000000E+02 0.  0.
    9900012    2    3    3    0    0  0.25643795401E+02 -0.24195989520E+02  0.10617416641E+02  0.54367086275E+02  0.40000004782E+02 0.  0.
         12    1    3    3    0    0 -0.25643795401E+02  0.24195989520E+02 -0.10617416641E+02  0.36820913725E+02  0.00000000000E+00 0. -1.
         11    1    4    4    0    0  0.10365361328E+02  0.53546716061E+01 -0.78539101638E+01  0.14064036711E+02  0.51100000000E-03 0. -1.
        -11    1    4    4    0    0  0.15770544051E+02 -0.22602011641E+02  0.18746521251E+02  0.33331562357E+02  0.51100000000E-03 0.  1.
         12    1    4    4    0    0 -0.49210997907E+00 -0.69486494856E+01 -0.27519444607E+00  0.69714872078E+01  0.00000000000E+00 0. -1.
</event>
<event>
 8    1  0.1247338E-006  0.9118800E+02  0.7816164E-02  0.1184000E+00
        -11   -1    0    0    0    0  0.00000000000E+00  0.00000000000E+00  0.45593999997E+02  0.45594000000E+02  0.51100000000E-03 0.  1.
         11   -1    0    0    0    0 -0.00000000000E+00 -0.00000000000E+00 -0.45593999997E+02  0.45594000000E+02  0.51100000000E-03 0. -1.
         23    2    1    2    0    0  0.00000000000E+00  0.00000000000E+00  0.71054273576E-14  0.91188000000E+02  0.91188000000E+02 0.  0.
    9900012    2    3    3    0    0 -0.13593624755E+02 -0.87981519765E+01 -0.33069414721E+02  0.54367077929E+02  0.39999985754E+02 0.  0.
        -12    1    3    3    0    0  0.13593624755E+02  0.87981519765E+01  0.33069414721E+02  0.36820922071E+02  0.00000000000E+00 0.  1.
         11    1    4    4    0    0 -0.43788479117E+01 -0.13965683722E+01  0.44090023187E+01  0.63689884565E+01  0.51100000000E-03 0. -1.
        -11    1    4    4    0    0 -0.55682723117E+01  0.10073837390E+02 -0.10097517188E+02  0.15311685404E+02  0.51100000000E-03 0.  1.
         12    1    4    4    0    0 -0.36465045318E+01 -0.17475420994E+02 -0.27380899852E+02  0.32686404068E+02  0.00000000000E+00 0. -1.
</event>
<event>
 8    1  0.1247338E-006  0.9118800E+02  0.7816164E-02  0.1184000E+00
        -11   -1    0    0    0    0  0.00000000000E+00  0.00000000000E+00  0.45593999997E+02  0.45594000000E+02  0.51100000000E-03 0.  1.
         11   -1    0    0    0    0 -0.00000000000E+00 -0.00000000000E+00 -0.45593999997E+02  0.45594000000E+02  0.51100000000E-03 0. -1.
         23    2    1    2    0    0  0.00000000000E+00 -0.35527136788E-14  0.17763568394E-14  0.91188000000E+02  0.91188000000E+02 0.  0.
    9900012    2    3    3    0    0 -0.23776314418E+02 -0.24666627468E+02 -0.13491622234E+02  0.54367088707E+02  0.40000010325E+02 0.  0.
        -12    1    3    3    0    0  0.23776314418E+02  0.24666627468E+02  0.13491622234E+02  0.36820911293E+02  0.00000000000E+00 0.  1.
         11    1    4    4    0    0 -0.32814738779E+01 -0.18134381352E+02 -0.10940930032E+02  0.21431934305E+02  0.51100000000E-03 0. -1.
        -11    1    4    4    0    0 -0.24056352731E+02 -0.69447167403E+00  0.28320056387E+01  0.24232429796E+02  0.51100000000E-03 0.  1.
        -12    1    4    4    0    0  0.35615121906E+01 -0.58377744416E+01 -0.53826978412E+01  0.87027246058E+01  0.00000000000E+00 0.  1.
</event>
<event>
 8    1  0.1247338E-006  0.9118800E+02  0.7816164E-02  0.1184000E+00
        -11   -1    0    0    0    0  0.00000000000E+00  0.00000000000E+00  0.45593999997E+02  0.45594000000E+02  0.51100000000E-03 0. -1.
         11   -1    0    0    0    0 -0.00000000000E+00 -0.00000000000E+00 -0.45593999997E+02  0.45594000000E+02  0.51100000000E-03 0.  1.
         23    2    1    2    0    0  0.00000000000E+00 -0.35527136788E-14  0.00000000000E+00  0.91188000000E+02  0.91188000000E+02 0.  0.
    9900012    2    3    3    0    0  0.11956004432E+02 -0.20686309994E+02 -0.28016266453E+02  0.54367073218E+02  0.39999975016E+02 0.  0.
         12    1    3    3    0    0 -0.11956004432E+02  0.20686309994E+02  0.28016266453E+02  0.36820926782E+02  0.00000000000E+00 0. -1.
         11    1    4    4    0    0  0.49066240792E+01 -0.87500852442E+01  0.87919826490E+01  0.13339336970E+02  0.51100000000E-03 0. -1.
        -11    1    4    4    0    0  0.61477292640E+01 -0.67331309097E+00 -0.18573833989E+02  0.19576394840E+02  0.51100000000E-03 0.  1.
        -12    1    4    4    0    0  0.90165108839E+00 -0.11262911659E+02 -0.18234415112E+02  0.21451341408E+02  0.00000000000E+00 0.  1.
</event>
<event>
 8    1  0.1247338E-006  0.9118800E+02  0.7816164E-02  0.1184000E+00
        -11   -1    0    0    0    0  0.00000000000E+00  0.00000000000E+00  0.45593999997E+02  0.45594000000E+02  0.51100000000E-03 0. -1.
         11   -1    0    0    0    0 -0.00000000000E+00 -0.00000000000E+00 -0.45593999997E+02  0.45594000000E+02  0.51100000000E-03 0.  1.
         23    2    1    2    0    0  0.66613381478E-15  0.35527136788E-14  0.00000000000E+00  0.91188000000E+02  0.91188000000E+02 0.  0.
    9900012    2    3    3    0    0 -0.14366515817E+01  0.29828087625E+02 -0.21540687495E+02  0.54367082075E+02  0.39999995206E+02 0.  0.
         12    1    3    3    0    0  0.14366515817E+01 -0.29828087625E+02  0.21540687495E+02  0.36820917925E+02  0.00000000000E+00 0. -1.
         11    1    4    4    0    0 -0.10178230977E+02  0.88344733558E+01 -0.18073118769E+02  0.22545108729E+02  0.51100000000E-03 0. -1.
        -11    1    4    4    0    0  0.29151422134E+01  0.91218181262E+01 -0.12544605294E+02  0.15782038597E+02  0.51100000000E-03 0.  1.
         12    1    4    4    0    0  0.58264371818E+01  0.11871796143E+02  0.90770365679E+01  0.16039934749E+02  0.00000000000E+00 0. -1.
</event>
<event>
 8    1  0.1247338E-006  0.9118800E+02  0.7816164E-02  0.1184000E+00
        -11   -1    0    0    0    0  0.00000000000E+00  0.00000000000E+00  0.45593999997E+02  0.45594000000E+02  0.51100000000E-03 0. -1.
         11   -1    0    0    0    0 -0.00000000000E+00 -0.00000000000E+00 -0.45593999997E+02  0.45594000000E+02  0.51100000000E-03 0.  1.
         23    2    1    2    0    0  0.00000000000E+00  0.00000000000E+00  0.00000000000E+00  0.91188000000E+02  0.91188000000E+02 0.  0.
    9900012    2    3    3    0    0  0.20231895598E+02 -0.28744397667E+02  0.10964038971E+02  0.54367080032E+02  0.39999990550E+02 0.  0.
        -12    1    3    3    0    0 -0.20231895598E+02  0.28744397667E+02 -0.10964038971E+02  0.36820919968E+02  0.00000000000E+00 0.  1.
         11    1    4    4    0    0  0.88257550229E+01 -0.25966900748E+02  0.20364232734E+02  0.34159564712E+02  0.51100000000E-03 0. -1.
        -11    1    4    4    0    0  0.69624458603E+01 -0.72014967392E+01 -0.15113657706E+01  0.10130223808E+02  0.51100000000E-03 0.  1.
         12    1    4    4    0    0  0.44436947152E+01  0.44239998202E+01 -0.78888279931E+01  0.10077291513E+02  0.00000000000E+00 0. -1.
</event>
<event>
 8    1  0.1247338E-006  0.9118800E+02  0.7816164E-02  0.1184000E+00
        -11   -1    0    0    0    0  0.00000000000E+00  0.00000000000E+00  0.45593999997E+02  0.45594000000E+02  0.51100000000E-03 0. -1.
         11   -1    0    0    0    0 -0.00000000000E+00 -0.00000000000E+00 -0.45593999997E+02  0.45594000000E+02  0.51100000000E-03 0.  1.
         23    2    1    2    0    0  0.88817841970E-15 -0.71054273576E-14  0.00000000000E+00  0.91188000000E+02  0.91188000000E+02 0.  0.
    9900012    2    3    3    0    0  0.54176404062E+01 -0.31867722863E+02  0.17631690721E+02  0.54367094176E+02  0.40000022793E+02 0.  0.
        -12    1    3    3    0    0 -0.54176404062E+01  0.31867722863E+02 -0.17631690721E+02  0.36820905824E+02  0.00000000000E+00 0.  1.
         11    1    4    4    0    0 -0.75318735535E+01 -0.36184655944E+01  0.60305749888E+01  0.10304865232E+02  0.51100000000E-03 0. -1.
        -11    1    4    4    0    0  0.11092747091E+02 -0.92288078442E+01  0.18748513422E+02  0.23658543659E+02  0.51100000000E-03 0.  1.
         12    1    4    4    0    0  0.18567668691E+01 -0.19020449424E+02 -0.71473976901E+01  0.20403685286E+02  0.00000000000E+00 0. -1.
</event>
<event>
 8    1  0.1247338E-006  0.9118800E+02  0.7816164E-02  0.1184000E+00
        -11   -1    0    0    0    0  0.00000000000E+00  0.00000000000E+00  0.45593999997E+02  0.45594000000E+02  0.51100000000E-03 0. -1.
         11   -1    0    0    0    0 -0.00000000000E+00 -0.00000000000E+00 -0.45593999997E+02  0.45594000000E+02  0.51100000000E-03 0.  1.
         23    2    1    2    0    0  0.00000000000E+00  0.00000000000E+00 -0.88817841970E-15  0.91188000000E+02  0.91188000000E+02 0.  0.
    9900012    2    3    3    0    0  0.37148276318E+01 -0.36227940360E+02 -0.54330790095E+01  0.54367055491E+02  0.39999934602E+02 0.  0.
        -12    1    3    3    0    0 -0.37148276318E+01  0.36227940360E+02  0.54330790095E+01  0.36820944509E+02  0.00000000000E+00 0.  1.
         11    1    4    4    0    0 -0.93590987946E+01 -0.21920523311E+02 -0.19898853084E+01  0.23917811695E+02  0.51100000000E-03 0. -1.
        -11    1    4    4    0    0 -0.11370564963E+01 -0.59884152551E+01 -0.10809647448E+02  0.12409774090E+02  0.51100000000E-03 0.  1.
         12    1    4    4    0    0  0.14210982923E+02 -0.83190017940E+01  0.73664537469E+01  0.18039469706E+02  0.00000000000E+00 0. -1.
</event>
<event>
 8    1  0.1247338E-006  0.9118800E+02  0.7816164E-02  0.1184000E+00
        -11   -1    0    0    0    0  0.00000000000E+00  0.00000000000E+00  0.45593999997E+02  0.45594000000E+02  0.51100000000E-03 0.  1.
         11   -1    0    0    0    0 -0.00000000000E+00 -0.00000000000E+00 -0.45593999997E+02  0.45594000000E+02  0.51100000000E-03 0. -1.
         23    2    1    2    0    0 -0.71054273576E-14  0.00000000000E+00 -0.88817841970E-15  0.91188000000E+02  0.91188000000E+02 0.  0.
    9900012    2    3    3    0    0 -0.36061180604E+02 -0.59049755381E+01  0.45279518108E+01  0.54367084337E+02  0.40000000363E+02 0.  0.
         12    1    3    3    0    0  0.36061180604E+02  0.59049755381E+01 -0.45279518108E+01  0.36820915663E+02  0.00000000000E+00 0. -1.
         11    1    4    4    0    0 -0.61242939753E+01  0.22316334725E+01 -0.10094787909E+02  0.12016318398E+02  0.51100000000E-03 0. -1.
        -11    1    4    4    0    0 -0.11336714572E+02 -0.13899978272E+02  0.14193767617E+02  0.22873424157E+02  0.51100000000E-03 0.  1.
        -12    1    4    4    0    0 -0.18600172057E+02  0.57633692617E+01  0.42897210281E+00  0.19477341781E+02  0.00000000000E+00 0.  1.
</event>
<event>
 8    1  0.1247338E-006  0.9118800E+02  0.7816164E-02  0.1184000E+00
        -11   -1    0    0    0    0  0.00000000000E+00  0.00000000000E+00  0.45593999997E+02  0.45594000000E+02  0.51100000000E-03 0. -1.
         11   -1    0    0    0    0 -0.00000000000E+00 -0.00000000000E+00 -0.45593999997E+02  0.45594000000E+02  0.51100000000E-03 0.  1.
         23    2    1    2    0    0 -0.35527136788E-14 -0.88817841970E-15  0.00000000000E+00  0.91188000000E+02  0.91188000000E+02 0.  0.
    9900012    2    3    3    0    0  0.29172395294E+02 -0.45314572875E+01  0.22004919158E+02  0.54367092630E+02  0.40000019269E+02 0.  0.
        -12    1    3    3    0    0 -0.29172395294E+02  0.45314572875E+01 -0.22004919158E+02  0.36820907370E+02  0.00000000000E+00 0.  1.
         11    1    4    4    0    0  0.16182023477E+02 -0.14020074989E+02  0.25093413911E+02  0.32986357914E+02  0.51100000000E-03 0. -1.
        -11    1    4    4    0    0  0.62723197280E+01 -0.19439904164E+01 -0.46246360724E+01  0.80317091937E+01  0.51100000000E-03 0.  1.
         12    1    4    4    0    0  0.67180520898E+01  0.11432608117E+02  0.15361413200E+01  0.13349025523E+02  0.00000000000E+00 0. -1.
</event>
<event>
 8    1  0.1247338E-006  0.9118800E+02  0.7816164E-02  0.1184000E+00
        -11   -1    0    0    0    0  0.00000000000E+00  0.00000000000E+00  0.45593999997E+02  0.45594000000E+02  0.51100000000E-03 0.  1.
         11   -1    0    0    0    0 -0.00000000000E+00 -0.00000000000E+00 -0.45593999997E+02  0.45594000000E+02  0.51100000000E-03 0. -1.
         23    2    1    2    0    0 -0.35527136788E-14 -0.17763568394E-14  0.00000000000E+00  0.91188000000E+02  0.91188000000E+02 0.  0.
    9900012    2    3    3    0    0 -0.15404585247E+02 -0.11054316767E+02 -0.31563910785E+02  0.54367087058E+02  0.40000006566E+02 0.  0.
        -12    1    3    3    0    0  0.15404585247E+02  0.11054316767E+02  0.31563910785E+02  0.36820912942E+02  0.00000000000E+00 0.  1.
         11    1    4    4    0    0  0.43112653888E+01 -0.58449102106E+01 -0.48265751683E+01  0.87204250320E+01  0.51100000000E-03 0.  1.
        -11    1    4    4    0    0 -0.20054321186E+02 -0.13290751450E+02 -0.81935472934E+01  0.25415626882E+02  0.51100000000E-03 0. -1.
         12    1    4    4    0    0  0.33847054962E+00  0.80813448934E+01 -0.18543788323E+02  0.20231035144E+02  0.00000000000E+00 0. -1.
</event>
<event>
 8    1  0.1247338E-006  0.9118800E+02  0.7816164E-02  0.1184000E+00
        -11   -1    0    0    0    0  0.00000000000E+00  0.00000000000E+00  0.45593999997E+02  0.45594000000E+02  0.51100000000E-03 0.  1.
         11   -1    0    0    0    0 -0.00000000000E+00 -0.00000000000E+00 -0.45593999997E+02  0.45594000000E+02  0.51100000000E-03 0. -1.
         23    2    1    2    0    0  0.00000000000E+00 -0.17763568394E-14  0.00000000000E+00  0.91188000000E+02  0.91188000000E+02 0.  0.
    9900012    2    3    3    0    0  0.34071385914E+02 -0.91217402816E+01  0.10569450119E+02  0.54367098875E+02  0.40000033504E+02 0.  0.
         12    1    3    3    0    0 -0.34071385914E+02  0.91217402816E+01 -0.10569450119E+02  0.36820901125E+02  0.00000000000E+00 0. -1.
         11    1    4    4    0    0  0.85029507361E+01  0.45403281364E+00 -0.74031284593E+01  0.11283289780E+02  0.51100000000E-03 0. -1.
        -11    1    4    4    0    0  0.27919079070E+02 -0.12990227152E+02  0.21569013609E+02  0.37595788673E+02  0.51100000000E-03 0.  1.
        -12    1    4    4    0    0 -0.23506438926E+01  0.34144540566E+01 -0.35964350308E+01  0.54880204214E+01  0.00000000000E+00 0.  1.
</event>
<event>
 8    1  0.1247338E-006  0.9118800E+02  0.7816164E-02  0.1184000E+00
        -11   -1    0    0    0    0  0.00000000000E+00  0.00000000000E+00  0.45593999997E+02  0.45594000000E+02  0.51100000000E-03 0. -1.
         11   -1    0    0    0    0 -0.00000000000E+00 -0.00000000000E+00 -0.45593999997E+02  0.45594000000E+02  0.51100000000E-03 0.  1.
         23    2    1    2    0    0  0.00000000000E+00  0.17763568394E-14  0.00000000000E+00  0.91188000000E+02  0.91188000000E+02 0.  0.
    9900012    2    3    3    0    0 -0.32021261705E+02  0.53375605929E+01 -0.17376023873E+02  0.54367123314E+02  0.40000089219E+02 0.  0.
         12    1    3    3    0    0  0.32021261705E+02 -0.53375605929E+01  0.17376023873E+02  0.36820876686E+02  0.00000000000E+00 0. -1.
         11    1    4    4    0    0 -0.92329612895E+01 -0.11281114114E+02  0.17528044520E+01  0.14682759738E+02  0.51100000000E-03 0. -1.
        -11    1    4    4    0    0 -0.55853106984E+01  0.16572147632E+02 -0.10976581823E+02  0.20647448305E+02  0.51100000000E-03 0.  1.
        -12    1    4    4    0    0 -0.17202989717E+02  0.46527074565E-01 -0.81522465025E+01  0.19036915271E+02  0.00000000000E+00 0.  1.
</event>
<event>
 8    1  0.1247338E-006  0.9118800E+02  0.7816164E-02  0.1184000E+00
        -11   -1    0    0    0    0  0.00000000000E+00  0.00000000000E+00  0.45593999997E+02  0.45594000000E+02  0.51100000000E-03 0.  1.
         11   -1    0    0    0    0 -0.00000000000E+00 -0.00000000000E+00 -0.45593999997E+02  0.45594000000E+02  0.51100000000E-03 0. -1.
         23    2    1    2    0    0 -0.88817841970E-15  0.35527136788E-14  0.00000000000E+00  0.91188000000E+02  0.91188000000E+02 0.  0.
    9900012    2    3    3    0    0 -0.57567238835E+01  0.22417312682E+02 -0.28637399478E+02  0.54367130557E+02  0.40000105730E+02 0.  0.
        -12    1    3    3    0    0  0.57567238835E+01 -0.22417312682E+02  0.28637399478E+02  0.36820869443E+02  0.00000000000E+00 0.  1.
         11    1    4    4    0    0 -0.36907913722E+01  0.14100335745E+02 -0.12557318435E+02  0.19238702025E+02  0.51100000000E-03 0. -1.
        -11    1    4    4    0    0 -0.65285177370E+01  0.12219676348E+02  0.38140809232E+01  0.14369733729E+02  0.51100000000E-03 0.  1.
        -12    1    4    4    0    0  0.44625852257E+01 -0.39026994109E+01 -0.19894161966E+02  0.20758694803E+02  0.00000000000E+00 0.  1.
</event>
<event>
 8    1  0.1247338E-006  0.9118800E+02  0.7816164E-02  0.1184000E+00
        -11   -1    0    0    0    0  0.00000000000E+00  0.00000000000E+00  0.45593999997E+02  0.45594000000E+02  0.51100000000E-03 0. -1.
         11   -1    0    0    0    0 -0.00000000000E+00 -0.00000000000E+00 -0.45593999997E+02  0.45594000000E+02  0.51100000000E-03 0.  1.
         23    2    1    2    0    0  0.22204460493E-15  0.00000000000E+00  0.00000000000E+00  0.91188000000E+02  0.91188000000E+02 0.  0.
    9900012    2    3    3    0    0 -0.16725769874E+01  0.20233620160E+02 -0.30717775080E+02  0.54367100983E+02  0.40000038310E+02 0.  0.
         12    1    3    3    0    0  0.16725769874E+01 -0.20233620160E+02  0.30717775080E+02  0.36820899017E+02  0.00000000000E+00 0. -1.
         11    1    4    4    0    0  0.30891843591E+01 -0.31816109455E+01  0.58064632531E+00  0.44724555481E+01  0.51100000000E-03 0. -1.
        -11    1    4    4    0    0 -0.27550831426E+01  0.30939443799E+02 -0.25430178486E+02  0.40143911666E+02  0.51100000000E-03 0.  1.
        -12    1    4    4    0    0 -0.20066782039E+01 -0.75242126933E+01 -0.58682429196E+01  0.97507337689E+01  0.00000000000E+00 0.  1.
</event>
<event>
 8    1  0.1247338E-006  0.9118800E+02  0.7816164E-02  0.1184000E+00
        -11   -1    0    0    0    0  0.00000000000E+00  0.00000000000E+00  0.45593999997E+02  0.45594000000E+02  0.51100000000E-03 0. -1.
         11   -1    0    0    0    0 -0.00000000000E+00 -0.00000000000E+00 -0.45593999997E+02  0.45594000000E+02  0.51100000000E-03 0.  1.
         23    2    1    2    0    0  0.71054273576E-14 -0.17763568394E-14  0.00000000000E+00  0.91188000000E+02  0.91188000000E+02 0.  0.
    9900012    2    3    3    0    0 -0.31280813636E+02  0.14259833865E+02 -0.13188905913E+02  0.54367090142E+02  0.40000013597E+02 0.  0.
         12    1    3    3    0    0  0.31280813636E+02 -0.14259833865E+02  0.13188905913E+02  0.36820909858E+02  0.00000000000E+00 0. -1.
         11    1    4    4    0    0 -0.30235702687E+02  0.52975659173E+01 -0.18008924164E+02  0.35589089219E+02  0.51100000000E-03 0. -1.
        -11    1    4    4    0    0 -0.47765539385E+01  0.10572838011E+02 -0.10381357210E+01  0.11648094143E+02  0.51100000000E-03 0.  1.
         12    1    4    4    0    0  0.37314429902E+01 -0.16105700630E+01  0.58581539723E+01  0.71299067792E+01  0.00000000000E+00 0. -1.
</event>
<event>
 8    1  0.1247338E-006  0.9118800E+02  0.7816164E-02  0.1184000E+00
        -11   -1    0    0    0    0  0.00000000000E+00  0.00000000000E+00  0.45593999997E+02  0.45594000000E+02  0.51100000000E-03 0.  1.
         11   -1    0    0    0    0 -0.00000000000E+00 -0.00000000000E+00 -0.45593999997E+02  0.45594000000E+02  0.51100000000E-03 0. -1.
         23    2    1    2    0    0  0.00000000000E+00  0.00000000000E+00  0.35527136788E-14  0.91188000000E+02  0.91188000000E+02 0.  0.
    9900012    2    3    3    0    0  0.79532649180E+01 -0.22592532185E+02  0.27966194426E+02  0.54367014624E+02  0.39999841439E+02 0.  0.
         12    1    3    3    0    0 -0.79532649180E+01  0.22592532185E+02 -0.27966194426E+02  0.36820985376E+02  0.00000000000E+00 0. -1.
         11    1    4    4    0    0  0.17456610094E+02 -0.13343939009E+01  0.19245203194E+02  0.26017142220E+02  0.51100000000E-03 0. -1.
        -11    1    4    4    0    0 -0.66286177702E+01 -0.19366161871E+02  0.11889743320E+02  0.23671772127E+02  0.51100000000E-03 0.  1.
         12    1    4    4    0    0 -0.28747274060E+01 -0.18919764126E+01 -0.31687520881E+01  0.46781002769E+01  0.00000000000E+00 0. -1.
</event>
<event>
 8    1  0.1247338E-006  0.9118800E+02  0.7816164E-02  0.1184000E+00
        -11   -1    0    0    0    0  0.00000000000E+00  0.00000000000E+00  0.45593999997E+02  0.45594000000E+02  0.51100000000E-03 0. -1.
         11   -1    0    0    0    0 -0.00000000000E+00 -0.00000000000E+00 -0.45593999997E+02  0.45594000000E+02  0.51100000000E-03 0.  1.
         23    2    1    2    0    0  0.00000000000E+00 -0.35527136788E-14 -0.17763568394E-14  0.91188000000E+02  0.91188000000E+02 0.  0.
    9900012    2    3    3    0    0 -0.24239968647E+02  0.26598533681E+02  0.77924112827E+01  0.54367085459E+02  0.40000002922E+02 0.  0.
         12    1    3    3    0    0  0.24239968647E+02 -0.26598533681E+02 -0.77924112827E+01  0.36820914541E+02  0.00000000000E+00 0. -1.
         11    1    4    4    0    0  0.58380941798E+01 -0.32707916003E+00 -0.71220074610E+01  0.92148421020E+01  0.51100000000E-03 0. -1.
        -11    1    4    4    0    0 -0.11512010776E+02  0.12462784044E+02 -0.57858086349E+00  0.16975928084E+02  0.51100000000E-03 0.  1.
         12    1    4    4    0    0 -0.18566052050E+02  0.14462828798E+02  0.15492999607E+02  0.28176315274E+02  0.00000000000E+00 0. -1.
</event>
<event>
 8    1  0.1247338E-006  0.9118800E+02  0.7816164E-02  0.1184000E+00
        -11   -1    0    0    0    0  0.00000000000E+00  0.00000000000E+00  0.45593999997E+02  0.45594000000E+02  0.51100000000E-03 0. -1.
         11   -1    0    0    0    0 -0.00000000000E+00 -0.00000000000E+00 -0.45593999997E+02  0.45594000000E+02  0.51100000000E-03 0.  1.
         23    2    1    2    0    0 -0.66613381478E-15  0.35527136788E-14 -0.35527136788E-14  0.91188000000E+02  0.91188000000E+02 0.  0.
    9900012    2    3    3    0    0  0.12085838483E+01 -0.26467404757E+02  0.25569428930E+02  0.54367083590E+02  0.39999998660E+02 0.  0.
        -12    1    3    3    0    0 -0.12085838483E+01  0.26467404757E+02 -0.25569428930E+02  0.36820916410E+02  0.00000000000E+00 0.  1.
         11    1    4    4    0    0 -0.24180395916E+01 -0.17939652370E+02  0.23025033229E+02  0.29288738417E+02  0.51100000000E-03 0. -1.
        -11    1    4    4    0    0  0.84502840174E+01 -0.43767559433E+01  0.10968040192E+02  0.14521060514E+02  0.51100000000E-03 0.  1.
        -12    1    4    4    0    0 -0.48236605774E+01 -0.41509964440E+01 -0.84236444910E+01  0.10557284658E+02  0.00000000000E+00 0.  1.
</event>
<event>
 8    1  0.1247338E-006  0.9118800E+02  0.7816164E-02  0.1184000E+00
        -11   -1    0    0    0    0  0.00000000000E+00  0.00000000000E+00  0.45593999997E+02  0.45594000000E+02  0.51100000000E-03 0.  1.
         11   -1    0    0    0    0 -0.00000000000E+00 -0.00000000000E+00 -0.45593999997E+02  0.45594000000E+02  0.51100000000E-03 0. -1.
         23    2    1    2    0    0  0.35527136788E-14 -0.35527136788E-14 -0.55511151231E-15  0.91188000000E+02  0.91188000000E+02 0.  0.
    9900012    2    3    3    0    0  0.29948607177E+02  0.21416523828E+02  0.43889525349E+00  0.54367092980E+02  0.40000020067E+02 0.  0.
         12    1    3    3    0    0 -0.29948607177E+02 -0.21416523828E+02 -0.43889525349E+00  0.36820907020E+02  0.00000000000E+00 0. -1.
         11    1    4    4    0    0 -0.57861906253E+00  0.15063440824E+01 -0.18935360749E+01  0.24878407590E+01  0.51100000000E-03 0. -1.
        -11    1    4    4    0    0  0.30590175658E+02  0.77130454487E+01 -0.11370473992E+02  0.33534125841E+02  0.51100000000E-03 0.  1.
         12    1    4    4    0    0 -0.62949418005E-01  0.12197134297E+02  0.13702905320E+02  0.18345126380E+02  0.00000000000E+00 0. -1.
</event>
<event>
 8    1  0.1247338E-006  0.9118800E+02  0.7816164E-02  0.1184000E+00
        -11   -1    0    0    0    0  0.00000000000E+00  0.00000000000E+00  0.45593999997E+02  0.45594000000E+02  0.51100000000E-03 0.  1.
         11   -1    0    0    0    0 -0.00000000000E+00 -0.00000000000E+00 -0.45593999997E+02  0.45594000000E+02  0.51100000000E-03 0. -1.
         23    2    1    2    0    0 -0.35527136788E-14  0.00000000000E+00  0.00000000000E+00  0.91188000000E+02  0.91188000000E+02 0.  0.
    9900012    2    3    3    0    0 -0.19664111505E+02 -0.30390481070E+01 -0.30981699119E+02  0.54367098667E+02  0.40000033031E+02 0.  0.
        -12    1    3    3    0    0  0.19664111505E+02  0.30390481070E+01  0.30981699119E+02  0.36820901333E+02  0.00000000000E+00 0.  1.
         11    1    4    4    0    0 -0.23414209032E+01  0.96688589403E+01 -0.12653031410E+02  0.16095598441E+02  0.51100000000E-03 0. -1.
        -11    1    4    4    0    0  0.57151224927E+01  0.21913262015E+01 -0.40825488000E+01  0.73574275799E+01  0.51100000000E-03 0.  1.
        -12    1    4    4    0    0 -0.23037813094E+02 -0.14899233249E+02 -0.14246118910E+02  0.30914072646E+02  0.00000000000E+00 0.  1.
</event>
<event>
 8    1  0.1247338E-006  0.9118800E+02  0.7816164E-02  0.1184000E+00
        -11   -1    0    0    0    0  0.00000000000E+00  0.00000000000E+00  0.45593999997E+02  0.45594000000E+02  0.51100000000E-03 0.  1.
         11   -1    0    0    0    0 -0.00000000000E+00 -0.00000000000E+00 -0.45593999997E+02  0.45594000000E+02  0.51100000000E-03 0. -1.
         23    2    1    2    0    0 -0.71054273576E-14  0.00000000000E+00 -0.22204460493E-14  0.91188000000E+02  0.91188000000E+02 0.  0.
    9900012    2    3    3    0    0 -0.36459099136E+02 -0.42310388619E+01  0.29351179929E+01  0.54367047849E+02  0.39999917182E+02 0.  0.
        -12    1    3    3    0    0  0.36459099136E+02  0.42310388619E+01 -0.29351179929E+01  0.36820952151E+02  0.00000000000E+00 0.  1.
         11    1    4    4    0    0 -0.28070808407E+01 -0.12018261385E+02 -0.58819981286E+01  0.13671730388E+02  0.51100000000E-03 0. -1.
        -11    1    4    4    0    0  0.16956939287E+01  0.18418123832E+01  0.37294541923E+01  0.44918236372E+01  0.51100000000E-03 0.  1.
         12    1    4    4    0    0 -0.35347712224E+02  0.59454101395E+01  0.50876619292E+01  0.36203493824E+02  0.00000000000E+00 0. -1.
</event>
<event>
 8    1  0.1247338E-006  0.9118800E+02  0.7816164E-02  0.1184000E+00
        -11   -1    0    0    0    0  0.00000000000E+00  0.00000000000E+00  0.45593999997E+02  0.45594000000E+02  0.51100000000E-03 0.  1.
         11   -1    0    0    0    0 -0.00000000000E+00 -0.00000000000E+00 -0.45593999997E+02  0.45594000000E+02  0.51100000000E-03 0. -1.
         23    2    1    2    0    0  0.00000000000E+00  0.00000000000E+00  0.00000000000E+00  0.91188000000E+02  0.91188000000E+02 0.  0.
    9900012    2    3    3    0    0  0.11977352610E+02 -0.29113596889E+02  0.19097677457E+02  0.54367084971E+02  0.40000001808E+02 0.  0.
         12    1    3    3    0    0 -0.11977352610E+02  0.29113596889E+02 -0.19097677457E+02  0.36820915029E+02  0.00000000000E+00 0. -1.
         11    1    4    4    0    0  0.70119878409E+01  0.34961821915E+01  0.11911888501E+01  0.79252882935E+01  0.51100000000E-03 0. -1.
        -11    1    4    4    0    0  0.40903453621E+00 -0.36650726311E+02  0.14169388068E+02  0.39296496114E+02  0.51100000000E-03 0.  1.
        -12    1    4    4    0    0  0.45563302327E+01  0.40409472300E+01  0.37371005384E+01  0.71453005632E+01  0.00000000000E+00 0.  1.
</event>
<event>
 8    1  0.1247338E-006  0.9118800E+02  0.7816164E-02  0.1184000E+00
        -11   -1    0    0    0    0  0.00000000000E+00  0.00000000000E+00  0.45593999997E+02  0.45594000000E+02  0.51100000000E-03 0.  1.
         11   -1    0    0    0    0 -0.00000000000E+00 -0.00000000000E+00 -0.45593999997E+02  0.45594000000E+02  0.51100000000E-03 0. -1.
         23    2    1    2    0    0 -0.17763568394E-14 -0.71054273576E-14  0.00000000000E+00  0.91188000000E+02  0.91188000000E+02 0.  0.
    9900012    2    3    3    0    0 -0.10673982561E+02  0.35082668889E+02 -0.33246308696E+01  0.54367072113E+02  0.39999972495E+02 0.  0.
        -12    1    3    3    0    0  0.10673982561E+02 -0.35082668889E+02  0.33246308696E+01  0.36820927887E+02  0.00000000000E+00 0.  1.
         11    1    4    4    0    0 -0.10145503256E+02  0.27372720865E+02 -0.37413098141E+01  0.29431182159E+02  0.51100000000E-03 0. -1.
        -11    1    4    4    0    0  0.76971520558E+01 -0.44870305862E+01 -0.37183945818E+01  0.96543281370E+01  0.51100000000E-03 0.  1.
        -12    1    4    4    0    0 -0.82256313604E+01  0.12196978610E+02  0.41350735263E+01  0.15281561816E+02  0.00000000000E+00 0.  1.
</event>
<event>
 8    1  0.1247338E-006  0.9118800E+02  0.7816164E-02  0.1184000E+00
        -11   -1    0    0    0    0  0.00000000000E+00  0.00000000000E+00  0.45593999997E+02  0.45594000000E+02  0.51100000000E-03 0. -1.
         11   -1    0    0    0    0 -0.00000000000E+00 -0.00000000000E+00 -0.45593999997E+02  0.45594000000E+02  0.51100000000E-03 0.  1.
         23    2    1    2    0    0  0.35527136788E-14  0.00000000000E+00  0.13322676296E-14  0.91188000000E+02  0.91188000000E+02 0.  0.
    9900012    2    3    3    0    0 -0.20647513553E+02  0.30398080671E+02  0.23270184061E+01  0.54367107302E+02  0.40000052717E+02 0.  0.
         12    1    3    3    0    0  0.20647513553E+02 -0.30398080671E+02 -0.23270184061E+01  0.36820892698E+02  0.00000000000E+00 0. -1.
         11    1    4    4    0    0 -0.12264999104E+02  0.75359235632E+00  0.12654117963E+02  0.17638730287E+02  0.51100000000E-03 0.  1.
        -11    1    4    4    0    0 -0.91532515857E+01  0.48827483247E+01 -0.18062345848E+01  0.10530229315E+02  0.51100000000E-03 0. -1.
         12    1    4    4    0    0  0.77073713672E+00  0.24761739990E+02 -0.85208649717E+01  0.26198147700E+02  0.00000000000E+00 0. -1.
</event>
<event>
 8    1  0.1247338E-006  0.9118800E+02  0.7816164E-02  0.1184000E+00
        -11   -1    0    0    0    0  0.00000000000E+00  0.00000000000E+00  0.45593999997E+02  0.45594000000E+02  0.51100000000E-03 0.  1.
         11   -1    0    0    0    0 -0.00000000000E+00 -0.00000000000E+00 -0.45593999997E+02  0.45594000000E+02  0.51100000000E-03 0. -1.
         23    2    1    2    0    0  0.35527136788E-14  0.00000000000E+00  0.17763568394E-14  0.91188000000E+02  0.91188000000E+02 0.  0.
    9900012    2    3    3    0    0  0.31566334060E+02  0.15861804715E+02 -0.10380238806E+02  0.54367086752E+02  0.40000005867E+02 0.  0.
        -12    1    3    3    0    0 -0.31566334060E+02 -0.15861804715E+02  0.10380238806E+02  0.36820913248E+02  0.00000000000E+00 0.  1.
         11    1    4    4    0    0  0.63362394348E+01  0.12403366280E+02 -0.16726349638E+02  0.21766079062E+02  0.51100000000E-03 0. -1.
        -11    1    4    4    0    0 -0.29374437957E+01  0.23881817225E+01  0.91331396746E+00  0.38943716640E+01  0.51100000000E-03 0.  1.
         12    1    4    4    0    0  0.28167538421E+02  0.10702567118E+01  0.54327968648E+01  0.28706636025E+02  0.00000000000E+00 0. -1.
</event>
<event>
 8    1  0.1247338E-006  0.9118800E+02  0.7816164E-02  0.1184000E+00
        -11   -1    0    0    0    0  0.00000000000E+00  0.00000000000E+00  0.45593999997E+02  0.45594000000E+02  0.51100000000E-03 0.  1.
         11   -1    0    0    0    0 -0.00000000000E+00 -0.00000000000E+00 -0.45593999997E+02  0.45594000000E+02  0.51100000000E-03 0. -1.
         23    2    1    2    0    0  0.00000000000E+00  0.17763568394E-14  0.00000000000E+00  0.91188000000E+02  0.91188000000E+02 0.  0.
    9900012    2    3    3    0    0 -0.26376947731E+02  0.11347175672E+02  0.23049473502E+02  0.54367082086E+02  0.39999995230E+02 0.  0.
         12    1    3    3    0    0  0.26376947731E+02 -0.11347175672E+02 -0.23049473502E+02  0.36820917914E+02  0.00000000000E+00 0. -1.
         11    1    4    4    0    0 -0.39579385894E+01  0.66346783192E+01  0.97580839882E+01  0.12446061130E+02  0.51100000000E-03 0. -1.
        -11    1    4    4    0    0 -0.63514122670E+01 -0.13007071289E+02  0.10407600852E+02  0.17828137790E+02  0.51100000000E-03 0.  1.
         12    1    4    4    0    0 -0.16067596875E+02  0.17719568642E+02  0.28837886623E+01  0.24092883165E+02  0.00000000000E+00 0. -1.
</event>
<event>
 8    1  0.1247338E-006  0.9118800E+02  0.7816164E-02  0.1184000E+00
        -11   -1    0    0    0    0  0.00000000000E+00  0.00000000000E+00  0.45593999997E+02  0.45594000000E+02  0.51100000000E-03 0.  1.
         11   -1    0    0    0    0 -0.00000000000E+00 -0.00000000000E+00 -0.45593999997E+02  0.45594000000E+02  0.51100000000E-03 0. -1.
         23    2    1    2    0    0  0.00000000000E+00 -0.71054273576E-14  0.35527136788E-14  0.91188000000E+02  0.91188000000E+02 0.  0.
    9900012    2    3    3    0    0 -0.19868942531E+02 -0.19381511921E+02  0.24194228319E+02  0.54367101510E+02  0.40000039513E+02 0.  0.
         12    1    3    3    0    0  0.19868942531E+02  0.19381511921E+02 -0.24194228319E+02  0.36820898490E+02  0.00000000000E+00 0. -1.
         11    1    4    4    0    0  0.52042291529E+01 -0.49282630984E+01 -0.38889536395E+01  0.81544919470E+01  0.51100000000E-03 0. -1.
        -11    1    4    4    0    0 -0.18410182089E+01  0.52989271286E+01  0.77269391192E+01  0.95484849674E+01  0.51100000000E-03 0.  1.
        -12    1    4    4    0    0 -0.23232153475E+02 -0.19752175951E+02  0.20356242839E+02  0.36664124596E+02  0.00000000000E+00 0.  1.
</event>
<event>
 8    1  0.1247338E-006  0.9118800E+02  0.7816164E-02  0.1184000E+00
        -11   -1    0    0    0    0  0.00000000000E+00  0.00000000000E+00  0.45593999997E+02  0.45594000000E+02  0.51100000000E-03 0. -1.
         11   -1    0    0    0    0 -0.00000000000E+00 -0.00000000000E+00 -0.45593999997E+02  0.45594000000E+02  0.51100000000E-03 0.  1.
         23    2    1    2    0    0  0.88817841970E-15 -0.17763568394E-14  0.71054273576E-14  0.91188000000E+02  0.91188000000E+02 0.  0.
    9900012    2    3    3    0    0  0.64646350492E+01 -0.10079798763E+02  0.34819337008E+02  0.54367080958E+02  0.39999992660E+02 0.  0.
        -12    1    3    3    0    0 -0.64646350492E+01  0.10079798763E+02 -0.34819337008E+02  0.36820919042E+02  0.00000000000E+00 0.  1.
         11    1    4    4    0    0  0.10533173860E+02  0.34481215067E+01  0.12248506826E+02  0.16518571767E+02  0.51100000000E-03 0. -1.
        -11    1    4    4    0    0 -0.19201237396E+00 -0.11894684949E+02 -0.27257936821E+01  0.12204521713E+02  0.51100000000E-03 0.  1.
         12    1    4    4    0    0 -0.38765264374E+01 -0.16332353202E+01  0.25296623864E+02  0.25643987478E+02  0.00000000000E+00 0. -1.
</event>
<event>
 8    1  0.1247338E-006  0.9118800E+02  0.7816164E-02  0.1184000E+00
        -11   -1    0    0    0    0  0.00000000000E+00  0.00000000000E+00  0.45593999997E+02  0.45594000000E+02  0.51100000000E-03 0.  1.
         11   -1    0    0    0    0 -0.00000000000E+00 -0.00000000000E+00 -0.45593999997E+02  0.45594000000E+02  0.51100000000E-03 0. -1.
         23    2    1    2    0    0 -0.22204460493E-15  0.00000000000E+00  0.00000000000E+00  0.91188000000E+02  0.91188000000E+02 0.  0.
    9900012    2    3    3    0    0  0.16809795456E+01  0.33595195678E+02 -0.14977128681E+02  0.54367119397E+02  0.40000080289E+02 0.  0.
        -12    1    3    3    0    0 -0.16809795456E+01 -0.33595195678E+02  0.14977128681E+02  0.36820880603E+02  0.00000000000E+00 0.  1.
         11    1    4    4    0    0 -0.11136160225E+02  0.26021272966E+02 -0.14854944835E+02  0.31965451625E+02  0.51100000000E-03 0. -1.
        -11    1    4    4    0    0 -0.40724862330E+01  0.20853677727E+01 -0.72474282904E+00  0.46324027561E+01  0.51100000000E-03 0.  1.
         12    1    4    4    0    0  0.16889626004E+02  0.54885549396E+01  0.60255898334E+00  0.17769265016E+02  0.00000000000E+00 0. -1.
</event>
<event>
 8    1  0.1247338E-006  0.9118800E+02  0.7816164E-02  0.1184000E+00
        -11   -1    0    0    0    0  0.00000000000E+00  0.00000000000E+00  0.45593999997E+02  0.45594000000E+02  0.51100000000E-03 0. -1.
         11   -1    0    0    0    0 -0.00000000000E+00 -0.00000000000E+00 -0.45593999997E+02  0.45594000000E+02  0.51100000000E-03 0.  1.
         23    2    1    2    0    0  0.00000000000E+00  0.17763568394E-14 -0.22204460493E-15  0.91188000000E+02  0.91188000000E+02 0.  0.
    9900012    2    3    3    0    0 -0.34587267617E+02 -0.12532372458E+02 -0.15623090979E+01  0.54367078632E+02  0.39999987358E+02 0.  0.
         12    1    3    3    0    0  0.34587267617E+02  0.12532372458E+02  0.15623090979E+01  0.36820921368E+02  0.00000000000E+00 0. -1.
         11    1    4    4    0    0  0.35751336812E+01 -0.20246525101E+01 -0.77657479129E+00  0.41813714607E+01  0.51100000000E-03 0. -1.
        -11    1    4    4    0    0 -0.13787565953E+02  0.93952941422E+01  0.64643035445E+01  0.17892896565E+02  0.51100000000E-03 0.  1.
        -12    1    4    4    0    0 -0.24374835345E+02 -0.19903014090E+02 -0.72500378512E+01  0.32292810606E+02  0.00000000000E+00 0.  1.
</event>
<event>
 8    1  0.1247338E-006  0.9118800E+02  0.7816164E-02  0.1184000E+00
        -11   -1    0    0    0    0  0.00000000000E+00  0.00000000000E+00  0.45593999997E+02  0.45594000000E+02  0.51100000000E-03 0.  1.
         11   -1    0    0    0    0 -0.00000000000E+00 -0.00000000000E+00 -0.45593999997E+02  0.45594000000E+02  0.51100000000E-03 0. -1.
         23    2    1    2    0    0  0.17763568394E-14  0.00000000000E+00 -0.35527136788E-14  0.91188000000E+02  0.91188000000E+02 0.  0.
    9900012    2    3    3    0    0 -0.15051299212E+02  0.18723474299E+02 -0.27904653376E+02  0.54367085049E+02  0.40000001987E+02 0.  0.
        -12    1    3    3    0    0  0.15051299212E+02 -0.18723474299E+02  0.27904653376E+02  0.36820914951E+02  0.00000000000E+00 0.  1.
         11    1    4    4    0    0  0.48412995156E+01  0.10982468432E+02 -0.13114838945E+02  0.17777845614E+02  0.51100000000E-03 0. -1.
        -11    1    4    4    0    0  0.17854692753E+01 -0.24288414091E+01 -0.12127644423E+02  0.12496676783E+02  0.51100000000E-03 0.  1.
        -12    1    4    4    0    0 -0.21678068003E+02  0.10169847276E+02 -0.26621700074E+01  0.24092562651E+02  0.00000000000E+00 0.  1.
</event>
<event>
 8    1  0.1247338E-006  0.9118800E+02  0.7816164E-02  0.1184000E+00
        -11   -1    0    0    0    0  0.00000000000E+00  0.00000000000E+00  0.45593999997E+02  0.45594000000E+02  0.51100000000E-03 0.  1.
         11   -1    0    0    0    0 -0.00000000000E+00 -0.00000000000E+00 -0.45593999997E+02  0.45594000000E+02  0.51100000000E-03 0. -1.
         23    2    1    2    0    0  0.35527136788E-14 -0.88817841970E-15  0.00000000000E+00  0.91188000000E+02  0.91188000000E+02 0.  0.
    9900012    2    3    3    0    0 -0.22019842511E+02 -0.15136576262E+01  0.29472538628E+02  0.54366876215E+02  0.39999525903E+02 0.  0.
         12    1    3    3    0    0  0.22019842511E+02  0.15136576262E+01 -0.29472538628E+02  0.36821123785E+02  0.00000000000E+00 0. -1.
         11    1    4    4    0    0 -0.74898270519E+01 -0.85278881744E+01  0.85673580548E+01  0.14220478553E+02  0.51100000000E-03 0. -1.
        -11    1    4    4    0    0  0.90117458251E+01  0.42927285162E+01  0.97504248467E+01  0.13953847709E+02  0.51100000000E-03 0.  1.
        -12    1    4    4    0    0 -0.23541761285E+02  0.27215020319E+01  0.11154755727E+02  0.26192549952E+02  0.00000000000E+00 0.  1.
</event>
<event>
 8    1  0.1247338E-006  0.9118800E+02  0.7816164E-02  0.1184000E+00
        -11   -1    0    0    0    0  0.00000000000E+00  0.00000000000E+00  0.45593999997E+02  0.45594000000E+02  0.51100000000E-03 0. -1.
         11   -1    0    0    0    0 -0.00000000000E+00 -0.00000000000E+00 -0.45593999997E+02  0.45594000000E+02  0.51100000000E-03 0.  1.
         23    2    1    2    0    0  0.11102230246E-15  0.13322676296E-14  0.00000000000E+00  0.91188000000E+02  0.91188000000E+02 0.  0.
    9900012    2    3    3    0    0 -0.16049574564E+00 -0.32919084563E+01 -0.36673129787E+02  0.54367070237E+02  0.39999968220E+02 0.  0.
         12    1    3    3    0    0  0.16049574564E+00  0.32919084563E+01  0.36673129787E+02  0.36820929763E+02  0.00000000000E+00 0. -1.
         11    1    4    4    0    0  0.19431783211E+01  0.19941593221E+01 -0.63543207855E+00  0.28559390010E+01  0.51100000000E-03 0. -1.
        -11    1    4    4    0    0  0.59654940279E+01 -0.16129257924E+02 -0.54007952120E+01  0.18025223143E+02  0.51100000000E-03 0.  1.
        -12    1    4    4    0    0 -0.80691680947E+01  0.10843190145E+02 -0.30636902497E+02  0.33485908094E+02  0.00000000000E+00 0.  1.
</event>
<event>
 8    1  0.1247338E-006  0.9118800E+02  0.7816164E-02  0.1184000E+00
        -11   -1    0    0    0    0  0.00000000000E+00  0.00000000000E+00  0.45593999997E+02  0.45594000000E+02  0.51100000000E-03 0.  1.
         11   -1    0    0    0    0 -0.00000000000E+00 -0.00000000000E+00 -0.45593999997E+02  0.45594000000E+02  0.51100000000E-03 0. -1.
         23    2    1    2    0    0  0.12490009027E-15 -0.88817841970E-15  0.00000000000E+00  0.91188000000E+02  0.91188000000E+02 0.  0.
    9900012    2    3    3    0    0  0.12419070600E+00 -0.69527279183E+01  0.36158331005E+02  0.54367071849E+02  0.39999971894E+02 0.  0.
         12    1    3    3    0    0 -0.12419070600E+00  0.69527279183E+01 -0.36158331005E+02  0.36820928151E+02  0.00000000000E+00 0. -1.
         11    1    4    4    0    0 -0.20755598192E+01  0.10186991813E+02  0.14126410279E+02  0.17539618536E+02  0.51100000000E-03 0. -1.
        -11    1    4    4    0    0 -0.63858721802E+01  0.29959099494E+01  0.24791781226E+01  0.74767081226E+01  0.51100000000E-03 0.  1.
         12    1    4    4    0    0  0.85856227054E+01 -0.20135629681E+02  0.19552742603E+02  0.29350745190E+02  0.00000000000E+00 0. -1.
</event>
<event>
 8    1  0.1247338E-006  0.9118800E+02  0.7816164E-02  0.1184000E+00
        -11   -1    0    0    0    0  0.00000000000E+00  0.00000000000E+00  0.45593999997E+02  0.45594000000E+02  0.51100000000E-03 0.  1.
         11   -1    0    0    0    0 -0.00000000000E+00 -0.00000000000E+00 -0.45593999997E+02  0.45594000000E+02  0.51100000000E-03 0. -1.
         23    2    1    2    0    0  0.00000000000E+00  0.35527136788E-14  0.22204460493E-15  0.91188000000E+02  0.91188000000E+02 0.  0.
    9900012    2    3    3    0    0  0.19237874584E+02  0.31387399382E+02  0.71827259279E+00  0.54367074238E+02  0.39999977341E+02 0.  0.
         12    1    3    3    0    0 -0.19237874584E+02 -0.31387399382E+02 -0.71827259279E+00  0.36820925762E+02  0.00000000000E+00 0. -1.
         11    1    4    4    0    0  0.78314764993E+01  0.83213828889E+01 -0.63347510405E+01  0.13065470078E+02  0.51100000000E-03 0. -1.
        -11    1    4    4    0    0  0.15631486669E+02 -0.11926836246E+01 -0.38242986205E-01  0.15676968218E+02  0.51100000000E-03 0.  1.
        -12    1    4    4    0    0 -0.42250885844E+01  0.24258700117E+02  0.70912666195E+01  0.25624635943E+02  0.00000000000E+00 0.  1.
</event>
<event>
 8    1  0.1247338E-006  0.9118800E+02  0.7816164E-02  0.1184000E+00
        -11   -1    0    0    0    0  0.00000000000E+00  0.00000000000E+00  0.45593999997E+02  0.45594000000E+02  0.51100000000E-03 0.  1.
         11   -1    0    0    0    0 -0.00000000000E+00 -0.00000000000E+00 -0.45593999997E+02  0.45594000000E+02  0.51100000000E-03 0. -1.
         23    2    1    2    0    0 -0.88817841970E-15 -0.71054273576E-14  0.35527136788E-14  0.91188000000E+02  0.91188000000E+02 0.  0.
    9900012    2    3    3    0    0  0.71029633415E+01 -0.25350578732E+02  0.25742502818E+02  0.54367076850E+02  0.39999983295E+02 0.  0.
         12    1    3    3    0    0 -0.71029633415E+01  0.25350578732E+02 -0.25742502818E+02  0.36820923150E+02  0.00000000000E+00 0. -1.
         11    1    4    4    0    0 -0.44423517852E+01 -0.80087953846E+00 -0.23943669768E+01  0.51096859883E+01  0.51100000000E-03 0. -1.
        -11    1    4    4    0    0 -0.93384031203E+01 -0.11935406125E+02  0.15891551088E+02  0.21959077587E+02  0.51100000000E-03 0.  1.
         12    1    4    4    0    0  0.20883718247E+02 -0.12614293069E+02  0.12245318706E+02  0.27298313275E+02  0.00000000000E+00 0. -1.
</event>
<event>
 8    1  0.1247338E-006  0.9118800E+02  0.7816164E-02  0.1184000E+00
        -11   -1    0    0    0    0  0.00000000000E+00  0.00000000000E+00  0.45593999997E+02  0.45594000000E+02  0.51100000000E-03 0. -1.
         11   -1    0    0    0    0 -0.00000000000E+00 -0.00000000000E+00 -0.45593999997E+02  0.45594000000E+02  0.51100000000E-03 0.  1.
         23    2    1    2    0    0  0.00000000000E+00  0.00000000000E+00 -0.53290705182E-14  0.91188000000E+02  0.91188000000E+02 0.  0.
    9900012    2    3    3    0    0 -0.25253893253E+02 -0.24249577379E+02  0.11400813283E+02  0.54367086499E+02  0.40000005292E+02 0.  0.
        -12    1    3    3    0    0  0.25253893253E+02  0.24249577379E+02 -0.11400813283E+02  0.36820913501E+02  0.00000000000E+00 0.  1.
         11    1    4    4    0    0 -0.12421940223E+02  0.37966891779E+01 -0.75941858532E+01  0.15046298769E+02  0.51100000000E-03 0. -1.
        -11    1    4    4    0    0 -0.63319827965E+01 -0.18690067929E+01  0.50891301959E+00  0.66216452072E+01  0.51100000000E-03 0.  1.
         12    1    4    4    0    0 -0.64999702332E+01 -0.26177259765E+02  0.18486086117E+02  0.32699142523E+02  0.00000000000E+00 0. -1.
</event>
<event>
 8    1  0.1247338E-006  0.9118800E+02  0.7816164E-02  0.1184000E+00
        -11   -1    0    0    0    0  0.00000000000E+00  0.00000000000E+00  0.45593999997E+02  0.45594000000E+02  0.51100000000E-03 0. -1.
         11   -1    0    0    0    0 -0.00000000000E+00 -0.00000000000E+00 -0.45593999997E+02  0.45594000000E+02  0.51100000000E-03 0.  1.
         23    2    1    2    0    0 -0.22204460493E-15 -0.71054273576E-14  0.17763568394E-14  0.91188000000E+02  0.91188000000E+02 0.  0.
    9900012    2    3    3    0    0  0.10413317342E+01  0.33206651363E+02 -0.15874957750E+02  0.54367077278E+02  0.39999984271E+02 0.  0.
         12    1    3    3    0    0 -0.10413317342E+01 -0.33206651363E+02  0.15874957750E+02  0.36820922722E+02  0.00000000000E+00 0. -1.
         11    1    4    4    0    0  0.69435393436E+01  0.51640708496E+01  0.42704313486E+01  0.96497124579E+01  0.51100000000E-03 0. -1.
        -11    1    4    4    0    0 -0.95079977364E+01  0.32627734522E+02 -0.16010602584E+02  0.37567412426E+02  0.51100000000E-03 0.  1.
        -12    1    4    4    0    0  0.36057901269E+01 -0.45851540084E+01 -0.41347865144E+01  0.71499523943E+01  0.00000000000E+00 0.  1.
</event>
<event>
 8    1  0.1247338E-006  0.9118800E+02  0.7816164E-02  0.1184000E+00
        -11   -1    0    0    0    0  0.00000000000E+00  0.00000000000E+00  0.45593999997E+02  0.45594000000E+02  0.51100000000E-03 0. -1.
         11   -1    0    0    0    0 -0.00000000000E+00 -0.00000000000E+00 -0.45593999997E+02  0.45594000000E+02  0.51100000000E-03 0.  1.
         23    2    1    2    0    0  0.00000000000E+00  0.00000000000E+00  0.00000000000E+00  0.91188000000E+02  0.91188000000E+02 0.  0.
    9900012    2    3    3    0    0 -0.32679571995E+02  0.92366866918E+01  0.14230668860E+02  0.54367044784E+02  0.39999910194E+02 0.  0.
        -12    1    3    3    0    0  0.32679571995E+02 -0.92366866918E+01 -0.14230668860E+02  0.36820955216E+02  0.00000000000E+00 0.  1.
         11    1    4    4    0    0  0.57402694484E+00  0.46748591307E+01  0.40724959176E+01  0.62264787870E+01  0.51100000000E-03 0. -1.
        -11    1    4    4    0    0 -0.65006006011E+01  0.11392503349E+02 -0.77454311781E+01  0.15232814747E+02  0.51100000000E-03 0.  1.
         12    1    4    4    0    0 -0.26752998338E+02 -0.68306757878E+01  0.17903604121E+02  0.32907751250E+02  0.00000000000E+00 0. -1.
</event>
<event>
 8    1  0.1247338E-006  0.9118800E+02  0.7816164E-02  0.1184000E+00
        -11   -1    0    0    0    0  0.00000000000E+00  0.00000000000E+00  0.45593999997E+02  0.45594000000E+02  0.51100000000E-03 0. -1.
         11   -1    0    0    0    0 -0.00000000000E+00 -0.00000000000E+00 -0.45593999997E+02  0.45594000000E+02  0.51100000000E-03 0.  1.
         23    2    1    2    0    0  0.00000000000E+00  0.00000000000E+00  0.00000000000E+00  0.91188000000E+02  0.91188000000E+02 0.  0.
    9900012    2    3    3    0    0  0.23414066156E+02  0.95009619390E+01  0.26782333975E+02  0.54367079522E+02  0.39999989385E+02 0.  0.
        -12    1    3    3    0    0 -0.23414066156E+02 -0.95009619390E+01 -0.26782333975E+02  0.36820920478E+02  0.00000000000E+00 0.  1.
         11    1    4    4    0    0  0.49967343580E+01  0.16531828966E+02  0.13973944426E+02  0.22215756712E+02  0.51100000000E-03 0. -1.
        -11    1    4    4    0    0  0.15472049696E+02 -0.89385026548E+00  0.17880618608E+02  0.23662202183E+02  0.51100000000E-03 0.  1.
        -12    1    4    4    0    0  0.29452821022E+01 -0.61370167613E+01 -0.50722290587E+01  0.84891206267E+01  0.00000000000E+00 0.  1.
</event>
<event>
 8    1  0.1247338E-006  0.9118800E+02  0.7816164E-02  0.1184000E+00
        -11   -1    0    0    0    0  0.00000000000E+00  0.00000000000E+00  0.45593999997E+02  0.45594000000E+02  0.51100000000E-03 0.  1.
         11   -1    0    0    0    0 -0.00000000000E+00 -0.00000000000E+00 -0.45593999997E+02  0.45594000000E+02  0.51100000000E-03 0. -1.
         23    2    1    2    0    0  0.00000000000E+00  0.00000000000E+00 -0.17763568394E-14  0.91188000000E+02  0.91188000000E+02 0.  0.
    9900012    2    3    3    0    0 -0.32316688318E+02 -0.17291711138E+02 -0.35225596802E+01  0.54367081426E+02  0.39999993728E+02 0.  0.
        -12    1    3    3    0    0  0.32316688318E+02  0.17291711138E+02  0.35225596802E+01  0.36820918574E+02  0.00000000000E+00 0.  1.
         11    1    4    4    0    0 -0.34193641506E+02 -0.14583164350E+02 -0.40337175769E+01  0.37391772887E+02  0.51100000000E-03 0. -1.
        -11    1    4    4    0    0  0.29664371342E+01  0.51812731539E+01  0.50398369123E+01  0.78131489894E+01  0.51100000000E-03 0.  1.
        -12    1    4    4    0    0 -0.10894839459E+01 -0.78898199424E+01 -0.45286790156E+01  0.91621595499E+01  0.00000000000E+00 0.  1.
</event>
<event>
 8    1  0.1247338E-006  0.9118800E+02  0.7816164E-02  0.1184000E+00
        -11   -1    0    0    0    0  0.00000000000E+00  0.00000000000E+00  0.45593999997E+02  0.45594000000E+02  0.51100000000E-03 0. -1.
         11   -1    0    0    0    0 -0.00000000000E+00 -0.00000000000E+00 -0.45593999997E+02  0.45594000000E+02  0.51100000000E-03 0.  1.
         23    2    1    2    0    0 -0.35527136788E-14  0.71054273576E-14  0.44408920985E-15  0.91188000000E+02  0.91188000000E+02 0.  0.
    9900012    2    3    3    0    0  0.15134490070E+02 -0.33393505994E+02 -0.34060370509E+01  0.54367080394E+02  0.39999991374E+02 0.  0.
        -12    1    3    3    0    0 -0.15134490070E+02  0.33393505994E+02  0.34060370509E+01  0.36820919606E+02  0.00000000000E+00 0.  1.
         11    1    4    4    0    0 -0.66229871642E+01 -0.63092678066E+01 -0.36622727630E+01  0.98530736973E+01  0.51100000000E-03 0. -1.
        -11    1    4    4    0    0  0.16876061302E+02 -0.14985598747E+02  0.13191894847E+02  0.26141838206E+02  0.51100000000E-03 0.  1.
         12    1    4    4    0    0  0.48814159330E+01 -0.12098639440E+02 -0.12935659135E+02  0.18372168491E+02  0.00000000000E+00 0. -1.
</event>
<event>
 8    1  0.1247338E-006  0.9118800E+02  0.7816164E-02  0.1184000E+00
        -11   -1    0    0    0    0  0.00000000000E+00  0.00000000000E+00  0.45593999997E+02  0.45594000000E+02  0.51100000000E-03 0. -1.
         11   -1    0    0    0    0 -0.00000000000E+00 -0.00000000000E+00 -0.45593999997E+02  0.45594000000E+02  0.51100000000E-03 0.  1.
         23    2    1    2    0    0  0.00000000000E+00  0.22204460493E-15  0.00000000000E+00  0.91188000000E+02  0.91188000000E+02 0.  0.
    9900012    2    3    3    0    0 -0.27598743115E+02 -0.12005454541E+01 -0.24344350439E+02  0.54367091141E+02  0.40000015875E+02 0.  0.
         12    1    3    3    0    0  0.27598743115E+02  0.12005454541E+01  0.24344350439E+02  0.36820908859E+02  0.00000000000E+00 0. -1.
         11    1    4    4    0    0  0.50046062135E+01  0.41892419284E+01 -0.13673139549E+02  0.15150926595E+02  0.51100000000E-03 0. -1.
        -11    1    4    4    0    0 -0.16686415982E+02 -0.23554167054E+01 -0.14873228898E+02  0.22476596812E+02  0.51100000000E-03 0.  1.
        -12    1    4    4    0    0 -0.15916933347E+02 -0.30343706770E+01  0.42020180085E+01  0.16739567734E+02  0.00000000000E+00 0.  1.
</event>
<event>
 8    1  0.1247338E-006  0.9118800E+02  0.7816164E-02  0.1184000E+00
        -11   -1    0    0    0    0  0.00000000000E+00  0.00000000000E+00  0.45593999997E+02  0.45594000000E+02  0.51100000000E-03 0.  1.
         11   -1    0    0    0    0 -0.00000000000E+00 -0.00000000000E+00 -0.45593999997E+02  0.45594000000E+02  0.51100000000E-03 0. -1.
         23    2    1    2    0    0  0.00000000000E+00 -0.17763568394E-14  0.00000000000E+00  0.91188000000E+02  0.91188000000E+02 0.  0.
    9900012    2    3    3    0    0 -0.30471939636E+02  0.15841603349E+02  0.13277215835E+02  0.54367082546E+02  0.39999996280E+02 0.  0.
         12    1    3    3    0    0  0.30471939636E+02 -0.15841603349E+02 -0.13277215835E+02  0.36820917454E+02  0.00000000000E+00 0. -1.
         11    1    4    4    0    0 -0.22139336651E+02  0.26409585563E+02  0.22394556431E+01  0.34534498676E+02  0.51100000000E-03 0. -1.
        -11    1    4    4    0    0  0.20502407914E+01 -0.29789748411E+01  0.23768376795E+01  0.43274861088E+01  0.51100000000E-03 0.  1.
         12    1    4    4    0    0 -0.10382843777E+02 -0.75890073736E+01  0.86609225127E+01  0.15505097761E+02  0.00000000000E+00 0. -1.
</event>
<event>
 8    1  0.1247338E-006  0.9118800E+02  0.7816164E-02  0.1184000E+00
        -11   -1    0    0    0    0  0.00000000000E+00  0.00000000000E+00  0.45593999997E+02  0.45594000000E+02  0.51100000000E-03 0.  1.
         11   -1    0    0    0    0 -0.00000000000E+00 -0.00000000000E+00 -0.45593999997E+02  0.45594000000E+02  0.51100000000E-03 0. -1.
         23    2    1    2    0    0  0.35527136788E-14  0.26645352591E-14  0.00000000000E+00  0.91188000000E+02  0.91188000000E+02 0.  0.
    9900012    2    3    3    0    0 -0.16965707905E+02 -0.65483977599E+01 -0.32016601278E+02  0.54367088613E+02  0.40000010111E+02 0.  0.
        -12    1    3    3    0    0  0.16965707905E+02  0.65483977599E+01  0.32016601278E+02  0.36820911387E+02  0.00000000000E+00 0.  1.
         11    1    4    4    0    0 -0.14163833373E+02  0.70288414513E+01 -0.31052390388E+02  0.34846373370E+02  0.51100000000E-03 0. -1.
        -11    1    4    4    0    0 -0.37300976019E+01  0.17513870800E+01  0.15104959167E+00  0.41235665466E+01  0.51100000000E-03 0.  1.
         12    1    4    4    0    0  0.92822306962E+00 -0.15328626291E+02 -0.11152604823E+01  0.15397148697E+02  0.00000000000E+00 0. -1.
</event>
<event>
 8    1  0.1247338E-006  0.9118800E+02  0.7816164E-02  0.1184000E+00
        -11   -1    0    0    0    0  0.00000000000E+00  0.00000000000E+00  0.45593999997E+02  0.45594000000E+02  0.51100000000E-03 0.  1.
         11   -1    0    0    0    0 -0.00000000000E+00 -0.00000000000E+00 -0.45593999997E+02  0.45594000000E+02  0.51100000000E-03 0. -1.
         23    2    1    2    0    0  0.00000000000E+00 -0.35527136788E-14  0.35527136788E-14  0.91188000000E+02  0.91188000000E+02 0.  0.
    9900012    2    3    3    0    0 -0.18323347863E+02 -0.20981881603E+02  0.24078943824E+02  0.54367082464E+02  0.39999996093E+02 0.  0.
         12    1    3    3    0    0  0.18323347863E+02  0.20981881603E+02 -0.24078943824E+02  0.36820917536E+02  0.00000000000E+00 0. -1.
         11    1    4    4    0    0  0.27506978293E+01  0.26387874291E+01 -0.12736321485E+01  0.40189148727E+01  0.51100000000E-03 0. -1.
        -11    1    4    4    0    0 -0.23618932247E+02 -0.18643148623E+02  0.66342787825E+01  0.30812896753E+02  0.51100000000E-03 0.  1.
        -12    1    4    4    0    0  0.25448865556E+01 -0.49775204098E+01  0.18718297190E+02  0.19535270838E+02  0.00000000000E+00 0.  1.
</event>
<event>
 8    1  0.1247338E-006  0.9118800E+02  0.7816164E-02  0.1184000E+00
        -11   -1    0    0    0    0  0.00000000000E+00  0.00000000000E+00  0.45593999997E+02  0.45594000000E+02  0.51100000000E-03 0. -1.
         11   -1    0    0    0    0 -0.00000000000E+00 -0.00000000000E+00 -0.45593999997E+02  0.45594000000E+02  0.51100000000E-03 0.  1.
         23    2    1    2    0    0 -0.17763568394E-14  0.35527136788E-14  0.71054273576E-14  0.91188000000E+02  0.91188000000E+02 0.  0.
    9900012    2    3    3    0    0  0.49399608260E+01  0.18370692790E+02  0.31526088361E+02  0.54367084559E+02  0.40000000870E+02 0.  0.
        -12    1    3    3    0    0 -0.49399608260E+01 -0.18370692790E+02 -0.31526088361E+02  0.36820915441E+02  0.00000000000E+00 0.  1.
         11    1    4    4    0    0  0.48012808918E+01 -0.78234371191E+01  0.17135719768E+02  0.19439427944E+02  0.51100000000E-03 0. -1.
        -11    1    4    4    0    0 -0.33808883541E+01 -0.61695677227E+00  0.54571911582E+01  0.64491842368E+01  0.51100000000E-03 0.  1.
        -12    1    4    4    0    0  0.35195682883E+01  0.26811086681E+02  0.89331774350E+01  0.28478472379E+02  0.00000000000E+00 0.  1.
</event>
<event>
 8    1  0.1247338E-006  0.9118800E+02  0.7816164E-02  0.1184000E+00
        -11   -1    0    0    0    0  0.00000000000E+00  0.00000000000E+00  0.45593999997E+02  0.45594000000E+02  0.51100000000E-03 0.  1.
         11   -1    0    0    0    0 -0.00000000000E+00 -0.00000000000E+00 -0.45593999997E+02  0.45594000000E+02  0.51100000000E-03 0. -1.
         23    2    1    2    0    0  0.44408920985E-15  0.00000000000E+00  0.00000000000E+00  0.91188000000E+02  0.91188000000E+02 0.  0.
    9900012    2    3    3    0    0 -0.35586054386E+01 -0.32944493139E+02 -0.16055413610E+02  0.54367087368E+02  0.40000007273E+02 0.  0.
        -12    1    3    3    0    0  0.35586054386E+01  0.32944493139E+02  0.16055413610E+02  0.36820912632E+02  0.00000000000E+00 0.  1.
         11    1    4    4    0    0  0.51154470893E+01 -0.20264005150E+01 -0.88254928633E+01  0.10400164543E+02  0.51100000000E-03 0. -1.
        -11    1    4    4    0    0 -0.99224521413E+00 -0.59709959443E+00  0.87611447950E+01  0.88373489730E+01  0.51100000000E-03 0.  1.
         12    1    4    4    0    0 -0.76818073137E+01 -0.30320993029E+02 -0.15991065542E+02  0.35129573853E+02  0.00000000000E+00 0. -1.
</event>
<event>
 8    1  0.1247338E-006  0.9118800E+02  0.7816164E-02  0.1184000E+00
        -11   -1    0    0    0    0  0.00000000000E+00  0.00000000000E+00  0.45593999997E+02  0.45594000000E+02  0.51100000000E-03 0. -1.
         11   -1    0    0    0    0 -0.00000000000E+00 -0.00000000000E+00 -0.45593999997E+02  0.45594000000E+02  0.51100000000E-03 0.  1.
         23    2    1    2    0    0  0.00000000000E+00  0.00000000000E+00  0.00000000000E+00  0.91188000000E+02  0.91188000000E+02 0.  0.
    9900012    2    3    3    0    0 -0.77144729793E+01  0.17565911427E+02 -0.31427784051E+02  0.54367082739E+02  0.39999996719E+02 0.  0.
         12    1    3    3    0    0  0.77144729793E+01 -0.17565911427E+02  0.31427784051E+02  0.36820917261E+02  0.00000000000E+00 0. -1.
         11    1    4    4    0    0  0.87883137504E+01  0.10536012721E+02 -0.26956060582E+02  0.30246838264E+02  0.51100000000E-03 0. -1.
        -11    1    4    4    0    0 -0.10704051105E+02  0.11255412310E+02  0.24366356518E+00  0.15534490288E+02  0.51100000000E-03 0.  1.
         12    1    4    4    0    0 -0.57987356246E+01 -0.42255136038E+01 -0.47153870342E+01  0.85857541859E+01  0.00000000000E+00 0. -1.
</event>
<event>
 8    1  0.1247338E-006  0.9118800E+02  0.7816164E-02  0.1184000E+00
        -11   -1    0    0    0    0  0.00000000000E+00  0.00000000000E+00  0.45593999997E+02  0.45594000000E+02  0.51100000000E-03 0. -1.
         11   -1    0    0    0    0 -0.00000000000E+00 -0.00000000000E+00 -0.45593999997E+02  0.45594000000E+02  0.51100000000E-03 0.  1.
         23    2    1    2    0    0  0.00000000000E+00 -0.35527136788E-14  0.00000000000E+00  0.91188000000E+02  0.91188000000E+02 0.  0.
    9900012    2    3    3    0    0  0.20389004127E+02 -0.30168815744E+02 -0.54688965348E+01  0.54367112422E+02  0.40000064389E+02 0.  0.
         12    1    3    3    0    0 -0.20389004127E+02  0.30168815744E+02  0.54688965348E+01  0.36820887578E+02  0.00000000000E+00 0. -1.
         11    1    4    4    0    0  0.40987438077E+01  0.35865680775E+01  0.88696295099E+01  0.10408337969E+02  0.51100000000E-03 0. -1.
        -11    1    4    4    0    0  0.12056668866E+02 -0.59800514112E+01 -0.47042413645E+01  0.14256723540E+02  0.51100000000E-03 0.  1.
        -12    1    4    4    0    0  0.42335914530E+01 -0.27775332411E+02 -0.96342846802E+01  0.29702050913E+02  0.00000000000E+00 0.  1.
</event>
<event>
 8    1  0.1247338E-006  0.9118800E+02  0.7816164E-02  0.1184000E+00
        -11   -1    0    0    0    0  0.00000000000E+00  0.00000000000E+00  0.45593999997E+02  0.45594000000E+02  0.51100000000E-03 0.  1.
         11   -1    0    0    0    0 -0.00000000000E+00 -0.00000000000E+00 -0.45593999997E+02  0.45594000000E+02  0.51100000000E-03 0. -1.
         23    2    1    2    0    0  0.00000000000E+00  0.00000000000E+00  0.00000000000E+00  0.91188000000E+02  0.91188000000E+02 0.  0.
    9900012    2    3    3    0    0 -0.32460951971E+02  0.17090083736E+02  0.31615971068E+01  0.54367081200E+02  0.39999993213E+02 0.  0.
         12    1    3    3    0    0  0.32460951971E+02 -0.17090083736E+02 -0.31615971068E+01  0.36820918800E+02  0.00000000000E+00 0. -1.
         11    1    4    4    0    0 -0.12071759250E+02  0.12819823881E+01  0.10600840570E+02  0.16116720240E+02  0.51100000000E-03 0.  1.
        -11    1    4    4    0    0 -0.16417391426E+02  0.10202839795E+01  0.63620342575E+01  0.17636530293E+02  0.51100000000E-03 0. -1.
         12    1    4    4    0    0 -0.39718012954E+01  0.14787817368E+02 -0.13801277721E+02  0.20613830667E+02  0.00000000000E+00 0. -1.
</event>
<event>
 8    1  0.1247338E-006  0.9118800E+02  0.7816164E-02  0.1184000E+00
        -11   -1    0    0    0    0  0.00000000000E+00  0.00000000000E+00  0.45593999997E+02  0.45594000000E+02  0.51100000000E-03 0. -1.
         11   -1    0    0    0    0 -0.00000000000E+00 -0.00000000000E+00 -0.45593999997E+02  0.45594000000E+02  0.51100000000E-03 0.  1.
         23    2    1    2    0    0  0.17763568394E-14  0.00000000000E+00  0.00000000000E+00  0.91188000000E+02  0.91188000000E+02 0.  0.
    9900012    2    3    3    0    0 -0.10799599974E+02 -0.25419546207E+02 -0.24351511389E+02  0.54367071224E+02  0.39999970470E+02 0.  0.
         12    1    3    3    0    0  0.10799599974E+02  0.25419546207E+02  0.24351511389E+02  0.36820928776E+02  0.00000000000E+00 0. -1.
         11    1    4    4    0    0  0.64466417627E+01 -0.11294867534E+02 -0.40204558515E+00  0.13011335963E+02  0.51100000000E-03 0. -1.
        -11    1    4    4    0    0 -0.91866752723E+01 -0.21930448587E+00  0.32629757122E+01  0.97514156806E+01  0.51100000000E-03 0.  1.
        -12    1    4    4    0    0 -0.80595664639E+01 -0.13905374188E+02 -0.27212441517E+02  0.31604319581E+02  0.00000000000E+00 0.  1.
</event>
<event>
 8    1  0.1247338E-006  0.9118800E+02  0.7816164E-02  0.1184000E+00
        -11   -1    0    0    0    0  0.00000000000E+00  0.00000000000E+00  0.45593999997E+02  0.45594000000E+02  0.51100000000E-03 0. -1.
         11   -1    0    0    0    0 -0.00000000000E+00 -0.00000000000E+00 -0.45593999997E+02  0.45594000000E+02  0.51100000000E-03 0.  1.
         23    2    1    2    0    0  0.17763568394E-14  0.00000000000E+00  0.35527136788E-14  0.91188000000E+02  0.91188000000E+02 0.  0.
    9900012    2    3    3    0    0 -0.12487492658E+02 -0.24946560717E+02 -0.24031426277E+02  0.54367111725E+02  0.40000062799E+02 0.  0.
         12    1    3    3    0    0  0.12487492658E+02  0.24946560717E+02  0.24031426277E+02  0.36820888275E+02  0.00000000000E+00 0. -1.
         11    1    4    4    0    0 -0.12190816252E+02  0.11998648188E+01 -0.95471602799E+01  0.15530741971E+02  0.51100000000E-03 0. -1.
        -11    1    4    4    0    0 -0.31875057537E+00 -0.22881015460E+02  0.11038949291E+01  0.22909846239E+02  0.51100000000E-03 0.  1.
        -12    1    4    4    0    0  0.22074169410E-01 -0.32654100752E+01 -0.15588160926E+02  0.15926523515E+02  0.00000000000E+00 0.  1.
</event>
<event>
 8    1  0.1247338E-006  0.9118800E+02  0.7816164E-02  0.1184000E+00
        -11   -1    0    0    0    0  0.00000000000E+00  0.00000000000E+00  0.45593999997E+02  0.45594000000E+02  0.51100000000E-03 0.  1.
         11   -1    0    0    0    0 -0.00000000000E+00 -0.00000000000E+00 -0.45593999997E+02  0.45594000000E+02  0.51100000000E-03 0. -1.
         23    2    1    2    0    0 -0.88817841970E-15 -0.35527136788E-14  0.00000000000E+00  0.91188000000E+02  0.91188000000E+02 0.  0.
    9900012    2    3    3    0    0  0.50838882200E+01  0.19976307821E+02  0.30510366788E+02  0.54367064717E+02  0.39999955635E+02 0.  0.
         12    1    3    3    0    0 -0.50838882200E+01 -0.19976307821E+02 -0.30510366788E+02  0.36820935283E+02  0.00000000000E+00 0. -1.
         11    1    4    4    0    0 -0.12089833285E+02  0.12174889815E+02  0.16456030441E+02  0.23773787014E+02  0.51100000000E-03 0. -1.
        -11    1    4    4    0    0  0.39161996019E+01  0.11743773349E+02  0.10695753209E+02  0.16360072395E+02  0.51100000000E-03 0.  1.
         12    1    4    4    0    0  0.13257521903E+02 -0.39423553426E+01  0.33585831375E+01  0.14233205308E+02  0.00000000000E+00 0. -1.
</event>
<event>
 8    1  0.1247338E-006  0.9118800E+02  0.7816164E-02  0.1184000E+00
        -11   -1    0    0    0    0  0.00000000000E+00  0.00000000000E+00  0.45593999997E+02  0.45594000000E+02  0.51100000000E-03 0. -1.
         11   -1    0    0    0    0 -0.00000000000E+00 -0.00000000000E+00 -0.45593999997E+02  0.45594000000E+02  0.51100000000E-03 0.  1.
         23    2    1    2    0    0  0.00000000000E+00  0.35527136788E-14  0.11102230246E-15  0.91188000000E+02  0.91188000000E+02 0.  0.
    9900012    2    3    3    0    0  0.25751598858E+02  0.26299251097E+02  0.99213206335E+00  0.54367085046E+02  0.40000001979E+02 0.  0.
        -12    1    3    3    0    0 -0.25751598858E+02 -0.26299251097E+02 -0.99213206335E+00  0.36820914954E+02  0.00000000000E+00 0.  1.
         11    1    4    4    0    0  0.11931041676E+02  0.23417024051E+02 -0.12055412454E+02  0.28914351810E+02  0.51100000000E-03 0. -1.
        -11    1    4    4    0    0 -0.14316743993E+01 -0.44971700877E+01  0.15150641926E+01  0.49567782028E+01  0.51100000000E-03 0.  1.
         12    1    4    4    0    0  0.15252231581E+02  0.73793971340E+01  0.11532480325E+02  0.20495955033E+02  0.00000000000E+00 0. -1.
</event>
<event>
 8    1  0.1247338E-006  0.9118800E+02  0.7816164E-02  0.1184000E+00
        -11   -1    0    0    0    0  0.00000000000E+00  0.00000000000E+00  0.45593999997E+02  0.45594000000E+02  0.51100000000E-03 0. -1.
         11   -1    0    0    0    0 -0.00000000000E+00 -0.00000000000E+00 -0.45593999997E+02  0.45594000000E+02  0.51100000000E-03 0.  1.
         23    2    1    2    0    0 -0.71054273576E-14  0.17763568394E-14 -0.35527136788E-14  0.91188000000E+02  0.91188000000E+02 0.  0.
    9900012    2    3    3    0    0  0.26029004308E+02 -0.11929599702E+02  0.23150728931E+02  0.54367073011E+02  0.39999974542E+02 0.  0.
        -12    1    3    3    0    0 -0.26029004308E+02  0.11929599702E+02 -0.23150728931E+02  0.36820926989E+02  0.00000000000E+00 0.  1.
         11    1    4    4    0    0  0.16510253300E+02 -0.26615648348E+01  0.13149687797E+02  0.21274084723E+02  0.51100000000E-03 0. -1.
        -11    1    4    4    0    0  0.17437722907E+02  0.19225277240E+01  0.33688606216E+01  0.17863916569E+02  0.51100000000E-03 0.  1.
        -12    1    4    4    0    0 -0.79189718991E+01 -0.11190562592E+02  0.66321805129E+01  0.15229071719E+02  0.00000000000E+00 0.  1.
</event>
<event>
 8    1  0.1247338E-006  0.9118800E+02  0.7816164E-02  0.1184000E+00
        -11   -1    0    0    0    0  0.00000000000E+00  0.00000000000E+00  0.45593999997E+02  0.45594000000E+02  0.51100000000E-03 0. -1.
         11   -1    0    0    0    0 -0.00000000000E+00 -0.00000000000E+00 -0.45593999997E+02  0.45594000000E+02  0.51100000000E-03 0.  1.
         23    2    1    2    0    0 -0.13322676296E-14  0.10658141036E-13 -0.35527136788E-14  0.91188000000E+02  0.91188000000E+02 0.  0.
    9900012    2    3    3    0    0 -0.34796400200E+01  0.28726717142E+02 -0.22769449776E+02  0.54367081821E+02  0.39999994628E+02 0.  0.
         12    1    3    3    0    0  0.34796400200E+01 -0.28726717142E+02  0.22769449776E+02  0.36820918179E+02  0.00000000000E+00 0. -1.
         11    1    4    4    0    0  0.12302578344E+01 -0.22100312347E+01 -0.88139441570E+01  0.91696992459E+01  0.51100000000E-03 0. -1.
        -11    1    4    4    0    0  0.49457857436E+01  0.20600930728E+02 -0.20617686084E+02  0.29562613605E+02  0.51100000000E-03 0.  1.
         12    1    4    4    0    0 -0.96556835980E+01  0.10335817649E+02  0.66621804641E+01  0.15634768970E+02  0.00000000000E+00 0. -1.
</event>
<event>
 8    1  0.1247338E-006  0.9118800E+02  0.7816164E-02  0.1184000E+00
        -11   -1    0    0    0    0  0.00000000000E+00  0.00000000000E+00  0.45593999997E+02  0.45594000000E+02  0.51100000000E-03 0.  1.
         11   -1    0    0    0    0 -0.00000000000E+00 -0.00000000000E+00 -0.45593999997E+02  0.45594000000E+02  0.51100000000E-03 0. -1.
         23    2    1    2    0    0 -0.17763568394E-14 -0.17763568394E-14  0.35527136788E-14  0.91188000000E+02  0.91188000000E+02 0.  0.
    9900012    2    3    3    0    0  0.11100073788E+02  0.15912805585E+02 -0.31294598397E+02  0.54367069695E+02  0.39999966985E+02 0.  0.
        -12    1    3    3    0    0 -0.11100073788E+02 -0.15912805585E+02  0.31294598397E+02  0.36820930305E+02  0.00000000000E+00 0.  1.
         11    1    4    4    0    0  0.18994614563E+02  0.10387090802E+02 -0.72353250281E+01  0.22826234167E+02  0.51100000000E-03 0. -1.
        -11    1    4    4    0    0 -0.10340008936E+02  0.65929315452E+01 -0.66927175086E+01  0.13970504610E+02  0.51100000000E-03 0.  1.
         12    1    4    4    0    0  0.24454681610E+01 -0.10672167624E+01 -0.17366555860E+02  0.17570330919E+02  0.00000000000E+00 0. -1.
</event>
<event>
 8    1  0.1247338E-006  0.9118800E+02  0.7816164E-02  0.1184000E+00
        -11   -1    0    0    0    0  0.00000000000E+00  0.00000000000E+00  0.45593999997E+02  0.45594000000E+02  0.51100000000E-03 0.  1.
         11   -1    0    0    0    0 -0.00000000000E+00 -0.00000000000E+00 -0.45593999997E+02  0.45594000000E+02  0.51100000000E-03 0. -1.
         23    2    1    2    0    0  0.00000000000E+00 -0.17763568394E-14 -0.35527136788E-14  0.91188000000E+02  0.91188000000E+02 0.  0.
    9900012    2    3    3    0    0  0.15996272932E+02 -0.15289623685E+02 -0.29429992316E+02  0.54367112072E+02  0.40000063590E+02 0.  0.
        -12    1    3    3    0    0 -0.15996272932E+02  0.15289623685E+02  0.29429992316E+02  0.36820887928E+02  0.00000000000E+00 0.  1.
         11    1    4    4    0    0 -0.13631654375E+01 -0.67014670012E+01 -0.14647543819E+02  0.16165346274E+02  0.51100000000E-03 0. -1.
        -11    1    4    4    0    0 -0.78731378196E+01  0.15644063026E+01 -0.33121403607E+01  0.86835442209E+01  0.51100000000E-03 0.  1.
        -12    1    4    4    0    0  0.25232576189E+02 -0.10152562986E+02 -0.11470308136E+02  0.29518221577E+02  0.00000000000E+00 0.  1.
</event>
<event>
 8    1  0.1247338E-006  0.9118800E+02  0.7816164E-02  0.1184000E+00
        -11   -1    0    0    0    0  0.00000000000E+00  0.00000000000E+00  0.45593999997E+02  0.45594000000E+02  0.51100000000E-03 0.  1.
         11   -1    0    0    0    0 -0.00000000000E+00 -0.00000000000E+00 -0.45593999997E+02  0.45594000000E+02  0.51100000000E-03 0. -1.
         23    2    1    2    0    0 -0.88817841970E-15  0.00000000000E+00  0.00000000000E+00  0.91188000000E+02  0.91188000000E+02 0.  0.
    9900012    2    3    3    0    0 -0.43439519976E+01  0.25561380846E+02 -0.26144327671E+02  0.54367082317E+02  0.39999995758E+02 0.  0.
        -12    1    3    3    0    0  0.43439519976E+01 -0.25561380846E+02  0.26144327671E+02  0.36820917683E+02  0.00000000000E+00 0.  1.
         11    1    4    4    0    0  0.64649316232E+01 -0.36070547659E+01 -0.12820500703E+01  0.75133106964E+01  0.51100000000E-03 0. -1.
        -11    1    4    4    0    0 -0.14410609078E+02  0.16089008548E+02 -0.25318473154E+02  0.33279827722E+02  0.51100000000E-03 0.  1.
        -12    1    4    4    0    0  0.36017254574E+01  0.13079427064E+02  0.45619555408E+00  0.13573943899E+02  0.00000000000E+00 0.  1.
</event>
<event>
 8    1  0.1247338E-006  0.9118800E+02  0.7816164E-02  0.1184000E+00
        -11   -1    0    0    0    0  0.00000000000E+00  0.00000000000E+00  0.45593999997E+02  0.45594000000E+02  0.51100000000E-03 0.  1.
         11   -1    0    0    0    0 -0.00000000000E+00 -0.00000000000E+00 -0.45593999997E+02  0.45594000000E+02  0.51100000000E-03 0. -1.
         23    2    1    2    0    0 -0.88817841970E-15 -0.71054273576E-14  0.66613381478E-15  0.91188000000E+02  0.91188000000E+02 0.  0.
    9900012    2    3    3    0    0  0.59742145454E+01 -0.36310436275E+02 -0.12812162038E+01  0.54367074742E+02  0.39999978490E+02 0.  0.
        -12    1    3    3    0    0 -0.59742145454E+01  0.36310436275E+02  0.12812162038E+01  0.36820925258E+02  0.00000000000E+00 0.  1.
         11    1    4    4    0    0  0.17461577214E+02 -0.70792135983E+01  0.58054248225E+01  0.19716107668E+02  0.51100000000E-03 0. -1.
        -11    1    4    4    0    0 -0.68726142988E+01 -0.12931249943E+02 -0.96210067883E+01  0.17521809960E+02  0.51100000000E-03 0.  1.
        -12    1    4    4    0    0 -0.46147483696E+01 -0.16299972733E+02  0.25343657621E+01  0.17129157114E+02  0.00000000000E+00 0.  1.
</event>
<event>
 8    1  0.1247338E-006  0.9118800E+02  0.7816164E-02  0.1184000E+00
        -11   -1    0    0    0    0  0.00000000000E+00  0.00000000000E+00  0.45593999997E+02  0.45594000000E+02  0.51100000000E-03 0. -1.
         11   -1    0    0    0    0 -0.00000000000E+00 -0.00000000000E+00 -0.45593999997E+02  0.45594000000E+02  0.51100000000E-03 0.  1.
         23    2    1    2    0    0  0.00000000000E+00  0.35527136788E-14 -0.88817841970E-15  0.91188000000E+02  0.91188000000E+02 0.  0.
    9900012    2    3    3    0    0 -0.28401388814E+02  0.22881189256E+02 -0.50585328338E+01  0.54367130065E+02  0.40000104609E+02 0.  0.
        -12    1    3    3    0    0  0.28401388814E+02 -0.22881189256E+02  0.50585328338E+01  0.36820869935E+02  0.00000000000E+00 0.  1.
         11    1    4    4    0    0 -0.55225068092E+01 -0.17614481644E+01  0.10542735548E+02  0.12031211668E+02  0.51100000000E-03 0. -1.
        -11    1    4    4    0    0  0.32038987429E+01  0.20919070082E+01 -0.49340398116E+01  0.62438602811E+01  0.51100000000E-03 0.  1.
        -12    1    4    4    0    0 -0.26082780748E+02  0.22550730413E+02 -0.10667228570E+02  0.36092058116E+02  0.00000000000E+00 0.  1.
</event>
<event>
 8    1  0.1247338E-006  0.9118800E+02  0.7816164E-02  0.1184000E+00
        -11   -1    0    0    0    0  0.00000000000E+00  0.00000000000E+00  0.45593999997E+02  0.45594000000E+02  0.51100000000E-03 0.  1.
         11   -1    0    0    0    0 -0.00000000000E+00 -0.00000000000E+00 -0.45593999997E+02  0.45594000000E+02  0.51100000000E-03 0. -1.
         23    2    1    2    0    0  0.00000000000E+00  0.00000000000E+00  0.17763568394E-14  0.91188000000E+02  0.91188000000E+02 0.  0.
    9900012    2    3    3    0    0  0.17729155400E+02 -0.31813324016E+02  0.54194454011E+01  0.54367069477E+02  0.39999966487E+02 0.  0.
         12    1    3    3    0    0 -0.17729155400E+02  0.31813324016E+02 -0.54194454011E+01  0.36820930523E+02  0.00000000000E+00 0. -1.
         11    1    4    4    0    0 -0.47639271359E+01 -0.76624126241E+00  0.86156277715E+01  0.98747744068E+01  0.51100000000E-03 0.  1.
        -11    1    4    4    0    0  0.23442486705E+01 -0.10534096649E+02  0.82093910908E+01  0.13559380383E+02  0.51100000000E-03 0. -1.
         12    1    4    4    0    0  0.20148833865E+02 -0.20512986105E+02 -0.11405573461E+02  0.30932914687E+02  0.00000000000E+00 0. -1.
</event>
<event>
 8    1  0.1247338E-006  0.9118800E+02  0.7816164E-02  0.1184000E+00
        -11   -1    0    0    0    0  0.00000000000E+00  0.00000000000E+00  0.45593999997E+02  0.45594000000E+02  0.51100000000E-03 0. -1.
         11   -1    0    0    0    0 -0.00000000000E+00 -0.00000000000E+00 -0.45593999997E+02  0.45594000000E+02  0.51100000000E-03 0.  1.
         23    2    1    2    0    0  0.00000000000E+00  0.00000000000E+00  0.00000000000E+00  0.91188000000E+02  0.91188000000E+02 0.  0.
    9900012    2    3    3    0    0 -0.31329732526E+02 -0.16480795762E+02  0.10129724530E+02  0.54367080835E+02  0.39999992379E+02 0.  0.
        -12    1    3    3    0    0  0.31329732526E+02  0.16480795762E+02 -0.10129724530E+02  0.36820919165E+02  0.00000000000E+00 0.  1.
         11    1    4    4    0    0 -0.17801177901E+02  0.42682938339E+01  0.15573059174E+02  0.24033735441E+02  0.51100000000E-03 0. -1.
        -11    1    4    4    0    0  0.66450368598E+00 -0.99812040531E+01  0.32393006210E+01  0.10514707237E+02  0.51100000000E-03 0.  1.
         12    1    4    4    0    0 -0.14193058311E+02 -0.10767885542E+02 -0.86826352653E+01  0.19818638158E+02  0.00000000000E+00 0. -1.
</event>
<event>
 8    1  0.1247338E-006  0.9118800E+02  0.7816164E-02  0.1184000E+00
        -11   -1    0    0    0    0  0.00000000000E+00  0.00000000000E+00  0.45593999997E+02  0.45594000000E+02  0.51100000000E-03 0.  1.
         11   -1    0    0    0    0 -0.00000000000E+00 -0.00000000000E+00 -0.45593999997E+02  0.45594000000E+02  0.51100000000E-03 0. -1.
         23    2    1    2    0    0  0.35527136788E-14  0.00000000000E+00  0.00000000000E+00  0.91188000000E+02  0.91188000000E+02 0.  0.
    9900012    2    3    3    0    0 -0.30475768679E+02 -0.20626582649E+02 -0.12457894258E+01  0.54367076877E+02  0.39999983357E+02 0.  0.
        -12    1    3    3    0    0  0.30475768679E+02  0.20626582649E+02  0.12457894258E+01  0.36820923123E+02  0.00000000000E+00 0.  1.
         11    1    4    4    0    0 -0.57844667462E+01 -0.96790254942E+01 -0.73891721811E+01  0.13481226051E+02  0.51100000000E-03 0. -1.
        -11    1    4    4    0    0 -0.16560308314E+02  0.88084119800E+01  0.53588235269E+01  0.19507663184E+02  0.51100000000E-03 0.  1.
        -12    1    4    4    0    0 -0.81309936190E+01 -0.19755969134E+02  0.78455922839E+00  0.21378187642E+02  0.00000000000E+00 0.  1.
</event>
<event>
 8    1  0.1247338E-006  0.9118800E+02  0.7816164E-02  0.1184000E+00
        -11   -1    0    0    0    0  0.00000000000E+00  0.00000000000E+00  0.45593999997E+02  0.45594000000E+02  0.51100000000E-03 0.  1.
         11   -1    0    0    0    0 -0.00000000000E+00 -0.00000000000E+00 -0.45593999997E+02  0.45594000000E+02  0.51100000000E-03 0. -1.
         23    2    1    2    0    0  0.00000000000E+00  0.17763568394E-14 -0.35527136788E-14  0.91188000000E+02  0.91188000000E+02 0.  0.
    9900012    2    3    3    0    0 -0.26179308112E+02 -0.15585294293E+02  0.20676589366E+02  0.54367096708E+02  0.40000028564E+02 0.  0.
         12    1    3    3    0    0  0.26179308112E+02  0.15585294293E+02 -0.20676589366E+02  0.36820903292E+02  0.00000000000E+00 0. -1.
         11    1    4    4    0    0 -0.25353654010E+02 -0.58715548042E+01  0.12659019259E+02  0.28940174435E+02  0.51100000000E-03 0. -1.
        -11    1    4    4    0    0  0.67903723511E+00 -0.82805794994E+01  0.15540628359E+02  0.17622151358E+02  0.51100000000E-03 0.  1.
         12    1    4    4    0    0 -0.15046913373E+01 -0.14331599896E+01 -0.75230582514E+01  0.78047709147E+01  0.00000000000E+00 0. -1.
</event>
<event>
 8    1  0.1247338E-006  0.9118800E+02  0.7816164E-02  0.1184000E+00
        -11   -1    0    0    0    0  0.00000000000E+00  0.00000000000E+00  0.45593999997E+02  0.45594000000E+02  0.51100000000E-03 0. -1.
         11   -1    0    0    0    0 -0.00000000000E+00 -0.00000000000E+00 -0.45593999997E+02  0.45594000000E+02  0.51100000000E-03 0.  1.
         23    2    1    2    0    0  0.35527136788E-14  0.00000000000E+00  0.00000000000E+00  0.91188000000E+02  0.91188000000E+02 0.  0.
    9900012    2    3    3    0    0 -0.24103466844E+02 -0.15045652278E+02  0.23418575472E+02  0.54367103168E+02  0.40000043292E+02 0.  0.
        -12    1    3    3    0    0  0.24103466844E+02  0.15045652278E+02 -0.23418575472E+02  0.36820896832E+02  0.00000000000E+00 0.  1.
         11    1    4    4    0    0 -0.23884017561E+01 -0.21377224203E+01 -0.73505914399E+01  0.80190719458E+01  0.51100000000E-03 0. -1.
        -11    1    4    4    0    0 -0.95183870063E+00  0.48351183582E+01 -0.35392986355E+00  0.49406105958E+01  0.51100000000E-03 0.  1.
         12    1    4    4    0    0 -0.20763226387E+02 -0.17743048216E+02  0.31123096775E+02  0.41407420626E+02  0.00000000000E+00 0. -1.
</event>
<event>
 8    1  0.1247338E-006  0.9118800E+02  0.7816164E-02  0.1184000E+00
        -11   -1    0    0    0    0  0.00000000000E+00  0.00000000000E+00  0.45593999997E+02  0.45594000000E+02  0.51100000000E-03 0.  1.
         11   -1    0    0    0    0 -0.00000000000E+00 -0.00000000000E+00 -0.45593999997E+02  0.45594000000E+02  0.51100000000E-03 0. -1.
         23    2    1    2    0    0  0.71054273576E-14 -0.17763568394E-14  0.88817841970E-15  0.91188000000E+02  0.91188000000E+02 0.  0.
    9900012    2    3    3    0    0  0.35381787245E+02 -0.88843521745E+01 -0.49977487619E+01  0.54367081015E+02  0.39999992789E+02 0.  0.
        -12    1    3    3    0    0 -0.35381787245E+02  0.88843521745E+01  0.49977487619E+01  0.36820918985E+02  0.00000000000E+00 0.  1.
         11    1    4    4    0    0  0.33951680008E+02 -0.77188521741E+01  0.76427784926E+01  0.35647009939E+02  0.51100000000E-03 0. -1.
        -11    1    4    4    0    0  0.29408191660E+00 -0.16832273538E+01 -0.15503164300E+02  0.15597045940E+02  0.51100000000E-03 0.  1.
        -12    1    4    4    0    0  0.11360253208E+01  0.51772735342E+00  0.28626370453E+01  0.31230251352E+01  0.00000000000E+00 0.  1.
</event>
<event>
 8    1  0.1247338E-006  0.9118800E+02  0.7816164E-02  0.1184000E+00
        -11   -1    0    0    0    0  0.00000000000E+00  0.00000000000E+00  0.45593999997E+02  0.45594000000E+02  0.51100000000E-03 0.  1.
         11   -1    0    0    0    0 -0.00000000000E+00 -0.00000000000E+00 -0.45593999997E+02  0.45594000000E+02  0.51100000000E-03 0. -1.
         23    2    1    2    0    0  0.71054273576E-14  0.00000000000E+00 -0.44408920985E-15  0.91188000000E+02  0.91188000000E+02 0.  0.
    9900012    2    3    3    0    0  0.33315297910E+02 -0.15272338653E+02 -0.35532196383E+01  0.54367098700E+02  0.40000033106E+02 0.  0.
        -12    1    3    3    0    0 -0.33315297910E+02  0.15272338653E+02  0.35532196383E+01  0.36820901300E+02  0.00000000000E+00 0.  1.
         11    1    4    4    0    0  0.20160694002E+02 -0.19631477936E+01 -0.43934287603E+01  0.20727029416E+02  0.51100000000E-03 0. -1.
        -11    1    4    4    0    0  0.18601873892E+02  0.83559507166E-01  0.35294498324E+01  0.18933930149E+02  0.51100000000E-03 0.  1.
         12    1    4    4    0    0 -0.54472699839E+01 -0.13392750366E+02 -0.26892407104E+01  0.14706139135E+02  0.00000000000E+00 0. -1.
</event>
<event>
 8    1  0.1247338E-006  0.9118800E+02  0.7816164E-02  0.1184000E+00
        -11   -1    0    0    0    0  0.00000000000E+00  0.00000000000E+00  0.45593999997E+02  0.45594000000E+02  0.51100000000E-03 0.  1.
         11   -1    0    0    0    0 -0.00000000000E+00 -0.00000000000E+00 -0.45593999997E+02  0.45594000000E+02  0.51100000000E-03 0. -1.
         23    2    1    2    0    0  0.00000000000E+00  0.00000000000E+00  0.35527136788E-14  0.91188000000E+02  0.91188000000E+02 0.  0.
    9900012    2    3    3    0    0 -0.11602886146E+02  0.27283095754E+02 -0.21835484190E+02  0.54367046038E+02  0.39999913052E+02 0.  0.
         12    1    3    3    0    0  0.11602886146E+02 -0.27283095754E+02  0.21835484190E+02  0.36820953962E+02  0.00000000000E+00 0. -1.
         11    1    4    4    0    0 -0.19838861362E+02  0.85570859175E+01 -0.43963577557E+00  0.21610123077E+02  0.51100000000E-03 0. -1.
        -11    1    4    4    0    0  0.38404856474E+01  0.19819921105E+02 -0.16372950229E+02  0.25993308794E+02  0.51100000000E-03 0.  1.
         12    1    4    4    0    0  0.43954895681E+01 -0.10939112676E+01 -0.50228981861E+01  0.67636141664E+01  0.00000000000E+00 0. -1.
</event>
<event>
 8    1  0.1247338E-006  0.9118800E+02  0.7816164E-02  0.1184000E+00
        -11   -1    0    0    0    0  0.00000000000E+00  0.00000000000E+00  0.45593999997E+02  0.45594000000E+02  0.51100000000E-03 0.  1.
         11   -1    0    0    0    0 -0.00000000000E+00 -0.00000000000E+00 -0.45593999997E+02  0.45594000000E+02  0.51100000000E-03 0. -1.
         23    2    1    2    0    0  0.00000000000E+00  0.00000000000E+00 -0.44408920985E-15  0.91188000000E+02  0.91188000000E+02 0.  0.
    9900012    2    3    3    0    0  0.36252472659E+02 -0.63620094032E+01 -0.10308854593E+01  0.54367086617E+02  0.40000005560E+02 0.  0.
         12    1    3    3    0    0 -0.36252472659E+02  0.63620094032E+01  0.10308854593E+01  0.36820913383E+02  0.00000000000E+00 0. -1.
         11    1    4    4    0    0 -0.43950190749E+01 -0.37425271432E+01 -0.28068102860E+01  0.64187916564E+01  0.51100000000E-03 0. -1.
        -11    1    4    4    0    0  0.53522498123E+01  0.85785572399E+01  0.39500829447E+01  0.10855476862E+02  0.51100000000E-03 0.  1.
         12    1    4    4    0    0  0.35295241922E+02 -0.11198039500E+02 -0.21741581179E+01  0.37092818098E+02  0.00000000000E+00 0. -1.
</event>
<event>
 8    1  0.1247338E-006  0.9118800E+02  0.7816164E-02  0.1184000E+00
        -11   -1    0    0    0    0  0.00000000000E+00  0.00000000000E+00  0.45593999997E+02  0.45594000000E+02  0.51100000000E-03 0.  1.
         11   -1    0    0    0    0 -0.00000000000E+00 -0.00000000000E+00 -0.45593999997E+02  0.45594000000E+02  0.51100000000E-03 0. -1.
         23    2    1    2    0    0  0.00000000000E+00 -0.35527136788E-14  0.00000000000E+00  0.91188000000E+02  0.91188000000E+02 0.  0.
    9900012    2    3    3    0    0  0.27943276586E+02  0.17822225327E+02 -0.16041224157E+02  0.54367091614E+02  0.40000016952E+02 0.  0.
        -12    1    3    3    0    0 -0.27943276586E+02 -0.17822225327E+02  0.16041224157E+02  0.36820908386E+02  0.00000000000E+00 0.  1.
         11    1    4    4    0    0  0.16905130075E+02  0.17781707575E+02 -0.24579312347E+01  0.24657939358E+02  0.51100000000E-03 0. -1.
        -11    1    4    4    0    0  0.12192717765E+01  0.16271310876E+01  0.67629120819E+01  0.70619515242E+01  0.51100000000E-03 0.  1.
        -12    1    4    4    0    0  0.98188747337E+01 -0.15866133360E+01 -0.20346205004E+02  0.22647200732E+02  0.00000000000E+00 0.  1.
</event>
<event>
 8    1  0.1247338E-006  0.9118800E+02  0.7816164E-02  0.1184000E+00
        -11   -1    0    0    0    0  0.00000000000E+00  0.00000000000E+00  0.45593999997E+02  0.45594000000E+02  0.51100000000E-03 0. -1.
         11   -1    0    0    0    0 -0.00000000000E+00 -0.00000000000E+00 -0.45593999997E+02  0.45594000000E+02  0.51100000000E-03 0.  1.
         23    2    1    2    0    0  0.00000000000E+00  0.00000000000E+00  0.00000000000E+00  0.91188000000E+02  0.91188000000E+02 0.  0.
    9900012    2    3    3    0    0  0.19963616327E+02 -0.11558852135E+02  0.28698868962E+02  0.54367107572E+02  0.40000053332E+02 0.  0.
        -12    1    3    3    0    0 -0.19963616327E+02  0.11558852135E+02 -0.28698868962E+02  0.36820892428E+02  0.00000000000E+00 0.  1.
         11    1    4    4    0    0  0.47281443631E+01 -0.10089114034E+02  0.19947163698E+02  0.22848083310E+02  0.51100000000E-03 0. -1.
        -11    1    4    4    0    0  0.12069034320E+02 -0.10264602796E+02  0.13697385954E+02  0.20943782901E+02  0.51100000000E-03 0.  1.
        -12    1    4    4    0    0  0.31664376434E+01  0.87948646945E+01 -0.49456806905E+01  0.10575241361E+02  0.00000000000E+00 0.  1.
</event>
<event>
 8    1  0.1247338E-006  0.9118800E+02  0.7816164E-02  0.1184000E+00
        -11   -1    0    0    0    0  0.00000000000E+00  0.00000000000E+00  0.45593999997E+02  0.45594000000E+02  0.51100000000E-03 0. -1.
         11   -1    0    0    0    0 -0.00000000000E+00 -0.00000000000E+00 -0.45593999997E+02  0.45594000000E+02  0.51100000000E-03 0.  1.
         23    2    1    2    0    0  0.00000000000E+00  0.00000000000E+00 -0.71054273576E-14  0.91188000000E+02  0.91188000000E+02 0.  0.
    9900012    2    3    3    0    0 -0.44343432747E+01 -0.14241184209E+02  0.33664582461E+02  0.54367097780E+02  0.40000031010E+02 0.  0.
        -12    1    3    3    0    0  0.44343432747E+01  0.14241184209E+02 -0.33664582461E+02  0.36820902220E+02  0.00000000000E+00 0.  1.
         11    1    4    4    0    0  0.13386721732E+01 -0.92906357405E+01  0.16265744524E+02  0.18779840277E+02  0.51100000000E-03 0. -1.
        -11    1    4    4    0    0 -0.34290885399E+01 -0.48184408831E+01  0.26003777144E+02  0.26667816685E+02  0.51100000000E-03 0.  1.
        -12    1    4    4    0    0 -0.23439269081E+01 -0.13210758573E+00 -0.86049392062E+01  0.89194408181E+01  0.00000000000E+00 0.  1.
</event>
<event>
 8    1  0.1247338E-006  0.9118800E+02  0.7816164E-02  0.1184000E+00
        -11   -1    0    0    0    0  0.00000000000E+00  0.00000000000E+00  0.45593999997E+02  0.45594000000E+02  0.51100000000E-03 0.  1.
         11   -1    0    0    0    0 -0.00000000000E+00 -0.00000000000E+00 -0.45593999997E+02  0.45594000000E+02  0.51100000000E-03 0. -1.
         23    2    1    2    0    0  0.88817841970E-15  0.55511151231E-16  0.00000000000E+00  0.91188000000E+02  0.91188000000E+02 0.  0.
    9900012    2    3    3    0    0 -0.48900595113E+01 -0.43802595398E+00 -0.36492120300E+02  0.54367090278E+02  0.40000013906E+02 0.  0.
        -12    1    3    3    0    0  0.48900595113E+01  0.43802595398E+00  0.36492120300E+02  0.36820909722E+02  0.00000000000E+00 0.  1.
         11    1    4    4    0    0 -0.94934861690E+00 -0.26370779797E+01 -0.24638434794E+02  0.24797336801E+02  0.51100000000E-03 0. -1.
        -11    1    4    4    0    0 -0.14742891220E+02 -0.21299661159E+01 -0.36652042452E+01  0.15340251615E+02  0.51100000000E-03 0.  1.
         12    1    4    4    0    0  0.10802180326E+02  0.43290181415E+01 -0.81884812616E+01  0.14229501862E+02  0.00000000000E+00 0. -1.
</event>
<event>
 8    1  0.1247338E-006  0.9118800E+02  0.7816164E-02  0.1184000E+00
        -11   -1    0    0    0    0  0.00000000000E+00  0.00000000000E+00  0.45593999997E+02  0.45594000000E+02  0.51100000000E-03 0. -1.
         11   -1    0    0    0    0 -0.00000000000E+00 -0.00000000000E+00 -0.45593999997E+02  0.45594000000E+02  0.51100000000E-03 0.  1.
         23    2    1    2    0    0 -0.17763568394E-14 -0.88817841970E-15  0.00000000000E+00  0.91188000000E+02  0.91188000000E+02 0.  0.
    9900012    2    3    3    0    0 -0.98120267293E+01  0.46623648026E+01 -0.35181922031E+02  0.54367066391E+02  0.39999959451E+02 0.  0.
         12    1    3    3    0    0  0.98120267293E+01 -0.46623648026E+01  0.35181922031E+02  0.36820933609E+02  0.00000000000E+00 0. -1.
         11    1    4    4    0    0  0.86818813737E+01  0.10877468671E+02 -0.99082464204E+01  0.17084136977E+02  0.51100000000E-03 0. -1.
        -11    1    4    4    0    0  0.31925072567E+01 -0.25571334129E+01 -0.44498516485E+00  0.41144921841E+01  0.51100000000E-03 0.  1.
        -12    1    4    4    0    0 -0.21686415360E+02 -0.36579704554E+01 -0.24828690445E+02  0.33168437229E+02  0.00000000000E+00 0.  1.
</event>
<event>
 8    1  0.1247338E-006  0.9118800E+02  0.7816164E-02  0.1184000E+00
        -11   -1    0    0    0    0  0.00000000000E+00  0.00000000000E+00  0.45593999997E+02  0.45594000000E+02  0.51100000000E-03 0.  1.
         11   -1    0    0    0    0 -0.00000000000E+00 -0.00000000000E+00 -0.45593999997E+02  0.45594000000E+02  0.51100000000E-03 0. -1.
         23    2    1    2    0    0 -0.35527136788E-14  0.17763568394E-14 -0.35527136788E-14  0.91188000000E+02  0.91188000000E+02 0.  0.
    9900012    2    3    3    0    0  0.23542556812E+02 -0.89415244993E+01 -0.26862186007E+02  0.54367083679E+02  0.39999998864E+02 0.  0.
        -12    1    3    3    0    0 -0.23542556812E+02  0.89415244993E+01  0.26862186007E+02  0.36820916321E+02  0.00000000000E+00 0.  1.
         11    1    4    4    0    0  0.13121940597E+02 -0.14448863360E+02 -0.10956798678E+02  0.22383172584E+02  0.51100000000E-03 0. -1.
        -11    1    4    4    0    0  0.14196449753E+01  0.63723423056E+01 -0.20730808205E+02  0.21734501315E+02  0.51100000000E-03 0.  1.
        -12    1    4    4    0    0  0.90009712399E+01 -0.86500344530E+00  0.48254208754E+01  0.10249409780E+02  0.00000000000E+00 0.  1.
</event>
<event>
 8    1  0.1247338E-006  0.9118800E+02  0.7816164E-02  0.1184000E+00
        -11   -1    0    0    0    0  0.00000000000E+00  0.00000000000E+00  0.45593999997E+02  0.45594000000E+02  0.51100000000E-03 0.  1.
         11   -1    0    0    0    0 -0.00000000000E+00 -0.00000000000E+00 -0.45593999997E+02  0.45594000000E+02  0.51100000000E-03 0. -1.
         23    2    1    2    0    0  0.00000000000E+00  0.88817841970E-15  0.00000000000E+00  0.91188000000E+02  0.91188000000E+02 0.  0.
    9900012    2    3    3    0    0  0.24527468577E+02 -0.79581988360E+01 -0.26284030621E+02  0.54367083265E+02  0.39999997918E+02 0.  0.
        -12    1    3    3    0    0 -0.24527468577E+02  0.79581988360E+01  0.26284030621E+02  0.36820916735E+02  0.00000000000E+00 0.  1.
         11    1    4    4    0    0  0.10178799998E+02  0.71509018119E+01  0.17397771996E+01  0.12560660456E+02  0.51100000000E-03 0. -1.
        -11    1    4    4    0    0  0.19829022736E+02 -0.14941649043E+02 -0.19067713701E+02  0.31305282699E+02  0.51100000000E-03 0.  1.
        -12    1    4    4    0    0 -0.54803541570E+01 -0.16745160500E+00 -0.89560941196E+01  0.10501140110E+02  0.00000000000E+00 0.  1.
</event>
<event>
 8    1  0.1247338E-006  0.9118800E+02  0.7816164E-02  0.1184000E+00
        -11   -1    0    0    0    0  0.00000000000E+00  0.00000000000E+00  0.45593999997E+02  0.45594000000E+02  0.51100000000E-03 0. -1.
         11   -1    0    0    0    0 -0.00000000000E+00 -0.00000000000E+00 -0.45593999997E+02  0.45594000000E+02  0.51100000000E-03 0.  1.
         23    2    1    2    0    0  0.00000000000E+00  0.00000000000E+00  0.17763568394E-14  0.91188000000E+02  0.91188000000E+02 0.  0.
    9900012    2    3    3    0    0 -0.34531645537E+02  0.48649932192E+01 -0.11818405823E+02  0.54367117084E+02  0.40000075016E+02 0.  0.
        -12    1    3    3    0    0  0.34531645537E+02 -0.48649932192E+01  0.11818405823E+02  0.36820882916E+02  0.00000000000E+00 0.  1.
         11    1    4    4    0    0 -0.34126090036E+02  0.11609860156E+02 -0.78077740546E+01  0.36882790160E+02  0.51100000000E-03 0. -1.
        -11    1    4    4    0    0  0.15529431760E+01  0.55108528000E+00 -0.85257898996E+01  0.86835719129E+01  0.51100000000E-03 0.  1.
         12    1    4    4    0    0 -0.19584986767E+01 -0.72959522173E+01  0.45151581311E+01  0.88007550115E+01  0.00000000000E+00 0. -1.
</event>
<event>
 8    1  0.1247338E-006  0.9118800E+02  0.7816164E-02  0.1184000E+00
        -11   -1    0    0    0    0  0.00000000000E+00  0.00000000000E+00  0.45593999997E+02  0.45594000000E+02  0.51100000000E-03 0.  1.
         11   -1    0    0    0    0 -0.00000000000E+00 -0.00000000000E+00 -0.45593999997E+02  0.45594000000E+02  0.51100000000E-03 0. -1.
         23    2    1    2    0    0  0.00000000000E+00 -0.44408920985E-15  0.00000000000E+00  0.91188000000E+02  0.91188000000E+02 0.  0.
    9900012    2    3    3    0    0  0.53701398304E+01  0.32722272533E+00  0.36425735587E+02  0.54367086248E+02  0.40000004719E+02 0.  0.
         12    1    3    3    0    0 -0.53701398304E+01 -0.32722272533E+00 -0.36425735587E+02  0.36820913752E+02  0.00000000000E+00 0. -1.
         11    1    4    4    0    0  0.11066876761E+02 -0.11214077848E+02  0.32823371540E+01  0.16093633545E+02  0.51100000000E-03 0. -1.
        -11    1    4    4    0    0 -0.84061003618E+01  0.24424244451E+01  0.21734981372E+02  0.23431546597E+02  0.51100000000E-03 0.  1.
         12    1    4    4    0    0  0.27093634316E+01  0.90988761281E+01  0.11408417061E+02  0.14841906105E+02  0.00000000000E+00 0. -1.
</event>
<event>
 8    1  0.1247338E-006  0.9118800E+02  0.7816164E-02  0.1184000E+00
        -11   -1    0    0    0    0  0.00000000000E+00  0.00000000000E+00  0.45593999997E+02  0.45594000000E+02  0.51100000000E-03 0. -1.
         11   -1    0    0    0    0 -0.00000000000E+00 -0.00000000000E+00 -0.45593999997E+02  0.45594000000E+02  0.51100000000E-03 0.  1.
         23    2    1    2    0    0  0.35527136788E-14  0.00000000000E+00  0.71054273576E-14  0.91188000000E+02  0.91188000000E+02 0.  0.
    9900012    2    3    3    0    0 -0.21787603473E+02  0.17682363120E+02  0.23841428510E+02  0.54367090940E+02  0.40000015416E+02 0.  0.
        -12    1    3    3    0    0  0.21787603473E+02 -0.17682363120E+02 -0.23841428510E+02  0.36820909060E+02  0.00000000000E+00 0.  1.
         11    1    4    4    0    0 -0.59292291252E+01  0.58888886583E+01 -0.59364588320E+01  0.10250673703E+02  0.51100000000E-03 0. -1.
        -11    1    4    4    0    0 -0.16497286991E+02  0.57491200471E+01  0.43932380633E+01  0.18014255475E+02  0.51100000000E-03 0.  1.
         12    1    4    4    0    0  0.63891264307E+00  0.60443544144E+01  0.25384649279E+02  0.26102161762E+02  0.00000000000E+00 0. -1.
</event>
<event>
 8    1  0.1247338E-006  0.9118800E+02  0.7816164E-02  0.1184000E+00
        -11   -1    0    0    0    0  0.00000000000E+00  0.00000000000E+00  0.45593999997E+02  0.45594000000E+02  0.51100000000E-03 0.  1.
         11   -1    0    0    0    0 -0.00000000000E+00 -0.00000000000E+00 -0.45593999997E+02  0.45594000000E+02  0.51100000000E-03 0. -1.
         23    2    1    2    0    0  0.13322676296E-14  0.00000000000E+00 -0.35527136788E-14  0.91188000000E+02  0.91188000000E+02 0.  0.
    9900012    2    3    3    0    0 -0.16826516003E+00  0.21137373511E+02  0.30149062684E+02  0.54367043292E+02  0.39999906793E+02 0.  0.
         12    1    3    3    0    0  0.16826516003E+00 -0.21137373511E+02 -0.30149062684E+02  0.36820956708E+02  0.00000000000E+00 0. -1.
         11    1    4    4    0    0  0.11290549142E+02  0.98242653470E+00  0.13025673538E+02  0.17265857442E+02  0.51100000000E-03 0. -1.
        -11    1    4    4    0    0  0.12615254365E+01  0.17460826616E+02  0.16542336201E+02  0.24085696996E+02  0.51100000000E-03 0.  1.
        -12    1    4    4    0    0 -0.12720339738E+02  0.26941203605E+01  0.58105294475E+00  0.13015488854E+02  0.00000000000E+00 0.  1.
</event>
<event>
 8    1  0.1247338E-006  0.9118800E+02  0.7816164E-02  0.1184000E+00
        -11   -1    0    0    0    0  0.00000000000E+00  0.00000000000E+00  0.45593999997E+02  0.45594000000E+02  0.51100000000E-03 0.  1.
         11   -1    0    0    0    0 -0.00000000000E+00 -0.00000000000E+00 -0.45593999997E+02  0.45594000000E+02  0.51100000000E-03 0. -1.
         23    2    1    2    0    0 -0.35527136788E-14 -0.35527136788E-14 -0.66613381478E-15  0.91188000000E+02  0.91188000000E+02 0.  0.
    9900012    2    3    3    0    0  0.24086565626E+02 -0.27831657753E+02  0.10085566906E+01  0.54367068405E+02  0.39999964042E+02 0.  0.
        -12    1    3    3    0    0 -0.24086565626E+02  0.27831657753E+02 -0.10085566906E+01  0.36820931595E+02  0.00000000000E+00 0.  1.
         11    1    4    4    0    0  0.23982049296E+02 -0.31162533429E+02  0.77323012178E+01  0.40075312357E+02  0.51100000000E-03 0.  1.
        -11    1    4    4    0    0  0.45118229488E+01  0.20135153318E+00 -0.75755689376E+01  0.88196561016E+01  0.51100000000E-03 0. -1.
        -12    1    4    4    0    0 -0.44073066189E+01  0.31295241425E+01  0.85182441047E+00  0.54720999459E+01  0.00000000000E+00 0.  1.
</event>
<event>
 8    1  0.1247338E-006  0.9118800E+02  0.7816164E-02  0.1184000E+00
        -11   -1    0    0    0    0  0.00000000000E+00  0.00000000000E+00  0.45593999997E+02  0.45594000000E+02  0.51100000000E-03 0. -1.
         11   -1    0    0    0    0 -0.00000000000E+00 -0.00000000000E+00 -0.45593999997E+02  0.45594000000E+02  0.51100000000E-03 0.  1.
         23    2    1    2    0    0  0.00000000000E+00  0.00000000000E+00  0.00000000000E+00  0.91188000000E+02  0.91188000000E+02 0.  0.
    9900012    2    3    3    0    0 -0.22178646351E+02 -0.48979509236E+01 -0.28980986341E+02  0.54367084117E+02  0.39999999861E+02 0.  0.
         12    1    3    3    0    0  0.22178646351E+02  0.48979509236E+01  0.28980986341E+02  0.36820915883E+02  0.00000000000E+00 0. -1.
         11    1    4    4    0    0 -0.19777400151E+02 -0.84990722280E+01 -0.33719559390E+02  0.40004855595E+02  0.51100000000E-03 0. -1.
        -11    1    4    4    0    0 -0.15534953946E+01  0.60056275866E+01 -0.24997384840E+01  0.66880193929E+01  0.51100000000E-03 0.  1.
         12    1    4    4    0    0 -0.84775080525E+00 -0.24045062821E+01  0.72383115337E+01  0.76742091284E+01  0.00000000000E+00 0. -1.
</event>
<event>
 8    1  0.1247338E-006  0.9118800E+02  0.7816164E-02  0.1184000E+00
        -11   -1    0    0    0    0  0.00000000000E+00  0.00000000000E+00  0.45593999997E+02  0.45594000000E+02  0.51100000000E-03 0.  1.
         11   -1    0    0    0    0 -0.00000000000E+00 -0.00000000000E+00 -0.45593999997E+02  0.45594000000E+02  0.51100000000E-03 0. -1.
         23    2    1    2    0    0  0.00000000000E+00 -0.17763568394E-14 -0.71054273576E-14  0.91188000000E+02  0.91188000000E+02 0.  0.
    9900012    2    3    3    0    0  0.15841028256E+02 -0.82820840768E+01 -0.32190815644E+02  0.54367086042E+02  0.40000004249E+02 0.  0.
        -12    1    3    3    0    0 -0.15841028256E+02  0.82820840768E+01  0.32190815644E+02  0.36820913958E+02  0.00000000000E+00 0.  1.
         11    1    4    4    0    0  0.18893245908E+02  0.11427167142E+01  0.12139496428E+01  0.18966660656E+02  0.51100000000E-03 0.  1.
        -11    1    4    4    0    0  0.19502991759E+01 -0.24459030983E+01 -0.85636997085E+01  0.91171849713E+01  0.51100000000E-03 0. -1.
        -12    1    4    4    0    0 -0.50025168274E+01 -0.69788976928E+01 -0.24841065579E+02  0.26283240415E+02  0.00000000000E+00 0.  1.
</event>
<event>
 8    1  0.1247338E-006  0.9118800E+02  0.7816164E-02  0.1184000E+00
        -11   -1    0    0    0    0  0.00000000000E+00  0.00000000000E+00  0.45593999997E+02  0.45594000000E+02  0.51100000000E-03 0.  1.
         11   -1    0    0    0    0 -0.00000000000E+00 -0.00000000000E+00 -0.45593999997E+02  0.45594000000E+02  0.51100000000E-03 0. -1.
         23    2    1    2    0    0  0.00000000000E+00 -0.13322676296E-14  0.00000000000E+00  0.91188000000E+02  0.91188000000E+02 0.  0.
    9900012    2    3    3    0    0 -0.11933418530E+02  0.19206807520E+01 -0.34780500277E+02  0.54367099796E+02  0.40000035604E+02 0.  0.
        -12    1    3    3    0    0  0.11933418530E+02 -0.19206807520E+01  0.34780500277E+02  0.36820900204E+02  0.00000000000E+00 0.  1.
         11    1    4    4    0    0 -0.11123344560E+01 -0.10870132084E+02 -0.25410127565E+02  0.27659928463E+02  0.51100000000E-03 0. -1.
        -11    1    4    4    0    0  0.70770924456E+00  0.13371832655E+02 -0.60635461783E+01  0.14699433780E+02  0.51100000000E-03 0.  1.
        -12    1    4    4    0    0 -0.11528793318E+02 -0.58101981967E+00 -0.33068265332E+01  0.12007737552E+02  0.00000000000E+00 0.  1.
</event>
<event>
 8    1  0.1247338E-006  0.9118800E+02  0.7816164E-02  0.1184000E+00
        -11   -1    0    0    0    0  0.00000000000E+00  0.00000000000E+00  0.45593999997E+02  0.45594000000E+02  0.51100000000E-03 0.  1.
         11   -1    0    0    0    0 -0.00000000000E+00 -0.00000000000E+00 -0.45593999997E+02  0.45594000000E+02  0.51100000000E-03 0. -1.
         23    2    1    2    0    0  0.35527136788E-14  0.17763568394E-14  0.00000000000E+00  0.91188000000E+02  0.91188000000E+02 0.  0.
    9900012    2    3    3    0    0  0.28239624720E+02  0.15018155913E+02 -0.18241673323E+02  0.54367081259E+02  0.39999993345E+02 0.  0.
        -12    1    3    3    0    0 -0.28239624720E+02 -0.15018155913E+02  0.18241673323E+02  0.36820918741E+02  0.00000000000E+00 0.  1.
         11    1    4    4    0    0  0.30622764879E+01 -0.63929984752E+00 -0.15252992422E+02  0.15570485531E+02  0.51100000000E-03 0. -1.
        -11    1    4    4    0    0  0.24956683976E+02  0.21750706552E+01 -0.33368364528E+00  0.25053509784E+02  0.51100000000E-03 0.  1.
         12    1    4    4    0    0  0.22066425632E+00  0.13482385105E+02 -0.26549972549E+01  0.13743085944E+02  0.00000000000E+00 0. -1.
</event>
<event>
 8    1  0.1247338E-006  0.9118800E+02  0.7816164E-02  0.1184000E+00
        -11   -1    0    0    0    0  0.00000000000E+00  0.00000000000E+00  0.45593999997E+02  0.45594000000E+02  0.51100000000E-03 0. -1.
         11   -1    0    0    0    0 -0.00000000000E+00 -0.00000000000E+00 -0.45593999997E+02  0.45594000000E+02  0.51100000000E-03 0.  1.
         23    2    1    2    0    0  0.71054273576E-14 -0.88817841970E-15  0.17763568394E-14  0.91188000000E+02  0.91188000000E+02 0.  0.
    9900012    2    3    3    0    0  0.35097181007E+02 -0.51811566381E+01  0.98550928287E+01  0.54367090812E+02  0.40000015124E+02 0.  0.
        -12    1    3    3    0    0 -0.35097181007E+02  0.51811566381E+01 -0.98550928287E+01  0.36820909188E+02  0.00000000000E+00 0.  1.
         11    1    4    4    0    0  0.17699977269E+02 -0.14385969725E+02  0.47180962683E+00  0.22813766125E+02  0.51100000000E-03 0. -1.
        -11    1    4    4    0    0 -0.12277416836E+01 -0.52906964234E+01  0.53244573698E+01  0.76058309756E+01  0.51100000000E-03 0.  1.
        -12    1    4    4    0    0  0.18624945422E+02  0.14495509510E+02  0.40588258322E+01  0.23947493711E+02  0.00000000000E+00 0.  1.
</event>
<event>
 8    1  0.1247338E-006  0.9118800E+02  0.7816164E-02  0.1184000E+00
        -11   -1    0    0    0    0  0.00000000000E+00  0.00000000000E+00  0.45593999997E+02  0.45594000000E+02  0.51100000000E-03 0. -1.
         11   -1    0    0    0    0 -0.00000000000E+00 -0.00000000000E+00 -0.45593999997E+02  0.45594000000E+02  0.51100000000E-03 0.  1.
         23    2    1    2    0    0  0.35527136788E-14  0.00000000000E+00  0.00000000000E+00  0.91188000000E+02  0.91188000000E+02 0.  0.
    9900012    2    3    3    0    0 -0.26314047432E+02 -0.74375201465E+01 -0.24658203391E+02  0.54367179902E+02  0.40000218223E+02 0.  0.
         12    1    3    3    0    0  0.26314047432E+02  0.74375201465E+01  0.24658203391E+02  0.36820820098E+02  0.00000000000E+00 0. -1.
         11    1    4    4    0    0 -0.35216492139E+01  0.30114146239E+01  0.32950787893E+01  0.56857871673E+01  0.51100000000E-03 0. -1.
        -11    1    4    4    0    0 -0.22548702579E+00 -0.38399231817E+01 -0.24635179299E+02  0.24933670283E+02  0.51100000000E-03 0.  1.
        -12    1    4    4    0    0 -0.22566911192E+02 -0.66090115887E+01 -0.33181028818E+01  0.23747722452E+02  0.00000000000E+00 0.  1.
</event>
<event>
 8    1  0.1247338E-006  0.9118800E+02  0.7816164E-02  0.1184000E+00
        -11   -1    0    0    0    0  0.00000000000E+00  0.00000000000E+00  0.45593999997E+02  0.45594000000E+02  0.51100000000E-03 0.  1.
         11   -1    0    0    0    0 -0.00000000000E+00 -0.00000000000E+00 -0.45593999997E+02  0.45594000000E+02  0.51100000000E-03 0. -1.
         23    2    1    2    0    0  0.66613381478E-15  0.35527136788E-14  0.00000000000E+00  0.91188000000E+02  0.91188000000E+02 0.  0.
    9900012    2    3    3    0    0  0.10612009014E+01  0.30960841151E+02  0.19901724228E+02  0.54367102952E+02  0.40000042800E+02 0.  0.
        -12    1    3    3    0    0 -0.10612009014E+01 -0.30960841151E+02 -0.19901724228E+02  0.36820897048E+02  0.00000000000E+00 0.  1.
         11    1    4    4    0    0  0.42880363209E+01  0.19604980997E+02  0.88492284122E+01  0.21932883512E+02  0.51100000000E-03 0. -1.
        -11    1    4    4    0    0  0.15979487690E+01  0.78703879237E+01 -0.86789550357E+01  0.11824580632E+02  0.51100000000E-03 0.  1.
         12    1    4    4    0    0 -0.48247841885E+01  0.34854722306E+01  0.19731450851E+02  0.20609638809E+02  0.00000000000E+00 0. -1.
</event>
<event>
 8    1  0.1247338E-006  0.9118800E+02  0.7816164E-02  0.1184000E+00
        -11   -1    0    0    0    0  0.00000000000E+00  0.00000000000E+00  0.45593999997E+02  0.45594000000E+02  0.51100000000E-03 0. -1.
         11   -1    0    0    0    0 -0.00000000000E+00 -0.00000000000E+00 -0.45593999997E+02  0.45594000000E+02  0.51100000000E-03 0.  1.
         23    2    1    2    0    0  0.17763568394E-14  0.35527136788E-14 -0.35527136788E-14  0.91188000000E+02  0.91188000000E+02 0.  0.
    9900012    2    3    3    0    0  0.10544763179E+02  0.21233049534E+02 -0.28173491155E+02  0.54367081667E+02  0.39999994277E+02 0.  0.
         12    1    3    3    0    0 -0.10544763179E+02 -0.21233049534E+02  0.28173491155E+02  0.36820918333E+02  0.00000000000E+00 0. -1.
         11    1    4    4    0    0  0.94613450821E+01  0.92591116371E+00 -0.14067841989E+02  0.16978767350E+02  0.51100000000E-03 0. -1.
        -11    1    4    4    0    0  0.12908742680E+02  0.13263195712E+02 -0.14663338410E+02  0.23612740029E+02  0.51100000000E-03 0.  1.
         12    1    4    4    0    0 -0.11825324583E+02  0.70439426587E+01  0.55768924473E+00  0.13775574288E+02  0.00000000000E+00 0. -1.
</event>
<event>
 8    1  0.1247338E-006  0.9118800E+02  0.7816164E-02  0.1184000E+00
        -11   -1    0    0    0    0  0.00000000000E+00  0.00000000000E+00  0.45593999997E+02  0.45594000000E+02  0.51100000000E-03 0. -1.
         11   -1    0    0    0    0 -0.00000000000E+00 -0.00000000000E+00 -0.45593999997E+02  0.45594000000E+02  0.51100000000E-03 0.  1.
         23    2    1    2    0    0 -0.35527136788E-14  0.00000000000E+00  0.00000000000E+00  0.91188000000E+02  0.91188000000E+02 0.  0.
    9900012    2    3    3    0    0 -0.17080422816E+02 -0.43865605773E+01 -0.32323306711E+02  0.54367096780E+02  0.40000028728E+02 0.  0.
         12    1    3    3    0    0  0.17080422816E+02  0.43865605773E+01  0.32323306711E+02  0.36820903220E+02  0.00000000000E+00 0. -1.
         11    1    4    4    0    0  0.37907292050E+01 -0.85926811512E+01  0.45795525762E+01  0.10448736734E+02  0.51100000000E-03 0. -1.
        -11    1    4    4    0    0 -0.12978547855E+02  0.75905560111E+01 -0.26065214648E+02  0.30090773667E+02  0.51100000000E-03 0.  1.
         12    1    4    4    0    0 -0.78926041660E+01 -0.33844354372E+01 -0.10837644639E+02  0.13827586379E+02  0.00000000000E+00 0. -1.
</event>
<event>
 8    1  0.1247338E-006  0.9118800E+02  0.7816164E-02  0.1184000E+00
        -11   -1    0    0    0    0  0.00000000000E+00  0.00000000000E+00  0.45593999997E+02  0.45594000000E+02  0.51100000000E-03 0. -1.
         11   -1    0    0    0    0 -0.00000000000E+00 -0.00000000000E+00 -0.45593999997E+02  0.45594000000E+02  0.51100000000E-03 0.  1.
         23    2    1    2    0    0 -0.35527136788E-14  0.00000000000E+00 -0.35527136788E-14  0.91188000000E+02  0.91188000000E+02 0.  0.
    9900012    2    3    3    0    0  0.30650824271E+02 -0.36072078537E+01  0.20082255185E+02  0.54367055548E+02  0.39999934733E+02 0.  0.
        -12    1    3    3    0    0 -0.30650824271E+02  0.36072078537E+01 -0.20082255185E+02  0.36820944452E+02  0.00000000000E+00 0.  1.
         11    1    4    4    0    0  0.15292477078E+02 -0.10347043548E+02  0.39879817672E+01  0.18889816415E+02  0.51100000000E-03 0. -1.
        -11    1    4    4    0    0 -0.49824727952E+01 -0.45450611063E+01  0.88238924143E+01  0.11106020584E+02  0.51100000000E-03 0.  1.
         12    1    4    4    0    0  0.20340819989E+02  0.11284896801E+02  0.72703810034E+01  0.24371218549E+02  0.00000000000E+00 0. -1.
</event>
<event>
 8    1  0.1247338E-006  0.9118800E+02  0.7816164E-02  0.1184000E+00
        -11   -1    0    0    0    0  0.00000000000E+00  0.00000000000E+00  0.45593999997E+02  0.45594000000E+02  0.51100000000E-03 0.  1.
         11   -1    0    0    0    0 -0.00000000000E+00 -0.00000000000E+00 -0.45593999997E+02  0.45594000000E+02  0.51100000000E-03 0. -1.
         23    2    1    2    0    0  0.00000000000E+00  0.00000000000E+00  0.35527136788E-14  0.91188000000E+02  0.91188000000E+02 0.  0.
    9900012    2    3    3    0    0 -0.17865215461E+02 -0.42515999506E+01 -0.31914532628E+02  0.54367089929E+02  0.40000013112E+02 0.  0.
        -12    1    3    3    0    0  0.17865215461E+02  0.42515999506E+01  0.31914532628E+02  0.36820910071E+02  0.00000000000E+00 0.  1.
         11    1    4    4    0    0  0.71458616887E+01 -0.79533002392E+01 -0.14502386602E+02  0.18017700779E+02  0.51100000000E-03 0. -1.
        -11    1    4    4    0    0 -0.27470002448E+02  0.40692216569E-01 -0.14471798309E+02  0.31048923281E+02  0.51100000000E-03 0.  1.
        -12    1    4    4    0    0  0.24589252985E+01  0.36610080721E+01 -0.29403477173E+01  0.53004658688E+01  0.00000000000E+00 0.  1.
</event>
<event>
 8    1  0.1247338E-006  0.9118800E+02  0.7816164E-02  0.1184000E+00
        -11   -1    0    0    0    0  0.00000000000E+00  0.00000000000E+00  0.45593999997E+02  0.45594000000E+02  0.51100000000E-03 0. -1.
         11   -1    0    0    0    0 -0.00000000000E+00 -0.00000000000E+00 -0.45593999997E+02  0.45594000000E+02  0.51100000000E-03 0.  1.
         23    2    1    2    0    0  0.00000000000E+00  0.00000000000E+00  0.35527136788E-14  0.91188000000E+02  0.91188000000E+02 0.  0.
    9900012    2    3    3    0    0  0.19160418362E+02 -0.88943866748E+01 -0.30158717741E+02  0.54367082006E+02  0.39999995049E+02 0.  0.
         12    1    3    3    0    0 -0.19160418362E+02  0.88943866748E+01  0.30158717741E+02  0.36820917994E+02  0.00000000000E+00 0. -1.
         11    1    4    4    0    0 -0.96117466937E+01  0.18119107852E+00 -0.79631729053E+01  0.12483213837E+02  0.51100000000E-03 0. -1.
        -11    1    4    4    0    0  0.30946342388E+01  0.39879843648E+01 -0.87263582434E+01  0.10081175964E+02  0.51100000000E-03 0.  1.
        -12    1    4    4    0    0  0.25677530817E+02 -0.13063562118E+02 -0.13469186593E+02  0.31802692205E+02  0.00000000000E+00 0.  1.
</event>
<event>
 8    1  0.1247338E-006  0.9118800E+02  0.7816164E-02  0.1184000E+00
        -11   -1    0    0    0    0  0.00000000000E+00  0.00000000000E+00  0.45593999997E+02  0.45594000000E+02  0.51100000000E-03 0.  1.
         11   -1    0    0    0    0 -0.00000000000E+00 -0.00000000000E+00 -0.45593999997E+02  0.45594000000E+02  0.51100000000E-03 0. -1.
         23    2    1    2    0    0  0.26645352591E-14  0.00000000000E+00  0.00000000000E+00  0.91188000000E+02  0.91188000000E+02 0.  0.
    9900012    2    3    3    0    0 -0.50617795643E+01  0.14709604808E+02  0.33373428542E+02  0.54367084495E+02  0.40000000724E+02 0.  0.
         12    1    3    3    0    0  0.50617795643E+01 -0.14709604808E+02 -0.33373428542E+02  0.36820915505E+02  0.00000000000E+00 0. -1.
         11    1    4    4    0    0  0.73944884865E+01 -0.31360490154E+01  0.11097220219E+02  0.13698962014E+02  0.51100000000E-03 0. -1.
        -11    1    4    4    0    0 -0.18364854401E+02  0.19643734193E+02  0.21527601140E+02  0.34446796386E+02  0.51100000000E-03 0.  1.
        -12    1    4    4    0    0  0.59085863497E+01 -0.17980803698E+01  0.74860718295E+00  0.62213260952E+01  0.00000000000E+00 0.  1.
</event>
<event>
 8    1  0.1247338E-006  0.9118800E+02  0.7816164E-02  0.1184000E+00
        -11   -1    0    0    0    0  0.00000000000E+00  0.00000000000E+00  0.45593999997E+02  0.45594000000E+02  0.51100000000E-03 0. -1.
         11   -1    0    0    0    0 -0.00000000000E+00 -0.00000000000E+00 -0.45593999997E+02  0.45594000000E+02  0.51100000000E-03 0.  1.
         23    2    1    2    0    0  0.00000000000E+00  0.00000000000E+00  0.00000000000E+00  0.91188000000E+02  0.91188000000E+02 0.  0.
    9900012    2    3    3    0    0 -0.13713361661E+02  0.29848271142E+02 -0.16637411063E+02  0.54367095270E+02  0.40000025287E+02 0.  0.
         12    1    3    3    0    0  0.13713361661E+02 -0.29848271142E+02  0.16637411063E+02  0.36820904730E+02  0.00000000000E+00 0. -1.
         11    1    4    4    0    0 -0.12282962966E+02  0.11093861553E+02  0.52506426182E+01  0.17364164004E+02  0.51100000000E-03 0. -1.
        -11    1    4    4    0    0  0.40524357528E+01  0.21346314919E+02 -0.22022717176E+02  0.30936830288E+02  0.51100000000E-03 0.  1.
        -12    1    4    4    0    0 -0.54828344475E+01 -0.25919053303E+01  0.13466349482E+00  0.60661009782E+01  0.00000000000E+00 0.  1.
</event>
<event>
 8    1  0.1247338E-006  0.9118800E+02  0.7816164E-02  0.1184000E+00
        -11   -1    0    0    0    0  0.00000000000E+00  0.00000000000E+00  0.45593999997E+02  0.45594000000E+02  0.51100000000E-03 0.  1.
         11   -1    0    0    0    0 -0.00000000000E+00 -0.00000000000E+00 -0.45593999997E+02  0.45594000000E+02  0.51100000000E-03 0. -1.
         23    2    1    2    0    0  0.00000000000E+00  0.35527136788E-14  0.00000000000E+00  0.91188000000E+02  0.91188000000E+02 0.  0.
    9900012    2    3    3    0    0 -0.72821870198E+01  0.30604365090E+02 -0.19134320249E+02  0.54367087168E+02  0.40000006818E+02 0.  0.
        -12    1    3    3    0    0  0.72821870198E+01 -0.30604365090E+02  0.19134320249E+02  0.36820912832E+02  0.00000000000E+00 0.  1.
         11    1    4    4    0    0 -0.59917258842E+01  0.19154973755E+02 -0.16883246143E+02  0.26227043280E+02  0.51100000000E-03 0. -1.
        -11    1    4    4    0    0  0.79964415935E+01  0.15053569721E+01 -0.96737264137E+01  0.12640813295E+02  0.51100000000E-03 0.  1.
         12    1    4    4    0    0 -0.92869027292E+01  0.99440343633E+01  0.74226523076E+01  0.15499230594E+02  0.00000000000E+00 0. -1.
</event>
<event>
 8    1  0.1247338E-006  0.9118800E+02  0.7816164E-02  0.1184000E+00
        -11   -1    0    0    0    0  0.00000000000E+00  0.00000000000E+00  0.45593999997E+02  0.45594000000E+02  0.51100000000E-03 0. -1.
         11   -1    0    0    0    0 -0.00000000000E+00 -0.00000000000E+00 -0.45593999997E+02  0.45594000000E+02  0.51100000000E-03 0.  1.
         23    2    1    2    0    0  0.00000000000E+00 -0.35527136788E-14  0.00000000000E+00  0.91188000000E+02  0.91188000000E+02 0.  0.
    9900012    2    3    3    0    0  0.12225052689E+02  0.16250572006E+02 -0.30696056907E+02  0.54367069629E+02  0.39999966833E+02 0.  0.
         12    1    3    3    0    0 -0.12225052689E+02 -0.16250572006E+02  0.30696056907E+02  0.36820930371E+02  0.00000000000E+00 0. -1.
         11    1    4    4    0    0  0.11785535581E+02  0.96237025148E+01 -0.11239032839E+02  0.18916404480E+02  0.51100000000E-03 0. -1.
        -11    1    4    4    0    0  0.11153875185E+02  0.11983624728E+02 -0.60039837456E+01  0.17437431415E+02  0.51100000000E-03 0.  1.
        -12    1    4    4    0    0 -0.10714358077E+02 -0.53567552372E+01 -0.13453040322E+02  0.18013233734E+02  0.00000000000E+00 0.  1.
</event>
<event>
 8    1  0.1247338E-006  0.9118800E+02  0.7816164E-02  0.1184000E+00
        -11   -1    0    0    0    0  0.00000000000E+00  0.00000000000E+00  0.45593999997E+02  0.45594000000E+02  0.51100000000E-03 0.  1.
         11   -1    0    0    0    0 -0.00000000000E+00 -0.00000000000E+00 -0.45593999997E+02  0.45594000000E+02  0.51100000000E-03 0. -1.
         23    2    1    2    0    0  0.00000000000E+00  0.35527136788E-14  0.00000000000E+00  0.91188000000E+02  0.91188000000E+02 0.  0.
    9900012    2    3    3    0    0 -0.24083960629E+02  0.26372418411E+02  0.89573910918E+01  0.54367129999E+02  0.40000104459E+02 0.  0.
         12    1    3    3    0    0  0.24083960629E+02 -0.26372418411E+02 -0.89573910918E+01  0.36820870001E+02  0.00000000000E+00 0. -1.
         11    1    4    4    0    0 -0.20193503976E+02  0.75152170880E+01  0.43612424480E+01  0.21983551275E+02  0.51100000000E-03 0. -1.
        -11    1    4    4    0    0 -0.11492555065E+02  0.48181546622E+01  0.95137929824E+01  0.15678191651E+02  0.51100000000E-03 0.  1.
         12    1    4    4    0    0  0.76020984124E+01  0.14039046661E+02 -0.49176443386E+01  0.16705387073E+02  0.00000000000E+00 0. -1.
</event>
<event>
 8    1  0.1247338E-006  0.9118800E+02  0.7816164E-02  0.1184000E+00
        -11   -1    0    0    0    0  0.00000000000E+00  0.00000000000E+00  0.45593999997E+02  0.45594000000E+02  0.51100000000E-03 0.  1.
         11   -1    0    0    0    0 -0.00000000000E+00 -0.00000000000E+00 -0.45593999997E+02  0.45594000000E+02  0.51100000000E-03 0. -1.
         23    2    1    2    0    0  0.00000000000E+00  0.00000000000E+00  0.00000000000E+00  0.91188000000E+02  0.91188000000E+02 0.  0.
    9900012    2    3    3    0    0 -0.83112954790E+01  0.11813251941E+02  0.33869584208E+02  0.54367091695E+02  0.40000017138E+02 0.  0.
         12    1    3    3    0    0  0.83112954790E+01 -0.11813251941E+02 -0.33869584208E+02  0.36820908305E+02  0.00000000000E+00 0. -1.
         11    1    4    4    0    0 -0.99335291169E+01  0.23322144242E+02  0.93779771919E+01  0.27028575050E+02  0.51100000000E-03 0. -1.
        -11    1    4    4    0    0  0.91317810811E+00 -0.11178710506E+02  0.21541614579E+02  0.24286593457E+02  0.51100000000E-03 0.  1.
         12    1    4    4    0    0  0.70905552981E+00 -0.33018179511E+00  0.29499924376E+01  0.30519231878E+01  0.00000000000E+00 0. -1.
</event>
<event>
 8    1  0.1247338E-006  0.9118800E+02  0.7816164E-02  0.1184000E+00
        -11   -1    0    0    0    0  0.00000000000E+00  0.00000000000E+00  0.45593999997E+02  0.45594000000E+02  0.51100000000E-03 0. -1.
         11   -1    0    0    0    0 -0.00000000000E+00 -0.00000000000E+00 -0.45593999997E+02  0.45594000000E+02  0.51100000000E-03 0.  1.
         23    2    1    2    0    0 -0.35527136788E-14 -0.24424906542E-14  0.00000000000E+00  0.91188000000E+02  0.91188000000E+02 0.  0.
    9900012    2    3    3    0    0  0.83693496744E+01  0.18844576390E+01 -0.35807593720E+02  0.54367068961E+02  0.39999965311E+02 0.  0.
         12    1    3    3    0    0 -0.83693496744E+01 -0.18844576390E+01  0.35807593720E+02  0.36820931039E+02  0.00000000000E+00 0. -1.
         11    1    4    4    0    0  0.11741783092E+02  0.10658796887E+02 -0.17064497090E+02  0.23295417627E+02  0.51100000000E-03 0. -1.
        -11    1    4    4    0    0 -0.35391140400E+01 -0.65890412772E+01  0.38227295570E+01  0.83996461037E+01  0.51100000000E-03 0.  1.
        -12    1    4    4    0    0  0.16668062228E+00 -0.21852979706E+01 -0.22565826187E+02  0.22672005230E+02  0.00000000000E+00 0.  1.
</event>
<event>
 8    1  0.1247338E-006  0.9118800E+02  0.7816164E-02  0.1184000E+00
        -11   -1    0    0    0    0  0.00000000000E+00  0.00000000000E+00  0.45593999997E+02  0.45594000000E+02  0.51100000000E-03 0.  1.
         11   -1    0    0    0    0 -0.00000000000E+00 -0.00000000000E+00 -0.45593999997E+02  0.45594000000E+02  0.51100000000E-03 0. -1.
         23    2    1    2    0    0 -0.17763568394E-14 -0.17763568394E-14  0.00000000000E+00  0.91188000000E+02  0.91188000000E+02 0.  0.
    9900012    2    3    3    0    0 -0.14537650220E+02 -0.15244168568E+02 -0.30200209132E+02  0.54367074144E+02  0.39999977127E+02 0.  0.
        -12    1    3    3    0    0  0.14537650220E+02  0.15244168568E+02  0.30200209132E+02  0.36820925856E+02  0.00000000000E+00 0.  1.
         11    1    4    4    0    0 -0.16043695665E+02 -0.15701972312E+02 -0.76527083809E+01  0.23717420832E+02  0.51100000000E-03 0. -1.
        -11    1    4    4    0    0 -0.26117987168E+00 -0.37415829881E+01  0.29353177640E+01  0.47627459326E+01  0.51100000000E-03 0.  1.
        -12    1    4    4    0    0  0.17672253162E+01  0.41993867326E+01 -0.25482818515E+02  0.25886907380E+02  0.00000000000E+00 0.  1.
</event>
<event>
 8    1  0.1247338E-006  0.9118800E+02  0.7816164E-02  0.1184000E+00
        -11   -1    0    0    0    0  0.00000000000E+00  0.00000000000E+00  0.45593999997E+02  0.45594000000E+02  0.51100000000E-03 0. -1.
         11   -1    0    0    0    0 -0.00000000000E+00 -0.00000000000E+00 -0.45593999997E+02  0.45594000000E+02  0.51100000000E-03 0.  1.
         23    2    1    2    0    0  0.00000000000E+00  0.17763568394E-14  0.35527136788E-14  0.91188000000E+02  0.91188000000E+02 0.  0.
    9900012    2    3    3    0    0 -0.17832443550E+02 -0.98302851866E+01  0.30678299349E+02  0.54366965240E+02  0.39999728857E+02 0.  0.
        -12    1    3    3    0    0  0.17832443550E+02  0.98302851866E+01 -0.30678299349E+02  0.36821034760E+02  0.00000000000E+00 0.  1.
         11    1    4    4    0    0  0.46032037094E+01  0.11550351661E+02  0.87166337450E+01  0.15184854691E+02  0.51100000000E-03 0. -1.
        -11    1    4    4    0    0 -0.19364368373E+02 -0.12511653942E+02  0.15202502016E+02  0.27615870702E+02  0.51100000000E-03 0.  1.
         12    1    4    4    0    0 -0.30712788871E+01 -0.88689829059E+01  0.67591635881E+01  0.11566239847E+02  0.00000000000E+00 0. -1.
</event>
<event>
 8    1  0.1247338E-006  0.9118800E+02  0.7816164E-02  0.1184000E+00
        -11   -1    0    0    0    0  0.00000000000E+00  0.00000000000E+00  0.45593999997E+02  0.45594000000E+02  0.51100000000E-03 0. -1.
         11   -1    0    0    0    0 -0.00000000000E+00 -0.00000000000E+00 -0.45593999997E+02  0.45594000000E+02  0.51100000000E-03 0.  1.
         23    2    1    2    0    0  0.00000000000E+00  0.00000000000E+00  0.00000000000E+00  0.91188000000E+02  0.91188000000E+02 0.  0.
    9900012    2    3    3    0    0  0.37233347362E+01 -0.15471371740E+02 -0.33204701573E+02  0.54367098713E+02  0.40000033135E+02 0.  0.
         12    1    3    3    0    0 -0.37233347362E+01  0.15471371740E+02  0.33204701573E+02  0.36820901287E+02  0.00000000000E+00 0. -1.
         11    1    4    4    0    0 -0.57115427991E+01 -0.16635919683E+02 -0.68442988248E+01  0.18873790597E+02  0.51100000000E-03 0. -1.
        -11    1    4    4    0    0  0.49345177145E+00 -0.60766562019E+01 -0.22570441959E+02  0.23379351910E+02  0.51100000000E-03 0.  1.
         12    1    4    4    0    0  0.89414257639E+01  0.72412041449E+01 -0.37899607886E+01  0.12113956205E+02  0.00000000000E+00 0. -1.
</event>
<event>
 8    1  0.1247338E-006  0.9118800E+02  0.7816164E-02  0.1184000E+00
        -11   -1    0    0    0    0  0.00000000000E+00  0.00000000000E+00  0.45593999997E+02  0.45594000000E+02  0.51100000000E-03 0. -1.
         11   -1    0    0    0    0 -0.00000000000E+00 -0.00000000000E+00 -0.45593999997E+02  0.45594000000E+02  0.51100000000E-03 0.  1.
         23    2    1    2    0    0 -0.17763568394E-14 -0.35527136788E-14  0.00000000000E+00  0.91188000000E+02  0.91188000000E+02 0.  0.
    9900012    2    3    3    0    0  0.61411337149E+01  0.13438679860E+02  0.33726373475E+02  0.54367083288E+02  0.39999997972E+02 0.  0.
        -12    1    3    3    0    0 -0.61411337149E+01 -0.13438679860E+02 -0.33726373475E+02  0.36820916712E+02  0.00000000000E+00 0.  1.
         11    1    4    4    0    0 -0.60763864525E+01  0.22018930614E+01  0.25289627830E+01  0.69402059330E+01  0.51100000000E-03 0. -1.
        -11    1    4    4    0    0  0.29807176906E+01 -0.61423592547E+01 -0.33969910893E+01  0.76257985737E+01  0.51100000000E-03 0.  1.
        -12    1    4    4    0    0  0.92368024768E+01  0.17379146054E+02  0.34594401782E+02  0.39801078782E+02  0.00000000000E+00 0.  1.
</event>
<event>
 8    1  0.1247338E-006  0.9118800E+02  0.7816164E-02  0.1184000E+00
        -11   -1    0    0    0    0  0.00000000000E+00  0.00000000000E+00  0.45593999997E+02  0.45594000000E+02  0.51100000000E-03 0.  1.
         11   -1    0    0    0    0 -0.00000000000E+00 -0.00000000000E+00 -0.45593999997E+02  0.45594000000E+02  0.51100000000E-03 0. -1.
         23    2    1    2    0    0 -0.17763568394E-14  0.35527136788E-14 -0.35527136788E-14  0.91188000000E+02  0.91188000000E+02 0.  0.
    9900012    2    3    3    0    0  0.15267434967E+02  0.20689055430E+02 -0.26356167581E+02  0.54367093511E+02  0.40000021278E+02 0.  0.
        -12    1    3    3    0    0 -0.15267434967E+02 -0.20689055430E+02  0.26356167581E+02  0.36820906489E+02  0.00000000000E+00 0.  1.
         11    1    4    4    0    0  0.10666853839E+02  0.60641853652E+01  0.28422870457E+01  0.12595027229E+02  0.51100000000E-03 0. -1.
        -11    1    4    4    0    0  0.70711391851E+01  0.24262751453E+01  0.23668806872E+01  0.78415524550E+01  0.51100000000E-03 0.  1.
        -12    1    4    4    0    0 -0.24705580574E+01  0.12198594920E+02 -0.31565335314E+02  0.33930513828E+02  0.00000000000E+00 0.  1.
</event>
<event>
 8    1  0.1247338E-006  0.9118800E+02  0.7816164E-02  0.1184000E+00
        -11   -1    0    0    0    0  0.00000000000E+00  0.00000000000E+00  0.45593999997E+02  0.45594000000E+02  0.51100000000E-03 0.  1.
         11   -1    0    0    0    0 -0.00000000000E+00 -0.00000000000E+00 -0.45593999997E+02  0.45594000000E+02  0.51100000000E-03 0. -1.
         23    2    1    2    0    0  0.88817841970E-15  0.00000000000E+00  0.13322676296E-14  0.91188000000E+02  0.91188000000E+02 0.  0.
    9900012    2    3    3    0    0  0.75991935767E+01 -0.35862779367E+02  0.34486100718E+01  0.54367087486E+02  0.40000007542E+02 0.  0.
         12    1    3    3    0    0 -0.75991935767E+01  0.35862779367E+02 -0.34486100718E+01  0.36820912514E+02  0.00000000000E+00 0. -1.
         11    1    4    4    0    0  0.97784293452E+01 -0.13028636370E+02  0.35964428135E+01  0.16682249468E+02  0.51100000000E-03 0. -1.
        -11    1    4    4    0    0 -0.99683657237E+01 -0.19235514478E+02  0.10446241192E+02  0.24051970558E+02  0.51100000000E-03 0.  1.
         12    1    4    4    0    0  0.77891299553E+01 -0.35986285190E+01 -0.10594073934E+02  0.13632867460E+02  0.00000000000E+00 0. -1.
</event>
<event>
 8    1  0.1247338E-006  0.9118800E+02  0.7816164E-02  0.1184000E+00
        -11   -1    0    0    0    0  0.00000000000E+00  0.00000000000E+00  0.45593999997E+02  0.45594000000E+02  0.51100000000E-03 0.  1.
         11   -1    0    0    0    0 -0.00000000000E+00 -0.00000000000E+00 -0.45593999997E+02  0.45594000000E+02  0.51100000000E-03 0. -1.
         23    2    1    2    0    0 -0.17763568394E-14 -0.71054273576E-14  0.00000000000E+00  0.91188000000E+02  0.91188000000E+02 0.  0.
    9900012    2    3    3    0    0  0.77156856902E+01  0.33721605220E+02  0.12613550738E+02  0.54367080314E+02  0.39999991191E+02 0.  0.
        -12    1    3    3    0    0 -0.77156856902E+01 -0.33721605220E+02 -0.12613550738E+02  0.36820919686E+02  0.00000000000E+00 0.  1.
         11    1    4    4    0    0  0.74250885468E+01  0.64250957646E+01 -0.57750025461E+01  0.11391420025E+02  0.51100000000E-03 0. -1.
        -11    1    4    4    0    0 -0.11114921485E+02  0.18810115255E+02  0.18696107143E+02  0.28755979171E+02  0.51100000000E-03 0.  1.
        -12    1    4    4    0    0  0.11405518628E+02  0.84863942008E+01 -0.30755385898E+00  0.14219681118E+02  0.00000000000E+00 0.  1.
</event>
<event>
 8    1  0.1247338E-006  0.9118800E+02  0.7816164E-02  0.1184000E+00
        -11   -1    0    0    0    0  0.00000000000E+00  0.00000000000E+00  0.45593999997E+02  0.45594000000E+02  0.51100000000E-03 0.  1.
         11   -1    0    0    0    0 -0.00000000000E+00 -0.00000000000E+00 -0.45593999997E+02  0.45594000000E+02  0.51100000000E-03 0. -1.
         23    2    1    2    0    0 -0.35527136788E-14  0.00000000000E+00  0.00000000000E+00  0.91188000000E+02  0.91188000000E+02 0.  0.
    9900012    2    3    3    0    0  0.26538719935E+02  0.94382280733E+01 -0.23714837600E+02  0.54367118325E+02  0.40000077845E+02 0.  0.
        -12    1    3    3    0    0 -0.26538719935E+02 -0.94382280733E+01  0.23714837600E+02  0.36820881675E+02  0.00000000000E+00 0.  1.
         11    1    4    4    0    0 -0.32122441283E+01  0.63028925726E+01 -0.19022603079E+01  0.73255417316E+01  0.51100000000E-03 0. -1.
        -11    1    4    4    0    0  0.30771584148E+02 -0.58587505062E+01 -0.21483798548E+02  0.37983798504E+02  0.51100000000E-03 0.  1.
        -12    1    4    4    0    0 -0.10206200846E+01  0.89940860069E+01 -0.32877874423E+00  0.90577780895E+01  0.00000000000E+00 0.  1.
</event>
<event>
 8    1  0.1247338E-006  0.9118800E+02  0.7816164E-02  0.1184000E+00
        -11   -1    0    0    0    0  0.00000000000E+00  0.00000000000E+00  0.45593999997E+02  0.45594000000E+02  0.51100000000E-03 0.  1.
         11   -1    0    0    0    0 -0.00000000000E+00 -0.00000000000E+00 -0.45593999997E+02  0.45594000000E+02  0.51100000000E-03 0. -1.
         23    2    1    2    0    0  0.00000000000E+00  0.99920072216E-15  0.00000000000E+00  0.91188000000E+02  0.91188000000E+02 0.  0.
    9900012    2    3    3    0    0  0.24301359018E+02  0.60858953442E+00 -0.27655967432E+02  0.54367096074E+02  0.40000027119E+02 0.  0.
        -12    1    3    3    0    0 -0.24301359018E+02 -0.60858953442E+00  0.27655967432E+02  0.36820903926E+02  0.00000000000E+00 0.  1.
         11    1    4    4    0    0  0.10522221837E+02  0.43036658435E+01 -0.31370381145E+02  0.33366742507E+02  0.51100000000E-03 0. -1.
        -11    1    4    4    0    0  0.95078993672E+01  0.50062796835E+01  0.38816854384E+00  0.10752379352E+02  0.51100000000E-03 0.  1.
         12    1    4    4    0    0  0.42712378144E+01 -0.87013559926E+01  0.33262451696E+01  0.10247974215E+02  0.00000000000E+00 0. -1.
</event>
<event>
 8    1  0.1247338E-006  0.9118800E+02  0.7816164E-02  0.1184000E+00
        -11   -1    0    0    0    0  0.00000000000E+00  0.00000000000E+00  0.45593999997E+02  0.45594000000E+02  0.51100000000E-03 0. -1.
         11   -1    0    0    0    0 -0.00000000000E+00 -0.00000000000E+00 -0.45593999997E+02  0.45594000000E+02  0.51100000000E-03 0.  1.
         23    2    1    2    0    0  0.00000000000E+00 -0.88817841970E-15  0.00000000000E+00  0.91188000000E+02  0.91188000000E+02 0.  0.
    9900012    2    3    3    0    0 -0.15153612281E+02  0.53790145480E+01 -0.33124215391E+02  0.54367090072E+02  0.40000013437E+02 0.  0.
         12    1    3    3    0    0  0.15153612281E+02 -0.53790145480E+01  0.33124215391E+02  0.36820909928E+02  0.00000000000E+00 0. -1.
         11    1    4    4    0    0 -0.11757906361E+02 -0.15318559614E+01 -0.20778420964E+02  0.23923580892E+02  0.51100000000E-03 0. -1.
        -11    1    4    4    0    0 -0.14402550921E+02  0.51987796260E+01 -0.11727472326E+02  0.19287156090E+02  0.51100000000E-03 0.  1.
         12    1    4    4    0    0  0.11006845000E+02  0.17120908834E+01 -0.61832210106E+00  0.11156353090E+02  0.00000000000E+00 0. -1.
</event>
<event>
 8    1  0.1247338E-006  0.9118800E+02  0.7816164E-02  0.1184000E+00
        -11   -1    0    0    0    0  0.00000000000E+00  0.00000000000E+00  0.45593999997E+02  0.45594000000E+02  0.51100000000E-03 0.  1.
         11   -1    0    0    0    0 -0.00000000000E+00 -0.00000000000E+00 -0.45593999997E+02  0.45594000000E+02  0.51100000000E-03 0. -1.
         23    2    1    2    0    0  0.88817841970E-15  0.88817841970E-15  0.00000000000E+00  0.91188000000E+02  0.91188000000E+02 0.  0.
    9900012    2    3    3    0    0 -0.61503035498E+01 -0.67015498487E+01  0.35679721222E+02  0.54367088678E+02  0.40000010259E+02 0.  0.
         12    1    3    3    0    0  0.61503035498E+01  0.67015498487E+01 -0.35679721222E+02  0.36820911322E+02  0.00000000000E+00 0. -1.
         11    1    4    4    0    0  0.35055136261E+00  0.59041114744E+01  0.60298027907E+01  0.84462974442E+01  0.51100000000E-03 0. -1.
        -11    1    4    4    0    0  0.50419178230E+00  0.84931866114E+01  0.19905636562E+02  0.21647697230E+02  0.51100000000E-03 0.  1.
        -12    1    4    4    0    0 -0.70050466947E+01 -0.21098847935E+02  0.97442818697E+01  0.24273094004E+02  0.00000000000E+00 0.  1.
</event>
<event>
 8    1  0.1247338E-006  0.9118800E+02  0.7816164E-02  0.1184000E+00
        -11   -1    0    0    0    0  0.00000000000E+00  0.00000000000E+00  0.45593999997E+02  0.45594000000E+02  0.51100000000E-03 0.  1.
         11   -1    0    0    0    0 -0.00000000000E+00 -0.00000000000E+00 -0.45593999997E+02  0.45594000000E+02  0.51100000000E-03 0. -1.
         23    2    1    2    0    0 -0.71054273576E-14 -0.17763568394E-14  0.17763568394E-14  0.91188000000E+02  0.91188000000E+02 0.  0.
    9900012    2    3    3    0    0  0.35055746615E+02  0.74943944878E+01 -0.84087959626E+01  0.54367093316E+02  0.40000020833E+02 0.  0.
        -12    1    3    3    0    0 -0.35055746615E+02 -0.74943944878E+01  0.84087959626E+01  0.36820906684E+02  0.00000000000E+00 0.  1.
         11    1    4    4    0    0 -0.15677522950E+01 -0.35963132346E+01 -0.96667880806E+01  0.10432550417E+02  0.51100000000E-03 0. -1.
        -11    1    4    4    0    0 -0.17730899593E+01  0.31888383735E+01 -0.26927907614E+01  0.45347172483E+01  0.51100000000E-03 0.  1.
         12    1    4    4    0    0  0.38396588869E+02  0.79018693489E+01  0.39507828793E+01  0.39399825651E+02  0.00000000000E+00 0. -1.
</event>
<event>
 8    1  0.1247338E-006  0.9118800E+02  0.7816164E-02  0.1184000E+00
        -11   -1    0    0    0    0  0.00000000000E+00  0.00000000000E+00  0.45593999997E+02  0.45594000000E+02  0.51100000000E-03 0. -1.
         11   -1    0    0    0    0 -0.00000000000E+00 -0.00000000000E+00 -0.45593999997E+02  0.45594000000E+02  0.51100000000E-03 0.  1.
         23    2    1    2    0    0  0.00000000000E+00 -0.35527136788E-14  0.00000000000E+00  0.91188000000E+02  0.91188000000E+02 0.  0.
    9900012    2    3    3    0    0  0.27653397946E+02 -0.13816816223E+02 -0.20004315752E+02  0.54366980498E+02  0.39999763639E+02 0.  0.
         12    1    3    3    0    0 -0.27653397946E+02  0.13816816223E+02  0.20004315752E+02  0.36821019502E+02  0.00000000000E+00 0. -1.
         11    1    4    4    0    0  0.19597691635E+02 -0.87908293118E+01 -0.61946218373E+01  0.22354452294E+02  0.51100000000E-03 0. -1.
        -11    1    4    4    0    0  0.44954702735E+01 -0.14910658302E+01 -0.21947351850E+02  0.22452589690E+02  0.51100000000E-03 0.  1.
        -12    1    4    4    0    0  0.35602360375E+01 -0.35349210813E+01  0.81376579359E+01  0.95599385132E+01  0.00000000000E+00 0.  1.
</event>
<event>
 8    1  0.1247338E-006  0.9118800E+02  0.7816164E-02  0.1184000E+00
        -11   -1    0    0    0    0  0.00000000000E+00  0.00000000000E+00  0.45593999997E+02  0.45594000000E+02  0.51100000000E-03 0. -1.
         11   -1    0    0    0    0 -0.00000000000E+00 -0.00000000000E+00 -0.45593999997E+02  0.45594000000E+02  0.51100000000E-03 0.  1.
         23    2    1    2    0    0  0.35527136788E-14  0.00000000000E+00 -0.17763568394E-14  0.91188000000E+02  0.91188000000E+02 0.  0.
    9900012    2    3    3    0    0 -0.22192347284E+02 -0.26488243552E+02 -0.12714253482E+02  0.54367087925E+02  0.40000008542E+02 0.  0.
        -12    1    3    3    0    0  0.22192347284E+02  0.26488243552E+02  0.12714253482E+02  0.36820912075E+02  0.00000000000E+00 0.  1.
         11    1    4    4    0    0 -0.19478586738E+02 -0.18216591977E+02  0.44036285124E+01  0.27030566196E+02  0.51100000000E-03 0. -1.
        -11    1    4    4    0    0  0.25252027826E+01 -0.92525076988E+01 -0.19319943384E+02  0.21569556334E+02  0.51100000000E-03 0.  1.
        -12    1    4    4    0    0 -0.52389633289E+01  0.98085612345E+00  0.22020613896E+01  0.57669653944E+01  0.00000000000E+00 0.  1.
</event>
<event>
 8    1  0.1247338E-006  0.9118800E+02  0.7816164E-02  0.1184000E+00
        -11   -1    0    0    0    0  0.00000000000E+00  0.00000000000E+00  0.45593999997E+02  0.45594000000E+02  0.51100000000E-03 0.  1.
         11   -1    0    0    0    0 -0.00000000000E+00 -0.00000000000E+00 -0.45593999997E+02  0.45594000000E+02  0.51100000000E-03 0. -1.
         23    2    1    2    0    0  0.35527136788E-14  0.00000000000E+00  0.00000000000E+00  0.91188000000E+02  0.91188000000E+02 0.  0.
    9900012    2    3    3    0    0  0.21612783719E+02  0.20851653079E+02  0.21304366057E+02  0.54367083807E+02  0.39999999154E+02 0.  0.
         12    1    3    3    0    0 -0.21612783719E+02 -0.20851653079E+02 -0.21304366057E+02  0.36820916193E+02  0.00000000000E+00 0. -1.
         11    1    4    4    0    0 -0.34665364093E+01  0.11016140298E+02 -0.59413499616E+01  0.12987373151E+02  0.51100000000E-03 0. -1.
        -11    1    4    4    0    0  0.13565469175E+02  0.43241076675E+01  0.38843310653E+01  0.14758315932E+02  0.51100000000E-03 0.  1.
         12    1    4    4    0    0  0.11513850954E+02  0.55114051134E+01  0.23361384953E+02  0.26621394724E+02  0.00000000000E+00 0. -1.
</event>
<event>
 8    1  0.1247338E-006  0.9118800E+02  0.7816164E-02  0.1184000E+00
        -11   -1    0    0    0    0  0.00000000000E+00  0.00000000000E+00  0.45593999997E+02  0.45594000000E+02  0.51100000000E-03 0. -1.
         11   -1    0    0    0    0 -0.00000000000E+00 -0.00000000000E+00 -0.45593999997E+02  0.45594000000E+02  0.51100000000E-03 0.  1.
         23    2    1    2    0    0  0.00000000000E+00  0.00000000000E+00 -0.35527136788E-14  0.91188000000E+02  0.91188000000E+02 0.  0.
    9900012    2    3    3    0    0  0.13936057910E+02  0.29383271837E+02  0.17268162371E+02  0.54367084672E+02  0.40000001127E+02 0.  0.
        -12    1    3    3    0    0 -0.13936057910E+02 -0.29383271837E+02 -0.17268162371E+02  0.36820915328E+02  0.00000000000E+00 0.  1.
         11    1    4    4    0    0  0.47680997782E+01  0.30096585403E+02  0.25252067815E+02  0.39575322584E+02  0.51100000000E-03 0. -1.
        -11    1    4    4    0    0 -0.92838026572E-01 -0.73639148016E+00  0.14144564453E+01  0.15973661471E+01  0.51100000000E-03 0.  1.
         12    1    4    4    0    0  0.92607961580E+01  0.23077913615E-01 -0.93983618885E+01  0.13194395941E+02  0.00000000000E+00 0. -1.
</event>
<event>
 8    1  0.1247338E-006  0.9118800E+02  0.7816164E-02  0.1184000E+00
        -11   -1    0    0    0    0  0.00000000000E+00  0.00000000000E+00  0.45593999997E+02  0.45594000000E+02  0.51100000000E-03 0.  1.
         11   -1    0    0    0    0 -0.00000000000E+00 -0.00000000000E+00 -0.45593999997E+02  0.45594000000E+02  0.51100000000E-03 0. -1.
         23    2    1    2    0    0 -0.17763568394E-14  0.00000000000E+00  0.35527136788E-14  0.91188000000E+02  0.91188000000E+02 0.  0.
    9900012    2    3    3    0    0 -0.51075320676E+01  0.32070536903E+02  0.17354347135E+02  0.54367087660E+02  0.40000007939E+02 0.  0.
         12    1    3    3    0    0  0.51075320676E+01 -0.32070536903E+02 -0.17354347135E+02  0.36820912340E+02  0.00000000000E+00 0. -1.
         11    1    4    4    0    0 -0.11685347168E+02  0.10373930539E+02  0.22207674568E+02  0.27154126449E+02  0.51100000000E-03 0. -1.
        -11    1    4    4    0    0  0.11754661841E+01 -0.15035416958E+01  0.16472448665E+01  0.25210661023E+01  0.51100000000E-03 0.  1.
        -12    1    4    4    0    0  0.54023489167E+01  0.23200148060E+02 -0.65005722992E+01  0.24691895108E+02  0.00000000000E+00 0.  1.
</event>
<event>
 8    1  0.1247338E-006  0.9118800E+02  0.7816164E-02  0.1184000E+00
        -11   -1    0    0    0    0  0.00000000000E+00  0.00000000000E+00  0.45593999997E+02  0.45594000000E+02  0.51100000000E-03 0.  1.
         11   -1    0    0    0    0 -0.00000000000E+00 -0.00000000000E+00 -0.45593999997E+02  0.45594000000E+02  0.51100000000E-03 0. -1.
         23    2    1    2    0    0 -0.35527136788E-14  0.13322676296E-14 -0.35527136788E-14  0.91188000000E+02  0.91188000000E+02 0.  0.
    9900012    2    3    3    0    0 -0.22006785627E+02  0.27397276561E+01 -0.29393436510E+02  0.54367097905E+02  0.40000031293E+02 0.  0.
        -12    1    3    3    0    0  0.22006785627E+02 -0.27397276561E+01  0.29393436510E+02  0.36820902095E+02  0.00000000000E+00 0.  1.
         11    1    4    4    0    0 -0.55754231798E+01  0.10952570551E+02 -0.18838433242E+02  0.22492903605E+02  0.51100000000E-03 0.  1.
        -11    1    4    4    0    0 -0.76909247449E+01 -0.14108496611E+02 -0.13434781985E+02  0.20945008171E+02  0.51100000000E-03 0. -1.
         12    1    4    4    0    0 -0.87404377021E+01  0.58956537161E+01  0.28797787171E+01  0.10929186128E+02  0.00000000000E+00 0. -1.
</event>
<event>
 8    1  0.1247338E-006  0.9118800E+02  0.7816164E-02  0.1184000E+00
        -11   -1    0    0    0    0  0.00000000000E+00  0.00000000000E+00  0.45593999997E+02  0.45594000000E+02  0.51100000000E-03 0.  1.
         11   -1    0    0    0    0 -0.00000000000E+00 -0.00000000000E+00 -0.45593999997E+02  0.45594000000E+02  0.51100000000E-03 0. -1.
         23    2    1    2    0    0  0.17763568394E-14  0.17763568394E-14  0.00000000000E+00  0.91188000000E+02  0.91188000000E+02 0.  0.
    9900012    2    3    3    0    0 -0.12386326438E+02  0.12972158723E+02  0.32157136168E+02  0.54367090301E+02  0.40000013959E+02 0.  0.
         12    1    3    3    0    0  0.12386326438E+02 -0.12972158723E+02 -0.32157136168E+02  0.36820909699E+02  0.00000000000E+00 0. -1.
         11    1    4    4    0    0 -0.74937776834E+01 -0.62951277654E+00  0.44046640557E+01  0.87151624201E+01  0.51100000000E-03 0. -1.
        -11    1    4    4    0    0  0.47471747234E+01  0.13177212892E+02 -0.22051013488E+01  0.14178754518E+02  0.51100000000E-03 0.  1.
         12    1    4    4    0    0 -0.96397234781E+01  0.42445860700E+00  0.29957573461E+02  0.31473173363E+02  0.00000000000E+00 0. -1.
</event>
<event>
 8    1  0.1247338E-006  0.9118800E+02  0.7816164E-02  0.1184000E+00
        -11   -1    0    0    0    0  0.00000000000E+00  0.00000000000E+00  0.45593999997E+02  0.45594000000E+02  0.51100000000E-03 0.  1.
         11   -1    0    0    0    0 -0.00000000000E+00 -0.00000000000E+00 -0.45593999997E+02  0.45594000000E+02  0.51100000000E-03 0. -1.
         23    2    1    2    0    0  0.00000000000E+00  0.00000000000E+00  0.00000000000E+00  0.91188000000E+02  0.91188000000E+02 0.  0.
    9900012    2    3    3    0    0 -0.30711324403E+02 -0.12986115465E+02  0.15619049786E+02  0.54367090754E+02  0.40000014992E+02 0.  0.
         12    1    3    3    0    0  0.30711324403E+02  0.12986115465E+02 -0.15619049786E+02  0.36820909246E+02  0.00000000000E+00 0. -1.
         11    1    4    4    0    0 -0.14214059678E+02 -0.13577239958E+02 -0.10495827129E+02  0.22283252114E+02  0.51100000000E-03 0. -1.
        -11    1    4    4    0    0 -0.22747550023E+01 -0.70289679314E+00  0.11136978305E+02  0.11388628550E+02  0.51100000000E-03 0.  1.
         12    1    4    4    0    0 -0.14222509722E+02  0.12940212862E+01  0.14977898610E+02  0.20695210090E+02  0.00000000000E+00 0. -1.
</event>
<event>
 8    1  0.1247338E-006  0.9118800E+02  0.7816164E-02  0.1184000E+00
        -11   -1    0    0    0    0  0.00000000000E+00  0.00000000000E+00  0.45593999997E+02  0.45594000000E+02  0.51100000000E-03 0.  1.
         11   -1    0    0    0    0 -0.00000000000E+00 -0.00000000000E+00 -0.45593999997E+02  0.45594000000E+02  0.51100000000E-03 0. -1.
         23    2    1    2    0    0 -0.35527136788E-14  0.00000000000E+00  0.00000000000E+00  0.91188000000E+02  0.91188000000E+02 0.  0.
    9900012    2    3    3    0    0 -0.16446480261E+02  0.24872543659E+02  0.21602131044E+02  0.54367052067E+02  0.39999926797E+02 0.  0.
         12    1    3    3    0    0  0.16446480261E+02 -0.24872543659E+02 -0.21602131044E+02  0.36820947933E+02  0.00000000000E+00 0. -1.
         11    1    4    4    0    0  0.50734620062E+00  0.72017266195E+01  0.14324538155E+01  0.73603118592E+01  0.51100000000E-03 0. -1.
        -11    1    4    4    0    0 -0.16605942093E+02  0.17275987285E+02  0.29305725710E+02  0.37855549251E+02  0.51100000000E-03 0.  1.
        -12    1    4    4    0    0 -0.34788436892E+00  0.39482975460E+00 -0.91360484813E+01  0.91511909565E+01  0.00000000000E+00 0.  1.
</event>
<event>
 8    1  0.1247338E-006  0.9118800E+02  0.7816164E-02  0.1184000E+00
        -11   -1    0    0    0    0  0.00000000000E+00  0.00000000000E+00  0.45593999997E+02  0.45594000000E+02  0.51100000000E-03 0. -1.
         11   -1    0    0    0    0 -0.00000000000E+00 -0.00000000000E+00 -0.45593999997E+02  0.45594000000E+02  0.51100000000E-03 0.  1.
         23    2    1    2    0    0  0.00000000000E+00 -0.35527136788E-14 -0.35527136788E-14  0.91188000000E+02  0.91188000000E+02 0.  0.
    9900012    2    3    3    0    0  0.12538732900E+02 -0.25287085413E+02 -0.23645790185E+02  0.54367083323E+02  0.39999998052E+02 0.  0.
         12    1    3    3    0    0 -0.12538732900E+02  0.25287085413E+02  0.23645790185E+02  0.36820916677E+02  0.00000000000E+00 0. -1.
         11    1    4    4    0    0 -0.36329965285E+01  0.25293483206E+01  0.31001438718E+01  0.54043648091E+01  0.51100000000E-03 0. -1.
        -11    1    4    4    0    0  0.58147943423E+01 -0.65131980759E+01  0.44444241632E+01  0.97972694575E+01  0.51100000000E-03 0.  1.
        -12    1    4    4    0    0  0.10356935086E+02 -0.21303235658E+02 -0.31190358220E+02  0.39165449056E+02  0.00000000000E+00 0.  1.
</event>
<event>
 8    1  0.1247338E-006  0.9118800E+02  0.7816164E-02  0.1184000E+00
        -11   -1    0    0    0    0  0.00000000000E+00  0.00000000000E+00  0.45593999997E+02  0.45594000000E+02  0.51100000000E-03 0.  1.
         11   -1    0    0    0    0 -0.00000000000E+00 -0.00000000000E+00 -0.45593999997E+02  0.45594000000E+02  0.51100000000E-03 0. -1.
         23    2    1    2    0    0  0.00000000000E+00  0.17763568394E-14  0.35527136788E-14  0.91188000000E+02  0.91188000000E+02 0.  0.
    9900012    2    3    3    0    0 -0.19383803440E+02  0.80995560028E+01 -0.30239791705E+02  0.54367086844E+02  0.40000006078E+02 0.  0.
        -12    1    3    3    0    0  0.19383803440E+02 -0.80995560028E+01  0.30239791705E+02  0.36820913156E+02  0.00000000000E+00 0.  1.
         11    1    4    4    0    0 -0.72604951244E+01  0.98693928261E+01 -0.15226600428E+02  0.19544028885E+02  0.51100000000E-03 0. -1.
        -11    1    4    4    0    0 -0.18394487971E+02 -0.86363724750E+01 -0.15428691134E+02  0.25514478784E+02  0.51100000000E-03 0.  1.
        -12    1    4    4    0    0  0.62711796553E+01  0.68665356517E+01  0.41549985647E+00  0.93085791749E+01  0.00000000000E+00 0.  1.
</event>
<event>
 8    1  0.1247338E-006  0.9118800E+02  0.7816164E-02  0.1184000E+00
        -11   -1    0    0    0    0  0.00000000000E+00  0.00000000000E+00  0.45593999997E+02  0.45594000000E+02  0.51100000000E-03 0. -1.
         11   -1    0    0    0    0 -0.00000000000E+00 -0.00000000000E+00 -0.45593999997E+02  0.45594000000E+02  0.51100000000E-03 0.  1.
         23    2    1    2    0    0  0.00000000000E+00  0.17763568394E-14  0.00000000000E+00  0.91188000000E+02  0.91188000000E+02 0.  0.
    9900012    2    3    3    0    0  0.24182124032E+02 -0.15136467587E+02 -0.23278712534E+02  0.54366997421E+02  0.39999802219E+02 0.  0.
         12    1    3    3    0    0 -0.24182124032E+02  0.15136467587E+02  0.23278712534E+02  0.36821002579E+02  0.00000000000E+00 0. -1.
         11    1    4    4    0    0  0.61704395911E+00  0.20059414795E+01  0.96427233398E+01  0.98684678717E+01  0.51100000000E-03 0. -1.
        -11    1    4    4    0    0  0.22946924642E+02 -0.17784067244E+02 -0.31679471997E+02  0.42970028445E+02  0.51100000000E-03 0.  1.
         12    1    4    4    0    0  0.61815543091E+00  0.64165817774E+00 -0.12419638771E+01  0.15285011043E+01  0.00000000000E+00 0. -1.
</event>
<event>
 8    1  0.1247338E-006  0.9118800E+02  0.7816164E-02  0.1184000E+00
        -11   -1    0    0    0    0  0.00000000000E+00  0.00000000000E+00  0.45593999997E+02  0.45594000000E+02  0.51100000000E-03 0.  1.
         11   -1    0    0    0    0 -0.00000000000E+00 -0.00000000000E+00 -0.45593999997E+02  0.45594000000E+02  0.51100000000E-03 0. -1.
         23    2    1    2    0    0 -0.35527136788E-14  0.00000000000E+00 -0.71054273576E-14  0.91188000000E+02  0.91188000000E+02 0.  0.
    9900012    2    3    3    0    0 -0.21358330414E+02  0.15171251325E+02 -0.25873422580E+02  0.54367093699E+02  0.40000021707E+02 0.  0.
        -12    1    3    3    0    0  0.21358330414E+02 -0.15171251325E+02  0.25873422580E+02  0.36820906301E+02  0.00000000000E+00 0.  1.
         11    1    4    4    0    0 -0.23106598315E+01  0.12718254237E+02 -0.31086123999E+01  0.13294984431E+02  0.51100000000E-03 0. -1.
        -11    1    4    4    0    0 -0.12936308007E+02  0.58015790110E+01  0.29058501663E+01  0.14472399571E+02  0.51100000000E-03 0.  1.
         12    1    4    4    0    0 -0.61113625748E+01 -0.33485819237E+01 -0.25670660346E+02  0.26599709698E+02  0.00000000000E+00 0. -1.
</event>
<event>
 8    1  0.1247338E-006  0.9118800E+02  0.7816164E-02  0.1184000E+00
        -11   -1    0    0    0    0  0.00000000000E+00  0.00000000000E+00  0.45593999997E+02  0.45594000000E+02  0.51100000000E-03 0.  1.
         11   -1    0    0    0    0 -0.00000000000E+00 -0.00000000000E+00 -0.45593999997E+02  0.45594000000E+02  0.51100000000E-03 0. -1.
         23    2    1    2    0    0 -0.17763568394E-14  0.00000000000E+00 -0.71054273576E-14  0.91188000000E+02  0.91188000000E+02 0.  0.
    9900012    2    3    3    0    0 -0.95784273118E+01  0.96899552495E+00  0.35540004084E+02  0.54367121244E+02  0.40000084500E+02 0.  0.
         12    1    3    3    0    0  0.95784273118E+01 -0.96899552495E+00 -0.35540004084E+02  0.36820878756E+02  0.00000000000E+00 0. -1.
         11    1    4    4    0    0 -0.19368529567E+02  0.18738026713E+01  0.71699793369E+01  0.20737880268E+02  0.51100000000E-03 0. -1.
        -11    1    4    4    0    0 -0.15878448536E+01 -0.51712377018E+00  0.18460791131E+02  0.18536166748E+02  0.51100000000E-03 0.  1.
        -12    1    4    4    0    0  0.11377947109E+02 -0.38768337615E+00  0.99092336159E+01  0.15093074229E+02  0.00000000000E+00 0.  1.
</event>
<event>
 8    1  0.1247338E-006  0.9118800E+02  0.7816164E-02  0.1184000E+00
        -11   -1    0    0    0    0  0.00000000000E+00  0.00000000000E+00  0.45593999997E+02  0.45594000000E+02  0.51100000000E-03 0.  1.
         11   -1    0    0    0    0 -0.00000000000E+00 -0.00000000000E+00 -0.45593999997E+02  0.45594000000E+02  0.51100000000E-03 0. -1.
         23    2    1    2    0    0 -0.88817841970E-15  0.35527136788E-14  0.00000000000E+00  0.91188000000E+02  0.91188000000E+02 0.  0.
    9900012    2    3    3    0    0 -0.59807030651E+01 -0.30603444987E+02  0.19581616440E+02  0.54367090768E+02  0.40000015024E+02 0.  0.
         12    1    3    3    0    0  0.59807030651E+01  0.30603444987E+02 -0.19581616440E+02  0.36820909232E+02  0.00000000000E+00 0. -1.
         11    1    4    4    0    0  0.89780920616E+01 -0.41225622862E+01  0.31502697480E+01  0.10369467518E+02  0.51100000000E-03 0. -1.
        -11    1    4    4    0    0  0.64653756128E+01 -0.13546154639E+02  0.10382642241E+02  0.18250990315E+02  0.51100000000E-03 0.  1.
        -12    1    4    4    0    0 -0.21424170739E+02 -0.12934728062E+02  0.60487044515E+01  0.25746632934E+02  0.00000000000E+00 0.  1.
</event>
<event>
 8    1  0.1247338E-006  0.9118800E+02  0.7816164E-02  0.1184000E+00
        -11   -1    0    0    0    0  0.00000000000E+00  0.00000000000E+00  0.45593999997E+02  0.45594000000E+02  0.51100000000E-03 0. -1.
         11   -1    0    0    0    0 -0.00000000000E+00 -0.00000000000E+00 -0.45593999997E+02  0.45594000000E+02  0.51100000000E-03 0.  1.
         23    2    1    2    0    0  0.00000000000E+00  0.00000000000E+00 -0.35527136788E-14  0.91188000000E+02  0.91188000000E+02 0.  0.
    9900012    2    3    3    0    0  0.11367365406E+02 -0.19399268572E+02  0.29158727606E+02  0.54367081855E+02  0.39999994705E+02 0.  0.
        -12    1    3    3    0    0 -0.11367365406E+02  0.19399268572E+02 -0.29158727606E+02  0.36820918145E+02  0.00000000000E+00 0.  1.
         11    1    4    4    0    0  0.68985818380E+01 -0.36188709138E+01  0.90373670273E+01  0.11931498695E+02  0.51100000000E-03 0. -1.
        -11    1    4    4    0    0 -0.87627769780E+01 -0.21222204864E+02  0.10915222790E+02  0.25422634176E+02  0.51100000000E-03 0.  1.
        -12    1    4    4    0    0  0.13231560546E+02  0.54418072051E+01  0.92061377884E+01  0.17012948984E+02  0.00000000000E+00 0.  1.
</event>
<event>
 8    1  0.1247338E-006  0.9118800E+02  0.7816164E-02  0.1184000E+00
        -11   -1    0    0    0    0  0.00000000000E+00  0.00000000000E+00  0.45593999997E+02  0.45594000000E+02  0.51100000000E-03 0. -1.
         11   -1    0    0    0    0 -0.00000000000E+00 -0.00000000000E+00 -0.45593999997E+02  0.45594000000E+02  0.51100000000E-03 0.  1.
         23    2    1    2    0    0  0.00000000000E+00  0.71054273576E-14  0.17763568394E-14  0.91188000000E+02  0.91188000000E+02 0.  0.
    9900012    2    3    3    0    0 -0.98205800615E+01 -0.33335017077E+02  0.12170116592E+02  0.54367097049E+02  0.40000029343E+02 0.  0.
         12    1    3    3    0    0  0.98205800615E+01  0.33335017077E+02 -0.12170116592E+02  0.36820902951E+02  0.00000000000E+00 0. -1.
         11    1    4    4    0    0 -0.80918943932E+01  0.51541149310E+01 -0.61945865354E+01  0.11420006926E+02  0.51100000000E-03 0. -1.
        -11    1    4    4    0    0 -0.27596482437E+01 -0.20660200825E+02  0.82031258788E+01  0.22399795334E+02  0.51100000000E-03 0.  1.
         12    1    4    4    0    0  0.10309625754E+01 -0.17828931183E+02  0.10161577248E+02  0.20547294789E+02  0.00000000000E+00 0. -1.
</event>
<event>
 8    1  0.1247338E-006  0.9118800E+02  0.7816164E-02  0.1184000E+00
        -11   -1    0    0    0    0  0.00000000000E+00  0.00000000000E+00  0.45593999997E+02  0.45594000000E+02  0.51100000000E-03 0. -1.
         11   -1    0    0    0    0 -0.00000000000E+00 -0.00000000000E+00 -0.45593999997E+02  0.45594000000E+02  0.51100000000E-03 0.  1.
         23    2    1    2    0    0  0.35527136788E-14 -0.35527136788E-14  0.00000000000E+00  0.91188000000E+02  0.91188000000E+02 0.  0.
    9900012    2    3    3    0    0 -0.23677641312E+02  0.23255635472E+02 -0.15947531017E+02  0.54367095274E+02  0.40000025296E+02 0.  0.
         12    1    3    3    0    0  0.23677641312E+02 -0.23255635472E+02  0.15947531017E+02  0.36820904726E+02  0.00000000000E+00 0. -1.
         11    1    4    4    0    0 -0.15824187900E+02  0.30800914700E+01 -0.10531109696E+01  0.16155523177E+02  0.51100000000E-03 0. -1.
        -11    1    4    4    0    0 -0.12222495306E+02  0.29132956612E+01 -0.16031495662E+02  0.20368739199E+02  0.51100000000E-03 0.  1.
         12    1    4    4    0    0  0.43690418945E+01  0.17262248341E+02  0.11370756144E+01  0.17842832898E+02  0.00000000000E+00 0. -1.
</event>
<event>
 8    1  0.1247338E-006  0.9118800E+02  0.7816164E-02  0.1184000E+00
        -11   -1    0    0    0    0  0.00000000000E+00  0.00000000000E+00  0.45593999997E+02  0.45594000000E+02  0.51100000000E-03 0.  1.
         11   -1    0    0    0    0 -0.00000000000E+00 -0.00000000000E+00 -0.45593999997E+02  0.45594000000E+02  0.51100000000E-03 0. -1.
         23    2    1    2    0    0 -0.35527136788E-14  0.00000000000E+00  0.00000000000E+00  0.91188000000E+02  0.91188000000E+02 0.  0.
    9900012    2    3    3    0    0 -0.30146705901E+02 -0.14963059040E+01 -0.21088336933E+02  0.54367071676E+02  0.39999971500E+02 0.  0.
        -12    1    3    3    0    0  0.30146705901E+02  0.14963059040E+01  0.21088336933E+02  0.36820928324E+02  0.00000000000E+00 0.  1.
         11    1    4    4    0    0  0.31135847511E+00 -0.10816271152E+02 -0.26986353552E+00  0.10824116237E+02  0.51100000000E-03 0. -1.
        -11    1    4    4    0    0  0.28653913627E+01  0.26058831001E+01 -0.41179926432E+00  0.38949548506E+01  0.51100000000E-03 0.  1.
        -12    1    4    4    0    0 -0.33323455739E+02  0.67140821479E+01 -0.20406674133E+02  0.39648000588E+02  0.00000000000E+00 0.  1.
</event>
<event>
 8    1  0.1247338E-006  0.9118800E+02  0.7816164E-02  0.1184000E+00
        -11   -1    0    0    0    0  0.00000000000E+00  0.00000000000E+00  0.45593999997E+02  0.45594000000E+02  0.51100000000E-03 0.  1.
         11   -1    0    0    0    0 -0.00000000000E+00 -0.00000000000E+00 -0.45593999997E+02  0.45594000000E+02  0.51100000000E-03 0. -1.
         23    2    1    2    0    0  0.00000000000E+00  0.00000000000E+00  0.00000000000E+00  0.91188000000E+02  0.91188000000E+02 0.  0.
    9900012    2    3    3    0    0  0.16195403418E+02 -0.19933652161E+02  0.26384428273E+02  0.54367086980E+02  0.40000006388E+02 0.  0.
         12    1    3    3    0    0 -0.16195403418E+02  0.19933652161E+02 -0.26384428273E+02  0.36820913020E+02  0.00000000000E+00 0. -1.
         11    1    4    4    0    0 -0.59706067421E+01 -0.30680600579E+01 -0.52039504339E+01  0.84936586797E+01  0.51100000000E-03 0. -1.
        -11    1    4    4    0    0  0.93172294226E+01  0.12853602740E+01  0.16522965347E+02  0.19012398567E+02  0.51100000000E-03 0.  1.
        -12    1    4    4    0    0  0.12848780737E+02 -0.18150952377E+02  0.15065413360E+02  0.26861029733E+02  0.00000000000E+00 0.  1.
</event>
<event>
 8    1  0.1247338E-006  0.9118800E+02  0.7816164E-02  0.1184000E+00
        -11   -1    0    0    0    0  0.00000000000E+00  0.00000000000E+00  0.45593999997E+02  0.45594000000E+02  0.51100000000E-03 0. -1.
         11   -1    0    0    0    0 -0.00000000000E+00 -0.00000000000E+00 -0.45593999997E+02  0.45594000000E+02  0.51100000000E-03 0.  1.
         23    2    1    2    0    0  0.17763568394E-14  0.00000000000E+00  0.00000000000E+00  0.91188000000E+02  0.91188000000E+02 0.  0.
    9900012    2    3    3    0    0 -0.80030636792E+01 -0.20003844735E+02  0.29859325904E+02  0.54367052485E+02  0.39999927750E+02 0.  0.
        -12    1    3    3    0    0  0.80030636792E+01  0.20003844735E+02 -0.29859325904E+02  0.36820947515E+02  0.00000000000E+00 0.  1.
         11    1    4    4    0    0 -0.48605553406E+01 -0.19222967846E+02  0.20974209481E+02  0.28862864630E+02  0.51100000000E-03 0. -1.
        -11    1    4    4    0    0 -0.31110274980E+01  0.84857913949E+01 -0.37919409048E+01  0.98013245930E+01  0.51100000000E-03 0.  1.
        -12    1    4    4    0    0 -0.31480840581E-01 -0.92666682844E+01  0.12677057328E+02  0.15702863262E+02  0.00000000000E+00 0.  1.
</event>
<event>
 8    1  0.1247338E-006  0.9118800E+02  0.7816164E-02  0.1184000E+00
        -11   -1    0    0    0    0  0.00000000000E+00  0.00000000000E+00  0.45593999997E+02  0.45594000000E+02  0.51100000000E-03 0.  1.
         11   -1    0    0    0    0 -0.00000000000E+00 -0.00000000000E+00 -0.45593999997E+02  0.45594000000E+02  0.51100000000E-03 0. -1.
         23    2    1    2    0    0  0.00000000000E+00  0.22204460493E-14  0.00000000000E+00  0.91188000000E+02  0.91188000000E+02 0.  0.
    9900012    2    3    3    0    0 -0.13869229716E+02 -0.25367179673E+01  0.34014522759E+02  0.54367106074E+02  0.40000049917E+02 0.  0.
         12    1    3    3    0    0  0.13869229716E+02  0.25367179673E+01 -0.34014522759E+02  0.36820893926E+02  0.00000000000E+00 0. -1.
         11    1    4    4    0    0 -0.11646467509E+02  0.17093118810E+02  0.13674243677E+02  0.24795157925E+02  0.51100000000E-03 0. -1.
        -11    1    4    4    0    0 -0.12763376991E+01 -0.35847511556E+01  0.93668972234E+01  0.10110303785E+02  0.51100000000E-03 0.  1.
         12    1    4    4    0    0 -0.94642450801E+00 -0.16045085622E+02  0.10973381858E+02  0.19461644364E+02  0.00000000000E+00 0. -1.
</event>
<event>
 8    1  0.1247338E-006  0.9118800E+02  0.7816164E-02  0.1184000E+00
        -11   -1    0    0    0    0  0.00000000000E+00  0.00000000000E+00  0.45593999997E+02  0.45594000000E+02  0.51100000000E-03 0.  1.
         11   -1    0    0    0    0 -0.00000000000E+00 -0.00000000000E+00 -0.45593999997E+02  0.45594000000E+02  0.51100000000E-03 0. -1.
         23    2    1    2    0    0  0.00000000000E+00  0.00000000000E+00 -0.17763568394E-14  0.91188000000E+02  0.91188000000E+02 0.  0.
    9900012    2    3    3    0    0 -0.29217800180E+02 -0.19853473646E+02 -0.10389366234E+02  0.54367092978E+02  0.40000020062E+02 0.  0.
        -12    1    3    3    0    0  0.29217800180E+02  0.19853473646E+02  0.10389366234E+02  0.36820907022E+02  0.00000000000E+00 0.  1.
         11    1    4    4    0    0 -0.15534446485E+01 -0.43215019493E+01 -0.15745617356E+02  0.16401616858E+02  0.51100000000E-03 0. -1.
        -11    1    4    4    0    0 -0.40425194997E+01 -0.90694379829E+00 -0.65408645108E+01  0.77425719091E+01  0.51100000000E-03 0.  1.
        -12    1    4    4    0    0 -0.23621836032E+02 -0.14625027898E+02  0.11897115633E+02  0.30222904211E+02  0.00000000000E+00 0.  1.
</event>
<event>
 8    1  0.1247338E-006  0.9118800E+02  0.7816164E-02  0.1184000E+00
        -11   -1    0    0    0    0  0.00000000000E+00  0.00000000000E+00  0.45593999997E+02  0.45594000000E+02  0.51100000000E-03 0. -1.
         11   -1    0    0    0    0 -0.00000000000E+00 -0.00000000000E+00 -0.45593999997E+02  0.45594000000E+02  0.51100000000E-03 0.  1.
         23    2    1    2    0    0  0.00000000000E+00 -0.35527136788E-14  0.00000000000E+00  0.91188000000E+02  0.91188000000E+02 0.  0.
    9900012    2    3    3    0    0 -0.31108131396E+02  0.17573495244E+02 -0.89013395418E+01  0.54367117071E+02  0.40000074987E+02 0.  0.
        -12    1    3    3    0    0  0.31108131396E+02 -0.17573495244E+02  0.89013395418E+01  0.36820882929E+02  0.00000000000E+00 0.  1.
         11    1    4    4    0    0 -0.13754089837E+02  0.20586514283E+02 -0.20517758376E+02  0.32155216787E+02  0.51100000000E-03 0. -1.
        -11    1    4    4    0    0 -0.12548525849E+02  0.68379451243E+00  0.59160420911E+01  0.13890019086E+02  0.51100000000E-03 0.  1.
         12    1    4    4    0    0 -0.48055157097E+01 -0.36968135517E+01  0.57003767429E+01  0.83218811986E+01  0.00000000000E+00 0. -1.
</event>
<event>
 8    1  0.1247338E-006  0.9118800E+02  0.7816164E-02  0.1184000E+00
        -11   -1    0    0    0    0  0.00000000000E+00  0.00000000000E+00  0.45593999997E+02  0.45594000000E+02  0.51100000000E-03 0. -1.
         11   -1    0    0    0    0 -0.00000000000E+00 -0.00000000000E+00 -0.45593999997E+02  0.45594000000E+02  0.51100000000E-03 0.  1.
         23    2    1    2    0    0  0.35527136788E-14  0.88817841970E-15 -0.35527136788E-14  0.91188000000E+02  0.91188000000E+02 0.  0.
    9900012    2    3    3    0    0  0.21932175056E+02  0.48682275814E+01 -0.29172834995E+02  0.54367160193E+02  0.40000173291E+02 0.  0.
         12    1    3    3    0    0 -0.21932175056E+02 -0.48682275814E+01  0.29172834995E+02  0.36820839807E+02  0.00000000000E+00 0. -1.
         11    1    4    4    0    0 -0.52058747718E+01 -0.15355380943E+01  0.98194093787E-01  0.54285036354E+01  0.51100000000E-03 0. -1.
        -11    1    4    4    0    0  0.71296841636E+01  0.14300129675E+01 -0.27271856690E+02  0.28224661220E+02  0.51100000000E-03 0.  1.
        -12    1    4    4    0    0  0.20008365664E+02  0.49737527082E+01 -0.19991723983E+01  0.20713995338E+02  0.00000000000E+00 0.  1.
</event>
<event>
 8    1  0.1247338E-006  0.9118800E+02  0.7816164E-02  0.1184000E+00
        -11   -1    0    0    0    0  0.00000000000E+00  0.00000000000E+00  0.45593999997E+02  0.45594000000E+02  0.51100000000E-03 0.  1.
         11   -1    0    0    0    0 -0.00000000000E+00 -0.00000000000E+00 -0.45593999997E+02  0.45594000000E+02  0.51100000000E-03 0. -1.
         23    2    1    2    0    0  0.00000000000E+00 -0.88817841970E-15  0.00000000000E+00  0.91188000000E+02  0.91188000000E+02 0.  0.
    9900012    2    3    3    0    0 -0.78962191138E+01  0.26313241139E+01 -0.35868007028E+02  0.54366972433E+02  0.39999745255E+02 0.  0.
        -12    1    3    3    0    0  0.78962191138E+01 -0.26313241139E+01  0.35868007028E+02  0.36821027567E+02  0.00000000000E+00 0.  1.
         11    1    4    4    0    0  0.64608844874E+01  0.53949516529E+01 -0.29158035994E+02  0.30348634153E+02  0.51100000000E-03 0. -1.
        -11    1    4    4    0    0 -0.15285786181E+02 -0.39793072306E+01  0.13140159963E+01  0.15849819668E+02  0.51100000000E-03 0.  1.
        -12    1    4    4    0    0  0.92868257945E+00  0.12156796917E+01 -0.80239870311E+01  0.81685186124E+01  0.00000000000E+00 0.  1.
</event>
<event>
 8    1  0.1247338E-006  0.9118800E+02  0.7816164E-02  0.1184000E+00
        -11   -1    0    0    0    0  0.00000000000E+00  0.00000000000E+00  0.45593999997E+02  0.45594000000E+02  0.51100000000E-03 0.  1.
         11   -1    0    0    0    0 -0.00000000000E+00 -0.00000000000E+00 -0.45593999997E+02  0.45594000000E+02  0.51100000000E-03 0. -1.
         23    2    1    2    0    0  0.35527136788E-14  0.00000000000E+00  0.44408920985E-15  0.91188000000E+02  0.91188000000E+02 0.  0.
    9900012    2    3    3    0    0 -0.12429312911E+02  0.34530963384E+02  0.29831066550E+01  0.54367161105E+02  0.40000175370E+02 0.  0.
         12    1    3    3    0    0  0.12429312911E+02 -0.34530963384E+02 -0.29831066550E+01  0.36820838895E+02  0.00000000000E+00 0. -1.
         11    1    4    4    0    0 -0.26020012984E+01 -0.19477783228E+01  0.11505545621E+02  0.11955828347E+02  0.51100000000E-03 0. -1.
        -11    1    4    4    0    0 -0.20723110317E+01 -0.14461424934E+01 -0.18476314698E+01  0.31304222451E+01  0.51100000000E-03 0.  1.
        -12    1    4    4    0    0 -0.77550005805E+01  0.37924884200E+02 -0.66748074966E+01  0.39280910513E+02  0.00000000000E+00 0.  1.
</event>
<event>
 8    1  0.1247338E-006  0.9118800E+02  0.7816164E-02  0.1184000E+00
        -11   -1    0    0    0    0  0.00000000000E+00  0.00000000000E+00  0.45593999997E+02  0.45594000000E+02  0.51100000000E-03 0.  1.
         11   -1    0    0    0    0 -0.00000000000E+00 -0.00000000000E+00 -0.45593999997E+02  0.45594000000E+02  0.51100000000E-03 0. -1.
         23    2    1    2    0    0  0.00000000000E+00 -0.17763568394E-14 -0.35527136788E-14  0.91188000000E+02  0.91188000000E+02 0.  0.
    9900012    2    3    3    0    0 -0.19299796187E+02 -0.13863391315E+02  0.28126581790E+02  0.54367077214E+02  0.39999984125E+02 0.  0.
         12    1    3    3    0    0  0.19299796187E+02  0.13863391315E+02 -0.28126581790E+02  0.36820922786E+02  0.00000000000E+00 0. -1.
         11    1    4    4    0    0 -0.11960611657E+02 -0.11438602805E+02  0.16027105038E+02  0.23038358481E+02  0.51100000000E-03 0. -1.
        -11    1    4    4    0    0 -0.14823597737E+02  0.41372465569E+01  0.14439711471E+02  0.21103580895E+02  0.51100000000E-03 0.  1.
         12    1    4    4    0    0  0.74844132066E+01 -0.65620350667E+01 -0.23402347199E+01  0.10225137838E+02  0.00000000000E+00 0. -1.
</event>
<event>
 8    1  0.1247338E-006  0.9118800E+02  0.7816164E-02  0.1184000E+00
        -11   -1    0    0    0    0  0.00000000000E+00  0.00000000000E+00  0.45593999997E+02  0.45594000000E+02  0.51100000000E-03 0.  1.
         11   -1    0    0    0    0 -0.00000000000E+00 -0.00000000000E+00 -0.45593999997E+02  0.45594000000E+02  0.51100000000E-03 0. -1.
         23    2    1    2    0    0  0.00000000000E+00  0.00000000000E+00  0.35527136788E-14  0.91188000000E+02  0.91188000000E+02 0.  0.
    9900012    2    3    3    0    0  0.56621316219E+01 -0.23827470755E+02  0.27494942449E+02  0.54367082611E+02  0.39999996428E+02 0.  0.
         12    1    3    3    0    0 -0.56621316219E+01  0.23827470755E+02 -0.27494942449E+02  0.36820917389E+02  0.00000000000E+00 0. -1.
         11    1    4    4    0    0 -0.15486542115E+01 -0.56329431884E+01  0.40709833088E+01  0.71204834240E+01  0.51100000000E-03 0. -1.
        -11    1    4    4    0    0 -0.58461129581E+01 -0.23998436340E+02  0.21655039143E+02  0.32848785427E+02  0.51100000000E-03 0.  1.
         12    1    4    4    0    0  0.13056898791E+02  0.58039087732E+01  0.17689199970E+01  0.14397813760E+02  0.00000000000E+00 0. -1.
</event>
<event>
 8    1  0.1247338E-006  0.9118800E+02  0.7816164E-02  0.1184000E+00
        -11   -1    0    0    0    0  0.00000000000E+00  0.00000000000E+00  0.45593999997E+02  0.45594000000E+02  0.51100000000E-03 0.  1.
         11   -1    0    0    0    0 -0.00000000000E+00 -0.00000000000E+00 -0.45593999997E+02  0.45594000000E+02  0.51100000000E-03 0. -1.
         23    2    1    2    0    0 -0.35527136788E-14 -0.71054273576E-14 -0.44408920985E-15  0.91188000000E+02  0.91188000000E+02 0.  0.
    9900012    2    3    3    0    0  0.15018661970E+02  0.33406624042E+02  0.37701406242E+01  0.54367126877E+02  0.40000097340E+02 0.  0.
         12    1    3    3    0    0 -0.15018661970E+02 -0.33406624042E+02 -0.37701406242E+01  0.36820873123E+02  0.00000000000E+00 0. -1.
         11    1    4    4    0    0  0.93396297992E+01 -0.53817618551E+01  0.55731849136E+01  0.12134761464E+02  0.51100000000E-03 0. -1.
        -11    1    4    4    0    0  0.22411269224E+01  0.32269798760E+02  0.43410581412E+01  0.32637514427E+02  0.51100000000E-03 0.  1.
         12    1    4    4    0    0  0.34379052488E+01  0.65185871363E+01 -0.61441024307E+01  0.95948509854E+01  0.00000000000E+00 0. -1.
</event>
<event>
 8    1  0.1247338E-006  0.9118800E+02  0.7816164E-02  0.1184000E+00
        -11   -1    0    0    0    0  0.00000000000E+00  0.00000000000E+00  0.45593999997E+02  0.45594000000E+02  0.51100000000E-03 0. -1.
         11   -1    0    0    0    0 -0.00000000000E+00 -0.00000000000E+00 -0.45593999997E+02  0.45594000000E+02  0.51100000000E-03 0.  1.
         23    2    1    2    0    0  0.00000000000E+00  0.00000000000E+00  0.00000000000E+00  0.91188000000E+02  0.91188000000E+02 0.  0.
    9900012    2    3    3    0    0  0.11301509185E+02 -0.33230252134E+02 -0.11126808784E+02  0.54367086915E+02  0.40000006239E+02 0.  0.
         12    1    3    3    0    0 -0.11301509185E+02  0.33230252134E+02  0.11126808784E+02  0.36820913085E+02  0.00000000000E+00 0. -1.
         11    1    4    4    0    0 -0.94290805681E+01  0.19974783174E-01 -0.76601070579E+00  0.94601655384E+01  0.51100000000E-03 0. -1.
        -11    1    4    4    0    0  0.67481715017E+01 -0.47247270626E+00  0.22140860179E+01  0.71178104941E+01  0.51100000000E-03 0.  1.
        -12    1    4    4    0    0  0.13982418251E+02 -0.32777754210E+02 -0.12574884096E+02  0.37789110882E+02  0.00000000000E+00 0.  1.
</event>
<event>
 8    1  0.1247338E-006  0.9118800E+02  0.7816164E-02  0.1184000E+00
        -11   -1    0    0    0    0  0.00000000000E+00  0.00000000000E+00  0.45593999997E+02  0.45594000000E+02  0.51100000000E-03 0.  1.
         11   -1    0    0    0    0 -0.00000000000E+00 -0.00000000000E+00 -0.45593999997E+02  0.45594000000E+02  0.51100000000E-03 0. -1.
         23    2    1    2    0    0  0.10658141036E-13  0.00000000000E+00  0.35527136788E-14  0.91188000000E+02  0.91188000000E+02 0.  0.
    9900012    2    3    3    0    0 -0.28805291843E+02 -0.10652551079E+02 -0.20311532192E+02  0.54367081725E+02  0.39999994409E+02 0.  0.
        -12    1    3    3    0    0  0.28805291843E+02  0.10652551079E+02  0.20311532192E+02  0.36820918275E+02  0.00000000000E+00 0.  1.
         11    1    4    4    0    0  0.69932930074E+01 -0.75782271930E+01 -0.10709333617E+00  0.10312475150E+02  0.51100000000E-03 0. -1.
        -11    1    4    4    0    0 -0.26343281695E+01 -0.45516453888E+01 -0.13156062442E+00  0.52606529166E+01  0.51100000000E-03 0.  1.
         12    1    4    4    0    0 -0.33164256680E+02  0.14773215026E+01 -0.20072878231E+02  0.38793953659E+02  0.00000000000E+00 0. -1.
</event>
<event>
 8    1  0.1247338E-006  0.9118800E+02  0.7816164E-02  0.1184000E+00
        -11   -1    0    0    0    0  0.00000000000E+00  0.00000000000E+00  0.45593999997E+02  0.45594000000E+02  0.51100000000E-03 0.  1.
         11   -1    0    0    0    0 -0.00000000000E+00 -0.00000000000E+00 -0.45593999997E+02  0.45594000000E+02  0.51100000000E-03 0. -1.
         23    2    1    2    0    0  0.00000000000E+00  0.35527136788E-14 -0.44408920985E-15  0.91188000000E+02  0.91188000000E+02 0.  0.
    9900012    2    3    3    0    0  0.20006804984E+02 -0.30842911444E+02 -0.20570306638E+01  0.54366962438E+02  0.39999722468E+02 0.  0.
         12    1    3    3    0    0 -0.20006804984E+02  0.30842911444E+02  0.20570306638E+01  0.36821037562E+02  0.00000000000E+00 0. -1.
         11    1    4    4    0    0  0.17364284140E+02 -0.17769008624E+02  0.28920752476E+01  0.25012399538E+02  0.51100000000E-03 0. -1.
        -11    1    4    4    0    0  0.46348077246E+01 -0.20272906594E+02 -0.63727761157E+01  0.21750504824E+02  0.51100000000E-03 0.  1.
        -12    1    4    4    0    0 -0.19922868808E+01  0.71990037742E+01  0.14236702043E+01  0.76040580749E+01  0.00000000000E+00 0.  1.
</event>
<event>
 8    1  0.1247338E-006  0.9118800E+02  0.7816164E-02  0.1184000E+00
        -11   -1    0    0    0    0  0.00000000000E+00  0.00000000000E+00  0.45593999997E+02  0.45594000000E+02  0.51100000000E-03 0. -1.
         11   -1    0    0    0    0 -0.00000000000E+00 -0.00000000000E+00 -0.45593999997E+02  0.45594000000E+02  0.51100000000E-03 0.  1.
         23    2    1    2    0    0 -0.35527136788E-14 -0.35527136788E-14  0.17763568394E-14  0.91188000000E+02  0.91188000000E+02 0.  0.
    9900012    2    3    3    0    0  0.16294648554E+02  0.31860730432E+02  0.86698376294E+01  0.54366976119E+02  0.39999753657E+02 0.  0.
        -12    1    3    3    0    0 -0.16294648554E+02 -0.31860730432E+02 -0.86698376294E+01  0.36821023881E+02  0.00000000000E+00 0.  1.
         11    1    4    4    0    0  0.10844056188E+02  0.26201840691E+01  0.16733259761E+02  0.20111213331E+02  0.51100000000E-03 0. -1.
        -11    1    4    4    0    0 -0.40267197834E+01  0.69978784606E+01  0.15783819818E+01  0.82265463656E+01  0.51100000000E-03 0.  1.
        -12    1    4    4    0    0  0.94773121493E+01  0.22242667902E+02 -0.96418041136E+01  0.26029216422E+02  0.00000000000E+00 0.  1.
</event>
<event>
 8    1  0.1247338E-006  0.9118800E+02  0.7816164E-02  0.1184000E+00
        -11   -1    0    0    0    0  0.00000000000E+00  0.00000000000E+00  0.45593999997E+02  0.45594000000E+02  0.51100000000E-03 0. -1.
         11   -1    0    0    0    0 -0.00000000000E+00 -0.00000000000E+00 -0.45593999997E+02  0.45594000000E+02  0.51100000000E-03 0.  1.
         23    2    1    2    0    0  0.00000000000E+00  0.35527136788E-14  0.17763568394E-14  0.91188000000E+02  0.91188000000E+02 0.  0.
    9900012    2    3    3    0    0 -0.19039049499E+02 -0.29490657215E+02  0.11118111915E+02  0.54366855513E+02  0.39999478710E+02 0.  0.
        -12    1    3    3    0    0  0.19039049499E+02  0.29490657215E+02 -0.11118111915E+02  0.36821144487E+02  0.00000000000E+00 0.  1.
         11    1    4    4    0    0 -0.27545878455E+01  0.82550615751E+01 -0.18773025671E+00  0.87045412698E+01  0.51100000000E-03 0. -1.
        -11    1    4    4    0    0 -0.42720757555E+01 -0.13017542201E+02 -0.39011856157E+01  0.14245219749E+02  0.51100000000E-03 0.  1.
         12    1    4    4    0    0 -0.12012385897E+02 -0.24728176588E+02  0.15207027788E+02  0.31417094495E+02  0.00000000000E+00 0. -1.
</event>
<event>
 8    1  0.1247338E-006  0.9118800E+02  0.7816164E-02  0.1184000E+00
        -11   -1    0    0    0    0  0.00000000000E+00  0.00000000000E+00  0.45593999997E+02  0.45594000000E+02  0.51100000000E-03 0. -1.
         11   -1    0    0    0    0 -0.00000000000E+00 -0.00000000000E+00 -0.45593999997E+02  0.45594000000E+02  0.51100000000E-03 0.  1.
         23    2    1    2    0    0 -0.88817841970E-15  0.00000000000E+00  0.17763568394E-14  0.91188000000E+02  0.91188000000E+02 0.  0.
    9900012    2    3    3    0    0 -0.40460187377E+01 -0.34572332526E+02 -0.12006682786E+02  0.54367124461E+02  0.40000091834E+02 0.  0.
         12    1    3    3    0    0  0.40460187377E+01  0.34572332526E+02  0.12006682786E+02  0.36820875539E+02  0.00000000000E+00 0. -1.
         11    1    4    4    0    0 -0.48370019018E+01 -0.70052775778E+01  0.31646237332E+01  0.90821442939E+01  0.51100000000E-03 0. -1.
        -11    1    4    4    0    0  0.44920966941E+01 -0.23742692907E+02  0.47833550441E+01  0.24632800996E+02  0.51100000000E-03 0.  1.
        -12    1    4    4    0    0 -0.37011135300E+01 -0.38243620413E+01 -0.19954661564E+02  0.20652179171E+02  0.00000000000E+00 0.  1.
</event>
<event>
 8    1  0.1247338E-006  0.9118800E+02  0.7816164E-02  0.1184000E+00
        -11   -1    0    0    0    0  0.00000000000E+00  0.00000000000E+00  0.45593999997E+02  0.45594000000E+02  0.51100000000E-03 0. -1.
         11   -1    0    0    0    0 -0.00000000000E+00 -0.00000000000E+00 -0.45593999997E+02  0.45594000000E+02  0.51100000000E-03 0.  1.
         23    2    1    2    0    0  0.00000000000E+00  0.00000000000E+00  0.00000000000E+00  0.91188000000E+02  0.91188000000E+02 0.  0.
    9900012    2    3    3    0    0  0.15082449000E+02 -0.27247050414E+02 -0.19644478658E+02  0.54366979294E+02  0.39999760896E+02 0.  0.
         12    1    3    3    0    0 -0.15082449000E+02  0.27247050414E+02  0.19644478658E+02  0.36821020706E+02  0.00000000000E+00 0. -1.
         11    1    4    4    0    0 -0.22183270272E+01 -0.88337527365E+01  0.25047621870E+01  0.94461630350E+01  0.51100000000E-03 0. -1.
        -11    1    4    4    0    0  0.58683347000E+01 -0.14134074995E+02  0.42098184352E+01  0.15872365912E+02  0.51100000000E-03 0.  1.
        -12    1    4    4    0    0  0.11432441327E+02 -0.42792226819E+01 -0.26359059280E+02  0.29048450347E+02  0.00000000000E+00 0.  1.
</event>
<event>
 8    1  0.1247338E-006  0.9118800E+02  0.7816164E-02  0.1184000E+00
        -11   -1    0    0    0    0  0.00000000000E+00  0.00000000000E+00  0.45593999997E+02  0.45594000000E+02  0.51100000000E-03 0. -1.
         11   -1    0    0    0    0 -0.00000000000E+00 -0.00000000000E+00 -0.45593999997E+02  0.45594000000E+02  0.51100000000E-03 0.  1.
         23    2    1    2    0    0 -0.71054273576E-14  0.17763568394E-14 -0.33306690739E-15  0.91188000000E+02  0.91188000000E+02 0.  0.
    9900012    2    3    3    0    0 -0.36676244170E+02  0.32150632221E+01 -0.54627217650E+00  0.54367055808E+02  0.39999935325E+02 0.  0.
        -12    1    3    3    0    0  0.36676244170E+02 -0.32150632221E+01  0.54627217650E+00  0.36820944192E+02  0.00000000000E+00 0.  1.
         11    1    4    4    0    0 -0.17154346951E+02 -0.62497651468E+01 -0.12099456587E+01  0.18297408354E+02  0.51100000000E-03 0. -1.
        -11    1    4    4    0    0 -0.18710537581E+02 -0.57715853810E+01 -0.42568359865E+01  0.20037865836E+02  0.51100000000E-03 0.  1.
        -12    1    4    4    0    0 -0.81135963799E+00  0.15236413750E+02  0.49205094687E+01  0.16031781618E+02  0.00000000000E+00 0.  1.
</event>
<event>
 8    1  0.1247338E-006  0.9118800E+02  0.7816164E-02  0.1184000E+00
        -11   -1    0    0    0    0  0.00000000000E+00  0.00000000000E+00  0.45593999997E+02  0.45594000000E+02  0.51100000000E-03 0.  1.
         11   -1    0    0    0    0 -0.00000000000E+00 -0.00000000000E+00 -0.45593999997E+02  0.45594000000E+02  0.51100000000E-03 0. -1.
         23    2    1    2    0    0  0.00000000000E+00 -0.35527136788E-14  0.00000000000E+00  0.91188000000E+02  0.91188000000E+02 0.  0.
    9900012    2    3    3    0    0 -0.15476799137E+02  0.11349608079E+02  0.31423489716E+02  0.54367073599E+02  0.39999975883E+02 0.  0.
         12    1    3    3    0    0  0.15476799137E+02 -0.11349608079E+02 -0.31423489716E+02  0.36820926401E+02  0.00000000000E+00 0. -1.
         11    1    4    4    0    0 -0.80653855138E+01 -0.39118519518E+00  0.25473682848E+02  0.26722873862E+02  0.51100000000E-03 0. -1.
        -11    1    4    4    0    0 -0.10589554387E+01 -0.67911920649E+01 -0.80864918786E+00  0.69206639894E+01  0.51100000000E-03 0.  1.
        -12    1    4    4    0    0 -0.63524581845E+01  0.18531985339E+02  0.67584560559E+01  0.20723535747E+02  0.00000000000E+00 0.  1.
</event>
<event>
 8    1  0.1247338E-006  0.9118800E+02  0.7816164E-02  0.1184000E+00
        -11   -1    0    0    0    0  0.00000000000E+00  0.00000000000E+00  0.45593999997E+02  0.45594000000E+02  0.51100000000E-03 0. -1.
         11   -1    0    0    0    0 -0.00000000000E+00 -0.00000000000E+00 -0.45593999997E+02  0.45594000000E+02  0.51100000000E-03 0.  1.
         23    2    1    2    0    0  0.53290705182E-14  0.35527136788E-14  0.00000000000E+00  0.91188000000E+02  0.91188000000E+02 0.  0.
    9900012    2    3    3    0    0 -0.12939737298E+02 -0.28161716472E+02  0.19881160891E+02  0.54367086997E+02  0.40000006427E+02 0.  0.
        -12    1    3    3    0    0  0.12939737298E+02  0.28161716472E+02 -0.19881160891E+02  0.36820913003E+02  0.00000000000E+00 0.  1.
         11    1    4    4    0    0  0.72783604470E+01 -0.10131162810E+02  0.35431348775E+01  0.12967991197E+02  0.51100000000E-03 0. -1.
        -11    1    4    4    0    0 -0.13039572194E+02 -0.71316125366E+01 -0.55920309037E+01  0.15879582811E+02  0.51100000000E-03 0.  1.
         12    1    4    4    0    0 -0.71785255515E+01 -0.10898941126E+02  0.21930056917E+02  0.25519512988E+02  0.00000000000E+00 0. -1.
</event>
<event>
 8    1  0.1247338E-006  0.9118800E+02  0.7816164E-02  0.1184000E+00
        -11   -1    0    0    0    0  0.00000000000E+00  0.00000000000E+00  0.45593999997E+02  0.45594000000E+02  0.51100000000E-03 0.  1.
         11   -1    0    0    0    0 -0.00000000000E+00 -0.00000000000E+00 -0.45593999997E+02  0.45594000000E+02  0.51100000000E-03 0. -1.
         23    2    1    2    0    0  0.00000000000E+00 -0.35527136788E-14 -0.88817841970E-15  0.91188000000E+02  0.91188000000E+02 0.  0.
    9900012    2    3    3    0    0  0.32638077089E+02  0.16472402028E+02  0.43813165378E+01  0.54367081499E+02  0.39999993893E+02 0.  0.
         12    1    3    3    0    0 -0.32638077089E+02 -0.16472402028E+02 -0.43813165378E+01  0.36820918501E+02  0.00000000000E+00 0. -1.
         11    1    4    4    0    0  0.76949870358E+01 -0.65529732551E+01  0.26357330090E+01  0.10445160253E+02  0.51100000000E-03 0. -1.
        -11    1    4    4    0    0  0.24459095812E+02  0.13701099158E+02 -0.92270052075E+01  0.29514489856E+02  0.51100000000E-03 0.  1.
         12    1    4    4    0    0  0.48399424136E+00  0.93242761247E+01  0.10972588736E+02  0.14407431390E+02  0.00000000000E+00 0. -1.
</event>
<event>
 8    1  0.1247338E-006  0.9118800E+02  0.7816164E-02  0.1184000E+00
        -11   -1    0    0    0    0  0.00000000000E+00  0.00000000000E+00  0.45593999997E+02  0.45594000000E+02  0.51100000000E-03 0. -1.
         11   -1    0    0    0    0 -0.00000000000E+00 -0.00000000000E+00 -0.45593999997E+02  0.45594000000E+02  0.51100000000E-03 0.  1.
         23    2    1    2    0    0  0.00000000000E+00  0.00000000000E+00 -0.35527136788E-14  0.91188000000E+02  0.91188000000E+02 0.  0.
    9900012    2    3    3    0    0  0.92878967110E+01  0.31101962976E+02 -0.17383369196E+02  0.54367100353E+02  0.40000036874E+02 0.  0.
        -12    1    3    3    0    0 -0.92878967110E+01 -0.31101962976E+02  0.17383369196E+02  0.36820899647E+02  0.00000000000E+00 0.  1.
         11    1    4    4    0    0 -0.28483494771E+01  0.93842487160E+01 -0.64743138567E+01  0.11751338600E+02  0.51100000000E-03 0. -1.
        -11    1    4    4    0    0 -0.27958370464E+01  0.76868382741E+01  0.10282086139E+02  0.13138701727E+02  0.51100000000E-03 0.  1.
        -12    1    4    4    0    0  0.14932083234E+02  0.14030875986E+02 -0.21191141478E+02  0.29477060026E+02  0.00000000000E+00 0.  1.
</event>
<event>
 8    1  0.1247338E-006  0.9118800E+02  0.7816164E-02  0.1184000E+00
        -11   -1    0    0    0    0  0.00000000000E+00  0.00000000000E+00  0.45593999997E+02  0.45594000000E+02  0.51100000000E-03 0.  1.
         11   -1    0    0    0    0 -0.00000000000E+00 -0.00000000000E+00 -0.45593999997E+02  0.45594000000E+02  0.51100000000E-03 0. -1.
         23    2    1    2    0    0  0.00000000000E+00  0.88817841970E-15 -0.71054273576E-14  0.91188000000E+02  0.91188000000E+02 0.  0.
    9900012    2    3    3    0    0 -0.12104626138E+02 -0.63648150435E+01  0.34186985805E+02  0.54367043428E+02  0.39999907102E+02 0.  0.
         12    1    3    3    0    0  0.12104626138E+02  0.63648150435E+01 -0.34186985805E+02  0.36820956572E+02  0.00000000000E+00 0. -1.
         11    1    4    4    0    0 -0.63334450882E+01  0.71583210770E+00  0.60679707389E+00  0.64025889483E+01  0.51100000000E-03 0. -1.
        -11    1    4    4    0    0 -0.11083251887E+02  0.58721698615E+00 -0.19160691222E+01  0.11262975509E+02  0.51100000000E-03 0.  1.
        -12    1    4    4    0    0  0.53120708373E+01 -0.76678641373E+01  0.35496257853E+02  0.36701478970E+02  0.00000000000E+00 0.  1.
</event>
<event>
 8    1  0.1247338E-006  0.9118800E+02  0.7816164E-02  0.1184000E+00
        -11   -1    0    0    0    0  0.00000000000E+00  0.00000000000E+00  0.45593999997E+02  0.45594000000E+02  0.51100000000E-03 0. -1.
         11   -1    0    0    0    0 -0.00000000000E+00 -0.00000000000E+00 -0.45593999997E+02  0.45594000000E+02  0.51100000000E-03 0.  1.
         23    2    1    2    0    0  0.35527136788E-14  0.22204460493E-15  0.35527136788E-14  0.91188000000E+02  0.91188000000E+02 0.  0.
    9900012    2    3    3    0    0  0.25344144229E+02  0.10604077721E+01  0.26689522143E+02  0.54367072478E+02  0.39999973328E+02 0.  0.
         12    1    3    3    0    0 -0.25344144229E+02 -0.10604077721E+01 -0.26689522143E+02  0.36820927522E+02  0.00000000000E+00 0. -1.
         11    1    4    4    0    0  0.29923931786E+01  0.14119917944E+01 -0.26614171435E+01  0.42463253803E+01  0.51100000000E-03 0. -1.
        -11    1    4    4    0    0  0.30015327167E+02  0.39803441836E+01  0.16323872212E+02  0.34398136709E+02  0.51100000000E-03 0.  1.
         12    1    4    4    0    0 -0.76635761169E+01 -0.43319282059E+01  0.13027067075E+02  0.15722610389E+02  0.00000000000E+00 0. -1.
</event>
<event>
 8    1  0.1247338E-006  0.9118800E+02  0.7816164E-02  0.1184000E+00
        -11   -1    0    0    0    0  0.00000000000E+00  0.00000000000E+00  0.45593999997E+02  0.45594000000E+02  0.51100000000E-03 0.  1.
         11   -1    0    0    0    0 -0.00000000000E+00 -0.00000000000E+00 -0.45593999997E+02  0.45594000000E+02  0.51100000000E-03 0. -1.
         23    2    1    2    0    0  0.71054273576E-14 -0.17763568394E-14  0.17763568394E-14  0.91188000000E+02  0.91188000000E+02 0.  0.
    9900012    2    3    3    0    0 -0.32636122482E+02  0.89130571011E+01 -0.14533448079E+02  0.54367079444E+02  0.39999989208E+02 0.  0.
        -12    1    3    3    0    0  0.32636122482E+02 -0.89130571011E+01  0.14533448079E+02  0.36820920556E+02  0.00000000000E+00 0.  1.
         11    1    4    4    0    0 -0.19468382374E+01  0.88443560590E+01 -0.16089802994E+02  0.18463330519E+02  0.51100000000E-03 0. -1.
        -11    1    4    4    0    0 -0.72048742420E+01  0.82938095166E+01  0.37826367622E+00  0.10992750921E+02  0.51100000000E-03 0.  1.
         12    1    4    4    0    0 -0.23484410002E+02 -0.82251084745E+01  0.11780912387E+01  0.24910998004E+02  0.00000000000E+00 0. -1.
</event>
<event>
 8    1  0.1247338E-006  0.9118800E+02  0.7816164E-02  0.1184000E+00
        -11   -1    0    0    0    0  0.00000000000E+00  0.00000000000E+00  0.45593999997E+02  0.45594000000E+02  0.51100000000E-03 0. -1.
         11   -1    0    0    0    0 -0.00000000000E+00 -0.00000000000E+00 -0.45593999997E+02  0.45594000000E+02  0.51100000000E-03 0.  1.
         23    2    1    2    0    0  0.00000000000E+00  0.35527136788E-14 -0.71054273576E-14  0.91188000000E+02  0.91188000000E+02 0.  0.
    9900012    2    3    3    0    0  0.71725291267E+01  0.15090168882E+02 -0.32811945034E+02  0.54367053409E+02  0.39999929856E+02 0.  0.
         12    1    3    3    0    0 -0.71725291267E+01 -0.15090168882E+02  0.32811945034E+02  0.36820946591E+02  0.00000000000E+00 0. -1.
         11    1    4    4    0    0 -0.65819297180E+01  0.73155543217E+00 -0.14190390225E+02  0.15659634324E+02  0.51100000000E-03 0. -1.
        -11    1    4    4    0    0  0.61897398132E+00 -0.48781988960E+01 -0.14161047740E+02  0.14990504548E+02  0.51100000000E-03 0.  1.
        -12    1    4    4    0    0  0.13135484863E+02  0.19236812346E+02 -0.44605070692E+01  0.23716914537E+02  0.00000000000E+00 0.  1.
</event>
<event>
 8    1  0.1247338E-006  0.9118800E+02  0.7816164E-02  0.1184000E+00
        -11   -1    0    0    0    0  0.00000000000E+00  0.00000000000E+00  0.45593999997E+02  0.45594000000E+02  0.51100000000E-03 0.  1.
         11   -1    0    0    0    0 -0.00000000000E+00 -0.00000000000E+00 -0.45593999997E+02  0.45594000000E+02  0.51100000000E-03 0. -1.
         23    2    1    2    0    0  0.44408920985E-15  0.00000000000E+00  0.00000000000E+00  0.91188000000E+02  0.91188000000E+02 0.  0.
    9900012    2    3    3    0    0  0.37543428197E+01  0.18441854457E+02 -0.31647802088E+02  0.54367075747E+02  0.39999980781E+02 0.  0.
        -12    1    3    3    0    0 -0.37543428197E+01 -0.18441854457E+02  0.31647802088E+02  0.36820924253E+02  0.00000000000E+00 0.  1.
         11    1    4    4    0    0 -0.92943133911E+01  0.11161935621E+02 -0.86578798024E+01  0.16909522499E+02  0.51100000000E-03 0. -1.
        -11    1    4    4    0    0  0.12854582477E+02 -0.71334461910E+01 -0.14882816865E+02  0.20919478562E+02  0.51100000000E-03 0.  1.
        -12    1    4    4    0    0  0.19407373386E+00  0.14413365026E+02 -0.81071054213E+01  0.16538074686E+02  0.00000000000E+00 0.  1.
</event>
<event>
 8    1  0.1247338E-006  0.9118800E+02  0.7816164E-02  0.1184000E+00
        -11   -1    0    0    0    0  0.00000000000E+00  0.00000000000E+00  0.45593999997E+02  0.45594000000E+02  0.51100000000E-03 0.  1.
         11   -1    0    0    0    0 -0.00000000000E+00 -0.00000000000E+00 -0.45593999997E+02  0.45594000000E+02  0.51100000000E-03 0. -1.
         23    2    1    2    0    0  0.17763568394E-14  0.00000000000E+00  0.00000000000E+00  0.91188000000E+02  0.91188000000E+02 0.  0.
    9900012    2    3    3    0    0  0.93776071224E+01 -0.73947223028E+01  0.34830427375E+02  0.54367080615E+02  0.39999991878E+02 0.  0.
         12    1    3    3    0    0 -0.93776071224E+01  0.73947223028E+01 -0.34830427375E+02  0.36820919385E+02  0.00000000000E+00 0. -1.
         11    1    4    4    0    0 -0.33080934983E+01  0.33770976588E+01  0.16753501885E+01  0.50154829982E+01  0.51100000000E-03 0. -1.
        -11    1    4    4    0    0 -0.79731166894E+01 -0.12876432619E+02  0.95138680938E+01  0.17885379311E+02  0.51100000000E-03 0.  1.
        -12    1    4    4    0    0  0.20658817310E+02  0.21046126576E+01  0.23641209092E+02  0.31466218305E+02  0.00000000000E+00 0.  1.
</event>
<event>
 8    1  0.1247338E-006  0.9118800E+02  0.7816164E-02  0.1184000E+00
        -11   -1    0    0    0    0  0.00000000000E+00  0.00000000000E+00  0.45593999997E+02  0.45594000000E+02  0.51100000000E-03 0.  1.
         11   -1    0    0    0    0 -0.00000000000E+00 -0.00000000000E+00 -0.45593999997E+02  0.45594000000E+02  0.51100000000E-03 0. -1.
         23    2    1    2    0    0  0.00000000000E+00  0.71054273576E-14  0.00000000000E+00  0.91188000000E+02  0.91188000000E+02 0.  0.
    9900012    2    3    3    0    0  0.14795551706E+02  0.23334408902E+02  0.24338774871E+02  0.54367096273E+02  0.40000027573E+02 0.  0.
         12    1    3    3    0    0 -0.14795551706E+02 -0.23334408902E+02 -0.24338774871E+02  0.36820903727E+02  0.00000000000E+00 0. -1.
         11    1    4    4    0    0 -0.10679503046E+01  0.24444687921E+01  0.46966519704E+01  0.54013410854E+01  0.51100000000E-03 0. -1.
        -11    1    4    4    0    0  0.47738360337E+01 -0.87502706223E+01  0.13413748520E+02  0.16711834012E+02  0.51100000000E-03 0.  1.
        -12    1    4    4    0    0  0.11089665977E+02  0.29640210732E+02  0.62283743805E+01  0.32253921175E+02  0.00000000000E+00 0.  1.
</event>
<event>
 8    1  0.1247338E-006  0.9118800E+02  0.7816164E-02  0.1184000E+00
        -11   -1    0    0    0    0  0.00000000000E+00  0.00000000000E+00  0.45593999997E+02  0.45594000000E+02  0.51100000000E-03 0.  1.
         11   -1    0    0    0    0 -0.00000000000E+00 -0.00000000000E+00 -0.45593999997E+02  0.45594000000E+02  0.51100000000E-03 0. -1.
         23    2    1    2    0    0  0.00000000000E+00  0.00000000000E+00  0.00000000000E+00  0.91188000000E+02  0.91188000000E+02 0.  0.
    9900012    2    3    3    0    0  0.16732670469E+02  0.16080429725E+02 -0.28587174205E+02  0.54366959680E+02  0.39999716182E+02 0.  0.
        -12    1    3    3    0    0 -0.16732670469E+02 -0.16080429725E+02  0.28587174205E+02  0.36821040320E+02  0.00000000000E+00 0.  1.
         11    1    4    4    0    0 -0.42684763566E+01  0.57814610011E+01 -0.22569923848E+02  0.23686423210E+02  0.51100000000E-03 0. -1.
        -11    1    4    4    0    0 -0.28778429030E+01 -0.14854162398E+01 -0.18446490619E+01  0.37270862081E+01  0.51100000000E-03 0.  1.
         12    1    4    4    0    0  0.23878989729E+02  0.11784384964E+02 -0.41726012951E+01  0.26953450262E+02  0.00000000000E+00 0. -1.
</event>
<event>
 8    1  0.1247338E-006  0.9118800E+02  0.7816164E-02  0.1184000E+00
        -11   -1    0    0    0    0  0.00000000000E+00  0.00000000000E+00  0.45593999997E+02  0.45594000000E+02  0.51100000000E-03 0.  1.
         11   -1    0    0    0    0 -0.00000000000E+00 -0.00000000000E+00 -0.45593999997E+02  0.45594000000E+02  0.51100000000E-03 0. -1.
         23    2    1    2    0    0  0.17763568394E-14  0.17763568394E-14  0.71054273576E-14  0.91188000000E+02  0.91188000000E+02 0.  0.
    9900012    2    3    3    0    0  0.99203249692E+01  0.92521114262E+01  0.34231052423E+02  0.54367090678E+02  0.40000014819E+02 0.  0.
         12    1    3    3    0    0 -0.99203249692E+01 -0.92521114262E+01 -0.34231052423E+02  0.36820909322E+02  0.00000000000E+00 0. -1.
         11    1    4    4    0    0 -0.43079855279E+01  0.10230552392E+02  0.22427737700E+02  0.25024515184E+02  0.51100000000E-03 0. -1.
        -11    1    4    4    0    0  0.51160944191E+01  0.69933426182E+01  0.14543640825E+02  0.16929227738E+02  0.51100000000E-03 0.  1.
        -12    1    4    4    0    0  0.91122160780E+01 -0.79717835844E+01 -0.27403261033E+01  0.12413347756E+02  0.00000000000E+00 0.  1.
</event>
<event>
 8    1  0.1247338E-006  0.9118800E+02  0.7816164E-02  0.1184000E+00
        -11   -1    0    0    0    0  0.00000000000E+00  0.00000000000E+00  0.45593999997E+02  0.45594000000E+02  0.51100000000E-03 0.  1.
         11   -1    0    0    0    0 -0.00000000000E+00 -0.00000000000E+00 -0.45593999997E+02  0.45594000000E+02  0.51100000000E-03 0. -1.
         23    2    1    2    0    0  0.00000000000E+00  0.00000000000E+00  0.35527136788E-14  0.91188000000E+02  0.91188000000E+02 0.  0.
    9900012    2    3    3    0    0 -0.18505834394E+02 -0.16409617042E+02 -0.27277023514E+02  0.54367116661E+02  0.40000074052E+02 0.  0.
        -12    1    3    3    0    0  0.18505834394E+02  0.16409617042E+02  0.27277023514E+02  0.36820883339E+02  0.00000000000E+00 0.  1.
         11    1    4    4    0    0 -0.10839342800E+02 -0.16093004852E+02 -0.10046845076E+02  0.21849834181E+02  0.51100000000E-03 0. -1.
        -11    1    4    4    0    0  0.41801706368E+01 -0.46613416133E+01  0.42764856095E+01  0.75822332870E+01  0.51100000000E-03 0.  1.
        -12    1    4    4    0    0 -0.11846662230E+02  0.43447294234E+01 -0.21506664048E+02  0.24935049193E+02  0.00000000000E+00 0.  1.
</event>
<event>
 8    1  0.1247338E-006  0.9118800E+02  0.7816164E-02  0.1184000E+00
        -11   -1    0    0    0    0  0.00000000000E+00  0.00000000000E+00  0.45593999997E+02  0.45594000000E+02  0.51100000000E-03 0.  1.
         11   -1    0    0    0    0 -0.00000000000E+00 -0.00000000000E+00 -0.45593999997E+02  0.45594000000E+02  0.51100000000E-03 0. -1.
         23    2    1    2    0    0 -0.71054273576E-14 -0.88817841970E-15  0.00000000000E+00  0.91188000000E+02  0.91188000000E+02 0.  0.
    9900012    2    3    3    0    0  0.35860551966E+02  0.13460362579E+01 -0.82454041055E+01  0.54367113403E+02  0.40000066625E+02 0.  0.
        -12    1    3    3    0    0 -0.35860551966E+02 -0.13460362579E+01  0.82454041055E+01  0.36820886597E+02  0.00000000000E+00 0.  1.
         11    1    4    4    0    0 -0.41803490267E+01 -0.55685977378E+01 -0.50541172448E+01  0.86039932669E+01  0.51100000000E-03 0. -1.
        -11    1    4    4    0    0  0.70684624940E+01  0.99909732617E+01  0.14486097311E+01  0.12324008242E+02  0.51100000000E-03 0.  1.
         12    1    4    4    0    0  0.32972438499E+02 -0.30763392660E+01 -0.46398965918E+01  0.33439111894E+02  0.00000000000E+00 0. -1.
</event>
<event>
 8    1  0.1247338E-006  0.9118800E+02  0.7816164E-02  0.1184000E+00
        -11   -1    0    0    0    0  0.00000000000E+00  0.00000000000E+00  0.45593999997E+02  0.45594000000E+02  0.51100000000E-03 0. -1.
         11   -1    0    0    0    0 -0.00000000000E+00 -0.00000000000E+00 -0.45593999997E+02  0.45594000000E+02  0.51100000000E-03 0.  1.
         23    2    1    2    0    0  0.00000000000E+00  0.00000000000E+00  0.00000000000E+00  0.91188000000E+02  0.91188000000E+02 0.  0.
    9900012    2    3    3    0    0  0.23568487125E+02  0.26919692612E+02 -0.86969358593E+01  0.54367080280E+02  0.39999991114E+02 0.  0.
         12    1    3    3    0    0 -0.23568487125E+02 -0.26919692612E+02  0.86969358593E+01  0.36820919720E+02  0.00000000000E+00 0. -1.
         11    1    4    4    0    0  0.58243721333E+00  0.18603938841E+01 -0.10151741959E+02  0.10337222237E+02  0.51100000000E-03 0.  1.
        -11    1    4    4    0    0  0.29067024623E+02  0.19338362169E+02  0.43739353213E+01  0.35185159973E+02  0.51100000000E-03 0. -1.
         12    1    4    4    0    0 -0.60809747114E+01  0.57209365583E+01 -0.29191292216E+01  0.88446980705E+01  0.00000000000E+00 0. -1.
</event>
<event>
 8    1  0.1247338E-006  0.9118800E+02  0.7816164E-02  0.1184000E+00
        -11   -1    0    0    0    0  0.00000000000E+00  0.00000000000E+00  0.45593999997E+02  0.45594000000E+02  0.51100000000E-03 0.  1.
         11   -1    0    0    0    0 -0.00000000000E+00 -0.00000000000E+00 -0.45593999997E+02  0.45594000000E+02  0.51100000000E-03 0. -1.
         23    2    1    2    0    0  0.00000000000E+00  0.00000000000E+00  0.35527136788E-14  0.91188000000E+02  0.91188000000E+02 0.  0.
    9900012    2    3    3    0    0  0.31298981061E+02 -0.64996520952E+01 -0.18273165556E+02  0.54367078335E+02  0.39999986681E+02 0.  0.
        -12    1    3    3    0    0 -0.31298981061E+02  0.64996520952E+01  0.18273165556E+02  0.36820921665E+02  0.00000000000E+00 0.  1.
         11    1    4    4    0    0  0.11425386834E+02 -0.10520909660E+01 -0.10165591840E+02  0.15329240601E+02  0.51100000000E-03 0. -1.
        -11    1    4    4    0    0  0.24131273987E+02  0.24542529804E+01  0.33467817558E+01  0.24485560853E+02  0.51100000000E-03 0.  1.
        -12    1    4    4    0    0 -0.42576797592E+01 -0.79018141096E+01 -0.11454355471E+02  0.14552276881E+02  0.00000000000E+00 0.  1.
</event>
<event>
 8    1  0.1247338E-006  0.9118800E+02  0.7816164E-02  0.1184000E+00
        -11   -1    0    0    0    0  0.00000000000E+00  0.00000000000E+00  0.45593999997E+02  0.45594000000E+02  0.51100000000E-03 0. -1.
         11   -1    0    0    0    0 -0.00000000000E+00 -0.00000000000E+00 -0.45593999997E+02  0.45594000000E+02  0.51100000000E-03 0.  1.
         23    2    1    2    0    0  0.44408920985E-15  0.00000000000E+00  0.00000000000E+00  0.91188000000E+02  0.91188000000E+02 0.  0.
    9900012    2    3    3    0    0 -0.25848087374E+01  0.34569617447E+02 -0.12411278915E+02  0.54367088401E+02  0.40000009628E+02 0.  0.
         12    1    3    3    0    0  0.25848087374E+01 -0.34569617447E+02  0.12411278915E+02  0.36820911599E+02  0.00000000000E+00 0. -1.
         11    1    4    4    0    0 -0.45730865569E+01  0.22541156531E+00 -0.19291474679E+01  0.49684546134E+01  0.51100000000E-03 0. -1.
        -11    1    4    4    0    0 -0.42326078858E+01  0.35089924617E+02 -0.17957739071E+02  0.39644648718E+02  0.51100000000E-03 0.  1.
        -12    1    4    4    0    0  0.62208857054E+01 -0.74571873549E+00  0.74756076241E+01  0.97539850698E+01  0.00000000000E+00 0.  1.
</event>
<event>
 8    1  0.1247338E-006  0.9118800E+02  0.7816164E-02  0.1184000E+00
        -11   -1    0    0    0    0  0.00000000000E+00  0.00000000000E+00  0.45593999997E+02  0.45594000000E+02  0.51100000000E-03 0. -1.
         11   -1    0    0    0    0 -0.00000000000E+00 -0.00000000000E+00 -0.45593999997E+02  0.45594000000E+02  0.51100000000E-03 0.  1.
         23    2    1    2    0    0  0.00000000000E+00 -0.35527136788E-14 -0.17763568394E-14  0.91188000000E+02  0.91188000000E+02 0.  0.
    9900012    2    3    3    0    0  0.25606198146E+02  0.24483137607E+02  0.10033812238E+02  0.54367098346E+02  0.40000032300E+02 0.  0.
        -12    1    3    3    0    0 -0.25606198146E+02 -0.24483137607E+02 -0.10033812238E+02  0.36820901654E+02  0.00000000000E+00 0.  1.
         11    1    4    4    0    0  0.30633323171E+01  0.43757878060E+01  0.21253920601E+01  0.57488099185E+01  0.51100000000E-03 0. -1.
        -11    1    4    4    0    0  0.10089344613E+02  0.29969775915E+02  0.20577471598E+01  0.31689377823E+02  0.51100000000E-03 0.  1.
        -12    1    4    4    0    0  0.12453521215E+02 -0.98624261142E+01  0.58506730178E+01  0.16928910605E+02  0.00000000000E+00 0.  1.
</event>
<event>
 8    1  0.1247338E-006  0.9118800E+02  0.7816164E-02  0.1184000E+00
        -11   -1    0    0    0    0  0.00000000000E+00  0.00000000000E+00  0.45593999997E+02  0.45594000000E+02  0.51100000000E-03 0.  1.
         11   -1    0    0    0    0 -0.00000000000E+00 -0.00000000000E+00 -0.45593999997E+02  0.45594000000E+02  0.51100000000E-03 0. -1.
         23    2    1    2    0    0  0.00000000000E+00  0.00000000000E+00 -0.35527136788E-14  0.91188000000E+02  0.91188000000E+02 0.  0.
    9900012    2    3    3    0    0  0.78620443946E+01  0.27269244835E+02 -0.23459616021E+02  0.54367122230E+02  0.40000086747E+02 0.  0.
        -12    1    3    3    0    0 -0.78620443946E+01 -0.27269244835E+02  0.23459616021E+02  0.36820877770E+02  0.00000000000E+00 0.  1.
         11    1    4    4    0    0  0.32794775889E+01  0.13876946993E+02 -0.27181659324E+02  0.30694742790E+02  0.51100000000E-03 0. -1.
        -11    1    4    4    0    0 -0.72325009532E+01  0.40326518680E+01  0.18343528737E+01  0.84815211993E+01  0.51100000000E-03 0.  1.
         12    1    4    4    0    0  0.11815067759E+02  0.93596459748E+01  0.18876904294E+01  0.15190858240E+02  0.00000000000E+00 0. -1.
</event>
<event>
 8    1  0.1247338E-006  0.9118800E+02  0.7816164E-02  0.1184000E+00
        -11   -1    0    0    0    0  0.00000000000E+00  0.00000000000E+00  0.45593999997E+02  0.45594000000E+02  0.51100000000E-03 0.  1.
         11   -1    0    0    0    0 -0.00000000000E+00 -0.00000000000E+00 -0.45593999997E+02  0.45594000000E+02  0.51100000000E-03 0. -1.
         23    2    1    2    0    0  0.44408920985E-15 -0.35527136788E-14  0.00000000000E+00  0.91188000000E+02  0.91188000000E+02 0.  0.
    9900012    2    3    3    0    0  0.38827362933E+01  0.10723671728E+02 -0.35010053663E+02  0.54367127741E+02  0.40000099311E+02 0.  0.
        -12    1    3    3    0    0 -0.38827362933E+01 -0.10723671728E+02  0.35010053663E+02  0.36820872259E+02  0.00000000000E+00 0.  1.
         11    1    4    4    0    0  0.89487835559E+00 -0.12022268521E+02 -0.24873345186E+02  0.27640894498E+02  0.51100000000E-03 0. -1.
        -11    1    4    4    0    0 -0.36402670902E-01  0.15431913818E+02 -0.10720255089E+02  0.18790134611E+02  0.51100000000E-03 0.  1.
         12    1    4    4    0    0  0.30242606086E+01  0.73140264302E+01  0.58354661241E+00  0.79360986321E+01  0.00000000000E+00 0. -1.
</event>
<event>
 8    1  0.1247338E-006  0.9118800E+02  0.7816164E-02  0.1184000E+00
        -11   -1    0    0    0    0  0.00000000000E+00  0.00000000000E+00  0.45593999997E+02  0.45594000000E+02  0.51100000000E-03 0. -1.
         11   -1    0    0    0    0 -0.00000000000E+00 -0.00000000000E+00 -0.45593999997E+02  0.45594000000E+02  0.51100000000E-03 0.  1.
         23    2    1    2    0    0  0.00000000000E+00  0.00000000000E+00  0.22204460493E-15  0.91188000000E+02  0.91188000000E+02 0.  0.
    9900012    2    3    3    0    0  0.32333980748E+02  0.17577519688E+02  0.11508808691E+01  0.54367081541E+02  0.39999993988E+02 0.  0.
        -12    1    3    3    0    0 -0.32333980748E+02 -0.17577519688E+02 -0.11508808691E+01  0.36820918459E+02  0.00000000000E+00 0.  1.
         11    1    4    4    0    0  0.32051819587E+02  0.83302188901E+01  0.59500257353E+00  0.33121982337E+02  0.51100000000E-03 0. -1.
        -11    1    4    4    0    0  0.24125532366E+01  0.82451168761E+01 -0.83818963889E+01  0.12002439450E+02  0.51100000000E-03 0.  1.
         12    1    4    4    0    0 -0.21303920756E+01  0.10021839216E+01  0.89377746844E+01  0.92426597534E+01  0.00000000000E+00 0. -1.
</event>
<event>
 8    1  0.1247338E-006  0.9118800E+02  0.7816164E-02  0.1184000E+00
        -11   -1    0    0    0    0  0.00000000000E+00  0.00000000000E+00  0.45593999997E+02  0.45594000000E+02  0.51100000000E-03 0. -1.
         11   -1    0    0    0    0 -0.00000000000E+00 -0.00000000000E+00 -0.45593999997E+02  0.45594000000E+02  0.51100000000E-03 0.  1.
         23    2    1    2    0    0  0.00000000000E+00 -0.11102230246E-15  0.35527136788E-14  0.91188000000E+02  0.91188000000E+02 0.  0.
    9900012    2    3    3    0    0 -0.31213860542E+02 -0.56779801430E+00  0.19523122768E+02  0.54367084652E+02  0.40000001080E+02 0.  0.
        -12    1    3    3    0    0  0.31213860542E+02  0.56779801430E+00 -0.19523122768E+02  0.36820915348E+02  0.00000000000E+00 0.  1.
         11    1    4    4    0    0 -0.97177804766E+00 -0.61833124032E+01  0.11394131995E+02  0.13000151885E+02  0.51100000000E-03 0. -1.
        -11    1    4    4    0    0  0.36545064698E+01  0.49203933863E+01 -0.11057510825E+01  0.62280313367E+01  0.51100000000E-03 0.  1.
         12    1    4    4    0    0 -0.33896588964E+02  0.69512100264E+00  0.92347418554E+01  0.35138901430E+02  0.00000000000E+00 0. -1.
</event>
<event>
 8    1  0.1247338E-006  0.9118800E+02  0.7816164E-02  0.1184000E+00
        -11   -1    0    0    0    0  0.00000000000E+00  0.00000000000E+00  0.45593999997E+02  0.45594000000E+02  0.51100000000E-03 0.  1.
         11   -1    0    0    0    0 -0.00000000000E+00 -0.00000000000E+00 -0.45593999997E+02  0.45594000000E+02  0.51100000000E-03 0. -1.
         23    2    1    2    0    0  0.00000000000E+00 -0.35527136788E-14  0.35527136788E-14  0.91188000000E+02  0.91188000000E+02 0.  0.
    9900012    2    3    3    0    0 -0.63998120061E+01 -0.25954602734E+02  0.25321576614E+02  0.54367065207E+02  0.39999956753E+02 0.  0.
         12    1    3    3    0    0  0.63998120061E+01  0.25954602734E+02 -0.25321576614E+02  0.36820934793E+02  0.00000000000E+00 0. -1.
         11    1    4    4    0    0  0.10684742517E+02 -0.32898018991E+01 -0.41405920669E+01  0.11921871587E+02  0.51100000000E-03 0. -1.
        -11    1    4    4    0    0  0.77966689256E+00 -0.61119474737E+01  0.51122688946E+01  0.80061898489E+01  0.51100000000E-03 0.  1.
         12    1    4    4    0    0 -0.17864221416E+02 -0.16552853361E+02  0.24349899786E+02  0.34439003772E+02  0.00000000000E+00 0. -1.
</event>
<event>
 8    1  0.1247338E-006  0.9118800E+02  0.7816164E-02  0.1184000E+00
        -11   -1    0    0    0    0  0.00000000000E+00  0.00000000000E+00  0.45593999997E+02  0.45594000000E+02  0.51100000000E-03 0.  1.
         11   -1    0    0    0    0 -0.00000000000E+00 -0.00000000000E+00 -0.45593999997E+02  0.45594000000E+02  0.51100000000E-03 0. -1.
         23    2    1    2    0    0 -0.17763568394E-14  0.17763568394E-14 -0.71054273576E-14  0.91188000000E+02  0.91188000000E+02 0.  0.
    9900012    2    3    3    0    0 -0.53281327584E+01  0.12084454525E+02 -0.34370873055E+02  0.54367082651E+02  0.39999996520E+02 0.  0.
        -12    1    3    3    0    0  0.53281327584E+01 -0.12084454525E+02  0.34370873055E+02  0.36820917349E+02  0.00000000000E+00 0.  1.
         11    1    4    4    0    0 -0.16396168065E+01  0.16571351115E+02 -0.34970148015E+01  0.17015496873E+02  0.51100000000E-03 0. -1.
        -11    1    4    4    0    0  0.77300541698E+01 -0.45109408568E+01 -0.90907833119E+01  0.12757141779E+02  0.51100000000E-03 0.  1.
         12    1    4    4    0    0 -0.11418570122E+02  0.24044267262E-01 -0.21783074941E+02  0.24594444000E+02  0.00000000000E+00 0. -1.
</event>
<event>
 8    1  0.1247338E-006  0.9118800E+02  0.7816164E-02  0.1184000E+00
        -11   -1    0    0    0    0  0.00000000000E+00  0.00000000000E+00  0.45593999997E+02  0.45594000000E+02  0.51100000000E-03 0. -1.
         11   -1    0    0    0    0 -0.00000000000E+00 -0.00000000000E+00 -0.45593999997E+02  0.45594000000E+02  0.51100000000E-03 0.  1.
         23    2    1    2    0    0 -0.17763568394E-14  0.00000000000E+00  0.35527136788E-14  0.91188000000E+02  0.91188000000E+02 0.  0.
    9900012    2    3    3    0    0 -0.15918528301E+01  0.21496079700E+02 -0.29852398284E+02  0.54367066807E+02  0.39999960400E+02 0.  0.
         12    1    3    3    0    0  0.15918528301E+01 -0.21496079700E+02  0.29852398284E+02  0.36820933193E+02  0.00000000000E+00 0. -1.
         11    1    4    4    0    0  0.12981902351E+02  0.15164487562E+01 -0.39654693538E+01  0.13658490141E+02  0.51100000000E-03 0. -1.
        -11    1    4    4    0    0 -0.11367431634E+02  0.35771097783E+00 -0.74674462237E+01  0.13605484646E+02  0.51100000000E-03 0.  1.
        -12    1    4    4    0    0 -0.32063235474E+01  0.19621919966E+02 -0.18419482706E+02  0.27103092020E+02  0.00000000000E+00 0.  1.
</event>
<event>
 8    1  0.1247338E-006  0.9118800E+02  0.7816164E-02  0.1184000E+00
        -11   -1    0    0    0    0  0.00000000000E+00  0.00000000000E+00  0.45593999997E+02  0.45594000000E+02  0.51100000000E-03 0.  1.
         11   -1    0    0    0    0 -0.00000000000E+00 -0.00000000000E+00 -0.45593999997E+02  0.45594000000E+02  0.51100000000E-03 0. -1.
         23    2    1    2    0    0  0.00000000000E+00  0.35527136788E-14  0.00000000000E+00  0.91188000000E+02  0.91188000000E+02 0.  0.
    9900012    2    3    3    0    0  0.13054800046E+02 -0.25786444393E+02 -0.22812592533E+02  0.54367042696E+02  0.39999905435E+02 0.  0.
        -12    1    3    3    0    0 -0.13054800046E+02  0.25786444393E+02  0.22812592533E+02  0.36820957304E+02  0.00000000000E+00 0.  1.
         11    1    4    4    0    0  0.21143029946E+01 -0.22004173554E+01 -0.17169872345E+02  0.17438940056E+02  0.51100000000E-03 0. -1.
        -11    1    4    4    0    0  0.50884010395E+01 -0.66695851429E+01 -0.14655815848E+02  0.16886921849E+02  0.51100000000E-03 0.  1.
        -12    1    4    4    0    0  0.58520960123E+01 -0.16916441895E+02  0.90130956596E+01  0.20041180791E+02  0.00000000000E+00 0.  1.
</event>
<event>
 8    1  0.1247338E-006  0.9118800E+02  0.7816164E-02  0.1184000E+00
        -11   -1    0    0    0    0  0.00000000000E+00  0.00000000000E+00  0.45593999997E+02  0.45594000000E+02  0.51100000000E-03 0.  1.
         11   -1    0    0    0    0 -0.00000000000E+00 -0.00000000000E+00 -0.45593999997E+02  0.45594000000E+02  0.51100000000E-03 0. -1.
         23    2    1    2    0    0 -0.88817841970E-15 -0.35527136788E-14  0.71054273576E-14  0.91188000000E+02  0.91188000000E+02 0.  0.
    9900012    2    3    3    0    0 -0.74592387542E+01 -0.27936784476E+02  0.22796387712E+02  0.54367089333E+02  0.40000011752E+02 0.  0.
         12    1    3    3    0    0  0.74592387542E+01  0.27936784476E+02 -0.22796387712E+02  0.36820910667E+02  0.00000000000E+00 0. -1.
         11    1    4    4    0    0  0.38928431279E+01 -0.15988018200E+02 -0.60973835721E+01  0.17548476865E+02  0.51100000000E-03 0. -1.
        -11    1    4    4    0    0 -0.55363497795E+01 -0.27111655352E+01  0.25475193821E+00  0.61698043933E+01  0.51100000000E-03 0.  1.
        -12    1    4    4    0    0 -0.58157321026E+01 -0.92376007404E+01  0.28639019346E+02  0.30648808075E+02  0.00000000000E+00 0.  1.
</event>
<event>
 8    1  0.1247338E-006  0.9118800E+02  0.7816164E-02  0.1184000E+00
        -11   -1    0    0    0    0  0.00000000000E+00  0.00000000000E+00  0.45593999997E+02  0.45594000000E+02  0.51100000000E-03 0. -1.
         11   -1    0    0    0    0 -0.00000000000E+00 -0.00000000000E+00 -0.45593999997E+02  0.45594000000E+02  0.51100000000E-03 0.  1.
         23    2    1    2    0    0  0.35527136788E-14  0.00000000000E+00  0.35527136788E-14  0.91188000000E+02  0.91188000000E+02 0.  0.
    9900012    2    3    3    0    0  0.29308781706E+02 -0.90326137188E+01 -0.20376144603E+02  0.54367081155E+02  0.39999993110E+02 0.  0.
         12    1    3    3    0    0 -0.29308781706E+02  0.90326137188E+01  0.20376144603E+02  0.36820918845E+02  0.00000000000E+00 0. -1.
         11    1    4    4    0    0  0.12741859873E+01 -0.79943059291E+01  0.24153792059E+01  0.84478715774E+01  0.51100000000E-03 0. -1.
        -11    1    4    4    0    0  0.22781808338E+02 -0.84800480829E+01 -0.26610469321E+02  0.36042184789E+02  0.51100000000E-03 0.  1.
         12    1    4    4    0    0  0.52527873805E+01  0.74417402932E+01  0.38189455118E+01  0.98770247888E+01  0.00000000000E+00 0. -1.
</event>
<event>
 8    1  0.1247338E-006  0.9118800E+02  0.7816164E-02  0.1184000E+00
        -11   -1    0    0    0    0  0.00000000000E+00  0.00000000000E+00  0.45593999997E+02  0.45594000000E+02  0.51100000000E-03 0. -1.
         11   -1    0    0    0    0 -0.00000000000E+00 -0.00000000000E+00 -0.45593999997E+02  0.45594000000E+02  0.51100000000E-03 0.  1.
         23    2    1    2    0    0  0.00000000000E+00 -0.17763568394E-14  0.00000000000E+00  0.91188000000E+02  0.91188000000E+02 0.  0.
    9900012    2    3    3    0    0 -0.30980631010E+02 -0.11553987132E+02  0.16201578303E+02  0.54367010661E+02  0.39999832403E+02 0.  0.
        -12    1    3    3    0    0  0.30980631010E+02  0.11553987132E+02 -0.16201578303E+02  0.36820989339E+02  0.00000000000E+00 0.  1.
         11    1    4    4    0    0 -0.30531519888E+02 -0.36089981218E+01  0.18022163439E+01  0.30796859549E+02  0.51100000000E-03 0. -1.
        -11    1    4    4    0    0 -0.10530325533E+01 -0.62058091831E+01 -0.23507618037E+01  0.67191537038E+01  0.51100000000E-03 0.  1.
         12    1    4    4    0    0  0.60392143129E+00 -0.17391798271E+01  0.16750123763E+02  0.16850997408E+02  0.00000000000E+00 0. -1.
</event>
<event>
 8    1  0.1247338E-006  0.9118800E+02  0.7816164E-02  0.1184000E+00
        -11   -1    0    0    0    0  0.00000000000E+00  0.00000000000E+00  0.45593999997E+02  0.45594000000E+02  0.51100000000E-03 0. -1.
         11   -1    0    0    0    0 -0.00000000000E+00 -0.00000000000E+00 -0.45593999997E+02  0.45594000000E+02  0.51100000000E-03 0.  1.
         23    2    1    2    0    0 -0.71054273576E-14  0.00000000000E+00  0.00000000000E+00  0.91188000000E+02  0.91188000000E+02 0.  0.
    9900012    2    3    3    0    0  0.34032235069E+02  0.10209623428E+02 -0.96618512761E+01  0.54367071109E+02  0.39999970206E+02 0.  0.
         12    1    3    3    0    0 -0.34032235069E+02 -0.10209623428E+02  0.96618512761E+01  0.36820928891E+02  0.00000000000E+00 0. -1.
         11    1    4    4    0    0  0.88774236146E+01  0.98713173547E+01  0.22782803449E+01  0.13470045209E+02  0.51100000000E-03 0. -1.
        -11    1    4    4    0    0 -0.26395435830E+01  0.78300906499E+01  0.25793432900E+01  0.86562417931E+01  0.51100000000E-03 0.  1.
        -12    1    4    4    0    0  0.27794355037E+02 -0.74917845766E+01 -0.14519474911E+02  0.32240784106E+02  0.00000000000E+00 0.  1.
</event>
<event>
 8    1  0.1247338E-006  0.9118800E+02  0.7816164E-02  0.1184000E+00
        -11   -1    0    0    0    0  0.00000000000E+00  0.00000000000E+00  0.45593999997E+02  0.45594000000E+02  0.51100000000E-03 0.  1.
         11   -1    0    0    0    0 -0.00000000000E+00 -0.00000000000E+00 -0.45593999997E+02  0.45594000000E+02  0.51100000000E-03 0. -1.
         23    2    1    2    0    0 -0.35527136788E-14  0.00000000000E+00  0.71054273576E-14  0.91188000000E+02  0.91188000000E+02 0.  0.
    9900012    2    3    3    0    0  0.21558729047E+02  0.13627326529E+02 -0.26557436426E+02  0.54367078556E+02  0.39999987183E+02 0.  0.
        -12    1    3    3    0    0 -0.21558729047E+02 -0.13627326529E+02  0.26557436426E+02  0.36820921444E+02  0.00000000000E+00 0.  1.
         11    1    4    4    0    0  0.10714536610E+02 -0.38378515429E+01 -0.13423853025E+02  0.17599154227E+02  0.51100000000E-03 0. -1.
        -11    1    4    4    0    0  0.13404809217E+02  0.91504666511E+01 -0.19948152131E+02  0.25716701262E+02  0.51100000000E-03 0.  1.
        -12    1    4    4    0    0 -0.25606167790E+01  0.83147114209E+01  0.68145687297E+01  0.11051223067E+02  0.00000000000E+00 0.  1.
</event>
<event>
 8    1  0.1247338E-006  0.9118800E+02  0.7816164E-02  0.1184000E+00
        -11   -1    0    0    0    0  0.00000000000E+00  0.00000000000E+00  0.45593999997E+02  0.45594000000E+02  0.51100000000E-03 0. -1.
         11   -1    0    0    0    0 -0.00000000000E+00 -0.00000000000E+00 -0.45593999997E+02  0.45594000000E+02  0.51100000000E-03 0.  1.
         23    2    1    2    0    0  0.00000000000E+00 -0.17763568394E-14  0.00000000000E+00  0.91188000000E+02  0.91188000000E+02 0.  0.
    9900012    2    3    3    0    0  0.31243439466E+02  0.10818634758E+02 -0.16204432850E+02  0.54367095452E+02  0.40000025703E+02 0.  0.
         12    1    3    3    0    0 -0.31243439466E+02 -0.10818634758E+02  0.16204432850E+02  0.36820904548E+02  0.00000000000E+00 0. -1.
         11    1    4    4    0    0  0.61370465838E+01 -0.66176221260E+01 -0.92043040673E+01  0.12890906756E+02  0.51100000000E-03 0. -1.
        -11    1    4    4    0    0 -0.42576818690E+01  0.94642469170E+01 -0.28908212773E+01  0.10772960249E+02  0.51100000000E-03 0.  1.
         12    1    4    4    0    0  0.29364074751E+02  0.79720099667E+01 -0.41093075058E+01  0.30703228447E+02  0.00000000000E+00 0. -1.
</event>
<event>
 8    1  0.1247338E-006  0.9118800E+02  0.7816164E-02  0.1184000E+00
        -11   -1    0    0    0    0  0.00000000000E+00  0.00000000000E+00  0.45593999997E+02  0.45594000000E+02  0.51100000000E-03 0.  1.
         11   -1    0    0    0    0 -0.00000000000E+00 -0.00000000000E+00 -0.45593999997E+02  0.45594000000E+02  0.51100000000E-03 0. -1.
         23    2    1    2    0    0  0.00000000000E+00  0.00000000000E+00 -0.35527136788E-14  0.91188000000E+02  0.91188000000E+02 0.  0.
    9900012    2    3    3    0    0 -0.17951605173E+02 -0.91612688600E+01  0.30815435059E+02  0.54367081851E+02  0.39999994696E+02 0.  0.
         12    1    3    3    0    0  0.17951605173E+02  0.91612688600E+01 -0.30815435059E+02  0.36820918149E+02  0.00000000000E+00 0. -1.
         11    1    4    4    0    0 -0.23761295293E+02  0.69734123757E+01  0.16306449008E+02  0.29650091293E+02  0.51100000000E-03 0.  1.
        -11    1    4    4    0    0  0.41863671099E+01 -0.19614450447E+01  0.38021732414E+00  0.46386961225E+01  0.51100000000E-03 0. -1.
        -12    1    4    4    0    0  0.16233230099E+01 -0.14173236191E+02  0.14128768727E+02  0.20078294436E+02  0.00000000000E+00 0.  1.
</event>
<event>
 8    1  0.1247338E-006  0.9118800E+02  0.7816164E-02  0.1184000E+00
        -11   -1    0    0    0    0  0.00000000000E+00  0.00000000000E+00  0.45593999997E+02  0.45594000000E+02  0.51100000000E-03 0.  1.
         11   -1    0    0    0    0 -0.00000000000E+00 -0.00000000000E+00 -0.45593999997E+02  0.45594000000E+02  0.51100000000E-03 0. -1.
         23    2    1    2    0    0  0.17763568394E-14  0.00000000000E+00 -0.88817841970E-15  0.91188000000E+02  0.91188000000E+02 0.  0.
    9900012    2    3    3    0    0 -0.20137548721E+01 -0.36117321708E+02 -0.68748449266E+01  0.54367087072E+02  0.40000006599E+02 0.  0.
        -12    1    3    3    0    0  0.20137548721E+01  0.36117321708E+02  0.68748449266E+01  0.36820912928E+02  0.00000000000E+00 0.  1.
         11    1    4    4    0    0  0.13633927171E+02 -0.18739505701E+02  0.38573585690E+01  0.23493238589E+02  0.51100000000E-03 0. -1.
        -11    1    4    4    0    0  0.70452823025E+00  0.28286979631E+01 -0.15783882960E+01  0.33149965411E+01  0.51100000000E-03 0.  1.
         12    1    4    4    0    0 -0.16352210273E+02 -0.20206513970E+02 -0.91538151996E+01  0.27558851942E+02  0.00000000000E+00 0. -1.
</event>
<event>
 8    1  0.1247338E-006  0.9118800E+02  0.7816164E-02  0.1184000E+00
        -11   -1    0    0    0    0  0.00000000000E+00  0.00000000000E+00  0.45593999997E+02  0.45594000000E+02  0.51100000000E-03 0.  1.
         11   -1    0    0    0    0 -0.00000000000E+00 -0.00000000000E+00 -0.45593999997E+02  0.45594000000E+02  0.51100000000E-03 0. -1.
         23    2    1    2    0    0  0.17763568394E-14  0.00000000000E+00  0.88817841970E-15  0.91188000000E+02  0.91188000000E+02 0.  0.
    9900012    2    3    3    0    0  0.10087308304E+02 -0.35125256182E+02 -0.44997388455E+01  0.54367013317E+02  0.39999838458E+02 0.  0.
         12    1    3    3    0    0 -0.10087308304E+02  0.35125256182E+02  0.44997388455E+01  0.36820986683E+02  0.00000000000E+00 0. -1.
         11    1    4    4    0    0 -0.96483755517E+00  0.31011946565E+01 -0.11538314291E+01  0.34466863845E+01  0.51100000000E-03 0. -1.
        -11    1    4    4    0    0  0.18007797837E+02 -0.34247915632E+02 -0.10591580318E+02  0.40117104606E+02  0.51100000000E-03 0.  1.
        -12    1    4    4    0    0 -0.69556519781E+01 -0.39785352060E+01  0.72456729016E+01  0.10803222326E+02  0.00000000000E+00 0.  1.
</event>
<event>
 8    1  0.1247338E-006  0.9118800E+02  0.7816164E-02  0.1184000E+00
        -11   -1    0    0    0    0  0.00000000000E+00  0.00000000000E+00  0.45593999997E+02  0.45594000000E+02  0.51100000000E-03 0. -1.
         11   -1    0    0    0    0 -0.00000000000E+00 -0.00000000000E+00 -0.45593999997E+02  0.45594000000E+02  0.51100000000E-03 0.  1.
         23    2    1    2    0    0  0.44408920985E-15  0.17763568394E-14  0.00000000000E+00  0.91188000000E+02  0.91188000000E+02 0.  0.
    9900012    2    3    3    0    0  0.24061187184E+01 -0.12590687929E+02 -0.34517616921E+02  0.54367072421E+02  0.39999973199E+02 0.  0.
         12    1    3    3    0    0 -0.24061187184E+01  0.12590687929E+02  0.34517616921E+02  0.36820927579E+02  0.00000000000E+00 0. -1.
         11    1    4    4    0    0  0.43532840929E+01 -0.15355922674E+02 -0.24088410985E+02  0.28896487462E+02  0.51100000000E-03 0. -1.
        -11    1    4    4    0    0 -0.52673632412E+01 -0.15763144897E+01 -0.16446729297E+02  0.17341418273E+02  0.51100000000E-03 0.  1.
         12    1    4    4    0    0  0.33201978667E+01  0.43415492346E+01  0.60175233605E+01  0.81291666870E+01  0.00000000000E+00 0. -1.
</event>
<event>
 8    1  0.1247338E-006  0.9118800E+02  0.7816164E-02  0.1184000E+00
        -11   -1    0    0    0    0  0.00000000000E+00  0.00000000000E+00  0.45593999997E+02  0.45594000000E+02  0.51100000000E-03 0.  1.
         11   -1    0    0    0    0 -0.00000000000E+00 -0.00000000000E+00 -0.45593999997E+02  0.45594000000E+02  0.51100000000E-03 0. -1.
         23    2    1    2    0    0  0.00000000000E+00 -0.17763568394E-14  0.35527136788E-14  0.91188000000E+02  0.91188000000E+02 0.  0.
    9900012    2    3    3    0    0  0.23557158841E+02 -0.14143946380E+02 -0.24510985921E+02  0.54367090414E+02  0.40000014218E+02 0.  0.
        -12    1    3    3    0    0 -0.23557158841E+02  0.14143946380E+02  0.24510985921E+02  0.36820909586E+02  0.00000000000E+00 0.  1.
         11    1    4    4    0    0  0.15224665593E+02  0.17527496961E+01 -0.16725682803E+02  0.22685039991E+02  0.51100000000E-03 0. -1.
        -11    1    4    4    0    0 -0.31553789409E+01  0.42636799909E+00 -0.11011587295E+02  0.11462689952E+02  0.51100000000E-03 0.  1.
        -12    1    4    4    0    0  0.11487872189E+02 -0.16323064076E+02  0.32262841767E+01  0.20219360471E+02  0.00000000000E+00 0.  1.
</event>
<event>
 8    1  0.1247338E-006  0.9118800E+02  0.7816164E-02  0.1184000E+00
        -11   -1    0    0    0    0  0.00000000000E+00  0.00000000000E+00  0.45593999997E+02  0.45594000000E+02  0.51100000000E-03 0. -1.
         11   -1    0    0    0    0 -0.00000000000E+00 -0.00000000000E+00 -0.45593999997E+02  0.45594000000E+02  0.51100000000E-03 0.  1.
         23    2    1    2    0    0 -0.35527136788E-14  0.00000000000E+00  0.17763568394E-14  0.91188000000E+02  0.91188000000E+02 0.  0.
    9900012    2    3    3    0    0  0.28369871882E+02  0.22366206670E+02 -0.71192061233E+01  0.54367083020E+02  0.39999997361E+02 0.  0.
         12    1    3    3    0    0 -0.28369871882E+02 -0.22366206670E+02  0.71192061233E+01  0.36820916980E+02  0.00000000000E+00 0. -1.
         11    1    4    4    0    0  0.21664243356E+02  0.27064475436E+02  0.13173830676E+01  0.34692373359E+02  0.51100000000E-03 0. -1.
        -11    1    4    4    0    0  0.20968701379E+01  0.42716633021E+01 -0.83254650839E+01  0.95894390277E+01  0.51100000000E-03 0.  1.
         12    1    4    4    0    0  0.46087583879E+01 -0.89699320683E+01 -0.11112410708E+00  0.10085270634E+02  0.00000000000E+00 0. -1.
</event>
<event>
 8    1  0.1247338E-006  0.9118800E+02  0.7816164E-02  0.1184000E+00
        -11   -1    0    0    0    0  0.00000000000E+00  0.00000000000E+00  0.45593999997E+02  0.45594000000E+02  0.51100000000E-03 0.  1.
         11   -1    0    0    0    0 -0.00000000000E+00 -0.00000000000E+00 -0.45593999997E+02  0.45594000000E+02  0.51100000000E-03 0. -1.
         23    2    1    2    0    0  0.00000000000E+00 -0.88817841970E-15  0.00000000000E+00  0.91188000000E+02  0.91188000000E+02 0.  0.
    9900012    2    3    3    0    0 -0.28245386177E+02  0.77973402659E+01 -0.22297528717E+02  0.54367080098E+02  0.39999990700E+02 0.  0.
        -12    1    3    3    0    0  0.28245386177E+02 -0.77973402659E+01  0.22297528717E+02  0.36820919902E+02  0.00000000000E+00 0.  1.
         11    1    4    4    0    0 -0.18649535580E+02  0.55097081414E+01 -0.16735104222E+02  0.25655911107E+02  0.51100000000E-03 0. -1.
        -11    1    4    4    0    0  0.29233474680E+01  0.85768182821E+01  0.57262148459E+01  0.10719016232E+02  0.51100000000E-03 0.  1.
         12    1    4    4    0    0 -0.12519198065E+02 -0.62891861576E+01 -0.11288639341E+02  0.17992152759E+02  0.00000000000E+00 0. -1.
</event>
<event>
 8    1  0.1247338E-006  0.9118800E+02  0.7816164E-02  0.1184000E+00
        -11   -1    0    0    0    0  0.00000000000E+00  0.00000000000E+00  0.45593999997E+02  0.45594000000E+02  0.51100000000E-03 0. -1.
         11   -1    0    0    0    0 -0.00000000000E+00 -0.00000000000E+00 -0.45593999997E+02  0.45594000000E+02  0.51100000000E-03 0.  1.
         23    2    1    2    0    0  0.00000000000E+00  0.22204460493E-15  0.00000000000E+00  0.91188000000E+02  0.91188000000E+02 0.  0.
    9900012    2    3    3    0    0  0.12348921578E+02  0.17145241165E+01 -0.34645990299E+02  0.54367080662E+02  0.39999991985E+02 0.  0.
         12    1    3    3    0    0 -0.12348921578E+02 -0.17145241165E+01  0.34645990299E+02  0.36820919338E+02  0.00000000000E+00 0. -1.
         11    1    4    4    0    0  0.26769088577E+01 -0.70723211485E+00  0.59193078982E+01  0.65348469417E+01  0.51100000000E-03 0. -1.
        -11    1    4    4    0    0  0.73904233744E+00  0.30618762266E+01 -0.38516397679E+02  0.38644975870E+02  0.51100000000E-03 0.  1.
        -12    1    4    4    0    0  0.89329703831E+01 -0.64011999521E+00 -0.20489005184E+01  0.91872578504E+01  0.00000000000E+00 0.  1.
</event>
<event>
 8    1  0.1247338E-006  0.9118800E+02  0.7816164E-02  0.1184000E+00
        -11   -1    0    0    0    0  0.00000000000E+00  0.00000000000E+00  0.45593999997E+02  0.45594000000E+02  0.51100000000E-03 0.  1.
         11   -1    0    0    0    0 -0.00000000000E+00 -0.00000000000E+00 -0.45593999997E+02  0.45594000000E+02  0.51100000000E-03 0. -1.
         23    2    1    2    0    0  0.35527136788E-14  0.00000000000E+00  0.00000000000E+00  0.91188000000E+02  0.91188000000E+02 0.  0.
    9900012    2    3    3    0    0  0.25397689186E+02 -0.22342500747E+02  0.14544765658E+02  0.54367079809E+02  0.39999990042E+02 0.  0.
         12    1    3    3    0    0 -0.25397689186E+02  0.22342500747E+02 -0.14544765658E+02  0.36820920191E+02  0.00000000000E+00 0. -1.
         11    1    4    4    0    0  0.13102865986E+02 -0.13573453326E+02  0.11349982660E+02  0.22016944358E+02  0.51100000000E-03 0. -1.
        -11    1    4    4    0    0  0.96564723267E+01 -0.88235133218E+01  0.15202784531E+02  0.20055585329E+02  0.51100000000E-03 0.  1.
         12    1    4    4    0    0  0.26383508737E+01  0.54465900865E-01 -0.12008001533E+02  0.12294550122E+02  0.00000000000E+00 0. -1.
</event>
<event>
 8    1  0.1247338E-006  0.9118800E+02  0.7816164E-02  0.1184000E+00
        -11   -1    0    0    0    0  0.00000000000E+00  0.00000000000E+00  0.45593999997E+02  0.45594000000E+02  0.51100000000E-03 0.  1.
         11   -1    0    0    0    0 -0.00000000000E+00 -0.00000000000E+00 -0.45593999997E+02  0.45594000000E+02  0.51100000000E-03 0. -1.
         23    2    1    2    0    0  0.00000000000E+00  0.00000000000E+00  0.00000000000E+00  0.91188000000E+02  0.91188000000E+02 0.  0.
    9900012    2    3    3    0    0  0.28953734883E+02 -0.23165651989E+01  0.22629496644E+02  0.54367090772E+02  0.40000015033E+02 0.  0.
         12    1    3    3    0    0 -0.28953734883E+02  0.23165651989E+01 -0.22629496644E+02  0.36820909228E+02  0.00000000000E+00 0. -1.
         11    1    4    4    0    0 -0.67074414963E+01 -0.29968698813E+01  0.61417417962E+01  0.95755936142E+01  0.51100000000E-03 0. -1.
        -11    1    4    4    0    0  0.10342621129E+02 -0.84261788970E+01  0.11091815794E+02  0.17349313545E+02  0.51100000000E-03 0.  1.
        -12    1    4    4    0    0  0.25318555251E+02  0.91064835793E+01  0.53959390532E+01  0.27442183613E+02  0.00000000000E+00 0.  1.
</event>
<event>
 8    1  0.1247338E-006  0.9118800E+02  0.7816164E-02  0.1184000E+00
        -11   -1    0    0    0    0  0.00000000000E+00  0.00000000000E+00  0.45593999997E+02  0.45594000000E+02  0.51100000000E-03 0.  1.
         11   -1    0    0    0    0 -0.00000000000E+00 -0.00000000000E+00 -0.45593999997E+02  0.45594000000E+02  0.51100000000E-03 0. -1.
         23    2    1    2    0    0  0.52735593670E-15  0.00000000000E+00  0.99920072216E-15  0.91188000000E+02  0.91188000000E+02 0.  0.
    9900012    2    3    3    0    0 -0.17684002609E+00 -0.36819280415E+02 -0.30143452009E+00  0.54367061046E+02  0.39999947266E+02 0.  0.
         12    1    3    3    0    0  0.17684002609E+00  0.36819280415E+02  0.30143452009E+00  0.36820938954E+02  0.00000000000E+00 0. -1.
         11    1    4    4    0    0 -0.24691002609E+01 -0.35257283553E+02 -0.11492185220E+02  0.37165075286E+02  0.51100000000E-03 0. -1.
        -11    1    4    4    0    0 -0.32148267236E+01  0.84122603410E+00  0.10664642548E+02  0.11170379270E+02  0.51100000000E-03 0.  1.
         12    1    4    4    0    0  0.55070869584E+01 -0.24032228962E+01  0.52610815222E+00  0.60316064894E+01  0.00000000000E+00 0. -1.
</event>
<event>
 8    1  0.1247338E-006  0.9118800E+02  0.7816164E-02  0.1184000E+00
        -11   -1    0    0    0    0  0.00000000000E+00  0.00000000000E+00  0.45593999997E+02  0.45594000000E+02  0.51100000000E-03 0.  1.
         11   -1    0    0    0    0 -0.00000000000E+00 -0.00000000000E+00 -0.45593999997E+02  0.45594000000E+02  0.51100000000E-03 0. -1.
         23    2    1    2    0    0  0.00000000000E+00  0.00000000000E+00  0.88817841970E-15  0.91188000000E+02  0.91188000000E+02 0.  0.
    9900012    2    3    3    0    0  0.34555225252E+02 -0.11560253595E+02  0.52977774367E+01  0.54367224599E+02  0.40000320117E+02 0.  0.
         12    1    3    3    0    0 -0.34555225252E+02  0.11560253595E+02 -0.52977774367E+01  0.36820775401E+02  0.00000000000E+00 0. -1.
         11    1    4    4    0    0  0.80488788101E+00 -0.98806879094E+01  0.80239277514E+01  0.12753793745E+02  0.51100000000E-03 0.  1.
        -11    1    4    4    0    0  0.10543395119E+02  0.10791477780E+02  0.33386241864E+00  0.15090746757E+02  0.51100000000E-03 0. -1.
         12    1    4    4    0    0  0.23206942251E+02 -0.12471043465E+02 -0.30600127333E+01  0.26522684097E+02  0.00000000000E+00 0. -1.
</event>
<event>
 8    1  0.1247338E-006  0.9118800E+02  0.7816164E-02  0.1184000E+00
        -11   -1    0    0    0    0  0.00000000000E+00  0.00000000000E+00  0.45593999997E+02  0.45594000000E+02  0.51100000000E-03 0.  1.
         11   -1    0    0    0    0 -0.00000000000E+00 -0.00000000000E+00 -0.45593999997E+02  0.45594000000E+02  0.51100000000E-03 0. -1.
         23    2    1    2    0    0  0.35527136788E-14  0.00000000000E+00  0.35527136788E-14  0.91188000000E+02  0.91188000000E+02 0.  0.
    9900012    2    3    3    0    0  0.16361007968E+02  0.13280506748E+02  0.30194792362E+02  0.54367083023E+02  0.39999997369E+02 0.  0.
         12    1    3    3    0    0 -0.16361007968E+02 -0.13280506748E+02 -0.30194792362E+02  0.36820916977E+02  0.00000000000E+00 0. -1.
         11    1    4    4    0    0  0.41622324693E+01 -0.57270853109E+01  0.98346020622E+01  0.12117882788E+02  0.51100000000E-03 0. -1.
        -11    1    4    4    0    0 -0.91726993282E+01  0.96434740396E+01  0.45549523261E+01  0.14067074873E+02  0.51100000000E-03 0.  1.
        -12    1    4    4    0    0  0.21371474827E+02  0.93641180198E+01  0.15805237974E+02  0.28182125363E+02  0.00000000000E+00 0.  1.
</event>
<event>
 8    1  0.1247338E-006  0.9118800E+02  0.7816164E-02  0.1184000E+00
        -11   -1    0    0    0    0  0.00000000000E+00  0.00000000000E+00  0.45593999997E+02  0.45594000000E+02  0.51100000000E-03 0.  1.
         11   -1    0    0    0    0 -0.00000000000E+00 -0.00000000000E+00 -0.45593999997E+02  0.45594000000E+02  0.51100000000E-03 0. -1.
         23    2    1    2    0    0  0.00000000000E+00 -0.17763568394E-14 -0.88817841970E-15  0.91188000000E+02  0.91188000000E+02 0.  0.
    9900012    2    3    3    0    0 -0.34942042645E+02 -0.98406882370E+01 -0.61640146101E+01  0.54367074356E+02  0.39999977609E+02 0.  0.
        -12    1    3    3    0    0  0.34942042645E+02  0.98406882370E+01  0.61640146101E+01  0.36820925644E+02  0.00000000000E+00 0.  1.
         11    1    4    4    0    0 -0.65926634530E+01 -0.16667997501E+02 -0.80028223472E+01  0.19629837439E+02  0.51100000000E-03 0. -1.
        -11    1    4    4    0    0 -0.32849832935E+01  0.70770229504E+01 -0.43305825783E+01  0.89235259179E+01  0.51100000000E-03 0.  1.
        -12    1    4    4    0    0 -0.25064395898E+02 -0.24971368649E+00  0.61693903154E+01  0.25813710999E+02  0.00000000000E+00 0.  1.
</event>
<event>
 8    1  0.1247338E-006  0.9118800E+02  0.7816164E-02  0.1184000E+00
        -11   -1    0    0    0    0  0.00000000000E+00  0.00000000000E+00  0.45593999997E+02  0.45594000000E+02  0.51100000000E-03 0. -1.
         11   -1    0    0    0    0 -0.00000000000E+00 -0.00000000000E+00 -0.45593999997E+02  0.45594000000E+02  0.51100000000E-03 0.  1.
         23    2    1    2    0    0  0.00000000000E+00 -0.13322676296E-14  0.00000000000E+00  0.91188000000E+02  0.91188000000E+02 0.  0.
    9900012    2    3    3    0    0  0.30784516905E+02 -0.27144605584E+01 -0.20018129525E+02  0.54367078136E+02  0.39999986228E+02 0.  0.
         12    1    3    3    0    0 -0.30784516905E+02  0.27144605584E+01  0.20018129525E+02  0.36820921864E+02  0.00000000000E+00 0. -1.
         11    1    4    4    0    0 -0.43005596345E+01 -0.23137980068E+01 -0.64635126033E+01  0.81009548709E+01  0.51100000000E-03 0. -1.
        -11    1    4    4    0    0  0.12567843015E+02  0.88351430473E+01 -0.15534586533E+02  0.21847970380E+02  0.51100000000E-03 0.  1.
         12    1    4    4    0    0  0.22517233525E+02 -0.92358055989E+01  0.19799696116E+01  0.24418152885E+02  0.00000000000E+00 0. -1.
</event>
<event>
 8    1  0.1247338E-006  0.9118800E+02  0.7816164E-02  0.1184000E+00
        -11   -1    0    0    0    0  0.00000000000E+00  0.00000000000E+00  0.45593999997E+02  0.45594000000E+02  0.51100000000E-03 0.  1.
         11   -1    0    0    0    0 -0.00000000000E+00 -0.00000000000E+00 -0.45593999997E+02  0.45594000000E+02  0.51100000000E-03 0. -1.
         23    2    1    2    0    0 -0.71054273576E-14 -0.44408920985E-15  0.11102230246E-15  0.91188000000E+02  0.91188000000E+02 0.  0.
    9900012    2    3    3    0    0 -0.36801198531E+02  0.89833842303E+00  0.80334351790E+00  0.54367074074E+02  0.39999976967E+02 0.  0.
         12    1    3    3    0    0  0.36801198531E+02 -0.89833842303E+00 -0.80334351790E+00  0.36820925926E+02  0.00000000000E+00 0. -1.
         11    1    4    4    0    0  0.71798402292E+01  0.34639281509E+01 -0.13531786987E+01  0.80857898070E+01  0.51100000000E-03 0. -1.
        -11    1    4    4    0    0 -0.10172340618E+02 -0.66811681331E+01  0.35543681875E+00  0.12175420192E+02  0.51100000000E-03 0.  1.
        -12    1    4    4    0    0 -0.33808698142E+02  0.41155784053E+01  0.18010853978E+01  0.34105864075E+02  0.00000000000E+00 0.  1.
</event>
<event>
 8    1  0.1247338E-006  0.9118800E+02  0.7816164E-02  0.1184000E+00
        -11   -1    0    0    0    0  0.00000000000E+00  0.00000000000E+00  0.45593999997E+02  0.45594000000E+02  0.51100000000E-03 0.  1.
         11   -1    0    0    0    0 -0.00000000000E+00 -0.00000000000E+00 -0.45593999997E+02  0.45594000000E+02  0.51100000000E-03 0. -1.
         23    2    1    2    0    0  0.35527136788E-14 -0.88817841970E-15  0.00000000000E+00  0.91188000000E+02  0.91188000000E+02 0.  0.
    9900012    2    3    3    0    0  0.23695874681E+02 -0.56280663481E+01  0.27615374418E+02  0.54367102238E+02  0.40000041173E+02 0.  0.
        -12    1    3    3    0    0 -0.23695874681E+02  0.56280663481E+01 -0.27615374418E+02  0.36820897762E+02  0.00000000000E+00 0.  1.
         11    1    4    4    0    0  0.78102735487E+01 -0.76693193191E+01 -0.84284423856E+01  0.13815117554E+02  0.51100000000E-03 0. -1.
        -11    1    4    4    0    0  0.52409573868E+01  0.49436698863E+01  0.18180439732E+02  0.19555968280E+02  0.51100000000E-03 0.  1.
         12    1    4    4    0    0  0.10644643745E+02 -0.29024169153E+01  0.17863377072E+02  0.20996016404E+02  0.00000000000E+00 0. -1.
</event>
<event>
 8    1  0.1247338E-006  0.9118800E+02  0.7816164E-02  0.1184000E+00
        -11   -1    0    0    0    0  0.00000000000E+00  0.00000000000E+00  0.45593999997E+02  0.45594000000E+02  0.51100000000E-03 0.  1.
         11   -1    0    0    0    0 -0.00000000000E+00 -0.00000000000E+00 -0.45593999997E+02  0.45594000000E+02  0.51100000000E-03 0. -1.
         23    2    1    2    0    0  0.00000000000E+00 -0.35527136788E-14 -0.88817841970E-15  0.91188000000E+02  0.91188000000E+02 0.  0.
    9900012    2    3    3    0    0 -0.17464745742E+02 -0.31468270695E+02 -0.77788533294E+01  0.54367082528E+02  0.39999996239E+02 0.  0.
        -12    1    3    3    0    0  0.17464745742E+02  0.31468270695E+02  0.77788533294E+01  0.36820917472E+02  0.00000000000E+00 0.  1.
         11    1    4    4    0    0 -0.15115480613E+02 -0.10363926453E+02 -0.20564841819E+01  0.18442284380E+02  0.51100000000E-03 0. -1.
        -11    1    4    4    0    0 -0.59714641342E+01  0.20426095900E+01 -0.10274482431E+02  0.12058010919E+02  0.51100000000E-03 0.  1.
         12    1    4    4    0    0  0.36221990049E+01 -0.23146953831E+02  0.45521132833E+01  0.23866787229E+02  0.00000000000E+00 0. -1.
</event>
<event>
 8    1  0.1247338E-006  0.9118800E+02  0.7816164E-02  0.1184000E+00
        -11   -1    0    0    0    0  0.00000000000E+00  0.00000000000E+00  0.45593999997E+02  0.45594000000E+02  0.51100000000E-03 0. -1.
         11   -1    0    0    0    0 -0.00000000000E+00 -0.00000000000E+00 -0.45593999997E+02  0.45594000000E+02  0.51100000000E-03 0.  1.
         23    2    1    2    0    0  0.00000000000E+00  0.00000000000E+00  0.00000000000E+00  0.91188000000E+02  0.91188000000E+02 0.  0.
    9900012    2    3    3    0    0 -0.11145014588E+02  0.14038787219E+02 -0.32163338994E+02  0.54367091918E+02  0.40000017645E+02 0.  0.
         12    1    3    3    0    0  0.11145014588E+02 -0.14038787219E+02  0.32163338994E+02  0.36820908082E+02  0.00000000000E+00 0. -1.
         11    1    4    4    0    0 -0.31181522576E+01 -0.91484630489E+01 -0.31182809931E+01  0.10155832131E+02  0.51100000000E-03 0.  1.
        -11    1    4    4    0    0  0.20506826899E+00  0.24783527027E+02 -0.19735736971E+02  0.31682243906E+02  0.51100000000E-03 0. -1.
         12    1    4    4    0    0 -0.82319305997E+01 -0.15962767588E+01 -0.93093210304E+01  0.12529015881E+02  0.00000000000E+00 0. -1.
</event>
<event>
 8    1  0.1247338E-006  0.9118800E+02  0.7816164E-02  0.1184000E+00
        -11   -1    0    0    0    0  0.00000000000E+00  0.00000000000E+00  0.45593999997E+02  0.45594000000E+02  0.51100000000E-03 0.  1.
         11   -1    0    0    0    0 -0.00000000000E+00 -0.00000000000E+00 -0.45593999997E+02  0.45594000000E+02  0.51100000000E-03 0. -1.
         23    2    1    2    0    0  0.26645352591E-14  0.00000000000E+00  0.00000000000E+00  0.91188000000E+02  0.91188000000E+02 0.  0.
    9900012    2    3    3    0    0 -0.79939070464E+01  0.14631249860E+02 -0.32829890010E+02  0.54367113259E+02  0.40000066297E+02 0.  0.
        -12    1    3    3    0    0  0.79939070464E+01 -0.14631249860E+02  0.32829890010E+02  0.36820886741E+02  0.00000000000E+00 0.  1.
         11    1    4    4    0    0 -0.14383450783E+02  0.23499508830E+02 -0.23279820616E+02  0.36070217907E+02  0.51100000000E-03 0. -1.
        -11    1    4    4    0    0  0.39254097656E+01  0.58678220546E+00  0.81565272070E+00  0.40519680164E+01  0.51100000000E-03 0.  1.
         12    1    4    4    0    0  0.24641339709E+01 -0.94550411755E+01 -0.10365722114E+02  0.14244927336E+02  0.00000000000E+00 0. -1.
</event>
<event>
 8    1  0.1247338E-006  0.9118800E+02  0.7816164E-02  0.1184000E+00
        -11   -1    0    0    0    0  0.00000000000E+00  0.00000000000E+00  0.45593999997E+02  0.45594000000E+02  0.51100000000E-03 0.  1.
         11   -1    0    0    0    0 -0.00000000000E+00 -0.00000000000E+00 -0.45593999997E+02  0.45594000000E+02  0.51100000000E-03 0. -1.
         23    2    1    2    0    0 -0.17763568394E-14 -0.35527136788E-14  0.00000000000E+00  0.91188000000E+02  0.91188000000E+02 0.  0.
    9900012    2    3    3    0    0 -0.15540133599E+02  0.22845513267E+02 -0.24338563698E+02  0.54367096812E+02  0.40000028802E+02 0.  0.
        -12    1    3    3    0    0  0.15540133599E+02 -0.22845513267E+02  0.24338563698E+02  0.36820903188E+02  0.00000000000E+00 0.  1.
         11    1    4    4    0    0 -0.52017651979E+01  0.26627672703E+02 -0.58840797957E+01  0.27761731035E+02  0.51100000000E-03 0. -1.
        -11    1    4    4    0    0 -0.11207532140E+02 -0.49149349730E+01 -0.52375724949E+01  0.13311556196E+02  0.51100000000E-03 0.  1.
        -12    1    4    4    0    0  0.86916373883E+00  0.11327755371E+01 -0.13216911407E+02  0.13293809581E+02  0.00000000000E+00 0.  1.
</event>
<event>
 8    1  0.1247338E-006  0.9118800E+02  0.7816164E-02  0.1184000E+00
        -11   -1    0    0    0    0  0.00000000000E+00  0.00000000000E+00  0.45593999997E+02  0.45594000000E+02  0.51100000000E-03 0.  1.
         11   -1    0    0    0    0 -0.00000000000E+00 -0.00000000000E+00 -0.45593999997E+02  0.45594000000E+02  0.51100000000E-03 0. -1.
         23    2    1    2    0    0  0.35527136788E-14  0.00000000000E+00  0.00000000000E+00  0.91188000000E+02  0.91188000000E+02 0.  0.
    9900012    2    3    3    0    0  0.29469603555E+02 -0.15641418109E+02  0.15577798064E+02  0.54367091719E+02  0.40000017192E+02 0.  0.
         12    1    3    3    0    0 -0.29469603555E+02  0.15641418109E+02 -0.15577798064E+02  0.36820908281E+02  0.00000000000E+00 0. -1.
         11    1    4    4    0    0 -0.37258983355E+01  0.96917093472E+00 -0.17562383152E+01  0.42315462881E+01  0.51100000000E-03 0. -1.
        -11    1    4    4    0    0  0.19806482038E+02 -0.18623014091E+02  0.22851723713E+02  0.35514992066E+02  0.51100000000E-03 0.  1.
        -12    1    4    4    0    0  0.13389019853E+02  0.20124250474E+01 -0.55176873338E+01  0.14620553365E+02  0.00000000000E+00 0.  1.
</event>
<event>
 8    1  0.1247338E-006  0.9118800E+02  0.7816164E-02  0.1184000E+00
        -11   -1    0    0    0    0  0.00000000000E+00  0.00000000000E+00  0.45593999997E+02  0.45594000000E+02  0.51100000000E-03 0.  1.
         11   -1    0    0    0    0 -0.00000000000E+00 -0.00000000000E+00 -0.45593999997E+02  0.45594000000E+02  0.51100000000E-03 0. -1.
         23    2    1    2    0    0  0.00000000000E+00  0.00000000000E+00 -0.61062266354E-15  0.91188000000E+02  0.91188000000E+02 0.  0.
    9900012    2    3    3    0    0  0.34338514875E+02 -0.13288981937E+02 -0.22487724293E+00  0.54367065540E+02  0.39999957510E+02 0.  0.
         12    1    3    3    0    0 -0.34338514875E+02  0.13288981937E+02  0.22487724293E+00  0.36820934460E+02  0.00000000000E+00 0. -1.
         11    1    4    4    0    0  0.23059648708E+01 -0.12166437329E+02  0.80586452160E+01  0.14774350552E+02  0.51100000000E-03 0.  1.
        -11    1    4    4    0    0  0.18782998981E+02 -0.10463690768E+02 -0.25542977745E+00  0.21502444508E+02  0.51100000000E-03 0. -1.
         12    1    4    4    0    0  0.13249551024E+02  0.93411461596E+01 -0.80280926815E+01  0.18090270479E+02  0.00000000000E+00 0. -1.
</event>
<event>
 8    1  0.1247338E-006  0.9118800E+02  0.7816164E-02  0.1184000E+00
        -11   -1    0    0    0    0  0.00000000000E+00  0.00000000000E+00  0.45593999997E+02  0.45594000000E+02  0.51100000000E-03 0.  1.
         11   -1    0    0    0    0 -0.00000000000E+00 -0.00000000000E+00 -0.45593999997E+02  0.45594000000E+02  0.51100000000E-03 0. -1.
         23    2    1    2    0    0  0.00000000000E+00  0.00000000000E+00  0.88817841970E-15  0.91188000000E+02  0.91188000000E+02 0.  0.
    9900012    2    3    3    0    0 -0.35635466847E+02  0.86428512175E+01 -0.33457077813E+01  0.54367093777E+02  0.40000021883E+02 0.  0.
        -12    1    3    3    0    0  0.35635466847E+02 -0.86428512175E+01  0.33457077813E+01  0.36820906223E+02  0.00000000000E+00 0.  1.
         11    1    4    4    0    0  0.44093895462E+01  0.10756553003E+02 -0.41982974721E+01  0.12360091044E+02  0.51100000000E-03 0. -1.
        -11    1    4    4    0    0 -0.10977977204E+02 -0.35055099291E+01  0.50932873582E+01  0.12599450771E+02  0.51100000000E-03 0.  1.
        -12    1    4    4    0    0 -0.29066879189E+02  0.13918081434E+01 -0.42406976674E+01  0.29407551962E+02  0.00000000000E+00 0.  1.
</event>
<event>
 8    1  0.1247338E-006  0.9118800E+02  0.7816164E-02  0.1184000E+00
        -11   -1    0    0    0    0  0.00000000000E+00  0.00000000000E+00  0.45593999997E+02  0.45594000000E+02  0.51100000000E-03 0.  1.
         11   -1    0    0    0    0 -0.00000000000E+00 -0.00000000000E+00 -0.45593999997E+02  0.45594000000E+02  0.51100000000E-03 0. -1.
         23    2    1    2    0    0 -0.35527136788E-14 -0.71054273576E-14  0.13322676296E-14  0.91188000000E+02  0.91188000000E+02 0.  0.
    9900012    2    3    3    0    0  0.15805133992E+02  0.33219823958E+02  0.15558291566E+01  0.54367087889E+02  0.40000008461E+02 0.  0.
        -12    1    3    3    0    0 -0.15805133992E+02 -0.33219823958E+02 -0.15558291566E+01  0.36820912111E+02  0.00000000000E+00 0.  1.
         11    1    4    4    0    0 -0.35932700129E+01  0.31167206248E+01 -0.10838151970E+02  0.11836007572E+02  0.51100000000E-03 0. -1.
        -11    1    4    4    0    0 -0.14038330180E+01  0.22122280991E+01  0.68036204577E+01  0.72906756820E+01  0.51100000000E-03 0.  1.
        -12    1    4    4    0    0  0.20802237023E+02  0.27890875234E+02  0.55903606692E+01  0.35240404636E+02  0.00000000000E+00 0.  1.
</event>
<event>
 8    1  0.1247338E-006  0.9118800E+02  0.7816164E-02  0.1184000E+00
        -11   -1    0    0    0    0  0.00000000000E+00  0.00000000000E+00  0.45593999997E+02  0.45594000000E+02  0.51100000000E-03 0.  1.
         11   -1    0    0    0    0 -0.00000000000E+00 -0.00000000000E+00 -0.45593999997E+02  0.45594000000E+02  0.51100000000E-03 0. -1.
         23    2    1    2    0    0 -0.71054273576E-14 -0.10658141036E-13 -0.17763568394E-14  0.91188000000E+02  0.91188000000E+02 0.  0.
    9900012    2    3    3    0    0 -0.19660946926E+02 -0.30294916530E+02 -0.71722805626E+01  0.54367130781E+02  0.40000106241E+02 0.  0.
        -12    1    3    3    0    0  0.19660946926E+02  0.30294916530E+02  0.71722805626E+01  0.36820869219E+02  0.00000000000E+00 0.  1.
         11    1    4    4    0    0 -0.12863982219E+02 -0.29580849765E+02 -0.17050771379E+02  0.36486127723E+02  0.51100000000E-03 0. -1.
        -11    1    4    4    0    0 -0.16174770143E+01  0.44262546512E+01 -0.96542481166E+00  0.48104061634E+01  0.51100000000E-03 0.  1.
        -12    1    4    4    0    0 -0.51794876925E+01 -0.51403214162E+01  0.10843915628E+02  0.13070596894E+02  0.00000000000E+00 0.  1.
</event>
<event>
 8    1  0.1247338E-006  0.9118800E+02  0.7816164E-02  0.1184000E+00
        -11   -1    0    0    0    0  0.00000000000E+00  0.00000000000E+00  0.45593999997E+02  0.45594000000E+02  0.51100000000E-03 0. -1.
         11   -1    0    0    0    0 -0.00000000000E+00 -0.00000000000E+00 -0.45593999997E+02  0.45594000000E+02  0.51100000000E-03 0.  1.
         23    2    1    2    0    0  0.00000000000E+00  0.00000000000E+00  0.35527136788E-14  0.91188000000E+02  0.91188000000E+02 0.  0.
    9900012    2    3    3    0    0 -0.87015537860E+01  0.20558682673E+02 -0.29281464577E+02  0.54367073351E+02  0.39999975318E+02 0.  0.
         12    1    3    3    0    0  0.87015537860E+01 -0.20558682673E+02  0.29281464577E+02  0.36820926649E+02  0.00000000000E+00 0. -1.
         11    1    4    4    0    0  0.41455339599E+01  0.38870118614E+01  0.38533580444E+01  0.68660528328E+01  0.51100000000E-03 0. -1.
        -11    1    4    4    0    0 -0.20065337156E+02  0.56523456009E+01 -0.19581765422E+02  0.28600914379E+02  0.51100000000E-03 0.  1.
         12    1    4    4    0    0  0.72182494104E+01  0.11019325210E+02 -0.13553057199E+02  0.18900106140E+02  0.00000000000E+00 0. -1.
</event>
<event>
 8    1  0.1247338E-006  0.9118800E+02  0.7816164E-02  0.1184000E+00
        -11   -1    0    0    0    0  0.00000000000E+00  0.00000000000E+00  0.45593999997E+02  0.45594000000E+02  0.51100000000E-03 0.  1.
         11   -1    0    0    0    0 -0.00000000000E+00 -0.00000000000E+00 -0.45593999997E+02  0.45594000000E+02  0.51100000000E-03 0. -1.
         23    2    1    2    0    0 -0.35527136788E-14  0.00000000000E+00  0.00000000000E+00  0.91188000000E+02  0.91188000000E+02 0.  0.
    9900012    2    3    3    0    0 -0.93158229930E+01  0.22521150749E+02 -0.27600644546E+02  0.54367049871E+02  0.39999921790E+02 0.  0.
        -12    1    3    3    0    0  0.93158229930E+01 -0.22521150749E+02  0.27600644546E+02  0.36820950129E+02  0.00000000000E+00 0.  1.
         11    1    4    4    0    0 -0.18021507036E+02  0.10804141753E+02 -0.10543279570E+02  0.23508826836E+02  0.51100000000E-03 0. -1.
        -11    1    4    4    0    0  0.73311539109E+01 -0.47940049054E+01 -0.85209685910E+01  0.12220278503E+02  0.51100000000E-03 0.  1.
        -12    1    4    4    0    0  0.13745301319E+01  0.16511013901E+02 -0.85363963851E+01  0.18637944532E+02  0.00000000000E+00 0.  1.
</event>
<event>
 8    1  0.1247338E-006  0.9118800E+02  0.7816164E-02  0.1184000E+00
        -11   -1    0    0    0    0  0.00000000000E+00  0.00000000000E+00  0.45593999997E+02  0.45594000000E+02  0.51100000000E-03 0. -1.
         11   -1    0    0    0    0 -0.00000000000E+00 -0.00000000000E+00 -0.45593999997E+02  0.45594000000E+02  0.51100000000E-03 0.  1.
         23    2    1    2    0    0  0.00000000000E+00  0.00000000000E+00  0.00000000000E+00  0.91188000000E+02  0.91188000000E+02 0.  0.
    9900012    2    3    3    0    0  0.21062839972E+02 -0.23977894794E+02  0.18362881371E+02  0.54367108122E+02  0.40000054586E+02 0.  0.
         12    1    3    3    0    0 -0.21062839972E+02  0.23977894794E+02 -0.18362881371E+02  0.36820891878E+02  0.00000000000E+00 0. -1.
         11    1    4    4    0    0  0.14918762236E+01 -0.20050435040E+02  0.13378011592E+02  0.24149882699E+02  0.51100000000E-03 0. -1.
        -11    1    4    4    0    0  0.16305402125E+02 -0.31796410109E+01  0.13281924905E+02  0.21269362587E+02  0.51100000000E-03 0.  1.
        -12    1    4    4    0    0  0.32655616238E+01 -0.74781874302E+00 -0.82970551254E+01  0.89478628368E+01  0.00000000000E+00 0.  1.
</event>
<event>
 8    1  0.1247338E-006  0.9118800E+02  0.7816164E-02  0.1184000E+00
        -11   -1    0    0    0    0  0.00000000000E+00  0.00000000000E+00  0.45593999997E+02  0.45594000000E+02  0.51100000000E-03 0. -1.
         11   -1    0    0    0    0 -0.00000000000E+00 -0.00000000000E+00 -0.45593999997E+02  0.45594000000E+02  0.51100000000E-03 0.  1.
         23    2    1    2    0    0  0.88817841970E-15  0.00000000000E+00  0.00000000000E+00  0.91188000000E+02  0.91188000000E+02 0.  0.
    9900012    2    3    3    0    0  0.78760667071E+01 -0.25485644198E+02  0.25381672945E+02  0.54367084633E+02  0.40000001038E+02 0.  0.
        -12    1    3    3    0    0 -0.78760667071E+01  0.25485644198E+02 -0.25381672945E+02  0.36820915367E+02  0.00000000000E+00 0.  1.
         11    1    4    4    0    0 -0.50857783573E+01 -0.17593264412E+01  0.15493088037E+01  0.56000650940E+01  0.51100000000E-03 0. -1.
        -11    1    4    4    0    0  0.10962632742E+02 -0.56468519533E+01  0.27565642344E+02  0.30198193518E+02  0.51100000000E-03 0.  1.
        -12    1    4    4    0    0  0.19992123224E+01 -0.18079465804E+02 -0.37332782030E+01  0.18568826021E+02  0.00000000000E+00 0.  1.
</event>
<event>
 8    1  0.1247338E-006  0.9118800E+02  0.7816164E-02  0.1184000E+00
        -11   -1    0    0    0    0  0.00000000000E+00  0.00000000000E+00  0.45593999997E+02  0.45594000000E+02  0.51100000000E-03 0.  1.
         11   -1    0    0    0    0 -0.00000000000E+00 -0.00000000000E+00 -0.45593999997E+02  0.45594000000E+02  0.51100000000E-03 0. -1.
         23    2    1    2    0    0  0.17763568394E-14  0.00000000000E+00  0.44408920985E-15  0.91188000000E+02  0.91188000000E+02 0.  0.
    9900012    2    3    3    0    0 -0.12172313390E+02  0.34727153953E+02 -0.12799566472E+01  0.54367099360E+02  0.40000034610E+02 0.  0.
         12    1    3    3    0    0  0.12172313390E+02 -0.34727153953E+02  0.12799566472E+01  0.36820900640E+02  0.00000000000E+00 0. -1.
         11    1    4    4    0    0 -0.17207487388E+01  0.78045059099E+01 -0.51215829730E+00  0.80083453411E+01  0.51100000000E-03 0. -1.
        -11    1    4    4    0    0 -0.13815042564E+02  0.27204519527E+02  0.12273773612E+02  0.32887487023E+02  0.51100000000E-03 0.  1.
         12    1    4    4    0    0  0.33634779134E+01 -0.28187148400E+00 -0.13041571962E+02  0.13471266995E+02  0.00000000000E+00 0. -1.
</event>
<event>
 8    1  0.1247338E-006  0.9118800E+02  0.7816164E-02  0.1184000E+00
        -11   -1    0    0    0    0  0.00000000000E+00  0.00000000000E+00  0.45593999997E+02  0.45594000000E+02  0.51100000000E-03 0.  1.
         11   -1    0    0    0    0 -0.00000000000E+00 -0.00000000000E+00 -0.45593999997E+02  0.45594000000E+02  0.51100000000E-03 0. -1.
         23    2    1    2    0    0  0.00000000000E+00  0.00000000000E+00  0.00000000000E+00  0.91188000000E+02  0.91188000000E+02 0.  0.
    9900012    2    3    3    0    0 -0.21976522512E+02 -0.10363130195E+02  0.27666209162E+02  0.54367066572E+02  0.39999959863E+02 0.  0.
         12    1    3    3    0    0  0.21976522512E+02  0.10363130195E+02 -0.27666209162E+02  0.36820933428E+02  0.00000000000E+00 0. -1.
         11    1    4    4    0    0 -0.26824424369E+02  0.21343704827E+00  0.39046330430E+01  0.27107959303E+02  0.51100000000E-03 0. -1.
        -11    1    4    4    0    0  0.17447697679E+01 -0.84935984738E+01  0.20647750699E+02  0.22394531604E+02  0.51100000000E-03 0.  1.
         12    1    4    4    0    0  0.31031320887E+01 -0.20829687694E+01  0.31138254198E+01  0.48645756649E+01  0.00000000000E+00 0. -1.
</event>
<event>
 8    1  0.1247338E-006  0.9118800E+02  0.7816164E-02  0.1184000E+00
        -11   -1    0    0    0    0  0.00000000000E+00  0.00000000000E+00  0.45593999997E+02  0.45594000000E+02  0.51100000000E-03 0. -1.
         11   -1    0    0    0    0 -0.00000000000E+00 -0.00000000000E+00 -0.45593999997E+02  0.45594000000E+02  0.51100000000E-03 0.  1.
         23    2    1    2    0    0  0.00000000000E+00 -0.88817841970E-15  0.00000000000E+00  0.91188000000E+02  0.91188000000E+02 0.  0.
    9900012    2    3    3    0    0  0.36609636067E+02  0.22101338914E+01  0.32603386642E+01  0.54367082671E+02  0.39999996564E+02 0.  0.
        -12    1    3    3    0    0 -0.36609636067E+02 -0.22101338914E+01 -0.32603386642E+01  0.36820917329E+02  0.00000000000E+00 0.  1.
         11    1    4    4    0    0  0.35913464122E+02  0.44708260178E+01 -0.14457177411E+01  0.36219542937E+02  0.51100000000E-03 0. -1.
        -11    1    4    4    0    0  0.84902096757E+00  0.18157166673E+01 -0.61934290424E+01  0.65097025419E+01  0.51100000000E-03 0.  1.
         12    1    4    4    0    0 -0.15284902246E+00 -0.40764087937E+01  0.10899485448E+02  0.11637837192E+02  0.00000000000E+00 0. -1.
</event>
<event>
 8    1  0.1247338E-006  0.9118800E+02  0.7816164E-02  0.1184000E+00
        -11   -1    0    0    0    0  0.00000000000E+00  0.00000000000E+00  0.45593999997E+02  0.45594000000E+02  0.51100000000E-03 0. -1.
         11   -1    0    0    0    0 -0.00000000000E+00 -0.00000000000E+00 -0.45593999997E+02  0.45594000000E+02  0.51100000000E-03 0.  1.
         23    2    1    2    0    0 -0.35527136788E-14  0.00000000000E+00 -0.35527136788E-14  0.91188000000E+02  0.91188000000E+02 0.  0.
    9900012    2    3    3    0    0  0.28397014326E+02  0.12617642757E+02  0.19753100878E+02  0.54367077609E+02  0.39999985026E+02 0.  0.
        -12    1    3    3    0    0 -0.28397014326E+02 -0.12617642757E+02 -0.19753100878E+02  0.36820922391E+02  0.00000000000E+00 0.  1.
         11    1    4    4    0    0  0.17809683172E+02  0.20448309351E+02  0.23277282376E+02  0.35737236114E+02  0.51100000000E-03 0. -1.
        -11    1    4    4    0    0  0.33045301420E+01  0.22082440801E+01 -0.47193993844E+01  0.61700074706E+01  0.51100000000E-03 0.  1.
        -12    1    4    4    0    0  0.72828010126E+01 -0.10038910674E+02  0.11952178864E+01  0.12459834024E+02  0.00000000000E+00 0.  1.
</event>
<event>
 8    1  0.1247338E-006  0.9118800E+02  0.7816164E-02  0.1184000E+00
        -11   -1    0    0    0    0  0.00000000000E+00  0.00000000000E+00  0.45593999997E+02  0.45594000000E+02  0.51100000000E-03 0.  1.
         11   -1    0    0    0    0 -0.00000000000E+00 -0.00000000000E+00 -0.45593999997E+02  0.45594000000E+02  0.51100000000E-03 0. -1.
         23    2    1    2    0    0 -0.35527136788E-14  0.35527136788E-14  0.44408920985E-15  0.91188000000E+02  0.91188000000E+02 0.  0.
    9900012    2    3    3    0    0 -0.27564560075E+02 -0.24310026376E+02  0.22355226405E+01  0.54367083173E+02  0.39999997709E+02 0.  0.
        -12    1    3    3    0    0  0.27564560075E+02  0.24310026376E+02 -0.22355226405E+01  0.36820916827E+02  0.00000000000E+00 0.  1.
         11    1    4    4    0    0 -0.14807521890E+02 -0.33112367498E+02  0.12857785929E+01  0.36295245042E+02  0.51100000000E-03 0. -1.
        -11    1    4    4    0    0 -0.13002573829E+02  0.49830907981E+01  0.20847983507E+01  0.14079932688E+02  0.51100000000E-03 0.  1.
        -12    1    4    4    0    0  0.24553564409E+00  0.38192503238E+01 -0.11350543030E+01  0.39919054421E+01  0.00000000000E+00 0.  1.
</event>
<event>
 8    1  0.1247338E-006  0.9118800E+02  0.7816164E-02  0.1184000E+00
        -11   -1    0    0    0    0  0.00000000000E+00  0.00000000000E+00  0.45593999997E+02  0.45594000000E+02  0.51100000000E-03 0. -1.
         11   -1    0    0    0    0 -0.00000000000E+00 -0.00000000000E+00 -0.45593999997E+02  0.45594000000E+02  0.51100000000E-03 0.  1.
         23    2    1    2    0    0 -0.17763568394E-14 -0.17763568394E-14  0.35527136788E-14  0.91188000000E+02  0.91188000000E+02 0.  0.
    9900012    2    3    3    0    0  0.13281968124E+02  0.14415950601E+02 -0.31169880523E+02  0.54366922330E+02  0.39999631034E+02 0.  0.
         12    1    3    3    0    0 -0.13281968124E+02 -0.14415950601E+02  0.31169880523E+02  0.36821077670E+02  0.00000000000E+00 0. -1.
         11    1    4    4    0    0  0.13510395647E+02 -0.21190807876E+01 -0.25100825444E+02  0.28584484116E+02  0.51100000000E-03 0.  1.
        -11    1    4    4    0    0  0.67848031759E+01  0.84878715475E+01 -0.96405287011E+01  0.14526434918E+02  0.51100000000E-03 0. -1.
        -12    1    4    4    0    0 -0.70132306995E+01  0.80471598408E+01  0.35714736224E+01  0.11256003295E+02  0.00000000000E+00 0.  1.
</event>
<event>
 8    1  0.1247338E-006  0.9118800E+02  0.7816164E-02  0.1184000E+00
        -11   -1    0    0    0    0  0.00000000000E+00  0.00000000000E+00  0.45593999997E+02  0.45594000000E+02  0.51100000000E-03 0.  1.
         11   -1    0    0    0    0 -0.00000000000E+00 -0.00000000000E+00 -0.45593999997E+02  0.45594000000E+02  0.51100000000E-03 0. -1.
         23    2    1    2    0    0  0.00000000000E+00 -0.71054273576E-14  0.00000000000E+00  0.91188000000E+02  0.91188000000E+02 0.  0.
    9900012    2    3    3    0    0  0.40514910069E+01  0.36292414203E+02  0.47142179835E+01  0.54367112460E+02  0.40000064474E+02 0.  0.
         12    1    3    3    0    0 -0.40514910069E+01 -0.36292414203E+02 -0.47142179835E+01  0.36820887540E+02  0.00000000000E+00 0. -1.
         11    1    4    4    0    0  0.83620456267E+01  0.75787403831E+01  0.69314537202E+01  0.13244099207E+02  0.51100000000E-03 0. -1.
        -11    1    4    4    0    0 -0.96215327451E+01  0.25583016957E+02  0.86160594058E+01  0.28658351818E+02  0.51100000000E-03 0.  1.
         12    1    4    4    0    0  0.53109781253E+01  0.31306568625E+01 -0.10833295142E+02  0.12464661435E+02  0.00000000000E+00 0. -1.
</event>
<event>
 8    1  0.1247338E-006  0.9118800E+02  0.7816164E-02  0.1184000E+00
        -11   -1    0    0    0    0  0.00000000000E+00  0.00000000000E+00  0.45593999997E+02  0.45594000000E+02  0.51100000000E-03 0.  1.
         11   -1    0    0    0    0 -0.00000000000E+00 -0.00000000000E+00 -0.45593999997E+02  0.45594000000E+02  0.51100000000E-03 0. -1.
         23    2    1    2    0    0 -0.35527136788E-14  0.00000000000E+00  0.00000000000E+00  0.91188000000E+02  0.91188000000E+02 0.  0.
    9900012    2    3    3    0    0 -0.21517939549E+02 -0.17804010063E+02 -0.23995316379E+02  0.54367086040E+02  0.40000004244E+02 0.  0.
        -12    1    3    3    0    0  0.21517939549E+02  0.17804010063E+02  0.23995316379E+02  0.36820913960E+02  0.00000000000E+00 0.  1.
         11    1    4    4    0    0 -0.39055678277E+01 -0.13922408278E+02  0.38663892304E+01  0.14967828108E+02  0.51100000000E-03 0. -1.
        -11    1    4    4    0    0  0.21458296637E+01  0.50153766706E+01 -0.23850598494E+01  0.59537466221E+01  0.51100000000E-03 0.  1.
         12    1    4    4    0    0 -0.19758201385E+02 -0.88969784559E+01 -0.25476645760E+02  0.33445511310E+02  0.00000000000E+00 0. -1.
</event>
<event>
 8    1  0.1247338E-006  0.9118800E+02  0.7816164E-02  0.1184000E+00
        -11   -1    0    0    0    0  0.00000000000E+00  0.00000000000E+00  0.45593999997E+02  0.45594000000E+02  0.51100000000E-03 0. -1.
         11   -1    0    0    0    0 -0.00000000000E+00 -0.00000000000E+00 -0.45593999997E+02  0.45594000000E+02  0.51100000000E-03 0.  1.
         23    2    1    2    0    0 -0.17763568394E-14 -0.35527136788E-14 -0.35527136788E-14  0.91188000000E+02  0.91188000000E+02 0.  0.
    9900012    2    3    3    0    0 -0.92008171617E+01 -0.25776052640E+02 -0.24631691820E+02  0.54367079750E+02  0.39999989905E+02 0.  0.
         12    1    3    3    0    0  0.92008171617E+01  0.25776052640E+02  0.24631691820E+02  0.36820920250E+02  0.00000000000E+00 0. -1.
         11    1    4    4    0    0  0.32301416630E+01  0.13818419250E+01  0.52640101053E+01  0.63287522403E+01  0.51100000000E-03 0. -1.
        -11    1    4    4    0    0 -0.96619707950E+01 -0.40805665488E+01 -0.41419324063E+00  0.10496487951E+02  0.51100000000E-03 0.  1.
         12    1    4    4    0    0 -0.27689880297E+01 -0.23077328016E+02 -0.29481508685E+02  0.37541839558E+02  0.00000000000E+00 0. -1.
</event>
<event>
 8    1  0.1247338E-006  0.9118800E+02  0.7816164E-02  0.1184000E+00
        -11   -1    0    0    0    0  0.00000000000E+00  0.00000000000E+00  0.45593999997E+02  0.45594000000E+02  0.51100000000E-03 0.  1.
         11   -1    0    0    0    0 -0.00000000000E+00 -0.00000000000E+00 -0.45593999997E+02  0.45594000000E+02  0.51100000000E-03 0. -1.
         23    2    1    2    0    0  0.17763568394E-14  0.00000000000E+00  0.00000000000E+00  0.91188000000E+02  0.91188000000E+02 0.  0.
    9900012    2    3    3    0    0  0.93196171145E+01  0.14454443174E+02  0.32557583440E+02  0.54367049033E+02  0.39999919881E+02 0.  0.
         12    1    3    3    0    0 -0.93196171145E+01 -0.14454443174E+02 -0.32557583440E+02  0.36820950967E+02  0.00000000000E+00 0. -1.
         11    1    4    4    0    0  0.72920478846E+00 -0.88589145813E+01  0.71337149420E+01  0.11397455695E+02  0.51100000000E-03 0. -1.
        -11    1    4    4    0    0  0.11369244704E+00  0.57685325625E+01  0.22546499975E+02  0.23273022049E+02  0.51100000000E-03 0.  1.
         12    1    4    4    0    0  0.84767198790E+01  0.17544825193E+02  0.28773685229E+01  0.19696571289E+02  0.00000000000E+00 0. -1.
</event>
<event>
 8    1  0.1247338E-006  0.9118800E+02  0.7816164E-02  0.1184000E+00
        -11   -1    0    0    0    0  0.00000000000E+00  0.00000000000E+00  0.45593999997E+02  0.45594000000E+02  0.51100000000E-03 0. -1.
         11   -1    0    0    0    0 -0.00000000000E+00 -0.00000000000E+00 -0.45593999997E+02  0.45594000000E+02  0.51100000000E-03 0.  1.
         23    2    1    2    0    0 -0.26645352591E-14 -0.35527136788E-14 -0.35527136788E-14  0.91188000000E+02  0.91188000000E+02 0.  0.
    9900012    2    3    3    0    0  0.67528038743E+01 -0.26932958961E+02 -0.24182566740E+02  0.54367066108E+02  0.39999958807E+02 0.  0.
         12    1    3    3    0    0 -0.67528038743E+01  0.26932958961E+02  0.24182566740E+02  0.36820933892E+02  0.00000000000E+00 0. -1.
         11    1    4    4    0    0 -0.10438416391E+02  0.12476804270E+01 -0.11614653159E+02  0.15665803888E+02  0.51100000000E-03 0. -1.
        -11    1    4    4    0    0  0.11776338174E+02 -0.17007450172E+02 -0.15612934050E+02  0.25917160571E+02  0.51100000000E-03 0.  1.
         12    1    4    4    0    0  0.54148820917E+01 -0.11173189216E+02  0.30450204688E+01  0.12784101649E+02  0.00000000000E+00 0. -1.
</event>
<event>
 8    1  0.1247338E-006  0.9118800E+02  0.7816164E-02  0.1184000E+00
        -11   -1    0    0    0    0  0.00000000000E+00  0.00000000000E+00  0.45593999997E+02  0.45594000000E+02  0.51100000000E-03 0.  1.
         11   -1    0    0    0    0 -0.00000000000E+00 -0.00000000000E+00 -0.45593999997E+02  0.45594000000E+02  0.51100000000E-03 0. -1.
         23    2    1    2    0    0 -0.33306690739E-15  0.00000000000E+00  0.44408920985E-15  0.91188000000E+02  0.91188000000E+02 0.  0.
    9900012    2    3    3    0    0  0.96041437252E+00  0.36785454825E+02  0.12992931082E+01  0.54367078704E+02  0.39999987522E+02 0.  0.
         12    1    3    3    0    0 -0.96041437252E+00 -0.36785454825E+02 -0.12992931082E+01  0.36820921296E+02  0.00000000000E+00 0. -1.
         11    1    4    4    0    0 -0.43654223158E+01  0.26437038920E+02  0.12394158001E+02  0.29522687744E+02  0.51100000000E-03 0.  1.
        -11    1    4    4    0    0 -0.62397062921E+01 -0.13368131278E-02 -0.97280821294E+00  0.63150845187E+01  0.51100000000E-03 0. -1.
        -12    1    4    4    0    0  0.11565542980E+02  0.10349752719E+02 -0.10122056679E+02  0.18529306441E+02  0.00000000000E+00 0.  1.
</event>
<event>
 8    1  0.1247338E-006  0.9118800E+02  0.7816164E-02  0.1184000E+00
        -11   -1    0    0    0    0  0.00000000000E+00  0.00000000000E+00  0.45593999997E+02  0.45594000000E+02  0.51100000000E-03 0. -1.
         11   -1    0    0    0    0 -0.00000000000E+00 -0.00000000000E+00 -0.45593999997E+02  0.45594000000E+02  0.51100000000E-03 0.  1.
         23    2    1    2    0    0  0.00000000000E+00  0.00000000000E+00  0.53290705182E-14  0.91188000000E+02  0.91188000000E+02 0.  0.
    9900012    2    3    3    0    0 -0.30908471708E+02 -0.14989997111E+02  0.13256907452E+02  0.54367092462E+02  0.40000018886E+02 0.  0.
        -12    1    3    3    0    0  0.30908471708E+02  0.14989997111E+02 -0.13256907452E+02  0.36820907538E+02  0.00000000000E+00 0.  1.
         11    1    4    4    0    0 -0.20559142895E+02 -0.42283013132E+01  0.19205352439E+02  0.28449999142E+02  0.51100000000E-03 0. -1.
        -11    1    4    4    0    0 -0.12275779434E+02 -0.12525853326E+02  0.19042109208E+01  0.17641365643E+02  0.51100000000E-03 0.  1.
        -12    1    4    4    0    0  0.19264506211E+01  0.17641575282E+01 -0.78526559078E+01  0.82757276771E+01  0.00000000000E+00 0.  1.
</event>
<event>
 8    1  0.1247338E-006  0.9118800E+02  0.7816164E-02  0.1184000E+00
        -11   -1    0    0    0    0  0.00000000000E+00  0.00000000000E+00  0.45593999997E+02  0.45594000000E+02  0.51100000000E-03 0.  1.
         11   -1    0    0    0    0 -0.00000000000E+00 -0.00000000000E+00 -0.45593999997E+02  0.45594000000E+02  0.51100000000E-03 0. -1.
         23    2    1    2    0    0 -0.44408920985E-15  0.00000000000E+00  0.00000000000E+00  0.91188000000E+02  0.91188000000E+02 0.  0.
    9900012    2    3    3    0    0 -0.26853470221E+01 -0.24129189192E+02 -0.27683040449E+02  0.54367087624E+02  0.40000007856E+02 0.  0.
        -12    1    3    3    0    0  0.26853470221E+01  0.24129189192E+02  0.27683040449E+02  0.36820912376E+02  0.00000000000E+00 0.  1.
         11    1    4    4    0    0 -0.18674788963E+01 -0.19544009615E+02 -0.22761239334E+01  0.19764527054E+02  0.51100000000E-03 0. -1.
        -11    1    4    4    0    0 -0.36836634937E+01  0.73173424988E+01 -0.19203557143E+02  0.20877966500E+02  0.51100000000E-03 0.  1.
        -12    1    4    4    0    0  0.28657953679E+01 -0.11902522076E+02 -0.62033593730E+01  0.13724594070E+02  0.00000000000E+00 0.  1.
</event>
<event>
 8    1  0.1247338E-006  0.9118800E+02  0.7816164E-02  0.1184000E+00
        -11   -1    0    0    0    0  0.00000000000E+00  0.00000000000E+00  0.45593999997E+02  0.45594000000E+02  0.51100000000E-03 0.  1.
         11   -1    0    0    0    0 -0.00000000000E+00 -0.00000000000E+00 -0.45593999997E+02  0.45594000000E+02  0.51100000000E-03 0. -1.
         23    2    1    2    0    0  0.00000000000E+00  0.00000000000E+00  0.00000000000E+00  0.91188000000E+02  0.91188000000E+02 0.  0.
    9900012    2    3    3    0    0  0.28241188759E+02 -0.22557117577E+02 -0.70279717808E+01  0.54367072754E+02  0.39999973957E+02 0.  0.
        -12    1    3    3    0    0 -0.28241188759E+02  0.22557117577E+02  0.70279717808E+01  0.36820927246E+02  0.00000000000E+00 0.  1.
         11    1    4    4    0    0  0.12998730652E+02 -0.13462294636E+02 -0.13514400818E+02  0.23083314432E+02  0.51100000000E-03 0. -1.
        -11    1    4    4    0    0  0.13053304292E+02 -0.18028937470E+01 -0.76432379825E+01  0.15233458764E+02  0.51100000000E-03 0.  1.
        -12    1    4    4    0    0  0.21891538143E+01 -0.72919291942E+01  0.14129667020E+02  0.16050299558E+02  0.00000000000E+00 0.  1.
</event>
<event>
 8    1  0.1247338E-006  0.9118800E+02  0.7816164E-02  0.1184000E+00
        -11   -1    0    0    0    0  0.00000000000E+00  0.00000000000E+00  0.45593999997E+02  0.45594000000E+02  0.51100000000E-03 0.  1.
         11   -1    0    0    0    0 -0.00000000000E+00 -0.00000000000E+00 -0.45593999997E+02  0.45594000000E+02  0.51100000000E-03 0. -1.
         23    2    1    2    0    0  0.00000000000E+00 -0.13322676296E-14 -0.35527136788E-14  0.91188000000E+02  0.91188000000E+02 0.  0.
    9900012    2    3    3    0    0  0.30778074359E+02  0.39253630216E+01  0.19826180779E+02  0.54367139331E+02  0.40000125732E+02 0.  0.
         12    1    3    3    0    0 -0.30778074359E+02 -0.39253630216E+01 -0.19826180779E+02  0.36820860669E+02  0.00000000000E+00 0. -1.
         11    1    4    4    0    0  0.76948738368E+01  0.10583140029E+02  0.90224582014E+00  0.13115943886E+02  0.51100000000E-03 0. -1.
        -11    1    4    4    0    0  0.96516450387E+01  0.10247748202E+02  0.29249768051E+01  0.14377972205E+02  0.51100000000E-03 0.  1.
        -12    1    4    4    0    0  0.13431555484E+02 -0.16905525209E+02  0.15998958154E+02  0.26873223240E+02  0.00000000000E+00 0.  1.
</event>
<event>
 8    1  0.1247338E-006  0.9118800E+02  0.7816164E-02  0.1184000E+00
        -11   -1    0    0    0    0  0.00000000000E+00  0.00000000000E+00  0.45593999997E+02  0.45594000000E+02  0.51100000000E-03 0.  1.
         11   -1    0    0    0    0 -0.00000000000E+00 -0.00000000000E+00 -0.45593999997E+02  0.45594000000E+02  0.51100000000E-03 0. -1.
         23    2    1    2    0    0  0.00000000000E+00  0.35527136788E-14  0.00000000000E+00  0.91188000000E+02  0.91188000000E+02 0.  0.
    9900012    2    3    3    0    0  0.92599051275E+01 -0.30133256895E+02 -0.19026823472E+02  0.54367095265E+02  0.40000025276E+02 0.  0.
        -12    1    3    3    0    0 -0.92599051275E+01  0.30133256895E+02  0.19026823472E+02  0.36820904735E+02  0.00000000000E+00 0.  1.
         11    1    4    4    0    0  0.83450628545E+00  0.77966692223E+01 -0.43912484948E+01  0.89870749027E+01  0.51100000000E-03 0. -1.
        -11    1    4    4    0    0  0.95135309529E+01 -0.78863370368E+01 -0.75903928859E+01  0.14502263529E+02  0.51100000000E-03 0.  1.
        -12    1    4    4    0    0 -0.10881321109E+01 -0.30043589081E+02 -0.70451820908E+01  0.30877756833E+02  0.00000000000E+00 0.  1.
</event>
<event>
 8    1  0.1247338E-006  0.9118800E+02  0.7816164E-02  0.1184000E+00
        -11   -1    0    0    0    0  0.00000000000E+00  0.00000000000E+00  0.45593999997E+02  0.45594000000E+02  0.51100000000E-03 0.  1.
         11   -1    0    0    0    0 -0.00000000000E+00 -0.00000000000E+00 -0.45593999997E+02  0.45594000000E+02  0.51100000000E-03 0. -1.
         23    2    1    2    0    0  0.00000000000E+00 -0.35527136788E-14  0.17763568394E-14  0.91188000000E+02  0.91188000000E+02 0.  0.
    9900012    2    3    3    0    0  0.23302035149E+02  0.25675028189E+02 -0.12393062040E+02  0.54367083372E+02  0.39999998164E+02 0.  0.
        -12    1    3    3    0    0 -0.23302035149E+02 -0.25675028189E+02  0.12393062040E+02  0.36820916628E+02  0.00000000000E+00 0.  1.
         11    1    4    4    0    0  0.65363301062E+01 -0.14462705649E+01  0.70098846346E+01  0.96929764601E+01  0.51100000000E-03 0. -1.
        -11    1    4    4    0    0 -0.45056389097E+01  0.15145113709E+02 -0.84466133818E+01  0.17917045770E+02  0.51100000000E-03 0.  1.
         12    1    4    4    0    0  0.21271343952E+02  0.11976185045E+02 -0.10956333292E+02  0.26757061142E+02  0.00000000000E+00 0. -1.
</event>
<event>
 8    1  0.1247338E-006  0.9118800E+02  0.7816164E-02  0.1184000E+00
        -11   -1    0    0    0    0  0.00000000000E+00  0.00000000000E+00  0.45593999997E+02  0.45594000000E+02  0.51100000000E-03 0. -1.
         11   -1    0    0    0    0 -0.00000000000E+00 -0.00000000000E+00 -0.45593999997E+02  0.45594000000E+02  0.51100000000E-03 0.  1.
         23    2    1    2    0    0  0.35527136788E-14  0.88817841970E-15  0.00000000000E+00  0.91188000000E+02  0.91188000000E+02 0.  0.
    9900012    2    3    3    0    0 -0.28511845868E+02 -0.77303505917E+01 -0.21979456954E+02  0.54367079275E+02  0.39999988823E+02 0.  0.
         12    1    3    3    0    0  0.28511845868E+02  0.77303505917E+01  0.21979456954E+02  0.36820920725E+02  0.00000000000E+00 0. -1.
         11    1    4    4    0    0  0.56356885921E+01  0.64839537047E+00 -0.15226535836E+01  0.58736595629E+01  0.51100000000E-03 0.  1.
        -11    1    4    4    0    0 -0.50527868901E+01 -0.34384195203E+01  0.62140630489E+01  0.87159603023E+01  0.51100000000E-03 0. -1.
        -12    1    4    4    0    0 -0.29094747570E+02 -0.49403264419E+01 -0.26670866420E+02  0.39777459409E+02  0.00000000000E+00 0.  1.
</event>
<event>
 8    1  0.1247338E-006  0.9118800E+02  0.7816164E-02  0.1184000E+00
        -11   -1    0    0    0    0  0.00000000000E+00  0.00000000000E+00  0.45593999997E+02  0.45594000000E+02  0.51100000000E-03 0.  1.
         11   -1    0    0    0    0 -0.00000000000E+00 -0.00000000000E+00 -0.45593999997E+02  0.45594000000E+02  0.51100000000E-03 0. -1.
         23    2    1    2    0    0 -0.17763568394E-14 -0.35527136788E-14 -0.35527136788E-14  0.91188000000E+02  0.91188000000E+02 0.  0.
    9900012    2    3    3    0    0 -0.15692822258E+02 -0.26602013432E+02 -0.20046086329E+02  0.54367117798E+02  0.40000076643E+02 0.  0.
         12    1    3    3    0    0  0.15692822258E+02  0.26602013432E+02  0.20046086329E+02  0.36820882202E+02  0.00000000000E+00 0. -1.
         11    1    4    4    0    0  0.51600881861E+01 -0.63794140015E+01 -0.14764165421E+02  0.16890944731E+02  0.51100000000E-03 0. -1.
        -11    1    4    4    0    0  0.99010421010E+00 -0.83710529495E+01 -0.90198458081E+01  0.12345543831E+02  0.51100000000E-03 0.  1.
        -12    1    4    4    0    0 -0.21843014655E+02 -0.11851546481E+02  0.37379248995E+01  0.25130629235E+02  0.00000000000E+00 0.  1.
</event>
<event>
 8    1  0.1247338E-006  0.9118800E+02  0.7816164E-02  0.1184000E+00
        -11   -1    0    0    0    0  0.00000000000E+00  0.00000000000E+00  0.45593999997E+02  0.45594000000E+02  0.51100000000E-03 0. -1.
         11   -1    0    0    0    0 -0.00000000000E+00 -0.00000000000E+00 -0.45593999997E+02  0.45594000000E+02  0.51100000000E-03 0.  1.
         23    2    1    2    0    0  0.00000000000E+00  0.00000000000E+00  0.17763568394E-14  0.91188000000E+02  0.91188000000E+02 0.  0.
    9900012    2    3    3    0    0  0.16161697518E+02  0.29942634078E+02 -0.14071921749E+02  0.54367071387E+02  0.39999970841E+02 0.  0.
         12    1    3    3    0    0 -0.16161697518E+02 -0.29942634078E+02  0.14071921749E+02  0.36820928613E+02  0.00000000000E+00 0. -1.
         11    1    4    4    0    0  0.20257647460E+02  0.78084379934E+01 -0.11544202734E+01  0.21741128557E+02  0.51100000000E-03 0. -1.
        -11    1    4    4    0    0  0.58653894259E+01  0.17923858891E+02 -0.60100714297E+01  0.19793647201E+02  0.51100000000E-03 0.  1.
        -12    1    4    4    0    0 -0.99613393675E+01  0.42103371940E+01 -0.69074300461E+01  0.12832295630E+02  0.00000000000E+00 0.  1.
</event>
<event>
 8    1  0.1247338E-006  0.9118800E+02  0.7816164E-02  0.1184000E+00
        -11   -1    0    0    0    0  0.00000000000E+00  0.00000000000E+00  0.45593999997E+02  0.45594000000E+02  0.51100000000E-03 0.  1.
         11   -1    0    0    0    0 -0.00000000000E+00 -0.00000000000E+00 -0.45593999997E+02  0.45594000000E+02  0.51100000000E-03 0. -1.
         23    2    1    2    0    0  0.00000000000E+00  0.00000000000E+00  0.00000000000E+00  0.91188000000E+02  0.91188000000E+02 0.  0.
    9900012    2    3    3    0    0 -0.17348450297E+02  0.15688329555E+02  0.28437389468E+02  0.54367115550E+02  0.40000071519E+02 0.  0.
         12    1    3    3    0    0  0.17348450297E+02 -0.15688329555E+02 -0.28437389468E+02  0.36820884450E+02  0.00000000000E+00 0. -1.
         11    1    4    4    0    0  0.10079162217E+02  0.60072789311E+01  0.49505234644E+00  0.11744019254E+02  0.51100000000E-03 0. -1.
        -11    1    4    4    0    0 -0.74211322910E+01  0.26605720099E+01  0.17054337315E+02  0.18788354622E+02  0.51100000000E-03 0.  1.
        -12    1    4    4    0    0 -0.20006480222E+02  0.70204786145E+01  0.10887999807E+02  0.23834741674E+02  0.00000000000E+00 0.  1.
</event>
<event>
 8    1  0.1247338E-006  0.9118800E+02  0.7816164E-02  0.1184000E+00
        -11   -1    0    0    0    0  0.00000000000E+00  0.00000000000E+00  0.45593999997E+02  0.45594000000E+02  0.51100000000E-03 0.  1.
         11   -1    0    0    0    0 -0.00000000000E+00 -0.00000000000E+00 -0.45593999997E+02  0.45594000000E+02  0.51100000000E-03 0. -1.
         23    2    1    2    0    0  0.00000000000E+00  0.71054273576E-14 -0.35527136788E-14  0.91188000000E+02  0.91188000000E+02 0.  0.
    9900012    2    3    3    0    0  0.49780483577E+01 -0.35586810814E+02 -0.80360151083E+01  0.54367087352E+02  0.40000007237E+02 0.  0.
        -12    1    3    3    0    0 -0.49780483577E+01  0.35586810814E+02  0.80360151083E+01  0.36820912648E+02  0.00000000000E+00 0.  1.
         11    1    4    4    0    0  0.17356726404E+01 -0.12978676227E+01  0.71814342478E+01  0.75013344145E+01  0.51100000000E-03 0. -1.
        -11    1    4    4    0    0  0.69926337067E+01  0.18501889499E+01 -0.59583015125E+01  0.93713116735E+01  0.51100000000E-03 0.  1.
         12    1    4    4    0    0 -0.37502579894E+01 -0.36139132142E+02 -0.92591478437E+01  0.37494441264E+02  0.00000000000E+00 0. -1.
</event>
<event>
 8    1  0.1247338E-006  0.9118800E+02  0.7816164E-02  0.1184000E+00
        -11   -1    0    0    0    0  0.00000000000E+00  0.00000000000E+00  0.45593999997E+02  0.45594000000E+02  0.51100000000E-03 0. -1.
         11   -1    0    0    0    0 -0.00000000000E+00 -0.00000000000E+00 -0.45593999997E+02  0.45594000000E+02  0.51100000000E-03 0.  1.
         23    2    1    2    0    0  0.00000000000E+00  0.00000000000E+00 -0.35527136788E-14  0.91188000000E+02  0.91188000000E+02 0.  0.
    9900012    2    3    3    0    0  0.34880463793E+02 -0.31556098250E+01 -0.11365541982E+02  0.54367079692E+02  0.39999989774E+02 0.  0.
         12    1    3    3    0    0 -0.34880463793E+02  0.31556098250E+01  0.11365541982E+02  0.36820920308E+02  0.00000000000E+00 0. -1.
         11    1    4    4    0    0  0.29720070488E+02 -0.76411454642E+00 -0.13869149157E+02  0.32805788506E+02  0.51100000000E-03 0. -1.
        -11    1    4    4    0    0  0.22952199997E+00 -0.11261931994E+02  0.14772716619E+01  0.11360727284E+02  0.51100000000E-03 0.  1.
        -12    1    4    4    0    0  0.49308713046E+01  0.88704367157E+01  0.10263355127E+01  0.10200563903E+02  0.00000000000E+00 0.  1.
</event>
<event>
 8    1  0.1247338E-006  0.9118800E+02  0.7816164E-02  0.1184000E+00
        -11   -1    0    0    0    0  0.00000000000E+00  0.00000000000E+00  0.45593999997E+02  0.45594000000E+02  0.51100000000E-03 0. -1.
         11   -1    0    0    0    0 -0.00000000000E+00 -0.00000000000E+00 -0.45593999997E+02  0.45594000000E+02  0.51100000000E-03 0.  1.
         23    2    1    2    0    0  0.00000000000E+00  0.13322676296E-14  0.00000000000E+00  0.91188000000E+02  0.91188000000E+02 0.  0.
    9900012    2    3    3    0    0  0.32263988162E+02 -0.20643274386E+01 -0.17622535307E+02  0.54367080259E+02  0.39999991067E+02 0.  0.
        -12    1    3    3    0    0 -0.32263988162E+02  0.20643274386E+01  0.17622535307E+02  0.36820919741E+02  0.00000000000E+00 0.  1.
         11    1    4    4    0    0 -0.17888888091E+00 -0.12522997308E+02 -0.68153444434E+01  0.14258554729E+02  0.51100000000E-03 0. -1.
        -11    1    4    4    0    0  0.31838820566E+02  0.50990815121E+01 -0.12302155070E+02  0.34511652335E+02  0.51100000000E-03 0.  1.
        -12    1    4    4    0    0  0.60405647726E+00  0.53595883574E+01  0.14949642058E+01  0.55968731954E+01  0.00000000000E+00 0.  1.
</event>
<event>
 8    1  0.1247338E-006  0.9118800E+02  0.7816164E-02  0.1184000E+00
        -11   -1    0    0    0    0  0.00000000000E+00  0.00000000000E+00  0.45593999997E+02  0.45594000000E+02  0.51100000000E-03 0.  1.
         11   -1    0    0    0    0 -0.00000000000E+00 -0.00000000000E+00 -0.45593999997E+02  0.45594000000E+02  0.51100000000E-03 0. -1.
         23    2    1    2    0    0  0.00000000000E+00  0.00000000000E+00 -0.17763568394E-14  0.91188000000E+02  0.91188000000E+02 0.  0.
    9900012    2    3    3    0    0 -0.28707971600E+02  0.21098454126E+02  0.92998936640E+01  0.54367076301E+02  0.39999982043E+02 0.  0.
         12    1    3    3    0    0  0.28707971600E+02 -0.21098454126E+02 -0.92998936640E+01  0.36820923699E+02  0.00000000000E+00 0. -1.
         11    1    4    4    0    0  0.11375137613E+01 -0.46065013290E+01 -0.80856431748E+01  0.93750422859E+01  0.51100000000E-03 0. -1.
        -11    1    4    4    0    0 -0.19140519948E+01  0.39071595336E+01 -0.17909334957E+01  0.47049902983E+01  0.51100000000E-03 0.  1.
        -12    1    4    4    0    0 -0.27931433366E+02  0.21797795922E+02  0.19176470334E+02  0.40287043717E+02  0.00000000000E+00 0.  1.
</event>
<event>
 8    1  0.1247338E-006  0.9118800E+02  0.7816164E-02  0.1184000E+00
        -11   -1    0    0    0    0  0.00000000000E+00  0.00000000000E+00  0.45593999997E+02  0.45594000000E+02  0.51100000000E-03 0.  1.
         11   -1    0    0    0    0 -0.00000000000E+00 -0.00000000000E+00 -0.45593999997E+02  0.45594000000E+02  0.51100000000E-03 0. -1.
         23    2    1    2    0    0  0.00000000000E+00  0.88817841970E-15  0.00000000000E+00  0.91188000000E+02  0.91188000000E+02 0.  0.
    9900012    2    3    3    0    0  0.35960532722E+02 -0.63959978515E+01  0.46596776738E+01  0.54367064404E+02  0.39999954922E+02 0.  0.
         12    1    3    3    0    0 -0.35960532722E+02  0.63959978515E+01 -0.46596776738E+01  0.36820935596E+02  0.00000000000E+00 0. -1.
         11    1    4    4    0    0  0.15375033441E+02  0.54917018871E+01 -0.57017658954E+01  0.17293368021E+02  0.51100000000E-03 0. -1.
        -11    1    4    4    0    0  0.26983650361E+02 -0.85552286905E+01  0.72758241203E+01  0.29227503171E+02  0.51100000000E-03 0.  1.
         12    1    4    4    0    0 -0.63981510802E+01 -0.33324710481E+01  0.30856194489E+01  0.78461932117E+01  0.00000000000E+00 0. -1.
</event>
<event>
 8    1  0.1247338E-006  0.9118800E+02  0.7816164E-02  0.1184000E+00
        -11   -1    0    0    0    0  0.00000000000E+00  0.00000000000E+00  0.45593999997E+02  0.45594000000E+02  0.51100000000E-03 0. -1.
         11   -1    0    0    0    0 -0.00000000000E+00 -0.00000000000E+00 -0.45593999997E+02  0.45594000000E+02  0.51100000000E-03 0.  1.
         23    2    1    2    0    0  0.00000000000E+00 -0.71054273576E-14  0.35527136788E-14  0.91188000000E+02  0.91188000000E+02 0.  0.
    9900012    2    3    3    0    0  0.10922416339E+02 -0.27355018821E+02  0.22094881165E+02  0.54367081936E+02  0.39999994891E+02 0.  0.
        -12    1    3    3    0    0 -0.10922416339E+02  0.27355018821E+02 -0.22094881165E+02  0.36820918064E+02  0.00000000000E+00 0.  1.
         11    1    4    4    0    0  0.60766896718E+01 -0.31788061776E+01 -0.38115138452E+01  0.78459291441E+01  0.51100000000E-03 0. -1.
        -11    1    4    4    0    0 -0.62778924724E+01 -0.23329842616E+02  0.80484434970E+01  0.25465092448E+02  0.51100000000E-03 0.  1.
         12    1    4    4    0    0  0.11123619140E+02 -0.84637002674E+00  0.17857951513E+02  0.21056060344E+02  0.00000000000E+00 0. -1.
</event>
<event>
 8    1  0.1247338E-006  0.9118800E+02  0.7816164E-02  0.1184000E+00
        -11   -1    0    0    0    0  0.00000000000E+00  0.00000000000E+00  0.45593999997E+02  0.45594000000E+02  0.51100000000E-03 0.  1.
         11   -1    0    0    0    0 -0.00000000000E+00 -0.00000000000E+00 -0.45593999997E+02  0.45594000000E+02  0.51100000000E-03 0. -1.
         23    2    1    2    0    0  0.00000000000E+00  0.00000000000E+00  0.35527136788E-14  0.91188000000E+02  0.91188000000E+02 0.  0.
    9900012    2    3    3    0    0 -0.83171105769E+01  0.22963787884E+02  0.27554870754E+02  0.54367071378E+02  0.39999970820E+02 0.  0.
         12    1    3    3    0    0  0.83171105769E+01 -0.22963787884E+02 -0.27554870754E+02  0.36820928622E+02  0.00000000000E+00 0. -1.
         11    1    4    4    0    0 -0.88520445278E+01 -0.44942057154E+01  0.26434974752E+01  0.10273492906E+02  0.51100000000E-03 0. -1.
        -11    1    4    4    0    0 -0.15925368069E+01 -0.16179084793E+01  0.11993016522E+02  0.12205992253E+02  0.51100000000E-03 0.  1.
         12    1    4    4    0    0  0.21274707578E+01  0.29075902079E+02  0.12918356757E+02  0.31887586218E+02  0.00000000000E+00 0. -1.
</event>
<event>
 8    1  0.1247338E-006  0.9118800E+02  0.7816164E-02  0.1184000E+00
        -11   -1    0    0    0    0  0.00000000000E+00  0.00000000000E+00  0.45593999997E+02  0.45594000000E+02  0.51100000000E-03 0. -1.
         11   -1    0    0    0    0 -0.00000000000E+00 -0.00000000000E+00 -0.45593999997E+02  0.45594000000E+02  0.51100000000E-03 0.  1.
         23    2    1    2    0    0 -0.35527136788E-14  0.35527136788E-14 -0.35527136788E-14  0.91188000000E+02  0.91188000000E+02 0.  0.
    9900012    2    3    3    0    0  0.19410328802E+02 -0.22825455077E+02  0.21401356902E+02  0.54367077403E+02  0.39999984555E+02 0.  0.
        -12    1    3    3    0    0 -0.19410328802E+02  0.22825455077E+02 -0.21401356902E+02  0.36820922597E+02  0.00000000000E+00 0.  1.
         11    1    4    4    0    0  0.42322607365E+01  0.60855888444E+01  0.47639718549E+01  0.88114613215E+01  0.51100000000E-03 0. -1.
        -11    1    4    4    0    0 -0.27521955244E+01  0.16056852972E+01  0.87235503540E+01  0.92872566734E+01  0.51100000000E-03 0.  1.
        -12    1    4    4    0    0  0.17930263590E+02 -0.30516729218E+02  0.79138346931E+01  0.36268359408E+02  0.00000000000E+00 0.  1.
</event>
<event>
 8    1  0.1247338E-006  0.9118800E+02  0.7816164E-02  0.1184000E+00
        -11   -1    0    0    0    0  0.00000000000E+00  0.00000000000E+00  0.45593999997E+02  0.45594000000E+02  0.51100000000E-03 0. -1.
         11   -1    0    0    0    0 -0.00000000000E+00 -0.00000000000E+00 -0.45593999997E+02  0.45594000000E+02  0.51100000000E-03 0.  1.
         23    2    1    2    0    0  0.00000000000E+00  0.00000000000E+00  0.00000000000E+00  0.91188000000E+02  0.91188000000E+02 0.  0.
    9900012    2    3    3    0    0  0.21429848706E+02 -0.25209841711E+02 -0.16155650120E+02  0.54367087933E+02  0.40000008560E+02 0.  0.
         12    1    3    3    0    0 -0.21429848706E+02  0.25209841711E+02  0.16155650120E+02  0.36820912067E+02  0.00000000000E+00 0. -1.
         11    1    4    4    0    0  0.83393424283E+00  0.17052309426E+01  0.64777104564E+01  0.67501105107E+01  0.51100000000E-03 0. -1.
        -11    1    4    4    0    0  0.88272043914E+01  0.84271663739E+00  0.15060610551E+01  0.89943275936E+01  0.51100000000E-03 0.  1.
        -12    1    4    4    0    0  0.11768710072E+02 -0.27757789291E+02 -0.24139421632E+02  0.38622649829E+02  0.00000000000E+00 0.  1.
</event>
<event>
 8    1  0.1247338E-006  0.9118800E+02  0.7816164E-02  0.1184000E+00
        -11   -1    0    0    0    0  0.00000000000E+00  0.00000000000E+00  0.45593999997E+02  0.45594000000E+02  0.51100000000E-03 0.  1.
         11   -1    0    0    0    0 -0.00000000000E+00 -0.00000000000E+00 -0.45593999997E+02  0.45594000000E+02  0.51100000000E-03 0. -1.
         23    2    1    2    0    0 -0.35527136788E-14  0.00000000000E+00  0.44408920985E-15  0.91188000000E+02  0.91188000000E+02 0.  0.
    9900012    2    3    3    0    0 -0.24082521276E+02  0.27795264098E+02 -0.17986239829E+01  0.54367087660E+02  0.40000007938E+02 0.  0.
        -12    1    3    3    0    0  0.24082521276E+02 -0.27795264098E+02  0.17986239829E+01  0.36820912340E+02  0.00000000000E+00 0.  1.
         11    1    4    4    0    0 -0.17941713168E+01  0.10342236230E+02 -0.15956118665E+02  0.19099178622E+02  0.51100000000E-03 0. -1.
        -11    1    4    4    0    0 -0.87592039109E+00  0.44135332875E+01  0.84238923479E+01  0.95503128305E+01  0.51100000000E-03 0.  1.
         12    1    4    4    0    0 -0.21412429568E+02  0.13039494581E+02  0.57336023338E+01  0.25717596207E+02  0.00000000000E+00 0. -1.
</event>
<event>
 8    1  0.1247338E-006  0.9118800E+02  0.7816164E-02  0.1184000E+00
        -11   -1    0    0    0    0  0.00000000000E+00  0.00000000000E+00  0.45593999997E+02  0.45594000000E+02  0.51100000000E-03 0.  1.
         11   -1    0    0    0    0 -0.00000000000E+00 -0.00000000000E+00 -0.45593999997E+02  0.45594000000E+02  0.51100000000E-03 0. -1.
         23    2    1    2    0    0  0.00000000000E+00  0.00000000000E+00  0.17763568394E-14  0.91188000000E+02  0.91188000000E+02 0.  0.
    9900012    2    3    3    0    0  0.29105100672E+02  0.18540361842E+02 -0.12842420509E+02  0.54367086555E+02  0.40000005420E+02 0.  0.
        -12    1    3    3    0    0 -0.29105100672E+02 -0.18540361842E+02  0.12842420509E+02  0.36820913445E+02  0.00000000000E+00 0.  1.
         11    1    4    4    0    0  0.76690997252E+01 -0.57655210308E+01 -0.39367382574E+00  0.96026716435E+01  0.51100000000E-03 0. -1.
        -11    1    4    4    0    0 -0.63982342477E+01  0.93506979725E+01 -0.21619189432E+01  0.11534593527E+02  0.51100000000E-03 0.  1.
         12    1    4    4    0    0  0.27834235195E+02  0.14955184901E+02 -0.10286827740E+02  0.33229821384E+02  0.00000000000E+00 0. -1.
</event>
<event>
 8    1  0.1247338E-006  0.9118800E+02  0.7816164E-02  0.1184000E+00
        -11   -1    0    0    0    0  0.00000000000E+00  0.00000000000E+00  0.45593999997E+02  0.45594000000E+02  0.51100000000E-03 0.  1.
         11   -1    0    0    0    0 -0.00000000000E+00 -0.00000000000E+00 -0.45593999997E+02  0.45594000000E+02  0.51100000000E-03 0. -1.
         23    2    1    2    0    0 -0.17763568394E-14 -0.35527136788E-14 -0.35527136788E-14  0.91188000000E+02  0.91188000000E+02 0.  0.
    9900012    2    3    3    0    0  0.51752033098E+01  0.27916746608E+02 -0.23444900412E+02  0.54366935026E+02  0.39999659978E+02 0.  0.
        -12    1    3    3    0    0 -0.51752033098E+01 -0.27916746608E+02  0.23444900412E+02  0.36821064974E+02  0.00000000000E+00 0.  1.
         11    1    4    4    0    0 -0.12270530412E+01  0.46706572545E+01 -0.25137046915E+00  0.48356887544E+01  0.51100000000E-03 0. -1.
        -11    1    4    4    0    0 -0.13990691235E+02  0.64593368182E+01 -0.17491507504E+01  0.15508771775E+02  0.51100000000E-03 0.  1.
         12    1    4    4    0    0  0.20392947586E+02  0.16786752535E+02 -0.21444379192E+02  0.34022474497E+02  0.00000000000E+00 0. -1.
</event>
<event>
 8    1  0.1247338E-006  0.9118800E+02  0.7816164E-02  0.1184000E+00
        -11   -1    0    0    0    0  0.00000000000E+00  0.00000000000E+00  0.45593999997E+02  0.45594000000E+02  0.51100000000E-03 0. -1.
         11   -1    0    0    0    0 -0.00000000000E+00 -0.00000000000E+00 -0.45593999997E+02  0.45594000000E+02  0.51100000000E-03 0.  1.
         23    2    1    2    0    0  0.35527136788E-14  0.00000000000E+00  0.00000000000E+00  0.91188000000E+02  0.91188000000E+02 0.  0.
    9900012    2    3    3    0    0  0.16742399820E+02  0.27162831313E+02  0.18375303393E+02  0.54367093827E+02  0.40000021997E+02 0.  0.
        -12    1    3    3    0    0 -0.16742399820E+02 -0.27162831313E+02 -0.18375303393E+02  0.36820906173E+02  0.00000000000E+00 0.  1.
         11    1    4    4    0    0  0.50707132213E+01  0.54230484664E+01  0.15185673456E+02  0.16903439467E+02  0.51100000000E-03 0. -1.
        -11    1    4    4    0    0  0.20650369796E+02  0.17188463470E+02  0.47272883050E+01  0.27280548091E+02  0.51100000000E-03 0.  1.
        -12    1    4    4    0    0 -0.89786831974E+01  0.45513193762E+01 -0.15376583682E+01  0.10183106269E+02  0.00000000000E+00 0.  1.
</event>
<event>
 8    1  0.1247338E-006  0.9118800E+02  0.7816164E-02  0.1184000E+00
        -11   -1    0    0    0    0  0.00000000000E+00  0.00000000000E+00  0.45593999997E+02  0.45594000000E+02  0.51100000000E-03 0.  1.
         11   -1    0    0    0    0 -0.00000000000E+00 -0.00000000000E+00 -0.45593999997E+02  0.45594000000E+02  0.51100000000E-03 0. -1.
         23    2    1    2    0    0  0.00000000000E+00  0.88817841970E-15 -0.35527136788E-14  0.91188000000E+02  0.91188000000E+02 0.  0.
    9900012    2    3    3    0    0  0.32054925968E+02  0.74790054628E+01 -0.16502247547E+02  0.54367109522E+02  0.40000057777E+02 0.  0.
        -12    1    3    3    0    0 -0.32054925968E+02 -0.74790054628E+01  0.16502247547E+02  0.36820890478E+02  0.00000000000E+00 0.  1.
         11    1    4    4    0    0  0.12415094689E+02 -0.19677199534E+01 -0.18218773631E+02  0.22134367188E+02  0.51100000000E-03 0. -1.
        -11    1    4    4    0    0  0.12539060007E+01 -0.42844151372E+01  0.73540403267E+01  0.86029298912E+01  0.51100000000E-03 0.  1.
        -12    1    4    4    0    0  0.18385925278E+02  0.13731140553E+02 -0.56375142431E+01  0.23629812442E+02  0.00000000000E+00 0.  1.
</event>
<event>
 8    1  0.1247338E-006  0.9118800E+02  0.7816164E-02  0.1184000E+00
        -11   -1    0    0    0    0  0.00000000000E+00  0.00000000000E+00  0.45593999997E+02  0.45594000000E+02  0.51100000000E-03 0.  1.
         11   -1    0    0    0    0 -0.00000000000E+00 -0.00000000000E+00 -0.45593999997E+02  0.45594000000E+02  0.51100000000E-03 0. -1.
         23    2    1    2    0    0  0.00000000000E+00  0.17763568394E-14  0.00000000000E+00  0.91188000000E+02  0.91188000000E+02 0.  0.
    9900012    2    3    3    0    0 -0.32673205003E+02 -0.11590740823E+02  0.12405516408E+02  0.54367076121E+02  0.39999981633E+02 0.  0.
         12    1    3    3    0    0  0.32673205003E+02  0.11590740823E+02 -0.12405516408E+02  0.36820923879E+02  0.00000000000E+00 0. -1.
         11    1    4    4    0    0 -0.63869601804E+01  0.34812630706E+01  0.11914877988E+02  0.13959827028E+02  0.51100000000E-03 0.  1.
        -11    1    4    4    0    0 -0.18712621562E+02  0.40193548280E+01 -0.35737861983E+01  0.19470217436E+02  0.51100000000E-03 0. -1.
        -12    1    4    4    0    0 -0.75736232600E+01 -0.19091358721E+02  0.40644246176E+01  0.20937031656E+02  0.00000000000E+00 0.  1.
</event>
<event>
 8    1  0.1247338E-006  0.9118800E+02  0.7816164E-02  0.1184000E+00
        -11   -1    0    0    0    0  0.00000000000E+00  0.00000000000E+00  0.45593999997E+02  0.45594000000E+02  0.51100000000E-03 0. -1.
         11   -1    0    0    0    0 -0.00000000000E+00 -0.00000000000E+00 -0.45593999997E+02  0.45594000000E+02  0.51100000000E-03 0.  1.
         23    2    1    2    0    0  0.00000000000E+00  0.00000000000E+00  0.00000000000E+00  0.91188000000E+02  0.91188000000E+02 0.  0.
    9900012    2    3    3    0    0  0.12131950207E+02  0.24350588465E+02 -0.24812176687E+02  0.54367089007E+02  0.40000011010E+02 0.  0.
         12    1    3    3    0    0 -0.12131950207E+02 -0.24350588465E+02  0.24812176687E+02  0.36820910993E+02  0.00000000000E+00 0. -1.
         11    1    4    4    0    0  0.12638917142E+01  0.75327227283E+01 -0.67168428543E+01  0.10171298450E+02  0.51100000000E-03 0. -1.
        -11    1    4    4    0    0  0.17028435023E+01  0.23641473752E+02 -0.11150687599E+01  0.23728934568E+02  0.51100000000E-03 0.  1.
         12    1    4    4    0    0  0.91652149901E+01 -0.68236080152E+01 -0.16980265072E+02  0.20466855989E+02  0.00000000000E+00 0. -1.
</event>
<event>
 8    1  0.1247338E-006  0.9118800E+02  0.7816164E-02  0.1184000E+00
        -11   -1    0    0    0    0  0.00000000000E+00  0.00000000000E+00  0.45593999997E+02  0.45594000000E+02  0.51100000000E-03 0. -1.
         11   -1    0    0    0    0 -0.00000000000E+00 -0.00000000000E+00 -0.45593999997E+02  0.45594000000E+02  0.51100000000E-03 0.  1.
         23    2    1    2    0    0  0.00000000000E+00  0.00000000000E+00  0.71054273576E-14  0.91188000000E+02  0.91188000000E+02 0.  0.
    9900012    2    3    3    0    0  0.11463393988E+02  0.30519446874E+02  0.17115265649E+02  0.54367104336E+02  0.40000045955E+02 0.  0.
        -12    1    3    3    0    0 -0.11463393988E+02 -0.30519446874E+02 -0.17115265649E+02  0.36820895664E+02  0.00000000000E+00 0.  1.
         11    1    4    4    0    0 -0.43853782355E+01  0.12053678566E+02  0.17513224546E+02  0.21707964978E+02  0.51100000000E-03 0. -1.
        -11    1    4    4    0    0  0.27903649681E+01 -0.39454616048E+01 -0.42513523699E+01  0.64363655244E+01  0.51100000000E-03 0.  1.
        -12    1    4    4    0    0  0.13058407255E+02  0.22411229913E+02  0.38533934731E+01  0.26222773833E+02  0.00000000000E+00 0.  1.
</event>
<event>
 8    1  0.1247338E-006  0.9118800E+02  0.7816164E-02  0.1184000E+00
        -11   -1    0    0    0    0  0.00000000000E+00  0.00000000000E+00  0.45593999997E+02  0.45594000000E+02  0.51100000000E-03 0. -1.
         11   -1    0    0    0    0 -0.00000000000E+00 -0.00000000000E+00 -0.45593999997E+02  0.45594000000E+02  0.51100000000E-03 0.  1.
         23    2    1    2    0    0 -0.35527136788E-14 -0.35527136788E-14 -0.35527136788E-14  0.91188000000E+02  0.91188000000E+02 0.  0.
    9900012    2    3    3    0    0  0.26738814138E+02  0.16302908232E+02 -0.19365675843E+02  0.54367103770E+02  0.40000044664E+02 0.  0.
         12    1    3    3    0    0 -0.26738814138E+02 -0.16302908232E+02  0.19365675843E+02  0.36820896230E+02  0.00000000000E+00 0. -1.
         11    1    4    4    0    0  0.12172406712E+02 -0.74313250388E+01 -0.13278546124E+02  0.19486196766E+02  0.51100000000E-03 0. -1.
        -11    1    4    4    0    0 -0.18504549249E+01  0.92566855410E+01  0.46246201369E+01  0.10511780168E+02  0.51100000000E-03 0.  1.
        -12    1    4    4    0    0  0.16416862351E+02  0.14477547730E+02 -0.10711749856E+02  0.24369126835E+02  0.00000000000E+00 0.  1.
</event>
<event>
 8    1  0.1247338E-006  0.9118800E+02  0.7816164E-02  0.1184000E+00
        -11   -1    0    0    0    0  0.00000000000E+00  0.00000000000E+00  0.45593999997E+02  0.45594000000E+02  0.51100000000E-03 0. -1.
         11   -1    0    0    0    0 -0.00000000000E+00 -0.00000000000E+00 -0.45593999997E+02  0.45594000000E+02  0.51100000000E-03 0.  1.
         23    2    1    2    0    0  0.35527136788E-14  0.00000000000E+00  0.00000000000E+00  0.91188000000E+02  0.91188000000E+02 0.  0.
    9900012    2    3    3    0    0  0.17693629056E+02  0.29165535069E+02  0.13859496642E+02  0.54367101149E+02  0.40000038689E+02 0.  0.
         12    1    3    3    0    0 -0.17693629056E+02 -0.29165535069E+02 -0.13859496642E+02  0.36820898851E+02  0.00000000000E+00 0. -1.
         11    1    4    4    0    0  0.25834362489E+02  0.13564886248E+02  0.18900152355E+02  0.34765445250E+02  0.51100000000E-03 0. -1.
        -11    1    4    4    0    0 -0.33233081522E+01  0.13900039686E+01 -0.24957331369E+01  0.43823706209E+01  0.51100000000E-03 0.  1.
         12    1    4    4    0    0 -0.48174252808E+01  0.14210644853E+02 -0.25449225762E+01  0.15219285278E+02  0.00000000000E+00 0. -1.
</event>
<event>
 8    1  0.1247338E-006  0.9118800E+02  0.7816164E-02  0.1184000E+00
        -11   -1    0    0    0    0  0.00000000000E+00  0.00000000000E+00  0.45593999997E+02  0.45594000000E+02  0.51100000000E-03 0.  1.
         11   -1    0    0    0    0 -0.00000000000E+00 -0.00000000000E+00 -0.45593999997E+02  0.45594000000E+02  0.51100000000E-03 0. -1.
         23    2    1    2    0    0  0.88817841970E-15  0.00000000000E+00  0.00000000000E+00  0.91188000000E+02  0.91188000000E+02 0.  0.
    9900012    2    3    3    0    0 -0.61404579690E+01  0.24116643887E+02  0.27137836500E+02  0.54367083304E+02  0.39999998008E+02 0.  0.
         12    1    3    3    0    0  0.61404579690E+01 -0.24116643887E+02 -0.27137836500E+02  0.36820916696E+02  0.00000000000E+00 0. -1.
         11    1    4    4    0    0 -0.33655380788E+01 -0.78948022320E+01  0.67390366291E+01  0.10911890936E+02  0.51100000000E-03 0. -1.
        -11    1    4    4    0    0 -0.39269571836E+01  0.27812301339E+02  0.24649310398E+02  0.37370223466E+02  0.51100000000E-03 0.  1.
        -12    1    4    4    0    0  0.11520372933E+01  0.41991447796E+01 -0.42505105272E+01  0.60849689027E+01  0.00000000000E+00 0.  1.
</event>
<event>
 8    1  0.1247338E-006  0.9118800E+02  0.7816164E-02  0.1184000E+00
        -11   -1    0    0    0    0  0.00000000000E+00  0.00000000000E+00  0.45593999997E+02  0.45594000000E+02  0.51100000000E-03 0.  1.
         11   -1    0    0    0    0 -0.00000000000E+00 -0.00000000000E+00 -0.45593999997E+02  0.45594000000E+02  0.51100000000E-03 0. -1.
         23    2    1    2    0    0  0.00000000000E+00  0.35527136788E-14  0.88817841970E-15  0.91188000000E+02  0.91188000000E+02 0.  0.
    9900012    2    3    3    0    0 -0.23088599818E+02 -0.27782343071E+02  0.71300136597E+01  0.54367093943E+02  0.40000022261E+02 0.  0.
         12    1    3    3    0    0  0.23088599818E+02  0.27782343071E+02 -0.71300136597E+01  0.36820906057E+02  0.00000000000E+00 0. -1.
         11    1    4    4    0    0 -0.18668052247E+01 -0.66471991714E+01  0.63609071398E+01  0.93878303390E+01  0.51100000000E-03 0. -1.
        -11    1    4    4    0    0 -0.12865983282E+00 -0.13651387604E+02  0.13525676095E+02  0.19217722314E+02  0.51100000000E-03 0.  1.
         12    1    4    4    0    0 -0.21093134760E+02 -0.74837562963E+01 -0.12756569575E+02  0.25761541290E+02  0.00000000000E+00 0. -1.
</event>
<event>
 8    1  0.1247338E-006  0.9118800E+02  0.7816164E-02  0.1184000E+00
        -11   -1    0    0    0    0  0.00000000000E+00  0.00000000000E+00  0.45593999997E+02  0.45594000000E+02  0.51100000000E-03 0.  1.
         11   -1    0    0    0    0 -0.00000000000E+00 -0.00000000000E+00 -0.45593999997E+02  0.45594000000E+02  0.51100000000E-03 0. -1.
         23    2    1    2    0    0  0.88817841970E-15  0.00000000000E+00  0.00000000000E+00  0.91188000000E+02  0.91188000000E+02 0.  0.
    9900012    2    3    3    0    0 -0.60555222187E+01 -0.23992697985E+02  0.27266485312E+02  0.54367080305E+02  0.39999991172E+02 0.  0.
         12    1    3    3    0    0  0.60555222187E+01  0.23992697985E+02 -0.27266485312E+02  0.36820919695E+02  0.00000000000E+00 0. -1.
         11    1    4    4    0    0 -0.18940483616E+01 -0.11225557860E+02  0.92239860191E+01  0.14652047188E+02  0.51100000000E-03 0. -1.
        -11    1    4    4    0    0  0.46262566355E+00 -0.12743035898E+02  0.26874221853E+02  0.29745970936E+02  0.51100000000E-03 0.  1.
        -12    1    4    4    0    0 -0.46240995206E+01 -0.24104226362E-01 -0.88317225609E+01  0.99690621817E+01  0.00000000000E+00 0.  1.
</event>
<event>
 8    1  0.1247338E-006  0.9118800E+02  0.7816164E-02  0.1184000E+00
        -11   -1    0    0    0    0  0.00000000000E+00  0.00000000000E+00  0.45593999997E+02  0.45594000000E+02  0.51100000000E-03 0. -1.
         11   -1    0    0    0    0 -0.00000000000E+00 -0.00000000000E+00 -0.45593999997E+02  0.45594000000E+02  0.51100000000E-03 0.  1.
         23    2    1    2    0    0 -0.53290705182E-14  0.00000000000E+00  0.35527136788E-14  0.91188000000E+02  0.91188000000E+02 0.  0.
    9900012    2    3    3    0    0  0.10664517969E+02 -0.27000454392E+02 -0.22649993786E+02  0.54367099694E+02  0.40000035372E+02 0.  0.
         12    1    3    3    0    0 -0.10664517969E+02  0.27000454392E+02  0.22649993786E+02  0.36820900306E+02  0.00000000000E+00 0. -1.
         11    1    4    4    0    0 -0.66332085880E+01 -0.16139007699E+02 -0.99254018712E+01  0.20074377406E+02  0.51100000000E-03 0. -1.
        -11    1    4    4    0    0 -0.21578856816E+01 -0.44891148520E+01 -0.12890635056E+02  0.13819446268E+02  0.51100000000E-03 0.  1.
         12    1    4    4    0    0  0.19455612238E+02 -0.63723318409E+01  0.16604314100E+00  0.20473276020E+02  0.00000000000E+00 0. -1.
</event>
<event>
 8    1  0.1247338E-006  0.9118800E+02  0.7816164E-02  0.1184000E+00
        -11   -1    0    0    0    0  0.00000000000E+00  0.00000000000E+00  0.45593999997E+02  0.45594000000E+02  0.51100000000E-03 0.  1.
         11   -1    0    0    0    0 -0.00000000000E+00 -0.00000000000E+00 -0.45593999997E+02  0.45594000000E+02  0.51100000000E-03 0. -1.
         23    2    1    2    0    0  0.17763568394E-14  0.71054273576E-14  0.88817841970E-15  0.91188000000E+02  0.91188000000E+02 0.  0.
    9900012    2    3    3    0    0 -0.11517609773E+02 -0.34809097889E+02  0.33839333676E+01  0.54367086978E+02  0.40000006385E+02 0.  0.
         12    1    3    3    0    0  0.11517609773E+02  0.34809097889E+02 -0.33839333676E+01  0.36820913022E+02  0.00000000000E+00 0. -1.
         11    1    4    4    0    0 -0.11392483599E+02 -0.21955827103E+02 -0.11725009256E+02  0.27373762414E+02  0.51100000000E-03 0.  1.
        -11    1    4    4    0    0 -0.25834015950E+01  0.14484099304E+01 -0.27089788458E+01  0.40137789894E+01  0.51100000000E-03 0. -1.
        -12    1    4    4    0    0  0.24582754218E+01 -0.14301680716E+02  0.17817921470E+02  0.22979545576E+02  0.00000000000E+00 0.  1.
</event>
<event>
 8    1  0.1247338E-006  0.9118800E+02  0.7816164E-02  0.1184000E+00
        -11   -1    0    0    0    0  0.00000000000E+00  0.00000000000E+00  0.45593999997E+02  0.45594000000E+02  0.51100000000E-03 0.  1.
         11   -1    0    0    0    0 -0.00000000000E+00 -0.00000000000E+00 -0.45593999997E+02  0.45594000000E+02  0.51100000000E-03 0. -1.
         23    2    1    2    0    0  0.88817841970E-15 -0.44408920985E-15  0.00000000000E+00  0.91188000000E+02  0.91188000000E+02 0.  0.
    9900012    2    3    3    0    0 -0.73868281419E+01  0.11237787532E+01 -0.36054837632E+02  0.54367089835E+02  0.40000012897E+02 0.  0.
        -12    1    3    3    0    0  0.73868281419E+01 -0.11237787532E+01  0.36054837632E+02  0.36820910165E+02  0.00000000000E+00 0.  1.
         11    1    4    4    0    0  0.91743340400E+01 -0.39145179216E+01 -0.31648332087E+02  0.33182959178E+02  0.51100000000E-03 0. -1.
        -11    1    4    4    0    0 -0.74395206408E+01 -0.80637397333E+00  0.29987005623E+01  0.80615700501E+01  0.51100000000E-03 0.  1.
         12    1    4    4    0    0 -0.91216415411E+01  0.58446706481E+01 -0.74052061076E+01  0.13122560607E+02  0.00000000000E+00 0. -1.
</event>
<event>
 8    1  0.1247338E-006  0.9118800E+02  0.7816164E-02  0.1184000E+00
        -11   -1    0    0    0    0  0.00000000000E+00  0.00000000000E+00  0.45593999997E+02  0.45594000000E+02  0.51100000000E-03 0.  1.
         11   -1    0    0    0    0 -0.00000000000E+00 -0.00000000000E+00 -0.45593999997E+02  0.45594000000E+02  0.51100000000E-03 0. -1.
         23    2    1    2    0    0  0.35527136788E-14  0.00000000000E+00  0.35527136788E-14  0.91188000000E+02  0.91188000000E+02 0.  0.
    9900012    2    3    3    0    0 -0.20643942904E+02 -0.22032808133E+02 -0.21075212380E+02  0.54367060445E+02  0.39999945896E+02 0.  0.
        -12    1    3    3    0    0  0.20643942904E+02  0.22032808133E+02  0.21075212380E+02  0.36820939555E+02  0.00000000000E+00 0.  1.
         11    1    4    4    0    0  0.94677918795E+01 -0.16489016333E+01 -0.32486961913E+01  0.10144554543E+02  0.51100000000E-03 0. -1.
        -11    1    4    4    0    0 -0.15006559903E+02 -0.19646390351E+01 -0.12186140346E+01  0.15183598621E+02  0.51100000000E-03 0.  1.
         12    1    4    4    0    0 -0.15105174881E+02 -0.18419267465E+02 -0.16607902154E+02  0.29038907281E+02  0.00000000000E+00 0. -1.
</event>
<event>
 8    1  0.1247338E-006  0.9118800E+02  0.7816164E-02  0.1184000E+00
        -11   -1    0    0    0    0  0.00000000000E+00  0.00000000000E+00  0.45593999997E+02  0.45594000000E+02  0.51100000000E-03 0. -1.
         11   -1    0    0    0    0 -0.00000000000E+00 -0.00000000000E+00 -0.45593999997E+02  0.45594000000E+02  0.51100000000E-03 0.  1.
         23    2    1    2    0    0  0.00000000000E+00 -0.88817841970E-15  0.00000000000E+00  0.91188000000E+02  0.91188000000E+02 0.  0.
    9900012    2    3    3    0    0  0.87643911310E+01 -0.71099613239E+01  0.35048738198E+02  0.54367079979E+02  0.39999990428E+02 0.  0.
        -12    1    3    3    0    0 -0.87643911310E+01  0.71099613239E+01 -0.35048738198E+02  0.36820920021E+02  0.00000000000E+00 0.  1.
         11    1    4    4    0    0  0.12605501116E+02  0.14113990971E+01  0.21692606750E+02  0.25128865745E+02  0.51100000000E-03 0. -1.
        -11    1    4    4    0    0 -0.12148322656E+02 -0.24871241315E+01  0.14299667248E+02  0.18927440753E+02  0.51100000000E-03 0.  1.
        -12    1    4    4    0    0  0.83072126713E+01 -0.60342362895E+01 -0.94353579928E+00  0.10310773481E+02  0.00000000000E+00 0.  1.
</event>
<event>
 8    1  0.1247338E-006  0.9118800E+02  0.7816164E-02  0.1184000E+00
        -11   -1    0    0    0    0  0.00000000000E+00  0.00000000000E+00  0.45593999997E+02  0.45594000000E+02  0.51100000000E-03 0.  1.
         11   -1    0    0    0    0 -0.00000000000E+00 -0.00000000000E+00 -0.45593999997E+02  0.45594000000E+02  0.51100000000E-03 0. -1.
         23    2    1    2    0    0  0.00000000000E+00 -0.35527136788E-14  0.35527136788E-14  0.91188000000E+02  0.91188000000E+02 0.  0.
    9900012    2    3    3    0    0  0.72992938208E+01 -0.27313200644E+02  0.23590019783E+02  0.54367086743E+02  0.40000005848E+02 0.  0.
         12    1    3    3    0    0 -0.72992938208E+01  0.27313200644E+02 -0.23590019783E+02  0.36820913257E+02  0.00000000000E+00 0. -1.
         11    1    4    4    0    0  0.23284060459E+01 -0.78610114025E+01  0.17113921225E+02  0.18976387299E+02  0.51100000000E-03 0. -1.
        -11    1    4    4    0    0 -0.36181765861E+00 -0.14834355123E+02  0.17098379409E+02  0.22639425403E+02  0.51100000000E-03 0.  1.
         12    1    4    4    0    0  0.53327054335E+01 -0.46178341190E+01 -0.10622280851E+02  0.12751274041E+02  0.00000000000E+00 0. -1.
</event>
<event>
 8    1  0.1247338E-006  0.9118800E+02  0.7816164E-02  0.1184000E+00
        -11   -1    0    0    0    0  0.00000000000E+00  0.00000000000E+00  0.45593999997E+02  0.45594000000E+02  0.51100000000E-03 0. -1.
         11   -1    0    0    0    0 -0.00000000000E+00 -0.00000000000E+00 -0.45593999997E+02  0.45594000000E+02  0.51100000000E-03 0.  1.
         23    2    1    2    0    0 -0.35527136788E-14  0.00000000000E+00 -0.35527136788E-14  0.91188000000E+02  0.91188000000E+02 0.  0.
    9900012    2    3    3    0    0  0.23782643448E+02  0.14135913139E+02  0.24296943241E+02  0.54367087185E+02  0.40000006856E+02 0.  0.
        -12    1    3    3    0    0 -0.23782643448E+02 -0.14135913139E+02 -0.24296943241E+02  0.36820912815E+02  0.00000000000E+00 0.  1.
         11    1    4    4    0    0  0.40871067874E+01  0.35686968571E+01 -0.37700026773E+01  0.66070386405E+01  0.51100000000E-03 0. -1.
        -11    1    4    4    0    0  0.82258000505E+01 -0.59157104274E+01 -0.31778030293E+01  0.10618749865E+02  0.51100000000E-03 0.  1.
        -12    1    4    4    0    0  0.11469736611E+02  0.16482926709E+02  0.31244748948E+02  0.37141298680E+02  0.00000000000E+00 0.  1.
</event>
<event>
 8    1  0.1247338E-006  0.9118800E+02  0.7816164E-02  0.1184000E+00
        -11   -1    0    0    0    0  0.00000000000E+00  0.00000000000E+00  0.45593999997E+02  0.45594000000E+02  0.51100000000E-03 0. -1.
         11   -1    0    0    0    0 -0.00000000000E+00 -0.00000000000E+00 -0.45593999997E+02  0.45594000000E+02  0.51100000000E-03 0.  1.
         23    2    1    2    0    0 -0.35527136788E-14  0.00000000000E+00  0.53290705182E-14  0.91188000000E+02  0.91188000000E+02 0.  0.
    9900012    2    3    3    0    0 -0.30032406874E+02 -0.16150615535E+02  0.13892160333E+02  0.54367082528E+02  0.39999996239E+02 0.  0.
        -12    1    3    3    0    0  0.30032406874E+02  0.16150615535E+02 -0.13892160333E+02  0.36820917472E+02  0.00000000000E+00 0.  1.
         11    1    4    4    0    0 -0.65378173628E+01 -0.50279953072E+01  0.42173946936E+01  0.92633801035E+01  0.51100000000E-03 0. -1.
        -11    1    4    4    0    0 -0.21492986717E+02  0.18086110279E+01 -0.80932040187E+01  0.23037350182E+02  0.51100000000E-03 0.  1.
        -12    1    4    4    0    0 -0.20016027942E+01 -0.12931231256E+02  0.17767969658E+02  0.22066352243E+02  0.00000000000E+00 0.  1.
</event>
<event>
 8    1  0.1247338E-006  0.9118800E+02  0.7816164E-02  0.1184000E+00
        -11   -1    0    0    0    0  0.00000000000E+00  0.00000000000E+00  0.45593999997E+02  0.45594000000E+02  0.51100000000E-03 0. -1.
         11   -1    0    0    0    0 -0.00000000000E+00 -0.00000000000E+00 -0.45593999997E+02  0.45594000000E+02  0.51100000000E-03 0.  1.
         23    2    1    2    0    0  0.00000000000E+00 -0.17763568394E-14  0.35527136788E-14  0.91188000000E+02  0.91188000000E+02 0.  0.
    9900012    2    3    3    0    0 -0.30751017169E+02 -0.15851888581E+01  0.20190152847E+02  0.54367079960E+02  0.39999990384E+02 0.  0.
        -12    1    3    3    0    0  0.30751017169E+02  0.15851888581E+01 -0.20190152847E+02  0.36820920040E+02  0.00000000000E+00 0.  1.
         11    1    4    4    0    0  0.32816567533E+01 -0.45978944226E+01  0.37966357738E+01  0.68061992057E+01  0.51100000000E-03 0. -1.
        -11    1    4    4    0    0 -0.11725006102E+02  0.15222740953E+02  0.72025213710E+01  0.20520329544E+02  0.51100000000E-03 0.  1.
        -12    1    4    4    0    0 -0.22307667820E+02 -0.12210035389E+02  0.91909957023E+01  0.27040551210E+02  0.00000000000E+00 0.  1.
</event>
<event>
 8    1  0.1247338E-006  0.9118800E+02  0.7816164E-02  0.1184000E+00
        -11   -1    0    0    0    0  0.00000000000E+00  0.00000000000E+00  0.45593999997E+02  0.45594000000E+02  0.51100000000E-03 0.  1.
         11   -1    0    0    0    0 -0.00000000000E+00 -0.00000000000E+00 -0.45593999997E+02  0.45594000000E+02  0.51100000000E-03 0. -1.
         23    2    1    2    0    0  0.00000000000E+00  0.35527136788E-14 -0.35527136788E-14  0.91188000000E+02  0.91188000000E+02 0.  0.
    9900012    2    3    3    0    0 -0.21310198249E+02 -0.10739093017E+02 -0.28041503285E+02  0.54367101387E+02  0.40000039231E+02 0.  0.
        -12    1    3    3    0    0  0.21310198249E+02  0.10739093017E+02  0.28041503285E+02  0.36820898613E+02  0.00000000000E+00 0.  1.
         11    1    4    4    0    0 -0.29008112824E+02 -0.18039635117E+02 -0.25512932185E+02  0.42635768478E+02  0.51100000000E-03 0. -1.
        -11    1    4    4    0    0  0.65610593099E+01  0.58811322847E+01 -0.37125798953E+01  0.95613004324E+01  0.51100000000E-03 0.  1.
         12    1    4    4    0    0  0.11368552656E+01  0.14194098153E+01  0.11840087961E+01  0.21700324762E+01  0.00000000000E+00 0. -1.
</event>
<event>
 8    1  0.1247338E-006  0.9118800E+02  0.7816164E-02  0.1184000E+00
        -11   -1    0    0    0    0  0.00000000000E+00  0.00000000000E+00  0.45593999997E+02  0.45594000000E+02  0.51100000000E-03 0.  1.
         11   -1    0    0    0    0 -0.00000000000E+00 -0.00000000000E+00 -0.45593999997E+02  0.45594000000E+02  0.51100000000E-03 0. -1.
         23    2    1    2    0    0  0.00000000000E+00  0.35527136788E-14  0.17763568394E-14  0.91188000000E+02  0.91188000000E+02 0.  0.
    9900012    2    3    3    0    0 -0.19703765293E+02  0.26811760187E+02 -0.15769362316E+02  0.54367059777E+02  0.39999944374E+02 0.  0.
        -12    1    3    3    0    0  0.19703765293E+02 -0.26811760187E+02  0.15769362316E+02  0.36820940223E+02  0.00000000000E+00 0.  1.
         11    1    4    4    0    0  0.52916818442E+01  0.49027912514E+01  0.68566009946E+00  0.72463362348E+01  0.51100000000E-03 0. -1.
        -11    1    4    4    0    0  0.22565930572E+01 -0.52075889606E+01 -0.15047868277E+01  0.58715908123E+01  0.51100000000E-03 0.  1.
         12    1    4    4    0    0 -0.27252040194E+02  0.27116557896E+02 -0.14950235588E+02  0.41249132730E+02  0.00000000000E+00 0. -1.
</event>
<event>
 8    1  0.1247338E-006  0.9118800E+02  0.7816164E-02  0.1184000E+00
        -11   -1    0    0    0    0  0.00000000000E+00  0.00000000000E+00  0.45593999997E+02  0.45594000000E+02  0.51100000000E-03 0.  1.
         11   -1    0    0    0    0 -0.00000000000E+00 -0.00000000000E+00 -0.45593999997E+02  0.45594000000E+02  0.51100000000E-03 0. -1.
         23    2    1    2    0    0  0.00000000000E+00  0.00000000000E+00  0.00000000000E+00  0.91188000000E+02  0.91188000000E+02 0.  0.
    9900012    2    3    3    0    0 -0.27034318516E+02  0.20445426310E+02  0.14384375326E+02  0.54367080836E+02  0.39999992381E+02 0.  0.
        -12    1    3    3    0    0  0.27034318516E+02 -0.20445426310E+02 -0.14384375326E+02  0.36820919164E+02  0.00000000000E+00 0.  1.
         11    1    4    4    0    0 -0.14340600318E+02  0.26166440940E+02  0.13253628074E+02  0.32649565178E+02  0.51100000000E-03 0. -1.
        -11    1    4    4    0    0 -0.35107480331E+01 -0.28314199497E+01  0.84808043197E+01  0.96055365730E+01  0.51100000000E-03 0.  1.
         12    1    4    4    0    0 -0.91829701642E+01 -0.28895946800E+01 -0.73500570675E+01  0.12111979085E+02  0.00000000000E+00 0. -1.
</event>
<event>
 8    1  0.1247338E-006  0.9118800E+02  0.7816164E-02  0.1184000E+00
        -11   -1    0    0    0    0  0.00000000000E+00  0.00000000000E+00  0.45593999997E+02  0.45594000000E+02  0.51100000000E-03 0.  1.
         11   -1    0    0    0    0 -0.00000000000E+00 -0.00000000000E+00 -0.45593999997E+02  0.45594000000E+02  0.51100000000E-03 0. -1.
         23    2    1    2    0    0 -0.66613381478E-15  0.00000000000E+00  0.17763568394E-14  0.91188000000E+02  0.91188000000E+02 0.  0.
    9900012    2    3    3    0    0  0.19030359358E+01  0.34106438823E+02 -0.13744413552E+02  0.54367087207E+02  0.40000006907E+02 0.  0.
        -12    1    3    3    0    0 -0.19030359358E+01 -0.34106438823E+02  0.13744413552E+02  0.36820912793E+02  0.00000000000E+00 0.  1.
         11    1    4    4    0    0 -0.16511386150E+02  0.12406681021E+02 -0.87030841440E+01  0.22411945038E+02  0.51100000000E-03 0. -1.
        -11    1    4    4    0    0  0.14222599787E+02  0.20621279416E+02  0.33554535074E+00  0.25052586701E+02  0.51100000000E-03 0.  1.
         12    1    4    4    0    0  0.41918222981E+01  0.10784783862E+01 -0.53768747592E+01  0.69025554677E+01  0.00000000000E+00 0. -1.
</event>
<event>
 8    1  0.1247338E-006  0.9118800E+02  0.7816164E-02  0.1184000E+00
        -11   -1    0    0    0    0  0.00000000000E+00  0.00000000000E+00  0.45593999997E+02  0.45594000000E+02  0.51100000000E-03 0. -1.
         11   -1    0    0    0    0 -0.00000000000E+00 -0.00000000000E+00 -0.45593999997E+02  0.45594000000E+02  0.51100000000E-03 0.  1.
         23    2    1    2    0    0  0.00000000000E+00  0.26645352591E-14  0.00000000000E+00  0.91188000000E+02  0.91188000000E+02 0.  0.
    9900012    2    3    3    0    0  0.17661212676E+02  0.15096766648E+01 -0.32273510828E+02  0.54367121982E+02  0.40000086183E+02 0.  0.
         12    1    3    3    0    0 -0.17661212676E+02 -0.15096766648E+01  0.32273510828E+02  0.36820878018E+02  0.00000000000E+00 0. -1.
         11    1    4    4    0    0  0.63514442182E+01  0.13209211493E+02 -0.17326985525E+02  0.22694680865E+02  0.51100000000E-03 0. -1.
        -11    1    4    4    0    0  0.43003313870E+01 -0.99870618018E+01 -0.20067665499E+02  0.22824229501E+02  0.51100000000E-03 0.  1.
         12    1    4    4    0    0  0.70094370707E+01 -0.17124730261E+01  0.51211401957E+01  0.88482116169E+01  0.00000000000E+00 0. -1.
</event>
<event>
 8    1  0.1247338E-006  0.9118800E+02  0.7816164E-02  0.1184000E+00
        -11   -1    0    0    0    0  0.00000000000E+00  0.00000000000E+00  0.45593999997E+02  0.45594000000E+02  0.51100000000E-03 0. -1.
         11   -1    0    0    0    0 -0.00000000000E+00 -0.00000000000E+00 -0.45593999997E+02  0.45594000000E+02  0.51100000000E-03 0.  1.
         23    2    1    2    0    0  0.35527136788E-14 -0.35527136788E-14  0.00000000000E+00  0.91188000000E+02  0.91188000000E+02 0.  0.
    9900012    2    3    3    0    0  0.11599582757E+02 -0.26934630036E+02 -0.22265601010E+02  0.54367060256E+02  0.39999945465E+02 0.  0.
         12    1    3    3    0    0 -0.11599582757E+02  0.26934630036E+02  0.22265601010E+02  0.36820939744E+02  0.00000000000E+00 0. -1.
         11    1    4    4    0    0  0.15800726769E+02 -0.16038708404E+01 -0.11255806882E+02  0.19466087355E+02  0.51100000000E-03 0. -1.
        -11    1    4    4    0    0  0.23335382068E+01 -0.16911927487E+02 -0.15758665273E+02  0.23233472046E+02  0.51100000000E-03 0.  1.
        -12    1    4    4    0    0 -0.65346822180E+01 -0.84188317090E+01  0.47488711448E+01  0.11667500854E+02  0.00000000000E+00 0.  1.
</event>
<event>
 8    1  0.1247338E-006  0.9118800E+02  0.7816164E-02  0.1184000E+00
        -11   -1    0    0    0    0  0.00000000000E+00  0.00000000000E+00  0.45593999997E+02  0.45594000000E+02  0.51100000000E-03 0.  1.
         11   -1    0    0    0    0 -0.00000000000E+00 -0.00000000000E+00 -0.45593999997E+02  0.45594000000E+02  0.51100000000E-03 0. -1.
         23    2    1    2    0    0  0.00000000000E+00  0.35527136788E-14 -0.35527136788E-14  0.91188000000E+02  0.91188000000E+02 0.  0.
    9900012    2    3    3    0    0  0.97958696943E+01  0.30653511378E+02 -0.17893693033E+02  0.54367067458E+02  0.39999961884E+02 0.  0.
        -12    1    3    3    0    0 -0.97958696943E+01 -0.30653511378E+02  0.17893693033E+02  0.36820932542E+02  0.00000000000E+00 0.  1.
         11    1    4    4    0    0 -0.27405927488E+01 -0.56784142953E+01  0.11066999400E+01  0.64015640700E+01  0.51100000000E-03 0. -1.
        -11    1    4    4    0    0 -0.23211619180E+01  0.25526309096E+02 -0.10074044689E+02  0.27540272790E+02  0.51100000000E-03 0.  1.
        -12    1    4    4    0    0  0.14857624361E+02  0.10805616578E+02 -0.89263482848E+01  0.20425230598E+02  0.00000000000E+00 0.  1.
</event>
<event>
 8    1  0.1247338E-006  0.9118800E+02  0.7816164E-02  0.1184000E+00
        -11   -1    0    0    0    0  0.00000000000E+00  0.00000000000E+00  0.45593999997E+02  0.45594000000E+02  0.51100000000E-03 0.  1.
         11   -1    0    0    0    0 -0.00000000000E+00 -0.00000000000E+00 -0.45593999997E+02  0.45594000000E+02  0.51100000000E-03 0. -1.
         23    2    1    2    0    0  0.00000000000E+00 -0.35527136788E-14  0.00000000000E+00  0.91188000000E+02  0.91188000000E+02 0.  0.
    9900012    2    3    3    0    0 -0.26337489887E+02 -0.24146367728E+02 -0.88921006264E+01  0.54367083369E+02  0.39999998157E+02 0.  0.
         12    1    3    3    0    0  0.26337489887E+02  0.24146367728E+02  0.88921006264E+01  0.36820916631E+02  0.00000000000E+00 0. -1.
         11    1    4    4    0    0 -0.19246157698E+02 -0.39330774172E+01 -0.14127649270E+02  0.24196573276E+02  0.51100000000E-03 0. -1.
        -11    1    4    4    0    0 -0.68665741058E+01  0.37543700948E+00 -0.36031713843E+01  0.77636098037E+01  0.51100000000E-03 0.  1.
        -12    1    4    4    0    0 -0.22475808254E+00 -0.20588727320E+02  0.88387200282E+01  0.22406900290E+02  0.00000000000E+00 0.  1.
</event>
<event>
 8    1  0.1247338E-006  0.9118800E+02  0.7816164E-02  0.1184000E+00
        -11   -1    0    0    0    0  0.00000000000E+00  0.00000000000E+00  0.45593999997E+02  0.45594000000E+02  0.51100000000E-03 0. -1.
         11   -1    0    0    0    0 -0.00000000000E+00 -0.00000000000E+00 -0.45593999997E+02  0.45594000000E+02  0.51100000000E-03 0.  1.
         23    2    1    2    0    0  0.13322676296E-14  0.00000000000E+00  0.00000000000E+00  0.91188000000E+02  0.91188000000E+02 0.  0.
    9900012    2    3    3    0    0 -0.14525352080E+01 -0.32841718688E+02 -0.16585789808E+02  0.54367125914E+02  0.40000095146E+02 0.  0.
        -12    1    3    3    0    0  0.14525352080E+01  0.32841718688E+02  0.16585789808E+02  0.36820874086E+02  0.00000000000E+00 0.  1.
         11    1    4    4    0    0 -0.10534810576E+01 -0.17898674628E+02  0.62713453114E+01  0.18994792656E+02  0.51100000000E-03 0. -1.
        -11    1    4    4    0    0  0.90803273780E+01 -0.30891587636E+01 -0.16138901029E+02  0.18773901402E+02  0.51100000000E-03 0.  1.
        -12    1    4    4    0    0 -0.94793815284E+01 -0.11853885296E+02 -0.67182340904E+01  0.16598431856E+02  0.00000000000E+00 0.  1.
</event>
<event>
 8    1  0.1247338E-006  0.9118800E+02  0.7816164E-02  0.1184000E+00
        -11   -1    0    0    0    0  0.00000000000E+00  0.00000000000E+00  0.45593999997E+02  0.45594000000E+02  0.51100000000E-03 0. -1.
         11   -1    0    0    0    0 -0.00000000000E+00 -0.00000000000E+00 -0.45593999997E+02  0.45594000000E+02  0.51100000000E-03 0.  1.
         23    2    1    2    0    0  0.71054273576E-14  0.00000000000E+00 -0.17763568394E-14  0.91188000000E+02  0.91188000000E+02 0.  0.
    9900012    2    3    3    0    0  0.30594281312E+02 -0.20094740123E+02  0.39963249152E+01  0.54367092319E+02  0.40000018559E+02 0.  0.
        -12    1    3    3    0    0 -0.30594281312E+02  0.20094740123E+02 -0.39963249152E+01  0.36820907681E+02  0.00000000000E+00 0.  1.
         11    1    4    4    0    0  0.10428425817E+02 -0.12551977290E+02 -0.14342347882E+02  0.21725725349E+02  0.51100000000E-03 0. -1.
        -11    1    4    4    0    0  0.20440682322E+01 -0.23122521935E+01 -0.29010615851E+01  0.42356680378E+01  0.51100000000E-03 0.  1.
         12    1    4    4    0    0  0.18121787264E+02 -0.52305106399E+01  0.21239734382E+02  0.28405698932E+02  0.00000000000E+00 0. -1.
</event>
<event>
 8    1  0.1247338E-006  0.9118800E+02  0.7816164E-02  0.1184000E+00
        -11   -1    0    0    0    0  0.00000000000E+00  0.00000000000E+00  0.45593999997E+02  0.45594000000E+02  0.51100000000E-03 0.  1.
         11   -1    0    0    0    0 -0.00000000000E+00 -0.00000000000E+00 -0.45593999997E+02  0.45594000000E+02  0.51100000000E-03 0. -1.
         23    2    1    2    0    0  0.00000000000E+00  0.35527136788E-14  0.71054273576E-14  0.91188000000E+02  0.91188000000E+02 0.  0.
    9900012    2    3    3    0    0  0.92116486432E+01 -0.27341109192E+02  0.22877715766E+02  0.54367073868E+02  0.39999976497E+02 0.  0.
         12    1    3    3    0    0 -0.92116486432E+01  0.27341109192E+02 -0.22877715766E+02  0.36820926132E+02  0.00000000000E+00 0. -1.
         11    1    4    4    0    0  0.38203004444E+01 -0.29995329994E+02  0.78406067615E+01  0.31237631657E+02  0.51100000000E-03 0. -1.
        -11    1    4    4    0    0  0.88797829183E+00 -0.33790633624E+00 -0.36003315325E+01  0.37235834278E+01  0.51100000000E-03 0.  1.
        -12    1    4    4    0    0  0.45033699069E+01  0.29921271384E+01  0.18637440537E+02  0.19405858783E+02  0.00000000000E+00 0.  1.
</event>
<event>
 8    1  0.1247338E-006  0.9118800E+02  0.7816164E-02  0.1184000E+00
        -11   -1    0    0    0    0  0.00000000000E+00  0.00000000000E+00  0.45593999997E+02  0.45594000000E+02  0.51100000000E-03 0.  1.
         11   -1    0    0    0    0 -0.00000000000E+00 -0.00000000000E+00 -0.45593999997E+02  0.45594000000E+02  0.51100000000E-03 0. -1.
         23    2    1    2    0    0  0.00000000000E+00  0.00000000000E+00 -0.44408920985E-15  0.91188000000E+02  0.91188000000E+02 0.  0.
    9900012    2    3    3    0    0 -0.18153447468E+02  0.31840967171E+02  0.35188755292E+01  0.54367118284E+02  0.40000077753E+02 0.  0.
        -12    1    3    3    0    0  0.18153447468E+02 -0.31840967171E+02 -0.35188755292E+01  0.36820881716E+02  0.00000000000E+00 0.  1.
         11    1    4    4    0    0 -0.87441077125E+01  0.96464479101E+01 -0.23596110051E+01  0.13231823054E+02  0.51100000000E-03 0. -1.
        -11    1    4    4    0    0 -0.20121291561E+02  0.54689568508E+01  0.29849694271E+01  0.21063853063E+02  0.51100000000E-03 0.  1.
        -12    1    4    4    0    0  0.10711951806E+02  0.16725562410E+02  0.28935171072E+01  0.20071442167E+02  0.00000000000E+00 0.  1.
</event>
<event>
 8    1  0.1247338E-006  0.9118800E+02  0.7816164E-02  0.1184000E+00
        -11   -1    0    0    0    0  0.00000000000E+00  0.00000000000E+00  0.45593999997E+02  0.45594000000E+02  0.51100000000E-03 0. -1.
         11   -1    0    0    0    0 -0.00000000000E+00 -0.00000000000E+00 -0.45593999997E+02  0.45594000000E+02  0.51100000000E-03 0.  1.
         23    2    1    2    0    0 -0.17763568394E-14  0.00000000000E+00 -0.35527136788E-14  0.91188000000E+02  0.91188000000E+02 0.  0.
    9900012    2    3    3    0    0  0.11121441671E+02 -0.33489296137E+02 -0.10514817680E+02  0.54367071013E+02  0.39999969989E+02 0.  0.
         12    1    3    3    0    0 -0.11121441671E+02  0.33489296137E+02  0.10514817680E+02  0.36820928987E+02  0.00000000000E+00 0. -1.
         11    1    4    4    0    0  0.16925810034E+01 -0.18262791258E+02 -0.20200356746E+02  0.27284588835E+02  0.51100000000E-03 0. -1.
        -11    1    4    4    0    0  0.13795826035E+02 -0.12887938584E+02  0.11138501181E+02  0.21920081791E+02  0.51100000000E-03 0.  1.
         12    1    4    4    0    0 -0.43669653682E+01 -0.23385662957E+01 -0.14529621146E+01  0.51624003867E+01  0.00000000000E+00 0. -1.
</event>
<event>
 8    1  0.1247338E-006  0.9118800E+02  0.7816164E-02  0.1184000E+00
        -11   -1    0    0    0    0  0.00000000000E+00  0.00000000000E+00  0.45593999997E+02  0.45594000000E+02  0.51100000000E-03 0.  1.
         11   -1    0    0    0    0 -0.00000000000E+00 -0.00000000000E+00 -0.45593999997E+02  0.45594000000E+02  0.51100000000E-03 0. -1.
         23    2    1    2    0    0  0.00000000000E+00 -0.22204460493E-15  0.71054273576E-14  0.91188000000E+02  0.91188000000E+02 0.  0.
    9900012    2    3    3    0    0 -0.56873689973E+01  0.10401781734E+01  0.36364154077E+02  0.54367084226E+02  0.40000000109E+02 0.  0.
         12    1    3    3    0    0  0.56873689973E+01 -0.10401781734E+01 -0.36364154077E+02  0.36820915774E+02  0.00000000000E+00 0. -1.
         11    1    4    4    0    0 -0.23913907775E+01  0.29078030843E+01 -0.61930198354E+01  0.72475901906E+01  0.51100000000E-03 0. -1.
        -11    1    4    4    0    0  0.19108489679E+01  0.59372295351E+01  0.39364590499E+01  0.73754829295E+01  0.51100000000E-03 0.  1.
         12    1    4    4    0    0 -0.52068271877E+01 -0.78048544460E+01  0.38620714862E+02  0.39744011106E+02  0.00000000000E+00 0. -1.
</event>
<event>
 8    1  0.1247338E-006  0.9118800E+02  0.7816164E-02  0.1184000E+00
        -11   -1    0    0    0    0  0.00000000000E+00  0.00000000000E+00  0.45593999997E+02  0.45594000000E+02  0.51100000000E-03 0. -1.
         11   -1    0    0    0    0 -0.00000000000E+00 -0.00000000000E+00 -0.45593999997E+02  0.45594000000E+02  0.51100000000E-03 0.  1.
         23    2    1    2    0    0 -0.35527136788E-14 -0.17763568394E-14  0.00000000000E+00  0.91188000000E+02  0.91188000000E+02 0.  0.
    9900012    2    3    3    0    0 -0.30850500138E+02 -0.40138021728E+01 -0.19695552339E+02  0.54367099026E+02  0.40000033849E+02 0.  0.
         12    1    3    3    0    0  0.30850500138E+02  0.40138021728E+01  0.19695552339E+02  0.36820900974E+02  0.00000000000E+00 0. -1.
         11    1    4    4    0    0 -0.51186364624E+01 -0.64054122207E+01  0.41832261616E+01  0.92048425479E+01  0.51100000000E-03 0. -1.
        -11    1    4    4    0    0  0.37953335617E+01  0.49280358048E+01  0.12051606684E+01  0.63358114110E+01  0.51100000000E-03 0.  1.
        -12    1    4    4    0    0 -0.29527197237E+02 -0.25364257568E+01 -0.25083939169E+02  0.38826445067E+02  0.00000000000E+00 0.  1.
</event>
<event>
 8    1  0.1247338E-006  0.9118800E+02  0.7816164E-02  0.1184000E+00
        -11   -1    0    0    0    0  0.00000000000E+00  0.00000000000E+00  0.45593999997E+02  0.45594000000E+02  0.51100000000E-03 0.  1.
         11   -1    0    0    0    0 -0.00000000000E+00 -0.00000000000E+00 -0.45593999997E+02  0.45594000000E+02  0.51100000000E-03 0. -1.
         23    2    1    2    0    0 -0.88817841970E-15  0.00000000000E+00 -0.35527136788E-14  0.91188000000E+02  0.91188000000E+02 0.  0.
    9900012    2    3    3    0    0  0.23887518205E+01  0.32042704491E+02 -0.17981579200E+02  0.54367105974E+02  0.40000049689E+02 0.  0.
        -12    1    3    3    0    0 -0.23887518205E+01 -0.32042704491E+02  0.17981579200E+02  0.36820894026E+02  0.00000000000E+00 0.  1.
         11    1    4    4    0    0 -0.73631185628E+00  0.32408312561E+02 -0.11894077805E+02  0.34529841664E+02  0.51100000000E-03 0. -1.
        -11    1    4    4    0    0  0.80759881742E+01 -0.68766890327E+01 -0.44105621203E+01  0.11487536530E+02  0.51100000000E-03 0.  1.
        -12    1    4    4    0    0 -0.49509244974E+01  0.65110809625E+01 -0.16769392742E+01  0.83497277805E+01  0.00000000000E+00 0.  1.
</event>
<event>
 8    1  0.1247338E-006  0.9118800E+02  0.7816164E-02  0.1184000E+00
        -11   -1    0    0    0    0  0.00000000000E+00  0.00000000000E+00  0.45593999997E+02  0.45594000000E+02  0.51100000000E-03 0. -1.
         11   -1    0    0    0    0 -0.00000000000E+00 -0.00000000000E+00 -0.45593999997E+02  0.45594000000E+02  0.51100000000E-03 0.  1.
         23    2    1    2    0    0  0.88817841970E-15  0.00000000000E+00  0.00000000000E+00  0.91188000000E+02  0.91188000000E+02 0.  0.
    9900012    2    3    3    0    0  0.19565394530E+01  0.43884221166E+01  0.36506100940E+02  0.54367058931E+02  0.39999942446E+02 0.  0.
        -12    1    3    3    0    0 -0.19565394530E+01 -0.43884221166E+01 -0.36506100940E+02  0.36820941069E+02  0.00000000000E+00 0.  1.
         11    1    4    4    0    0 -0.68838233768E+01 -0.45831368970E+01  0.11244917189E+02  0.13958521804E+02  0.51100000000E-03 0. -1.
        -11    1    4    4    0    0  0.19464404347E+02  0.67609340626E+01  0.15138018716E+02  0.25568200501E+02  0.51100000000E-03 0.  1.
        -12    1    4    4    0    0 -0.10624041517E+02  0.22106249510E+01  0.10123165036E+02  0.14840336626E+02  0.00000000000E+00 0.  1.
</event>
<event>
 8    1  0.1247338E-006  0.9118800E+02  0.7816164E-02  0.1184000E+00
        -11   -1    0    0    0    0  0.00000000000E+00  0.00000000000E+00  0.45593999997E+02  0.45594000000E+02  0.51100000000E-03 0. -1.
         11   -1    0    0    0    0 -0.00000000000E+00 -0.00000000000E+00 -0.45593999997E+02  0.45594000000E+02  0.51100000000E-03 0.  1.
         23    2    1    2    0    0  0.00000000000E+00  0.00000000000E+00 -0.44408920985E-15  0.91188000000E+02  0.91188000000E+02 0.  0.
    9900012    2    3    3    0    0 -0.23384384684E+02 -0.28325461007E+02  0.25725241348E+01  0.54367094678E+02  0.40000023938E+02 0.  0.
        -12    1    3    3    0    0  0.23384384684E+02  0.28325461007E+02 -0.25725241348E+01  0.36820905322E+02  0.00000000000E+00 0.  1.
         11    1    4    4    0    0 -0.22733599123E+00 -0.11987701856E+02 -0.15826840275E+01  0.12093864827E+02  0.51100000000E-03 0. -1.
        -11    1    4    4    0    0  0.94941846336E+00  0.78150032914E+01 -0.17994993530E+00  0.78745192935E+01  0.51100000000E-03 0.  1.
         12    1    4    4    0    0 -0.24106467156E+02 -0.24152762442E+02  0.43351580976E+01  0.34398710558E+02  0.00000000000E+00 0. -1.
</event>
<event>
 8    1  0.1247338E-006  0.9118800E+02  0.7816164E-02  0.1184000E+00
        -11   -1    0    0    0    0  0.00000000000E+00  0.00000000000E+00  0.45593999997E+02  0.45594000000E+02  0.51100000000E-03 0.  1.
         11   -1    0    0    0    0 -0.00000000000E+00 -0.00000000000E+00 -0.45593999997E+02  0.45594000000E+02  0.51100000000E-03 0. -1.
         23    2    1    2    0    0  0.00000000000E+00  0.35527136788E-14  0.00000000000E+00  0.91188000000E+02  0.91188000000E+02 0.  0.
    9900012    2    3    3    0    0  0.15151811592E+02 -0.21793650913E+02  0.25519564015E+02  0.54366963049E+02  0.39999723861E+02 0.  0.
         12    1    3    3    0    0 -0.15151811592E+02  0.21793650913E+02 -0.25519564015E+02  0.36821036951E+02  0.00000000000E+00 0. -1.
         11    1    4    4    0    0 -0.89220091038E+01 -0.83170179066E+01  0.61380072048E+01  0.13654675610E+02  0.51100000000E-03 0. -1.
        -11    1    4    4    0    0  0.12953589826E+02 -0.17561258596E+02  0.18878962064E+02  0.28854956277E+02  0.51100000000E-03 0.  1.
         12    1    4    4    0    0  0.11120230870E+02  0.40846255893E+01  0.50259474617E+00  0.11857331162E+02  0.00000000000E+00 0. -1.
</event>
<event>
 8    1  0.1247338E-006  0.9118800E+02  0.7816164E-02  0.1184000E+00
        -11   -1    0    0    0    0  0.00000000000E+00  0.00000000000E+00  0.45593999997E+02  0.45594000000E+02  0.51100000000E-03 0.  1.
         11   -1    0    0    0    0 -0.00000000000E+00 -0.00000000000E+00 -0.45593999997E+02  0.45594000000E+02  0.51100000000E-03 0. -1.
         23    2    1    2    0    0  0.35527136788E-14 -0.13322676296E-14  0.00000000000E+00  0.91188000000E+02  0.91188000000E+02 0.  0.
    9900012    2    3    3    0    0  0.30147173675E+02 -0.13726470498E+01 -0.21096005707E+02  0.54367113301E+02  0.40000066392E+02 0.  0.
         12    1    3    3    0    0 -0.30147173675E+02  0.13726470498E+01  0.21096005707E+02  0.36820886699E+02  0.00000000000E+00 0. -1.
         11    1    4    4    0    0  0.10495352781E+02 -0.18446233803E+02 -0.15461374234E+02  0.26257761995E+02  0.51100000000E-03 0. -1.
        -11    1    4    4    0    0  0.15159832596E+02  0.13429770357E+02 -0.32156847079E+00  0.20255435387E+02  0.51100000000E-03 0.  1.
        -12    1    4    4    0    0  0.44919882984E+01  0.36438163957E+01 -0.53130630023E+01  0.78539159191E+01  0.00000000000E+00 0.  1.
</event>
<event>
 8    1  0.1247338E-006  0.9118800E+02  0.7816164E-02  0.1184000E+00
        -11   -1    0    0    0    0  0.00000000000E+00  0.00000000000E+00  0.45593999997E+02  0.45594000000E+02  0.51100000000E-03 0. -1.
         11   -1    0    0    0    0 -0.00000000000E+00 -0.00000000000E+00 -0.45593999997E+02  0.45594000000E+02  0.51100000000E-03 0.  1.
         23    2    1    2    0    0  0.35527136788E-14  0.00000000000E+00 -0.17763568394E-14  0.91188000000E+02  0.91188000000E+02 0.  0.
    9900012    2    3    3    0    0 -0.29303617830E+02 -0.18228982814E+02  0.12836789918E+02  0.54367068347E+02  0.39999963911E+02 0.  0.
         12    1    3    3    0    0  0.29303617830E+02  0.18228982814E+02 -0.12836789918E+02  0.36820931653E+02  0.00000000000E+00 0. -1.
         11    1    4    4    0    0 -0.65658317100E+01 -0.40245502739E+01  0.95427694691E+01  0.12262609851E+02  0.51100000000E-03 0. -1.
        -11    1    4    4    0    0 -0.19835908230E+02 -0.12520202598E+02  0.16370490260E+02  0.28604399662E+02  0.51100000000E-03 0.  1.
         12    1    4    4    0    0 -0.29018778898E+01 -0.16842299428E+01 -0.13076469812E+02  0.13500058834E+02  0.00000000000E+00 0. -1.
</event>
<event>
 8    1  0.1247338E-006  0.9118800E+02  0.7816164E-02  0.1184000E+00
        -11   -1    0    0    0    0  0.00000000000E+00  0.00000000000E+00  0.45593999997E+02  0.45594000000E+02  0.51100000000E-03 0.  1.
         11   -1    0    0    0    0 -0.00000000000E+00 -0.00000000000E+00 -0.45593999997E+02  0.45594000000E+02  0.51100000000E-03 0. -1.
         23    2    1    2    0    0  0.00000000000E+00 -0.17763568394E-14  0.00000000000E+00  0.91188000000E+02  0.91188000000E+02 0.  0.
    9900012    2    3    3    0    0 -0.13886964460E+02 -0.68490532621E+01 -0.33406944076E+02  0.54367065398E+02  0.39999957187E+02 0.  0.
        -12    1    3    3    0    0  0.13886964460E+02  0.68490532621E+01  0.33406944076E+02  0.36820934602E+02  0.00000000000E+00 0.  1.
         11    1    4    4    0    0 -0.32398224510E+01  0.73836949799E+01 -0.93775740094E+01  0.12367469249E+02  0.51100000000E-03 0. -1.
        -11    1    4    4    0    0 -0.80587340388E+01 -0.20546853373E+02 -0.26726788183E+02  0.34661759688E+02  0.51100000000E-03 0.  1.
        -12    1    4    4    0    0 -0.25884079704E+01  0.63141051306E+01  0.26974181167E+01  0.73378364603E+01  0.00000000000E+00 0.  1.
</event>
<event>
 8    1  0.1247338E-006  0.9118800E+02  0.7816164E-02  0.1184000E+00
        -11   -1    0    0    0    0  0.00000000000E+00  0.00000000000E+00  0.45593999997E+02  0.45594000000E+02  0.51100000000E-03 0. -1.
         11   -1    0    0    0    0 -0.00000000000E+00 -0.00000000000E+00 -0.45593999997E+02  0.45594000000E+02  0.51100000000E-03 0.  1.
         23    2    1    2    0    0 -0.17763568394E-14  0.35527136788E-14 -0.35527136788E-14  0.91188000000E+02  0.91188000000E+02 0.  0.
    9900012    2    3    3    0    0  0.85530807710E+01  0.18541276413E+02 -0.30640553575E+02  0.54367114010E+02  0.40000068008E+02 0.  0.
         12    1    3    3    0    0 -0.85530807710E+01 -0.18541276413E+02  0.30640553575E+02  0.36820885990E+02  0.00000000000E+00 0. -1.
         11    1    4    4    0    0  0.48168761116E+01 -0.45553253368E+01 -0.13068006013E+01  0.67572932800E+01  0.51100000000E-03 0. -1.
        -11    1    4    4    0    0  0.12462159926E+02  0.24955906752E+02 -0.18050188840E+02  0.33225171621E+02  0.51100000000E-03 0.  1.
         12    1    4    4    0    0 -0.87259552668E+01 -0.18593050022E+01 -0.11283564134E+02  0.14384649109E+02  0.00000000000E+00 0. -1.
</event>
<event>
 8    1  0.1247338E-006  0.9118800E+02  0.7816164E-02  0.1184000E+00
        -11   -1    0    0    0    0  0.00000000000E+00  0.00000000000E+00  0.45593999997E+02  0.45594000000E+02  0.51100000000E-03 0.  1.
         11   -1    0    0    0    0 -0.00000000000E+00 -0.00000000000E+00 -0.45593999997E+02  0.45594000000E+02  0.51100000000E-03 0. -1.
         23    2    1    2    0    0 -0.88817841970E-15  0.00000000000E+00  0.35527136788E-14  0.91188000000E+02  0.91188000000E+02 0.  0.
    9900012    2    3    3    0    0 -0.55453557601E+01  0.31525014287E+02 -0.18199381447E+02  0.54366878597E+02  0.39999531335E+02 0.  0.
         12    1    3    3    0    0  0.55453557601E+01 -0.31525014287E+02  0.18199381447E+02  0.36821121403E+02  0.00000000000E+00 0. -1.
         11    1    4    4    0    0  0.15449849261E+01  0.20716986128E+02 -0.10127003434E+02  0.23111397436E+02  0.51100000000E-03 0. -1.
        -11    1    4    4    0    0 -0.12820785132E+02  0.18349016270E+01  0.54443199673E+01  0.14049199819E+02  0.51100000000E-03 0.  1.
         12    1    4    4    0    0  0.57304444463E+01  0.89731265323E+01 -0.13516697980E+02  0.17206281341E+02  0.00000000000E+00 0. -1.
</event>
<event>
 8    1  0.1247338E-006  0.9118800E+02  0.7816164E-02  0.1184000E+00
        -11   -1    0    0    0    0  0.00000000000E+00  0.00000000000E+00  0.45593999997E+02  0.45594000000E+02  0.51100000000E-03 0. -1.
         11   -1    0    0    0    0 -0.00000000000E+00 -0.00000000000E+00 -0.45593999997E+02  0.45594000000E+02  0.51100000000E-03 0.  1.
         23    2    1    2    0    0  0.00000000000E+00  0.00000000000E+00  0.35527136788E-14  0.91188000000E+02  0.91188000000E+02 0.  0.
    9900012    2    3    3    0    0 -0.21016418952E+02  0.25167865096E+02 -0.16753173577E+02  0.54367080349E+02  0.39999991272E+02 0.  0.
         12    1    3    3    0    0  0.21016418952E+02 -0.25167865096E+02  0.16753173577E+02  0.36820919651E+02  0.00000000000E+00 0. -1.
         11    1    4    4    0    0 -0.13189262802E+02  0.39343731063E+01  0.11087649287E+01  0.13808160809E+02  0.51100000000E-03 0. -1.
        -11    1    4    4    0    0  0.87344181513E+01  0.10234669067E+02 -0.15519833478E+02  0.20540295587E+02  0.51100000000E-03 0.  1.
        -12    1    4    4    0    0 -0.16561574301E+02  0.10998822922E+02 -0.23421050277E+01  0.20018623952E+02  0.00000000000E+00 0.  1.
</event>
<event>
 8    1  0.1247338E-006  0.9118800E+02  0.7816164E-02  0.1184000E+00
        -11   -1    0    0    0    0  0.00000000000E+00  0.00000000000E+00  0.45593999997E+02  0.45594000000E+02  0.51100000000E-03 0.  1.
         11   -1    0    0    0    0 -0.00000000000E+00 -0.00000000000E+00 -0.45593999997E+02  0.45594000000E+02  0.51100000000E-03 0. -1.
         23    2    1    2    0    0  0.00000000000E+00  0.00000000000E+00  0.00000000000E+00  0.91188000000E+02  0.91188000000E+02 0.  0.
    9900012    2    3    3    0    0  0.26167118778E+02  0.16609590549E+02  0.19879215084E+02  0.54367084806E+02  0.40000001433E+02 0.  0.
         12    1    3    3    0    0 -0.26167118778E+02 -0.16609590549E+02 -0.19879215084E+02  0.36820915194E+02  0.00000000000E+00 0. -1.
         11    1    4    4    0    0  0.10070780898E+02 -0.32875792173E+01  0.20877555776E+02  0.23411559974E+02  0.51100000000E-03 0.  1.
        -11    1    4    4    0    0  0.42177003629E+01  0.82120482355E+01 -0.86217493336E+01  0.12631757376E+02  0.51100000000E-03 0. -1.
        -12    1    4    4    0    0  0.11878637517E+02  0.11685121531E+02  0.76234086422E+01  0.18323767456E+02  0.00000000000E+00 0.  1.
</event>
<event>
 8    1  0.1247338E-006  0.9118800E+02  0.7816164E-02  0.1184000E+00
        -11   -1    0    0    0    0  0.00000000000E+00  0.00000000000E+00  0.45593999997E+02  0.45594000000E+02  0.51100000000E-03 0. -1.
         11   -1    0    0    0    0 -0.00000000000E+00 -0.00000000000E+00 -0.45593999997E+02  0.45594000000E+02  0.51100000000E-03 0.  1.
         23    2    1    2    0    0 -0.35527136788E-14 -0.88817841970E-15  0.35527136788E-14  0.91188000000E+02  0.91188000000E+02 0.  0.
    9900012    2    3    3    0    0 -0.23074334626E+02 -0.43940201658E+01  0.28355736108E+02  0.54367080649E+02  0.39999991956E+02 0.  0.
        -12    1    3    3    0    0  0.23074334626E+02  0.43940201658E+01 -0.28355736108E+02  0.36820919351E+02  0.00000000000E+00 0.  1.
         11    1    4    4    0    0  0.58159272583E+01 -0.77415262676E+01  0.71218970705E+01  0.12019885897E+02  0.51100000000E-03 0. -1.
        -11    1    4    4    0    0  0.20944897900E+01  0.26723241258E+01 -0.16954662507E+01  0.37951033955E+01  0.51100000000E-03 0.  1.
         12    1    4    4    0    0 -0.30984751674E+02  0.67518197604E+00  0.22929305288E+02  0.38552091357E+02  0.00000000000E+00 0. -1.
</event>
<event>
 8    1  0.1247338E-006  0.9118800E+02  0.7816164E-02  0.1184000E+00
        -11   -1    0    0    0    0  0.00000000000E+00  0.00000000000E+00  0.45593999997E+02  0.45594000000E+02  0.51100000000E-03 0. -1.
         11   -1    0    0    0    0 -0.00000000000E+00 -0.00000000000E+00 -0.45593999997E+02  0.45594000000E+02  0.51100000000E-03 0.  1.
         23    2    1    2    0    0  0.37747582837E-14  0.35527136788E-14  0.00000000000E+00  0.91188000000E+02  0.91188000000E+02 0.  0.
    9900012    2    3    3    0    0 -0.16819077397E+01  0.27261431636E+02  0.24693428826E+02  0.54367083449E+02  0.39999998339E+02 0.  0.
        -12    1    3    3    0    0  0.16819077397E+01 -0.27261431636E+02 -0.24693428826E+02  0.36820916551E+02  0.00000000000E+00 0.  1.
         11    1    4    4    0    0  0.91267180073E+01  0.39464877714E+01  0.11228824247E+02  0.14998607987E+02  0.51100000000E-03 0. -1.
        -11    1    4    4    0    0 -0.17434153783E+02  0.22214084839E+02  0.15675442813E+02  0.32297597295E+02  0.51100000000E-03 0.  1.
        -12    1    4    4    0    0  0.66255280362E+01  0.11008590251E+01 -0.22108382344E+01  0.70708781668E+01  0.00000000000E+00 0.  1.
</event>
<event>
 8    1  0.1247338E-006  0.9118800E+02  0.7816164E-02  0.1184000E+00
        -11   -1    0    0    0    0  0.00000000000E+00  0.00000000000E+00  0.45593999997E+02  0.45594000000E+02  0.51100000000E-03 0.  1.
         11   -1    0    0    0    0 -0.00000000000E+00 -0.00000000000E+00 -0.45593999997E+02  0.45594000000E+02  0.51100000000E-03 0. -1.
         23    2    1    2    0    0  0.00000000000E+00 -0.17763568394E-14  0.00000000000E+00  0.91188000000E+02  0.91188000000E+02 0.  0.
    9900012    2    3    3    0    0 -0.23310599732E+02 -0.82547250030E+01 -0.27281026532E+02  0.54367096245E+02  0.40000027509E+02 0.  0.
         12    1    3    3    0    0  0.23310599732E+02  0.82547250030E+01  0.27281026532E+02  0.36820903755E+02  0.00000000000E+00 0. -1.
         11    1    4    4    0    0 -0.15489902064E+01 -0.41322061728E+01 -0.78114937249E+01  0.89718411148E+01  0.51100000000E-03 0. -1.
        -11    1    4    4    0    0 -0.51337738200E+01 -0.18212864022E+02 -0.63673170849E+01  0.19965139034E+02  0.51100000000E-03 0.  1.
        -12    1    4    4    0    0 -0.16627835705E+02  0.14090345192E+02 -0.13102215722E+02  0.25430116096E+02  0.00000000000E+00 0.  1.
</event>
<event>
 8    1  0.1247338E-006  0.9118800E+02  0.7816164E-02  0.1184000E+00
        -11   -1    0    0    0    0  0.00000000000E+00  0.00000000000E+00  0.45593999997E+02  0.45594000000E+02  0.51100000000E-03 0.  1.
         11   -1    0    0    0    0 -0.00000000000E+00 -0.00000000000E+00 -0.45593999997E+02  0.45594000000E+02  0.51100000000E-03 0. -1.
         23    2    1    2    0    0 -0.17763568394E-14 -0.26645352591E-14 -0.14210854715E-13  0.91188000000E+02  0.91188000000E+02 0.  0.
    9900012    2    3    3    0    0 -0.12386727515E+02 -0.27539830022E+01 -0.34565340228E+02  0.54367106665E+02  0.40000051264E+02 0.  0.
        -12    1    3    3    0    0  0.12386727515E+02  0.27539830022E+01  0.34565340228E+02  0.36820893335E+02  0.00000000000E+00 0.  1.
         11    1    4    4    0    0 -0.42548328063E+01  0.15780294206E+01 -0.57999754079E+01  0.73643393495E+01  0.51100000000E-03 0. -1.
        -11    1    4    4    0    0 -0.14805753224E+02  0.54874242325E+01  0.10085868343E+00  0.15790260478E+02  0.51100000000E-03 0.  1.
        -12    1    4    4    0    0  0.66738585151E+01 -0.98194366552E+01 -0.28866223504E+02  0.31212506837E+02  0.00000000000E+00 0.  1.
</event>
<event>
 8    1  0.1247338E-006  0.9118800E+02  0.7816164E-02  0.1184000E+00
        -11   -1    0    0    0    0  0.00000000000E+00  0.00000000000E+00  0.45593999997E+02  0.45594000000E+02  0.51100000000E-03 0.  1.
         11   -1    0    0    0    0 -0.00000000000E+00 -0.00000000000E+00 -0.45593999997E+02  0.45594000000E+02  0.51100000000E-03 0. -1.
         23    2    1    2    0    0  0.26645352591E-14  0.00000000000E+00 -0.35527136788E-14  0.91188000000E+02  0.91188000000E+02 0.  0.
    9900012    2    3    3    0    0 -0.65724414134E+01 -0.24244399461E+02  0.26921855223E+02  0.54367161063E+02  0.40000175276E+02 0.  0.
         12    1    3    3    0    0  0.65724414134E+01  0.24244399461E+02 -0.26921855223E+02  0.36820838937E+02  0.00000000000E+00 0. -1.
         11    1    4    4    0    0 -0.11256601359E+02 -0.10215332677E+02  0.15700540240E+01  0.15281661093E+02  0.51100000000E-03 0. -1.
        -11    1    4    4    0    0  0.13355810115E+01  0.53094625041E+01 -0.16376256352E+01  0.57145416879E+01  0.51100000000E-03 0.  1.
        -12    1    4    4    0    0  0.33485789337E+01 -0.19338529288E+02  0.26989426834E+02  0.33370958283E+02  0.00000000000E+00 0.  1.
</event>
<event>
 8    1  0.1247338E-006  0.9118800E+02  0.7816164E-02  0.1184000E+00
        -11   -1    0    0    0    0  0.00000000000E+00  0.00000000000E+00  0.45593999997E+02  0.45594000000E+02  0.51100000000E-03 0. -1.
         11   -1    0    0    0    0 -0.00000000000E+00 -0.00000000000E+00 -0.45593999997E+02  0.45594000000E+02  0.51100000000E-03 0.  1.
         23    2    1    2    0    0  0.00000000000E+00 -0.26645352591E-14  0.00000000000E+00  0.91188000000E+02  0.91188000000E+02 0.  0.
    9900012    2    3    3    0    0 -0.29107784503E+02 -0.50114307614E+01  0.21986430446E+02  0.54367072788E+02  0.39999974035E+02 0.  0.
        -12    1    3    3    0    0  0.29107784503E+02  0.50114307614E+01 -0.21986430446E+02  0.36820927212E+02  0.00000000000E+00 0.  1.
         11    1    4    4    0    0 -0.11390331445E+02 -0.15044667616E+02  0.54106281837E+01  0.19630501056E+02  0.51100000000E-03 0. -1.
        -11    1    4    4    0    0 -0.15656913267E+01 -0.69268450927E+01  0.41073924714E+01  0.82038555231E+01  0.51100000000E-03 0.  1.
         12    1    4    4    0    0 -0.16151761732E+02  0.16960081948E+02  0.12468409791E+02  0.26532716209E+02  0.00000000000E+00 0. -1.
</event>
<event>
 8    1  0.1247338E-006  0.9118800E+02  0.7816164E-02  0.1184000E+00
        -11   -1    0    0    0    0  0.00000000000E+00  0.00000000000E+00  0.45593999997E+02  0.45594000000E+02  0.51100000000E-03 0.  1.
         11   -1    0    0    0    0 -0.00000000000E+00 -0.00000000000E+00 -0.45593999997E+02  0.45594000000E+02  0.51100000000E-03 0. -1.
         23    2    1    2    0    0  0.00000000000E+00 -0.17763568394E-14  0.00000000000E+00  0.91188000000E+02  0.91188000000E+02 0.  0.
    9900012    2    3    3    0    0  0.27561294946E+02  0.92324244950E+01 -0.22603471421E+02  0.54367087988E+02  0.40000008686E+02 0.  0.
        -12    1    3    3    0    0 -0.27561294946E+02 -0.92324244950E+01  0.22603471421E+02  0.36820912012E+02  0.00000000000E+00 0.  1.
         11    1    4    4    0    0  0.36210050902E+02  0.55586751686E+01 -0.97300494580E+01  0.37904360153E+02  0.51100000000E-03 0. -1.
        -11    1    4    4    0    0 -0.57308022728E+01  0.54467759837E+00 -0.56423022730E+01  0.80606664475E+01  0.51100000000E-03 0.  1.
         12    1    4    4    0    0 -0.29179536832E+01  0.31290717280E+01 -0.72311196900E+01  0.84020613868E+01  0.00000000000E+00 0. -1.
</event>
<event>
 8    1  0.1247338E-006  0.9118800E+02  0.7816164E-02  0.1184000E+00
        -11   -1    0    0    0    0  0.00000000000E+00  0.00000000000E+00  0.45593999997E+02  0.45594000000E+02  0.51100000000E-03 0. -1.
         11   -1    0    0    0    0 -0.00000000000E+00 -0.00000000000E+00 -0.45593999997E+02  0.45594000000E+02  0.51100000000E-03 0.  1.
         23    2    1    2    0    0  0.00000000000E+00 -0.17763568394E-14  0.00000000000E+00  0.91188000000E+02  0.91188000000E+02 0.  0.
    9900012    2    3    3    0    0  0.35879351262E+02  0.51985584105E+01 -0.64363670717E+01  0.54367086410E+02  0.40000005088E+02 0.  0.
         12    1    3    3    0    0 -0.35879351262E+02 -0.51985584105E+01  0.64363670717E+01  0.36820913590E+02  0.00000000000E+00 0. -1.
         11    1    4    4    0    0  0.22824179376E+02 -0.21393879912E+01  0.67563952241E+01  0.23899142701E+02  0.51100000000E-03 0. -1.
        -11    1    4    4    0    0  0.39618146475E+01 -0.17010989997E+01 -0.16641221394E+02  0.17190694077E+02  0.51100000000E-03 0.  1.
        -12    1    4    4    0    0  0.90933572391E+01  0.90390454014E+01  0.34484590978E+01  0.13277249632E+02  0.00000000000E+00 0.  1.
</event>
<event>
 8    1  0.1247338E-006  0.9118800E+02  0.7816164E-02  0.1184000E+00
        -11   -1    0    0    0    0  0.00000000000E+00  0.00000000000E+00  0.45593999997E+02  0.45594000000E+02  0.51100000000E-03 0. -1.
         11   -1    0    0    0    0 -0.00000000000E+00 -0.00000000000E+00 -0.45593999997E+02  0.45594000000E+02  0.51100000000E-03 0.  1.
         23    2    1    2    0    0  0.00000000000E+00 -0.17763568394E-14  0.00000000000E+00  0.91188000000E+02  0.91188000000E+02 0.  0.
    9900012    2    3    3    0    0 -0.60837232851E+01  0.14565125003E+02  0.33266038084E+02  0.54367029817E+02  0.39999876074E+02 0.  0.
        -12    1    3    3    0    0  0.60837232851E+01 -0.14565125003E+02 -0.33266038084E+02  0.36820970183E+02  0.00000000000E+00 0.  1.
         11    1    4    4    0    0  0.10053190906E+01  0.19406436409E+02  0.37794159468E+02  0.42497281451E+02  0.51100000000E-03 0. -1.
        -11    1    4    4    0    0 -0.42459151211E+00 -0.40115130533E+01 -0.28743317032E+01  0.49532108707E+01  0.51100000000E-03 0.  1.
         12    1    4    4    0    0 -0.66644508636E+01 -0.82979835276E+00 -0.16537896800E+01  0.69165374954E+01  0.00000000000E+00 0. -1.
</event>
<event>
 8    1  0.1247338E-006  0.9118800E+02  0.7816164E-02  0.1184000E+00
        -11   -1    0    0    0    0  0.00000000000E+00  0.00000000000E+00  0.45593999997E+02  0.45594000000E+02  0.51100000000E-03 0.  1.
         11   -1    0    0    0    0 -0.00000000000E+00 -0.00000000000E+00 -0.45593999997E+02  0.45594000000E+02  0.51100000000E-03 0. -1.
         23    2    1    2    0    0  0.35527136788E-14  0.00000000000E+00  0.44408920985E-15  0.91188000000E+02  0.91188000000E+02 0.  0.
    9900012    2    3    3    0    0  0.21384651208E+02  0.29750526920E+02  0.36582136789E+01  0.54367086288E+02  0.40000004810E+02 0.  0.
         12    1    3    3    0    0 -0.21384651208E+02 -0.29750526920E+02 -0.36582136789E+01  0.36820913712E+02  0.00000000000E+00 0. -1.
         11    1    4    4    0    0  0.59046334721E+01  0.54436541180E+01 -0.38215534886E+01  0.88939495121E+01  0.51100000000E-03 0. -1.
        -11    1    4    4    0    0  0.25867324259E+02  0.17675235265E+02  0.10015185709E+02  0.32891280775E+02  0.51100000000E-03 0.  1.
        -12    1    4    4    0    0 -0.10387306523E+02  0.66316375372E+01 -0.25354185413E+01  0.12581856000E+02  0.00000000000E+00 0.  1.
</event>
<event>
 8    1  0.1247338E-006  0.9118800E+02  0.7816164E-02  0.1184000E+00
        -11   -1    0    0    0    0  0.00000000000E+00  0.00000000000E+00  0.45593999997E+02  0.45594000000E+02  0.51100000000E-03 0.  1.
         11   -1    0    0    0    0 -0.00000000000E+00 -0.00000000000E+00 -0.45593999997E+02  0.45594000000E+02  0.51100000000E-03 0. -1.
         23    2    1    2    0    0 -0.35527136788E-14  0.00000000000E+00  0.00000000000E+00  0.91188000000E+02  0.91188000000E+02 0.  0.
    9900012    2    3    3    0    0 -0.23619924287E+02 -0.86539185260E+01 -0.26888452565E+02  0.54367081889E+02  0.39999994783E+02 0.  0.
        -12    1    3    3    0    0  0.23619924287E+02  0.86539185260E+01  0.26888452565E+02  0.36820918111E+02  0.00000000000E+00 0.  1.
         11    1    4    4    0    0 -0.95643594931E+00 -0.10052537443E+02 -0.11437912477E+02  0.15257592237E+02  0.51100000000E-03 0. -1.
        -11    1    4    4    0    0 -0.21298141559E+02 -0.96099466205E+01 -0.50539801891E+01  0.23906162886E+02  0.51100000000E-03 0.  1.
        -12    1    4    4    0    0 -0.13653467781E+01  0.11008565538E+02 -0.10396559899E+02  0.15203326767E+02  0.00000000000E+00 0.  1.
</event>
<event>
 8    1  0.1247338E-006  0.9118800E+02  0.7816164E-02  0.1184000E+00
        -11   -1    0    0    0    0  0.00000000000E+00  0.00000000000E+00  0.45593999997E+02  0.45594000000E+02  0.51100000000E-03 0.  1.
         11   -1    0    0    0    0 -0.00000000000E+00 -0.00000000000E+00 -0.45593999997E+02  0.45594000000E+02  0.51100000000E-03 0. -1.
         23    2    1    2    0    0  0.17763568394E-14  0.00000000000E+00  0.00000000000E+00  0.91188000000E+02  0.91188000000E+02 0.  0.
    9900012    2    3    3    0    0 -0.12898918178E+02  0.14630763794E+02  0.31230397074E+02  0.54367095058E+02  0.40000024804E+02 0.  0.
         12    1    3    3    0    0  0.12898918178E+02 -0.14630763794E+02 -0.31230397074E+02  0.36820904942E+02  0.00000000000E+00 0. -1.
         11    1    4    4    0    0 -0.10433238245E+02  0.16450567889E+02  0.12899610463E+02  0.23363937907E+02  0.51100000000E-03 0. -1.
        -11    1    4    4    0    0 -0.98828150888E+01  0.77997126596E+01  0.70683475661E+01  0.14438389426E+02  0.51100000000E-03 0.  1.
         12    1    4    4    0    0  0.74171351567E+01 -0.96195167548E+01  0.11262439045E+02  0.16564767725E+02  0.00000000000E+00 0. -1.
</event>
<event>
 8    1  0.1247338E-006  0.9118800E+02  0.7816164E-02  0.1184000E+00
        -11   -1    0    0    0    0  0.00000000000E+00  0.00000000000E+00  0.45593999997E+02  0.45594000000E+02  0.51100000000E-03 0.  1.
         11   -1    0    0    0    0 -0.00000000000E+00 -0.00000000000E+00 -0.45593999997E+02  0.45594000000E+02  0.51100000000E-03 0. -1.
         23    2    1    2    0    0  0.00000000000E+00 -0.35527136788E-14  0.00000000000E+00  0.91188000000E+02  0.91188000000E+02 0.  0.
    9900012    2    3    3    0    0  0.53221036882E+01  0.18795001306E+02 -0.31212224765E+02  0.54367084252E+02  0.40000000168E+02 0.  0.
        -12    1    3    3    0    0 -0.53221036882E+01 -0.18795001306E+02  0.31212224765E+02  0.36820915748E+02  0.00000000000E+00 0.  1.
         11    1    4    4    0    0 -0.50571792847E+01 -0.57265207591E+01 -0.11882073836E+02  0.14126279808E+02  0.51100000000E-03 0. -1.
        -11    1    4    4    0    0  0.28061670147E+01  0.23939772105E+02 -0.59057455995E+01  0.24816629367E+02  0.51100000000E-03 0.  1.
        -12    1    4    4    0    0  0.75731159582E+01  0.58174995987E+00 -0.13424405330E+02  0.15424175077E+02  0.00000000000E+00 0.  1.
</event>
<event>
 8    1  0.1247338E-006  0.9118800E+02  0.7816164E-02  0.1184000E+00
        -11   -1    0    0    0    0  0.00000000000E+00  0.00000000000E+00  0.45593999997E+02  0.45594000000E+02  0.51100000000E-03 0.  1.
         11   -1    0    0    0    0 -0.00000000000E+00 -0.00000000000E+00 -0.45593999997E+02  0.45594000000E+02  0.51100000000E-03 0. -1.
         23    2    1    2    0    0  0.00000000000E+00  0.00000000000E+00  0.35527136788E-14  0.91188000000E+02  0.91188000000E+02 0.  0.
    9900012    2    3    3    0    0  0.26575013900E+02 -0.87311794536E+01  0.23944163865E+02  0.54366975549E+02  0.39999752358E+02 0.  0.
         12    1    3    3    0    0 -0.26575013900E+02  0.87311794536E+01 -0.23944163865E+02  0.36821024451E+02  0.00000000000E+00 0. -1.
         11    1    4    4    0    0  0.51659507498E+01 -0.88120386856E+01 -0.35032634644E+01  0.10798700297E+02  0.51100000000E-03 0. -1.
        -11    1    4    4    0    0  0.10941349757E+02 -0.10893315057E+02  0.45357957081E+01  0.16091951106E+02  0.51100000000E-03 0.  1.
         12    1    4    4    0    0  0.10467713393E+02  0.10974174289E+02  0.22911631621E+02  0.27476324146E+02  0.00000000000E+00 0. -1.
</event>
<event>
 8    1  0.1247338E-006  0.9118800E+02  0.7816164E-02  0.1184000E+00
        -11   -1    0    0    0    0  0.00000000000E+00  0.00000000000E+00  0.45593999997E+02  0.45594000000E+02  0.51100000000E-03 0. -1.
         11   -1    0    0    0    0 -0.00000000000E+00 -0.00000000000E+00 -0.45593999997E+02  0.45594000000E+02  0.51100000000E-03 0.  1.
         23    2    1    2    0    0  0.00000000000E+00  0.00000000000E+00  0.00000000000E+00  0.91188000000E+02  0.91188000000E+02 0.  0.
    9900012    2    3    3    0    0 -0.87376911440E+01 -0.27975721587E+02 -0.22288834556E+02  0.54367076727E+02  0.39999983015E+02 0.  0.
        -12    1    3    3    0    0  0.87376911440E+01  0.27975721587E+02  0.22288834556E+02  0.36820923273E+02  0.00000000000E+00 0.  1.
         11    1    4    4    0    0  0.84239144595E+01 -0.58402953741E+01  0.14684762892E+01  0.10355086081E+02  0.51100000000E-03 0. -1.
        -11    1    4    4    0    0 -0.99877252712E+01 -0.26290270496E+02 -0.14700581125E+02  0.31733894570E+02  0.51100000000E-03 0.  1.
        -12    1    4    4    0    0 -0.71738803323E+01  0.41548442840E+01 -0.90567297194E+01  0.12278096076E+02  0.00000000000E+00 0.  1.
</event>
<event>
 8    1  0.1247338E-006  0.9118800E+02  0.7816164E-02  0.1184000E+00
        -11   -1    0    0    0    0  0.00000000000E+00  0.00000000000E+00  0.45593999997E+02  0.45594000000E+02  0.51100000000E-03 0. -1.
         11   -1    0    0    0    0 -0.00000000000E+00 -0.00000000000E+00 -0.45593999997E+02  0.45594000000E+02  0.51100000000E-03 0.  1.
         23    2    1    2    0    0  0.35527136788E-14 -0.35527136788E-14  0.00000000000E+00  0.91188000000E+02  0.91188000000E+02 0.  0.
    9900012    2    3    3    0    0 -0.19934679443E+02  0.30735423192E+02  0.37044391699E+01  0.54367074524E+02  0.39999977993E+02 0.  0.
        -12    1    3    3    0    0  0.19934679443E+02 -0.30735423192E+02 -0.37044391699E+01  0.36820925476E+02  0.00000000000E+00 0.  1.
         11    1    4    4    0    0 -0.29506571103E+02  0.29167105252E+02 -0.18552651855E+01  0.41530708834E+02  0.51100000000E-03 0. -1.
        -11    1    4    4    0    0  0.46152841527E+00  0.21911720046E+01  0.20034995814E+00  0.22481956317E+01  0.51100000000E-03 0.  1.
         12    1    4    4    0    0  0.91103632447E+01 -0.62285406488E+00  0.53593543972E+01  0.10588170059E+02  0.00000000000E+00 0. -1.
</event>
<event>
 8    1  0.1247338E-006  0.9118800E+02  0.7816164E-02  0.1184000E+00
        -11   -1    0    0    0    0  0.00000000000E+00  0.00000000000E+00  0.45593999997E+02  0.45594000000E+02  0.51100000000E-03 0.  1.
         11   -1    0    0    0    0 -0.00000000000E+00 -0.00000000000E+00 -0.45593999997E+02  0.45594000000E+02  0.51100000000E-03 0. -1.
         23    2    1    2    0    0  0.71054273576E-14 -0.17763568394E-14  0.88817841970E-15  0.91188000000E+02  0.91188000000E+02 0.  0.
    9900012    2    3    3    0    0 -0.34516702128E+02  0.11907389151E+02 -0.47529380208E+01  0.54367094769E+02  0.40000024145E+02 0.  0.
        -12    1    3    3    0    0  0.34516702128E+02 -0.11907389151E+02  0.47529380208E+01  0.36820905231E+02  0.00000000000E+00 0.  1.
         11    1    4    4    0    0 -0.22762604462E+02  0.26549747124E+01  0.81328839462E+01  0.24317254248E+02  0.51100000000E-03 0. -1.
        -11    1    4    4    0    0  0.35057962626E+01  0.11221554270E+02 -0.58350847672E+01  0.13124865796E+02  0.51100000000E-03 0.  1.
         12    1    4    4    0    0 -0.15259893929E+02 -0.19691398310E+01 -0.70507371997E+01  0.16924974725E+02  0.00000000000E+00 0. -1.
</event>
<event>
 8    1  0.1247338E-006  0.9118800E+02  0.7816164E-02  0.1184000E+00
        -11   -1    0    0    0    0  0.00000000000E+00  0.00000000000E+00  0.45593999997E+02  0.45594000000E+02  0.51100000000E-03 0. -1.
         11   -1    0    0    0    0 -0.00000000000E+00 -0.00000000000E+00 -0.45593999997E+02  0.45594000000E+02  0.51100000000E-03 0.  1.
         23    2    1    2    0    0  0.00000000000E+00  0.00000000000E+00  0.35527136788E-14  0.91188000000E+02  0.91188000000E+02 0.  0.
    9900012    2    3    3    0    0  0.24057474869E+02  0.21924603657E+02  0.17213858953E+02  0.54367254725E+02  0.40000388794E+02 0.  0.
        -12    1    3    3    0    0 -0.24057474869E+02 -0.21924603657E+02 -0.17213858953E+02  0.36820745275E+02  0.00000000000E+00 0.  1.
         11    1    4    4    0    0 -0.47735567038E+01  0.16794878049E+02 -0.71489177389E+00  0.17474720107E+02  0.51100000000E-03 0.  1.
        -11    1    4    4    0    0  0.29783192590E+01  0.56208110760E+01  0.29740073877E+01  0.70220098949E+01  0.51100000000E-03 0. -1.
        -12    1    4    4    0    0  0.25852712313E+02 -0.49108546817E+00  0.14954743339E+02  0.29870524723E+02  0.00000000000E+00 0.  1.
</event>
<event>
 8    1  0.1247338E-006  0.9118800E+02  0.7816164E-02  0.1184000E+00
        -11   -1    0    0    0    0  0.00000000000E+00  0.00000000000E+00  0.45593999997E+02  0.45594000000E+02  0.51100000000E-03 0.  1.
         11   -1    0    0    0    0 -0.00000000000E+00 -0.00000000000E+00 -0.45593999997E+02  0.45594000000E+02  0.51100000000E-03 0. -1.
         23    2    1    2    0    0  0.17763568394E-14  0.00000000000E+00  0.00000000000E+00  0.91188000000E+02  0.91188000000E+02 0.  0.
    9900012    2    3    3    0    0  0.11023966294E+02 -0.34936110678E+02 -0.37039560651E+01  0.54367096254E+02  0.40000027530E+02 0.  0.
         12    1    3    3    0    0 -0.11023966294E+02  0.34936110678E+02  0.37039560651E+01  0.36820903746E+02  0.00000000000E+00 0. -1.
         11    1    4    4    0    0  0.40504777517E+01 -0.19379579158E+01 -0.16107741867E+02  0.16721883842E+02  0.51100000000E-03 0. -1.
        -11    1    4    4    0    0  0.85008269568E+01 -0.32727018168E+02  0.11011647239E+02  0.35560907641E+02  0.51100000000E-03 0.  1.
        -12    1    4    4    0    0 -0.15273384141E+01 -0.27113459382E+00  0.13921385631E+01  0.20843047709E+01  0.00000000000E+00 0.  1.
</event>
<event>
 8    1  0.1247338E-006  0.9118800E+02  0.7816164E-02  0.1184000E+00
        -11   -1    0    0    0    0  0.00000000000E+00  0.00000000000E+00  0.45593999997E+02  0.45594000000E+02  0.51100000000E-03 0.  1.
         11   -1    0    0    0    0 -0.00000000000E+00 -0.00000000000E+00 -0.45593999997E+02  0.45594000000E+02  0.51100000000E-03 0. -1.
         23    2    1    2    0    0  0.00000000000E+00 -0.88817841970E-15 -0.88817841970E-15  0.91188000000E+02  0.91188000000E+02 0.  0.
    9900012    2    3    3    0    0 -0.35835713155E+02 -0.72594506899E+01  0.43453252910E+01  0.54367084564E+02  0.40000000881E+02 0.  0.
         12    1    3    3    0    0  0.35835713155E+02  0.72594506899E+01 -0.43453252910E+01  0.36820915436E+02  0.00000000000E+00 0. -1.
         11    1    4    4    0    0 -0.17837220247E+01 -0.11066849115E+02 -0.46933812588E+01  0.12152556994E+02  0.51100000000E-03 0. -1.
        -11    1    4    4    0    0 -0.10752110577E+02  0.42468946829E+01  0.14235283338E+02  0.18338137536E+02  0.51100000000E-03 0.  1.
        -12    1    4    4    0    0 -0.23299880553E+02 -0.43949625794E+00 -0.51965767884E+01  0.23876390034E+02  0.00000000000E+00 0.  1.
</event>
<event>
 8    1  0.1247338E-006  0.9118800E+02  0.7816164E-02  0.1184000E+00
        -11   -1    0    0    0    0  0.00000000000E+00  0.00000000000E+00  0.45593999997E+02  0.45594000000E+02  0.51100000000E-03 0. -1.
         11   -1    0    0    0    0 -0.00000000000E+00 -0.00000000000E+00 -0.45593999997E+02  0.45594000000E+02  0.51100000000E-03 0.  1.
         23    2    1    2    0    0  0.00000000000E+00  0.35527136788E-14  0.00000000000E+00  0.91188000000E+02  0.91188000000E+02 0.  0.
    9900012    2    3    3    0    0 -0.28443388465E+02  0.18251624725E+02 -0.14616154451E+02  0.54367080357E+02  0.39999991289E+02 0.  0.
         12    1    3    3    0    0  0.28443388465E+02 -0.18251624725E+02  0.14616154451E+02  0.36820919643E+02  0.00000000000E+00 0. -1.
         11    1    4    4    0    0 -0.17313526729E+01 -0.30012867153E+01 -0.12819727384E+02  0.13279710633E+02  0.51100000000E-03 0. -1.
        -11    1    4    4    0    0 -0.29177476675E+02  0.14812949819E+02  0.27343526729E+01  0.32836341335E+02  0.51100000000E-03 0.  1.
        -12    1    4    4    0    0  0.24654408830E+01  0.64399616211E+01 -0.45307797397E+01  0.82510283891E+01  0.00000000000E+00 0.  1.
</event>
<event>
 8    1  0.1247338E-006  0.9118800E+02  0.7816164E-02  0.1184000E+00
        -11   -1    0    0    0    0  0.00000000000E+00  0.00000000000E+00  0.45593999997E+02  0.45594000000E+02  0.51100000000E-03 0. -1.
         11   -1    0    0    0    0 -0.00000000000E+00 -0.00000000000E+00 -0.45593999997E+02  0.45594000000E+02  0.51100000000E-03 0.  1.
         23    2    1    2    0    0  0.35527136788E-14  0.00000000000E+00  0.00000000000E+00  0.91188000000E+02  0.91188000000E+02 0.  0.
    9900012    2    3    3    0    0  0.81010600776E+01 -0.25482800548E+02 -0.25313563370E+02  0.54367125640E+02  0.40000094521E+02 0.  0.
        -12    1    3    3    0    0 -0.81010600776E+01  0.25482800548E+02  0.25313563370E+02  0.36820874360E+02  0.00000000000E+00 0.  1.
         11    1    4    4    0    0 -0.73500323443E+01 -0.50299226711E+01  0.10531186112E+01  0.89683976612E+01  0.51100000000E-03 0. -1.
        -11    1    4    4    0    0 -0.58501739777E+01 -0.13126817637E+02 -0.11540353452E+02  0.18431430625E+02  0.51100000000E-03 0.  1.
         12    1    4    4    0    0  0.21301266400E+02 -0.73260602399E+01 -0.14826328530E+02  0.26967297353E+02  0.00000000000E+00 0. -1.
</event>
<event>
 8    1  0.1247338E-006  0.9118800E+02  0.7816164E-02  0.1184000E+00
        -11   -1    0    0    0    0  0.00000000000E+00  0.00000000000E+00  0.45593999997E+02  0.45594000000E+02  0.51100000000E-03 0. -1.
         11   -1    0    0    0    0 -0.00000000000E+00 -0.00000000000E+00 -0.45593999997E+02  0.45594000000E+02  0.51100000000E-03 0.  1.
         23    2    1    2    0    0  0.44408920985E-15  0.00000000000E+00  0.17763568394E-14  0.91188000000E+02  0.91188000000E+02 0.  0.
    9900012    2    3    3    0    0  0.23129180696E+01 -0.33442228253E+02  0.15233108283E+02  0.54367084633E+02  0.40000001037E+02 0.  0.
        -12    1    3    3    0    0 -0.23129180696E+01  0.33442228253E+02 -0.15233108283E+02  0.36820915367E+02  0.00000000000E+00 0.  1.
         11    1    4    4    0    0 -0.14722849585E+01 -0.11600621967E+02  0.44297463270E+01  0.12504587390E+02  0.51100000000E-03 0. -1.
        -11    1    4    4    0    0  0.16562195362E+02 -0.17978988872E+02 -0.38143466839E+00  0.24447818896E+02  0.51100000000E-03 0.  1.
        -12    1    4    4    0    0 -0.12776992334E+02 -0.38626174141E+01  0.11184796624E+02  0.17414678347E+02  0.00000000000E+00 0.  1.
</event>
<event>
 8    1  0.1247338E-006  0.9118800E+02  0.7816164E-02  0.1184000E+00
        -11   -1    0    0    0    0  0.00000000000E+00  0.00000000000E+00  0.45593999997E+02  0.45594000000E+02  0.51100000000E-03 0. -1.
         11   -1    0    0    0    0 -0.00000000000E+00 -0.00000000000E+00 -0.45593999997E+02  0.45594000000E+02  0.51100000000E-03 0.  1.
         23    2    1    2    0    0  0.35527136788E-14 -0.35527136788E-14  0.00000000000E+00  0.91188000000E+02  0.91188000000E+02 0.  0.
    9900012    2    3    3    0    0 -0.28647939720E+02  0.21565898791E+02 -0.83658552448E+01  0.54367082374E+02  0.39999995887E+02 0.  0.
        -12    1    3    3    0    0  0.28647939720E+02 -0.21565898791E+02  0.83658552448E+01  0.36820917626E+02  0.00000000000E+00 0.  1.
         11    1    4    4    0    0 -0.14716398605E+02  0.11011605595E+02  0.19605015236E+01  0.18484355877E+02  0.51100000000E-03 0. -1.
        -11    1    4    4    0    0 -0.74446970916E+01 -0.83217605906E+01  0.33846468539E+01  0.11667521103E+02  0.51100000000E-03 0.  1.
        -12    1    4    4    0    0 -0.64868440233E+01  0.18876053786E+02 -0.13711003622E+02  0.24215205394E+02  0.00000000000E+00 0.  1.
</event>
<event>
 8    1  0.1247338E-006  0.9118800E+02  0.7816164E-02  0.1184000E+00
        -11   -1    0    0    0    0  0.00000000000E+00  0.00000000000E+00  0.45593999997E+02  0.45594000000E+02  0.51100000000E-03 0.  1.
         11   -1    0    0    0    0 -0.00000000000E+00 -0.00000000000E+00 -0.45593999997E+02  0.45594000000E+02  0.51100000000E-03 0. -1.
         23    2    1    2    0    0  0.00000000000E+00  0.00000000000E+00  0.00000000000E+00  0.91188000000E+02  0.91188000000E+02 0.  0.
    9900012    2    3    3    0    0  0.78228660416E+01 -0.33029159631E+02  0.14270596814E+02  0.54367183164E+02  0.40000225659E+02 0.  0.
         12    1    3    3    0    0 -0.78228660416E+01  0.33029159631E+02 -0.14270596814E+02  0.36820816836E+02  0.00000000000E+00 0. -1.
         11    1    4    4    0    0  0.48827005925E+01 -0.25422678281E+01  0.11204848356E+02  0.12484090585E+02  0.51100000000E-03 0. -1.
        -11    1    4    4    0    0  0.14122322320E+02 -0.23096462274E+02  0.69084188875E+01  0.27939448976E+02  0.51100000000E-03 0.  1.
         12    1    4    4    0    0 -0.11182156871E+02 -0.73904295291E+01 -0.38426704299E+01  0.13943643603E+02  0.00000000000E+00 0. -1.
</event>
<event>
 8    1  0.1247338E-006  0.9118800E+02  0.7816164E-02  0.1184000E+00
        -11   -1    0    0    0    0  0.00000000000E+00  0.00000000000E+00  0.45593999997E+02  0.45594000000E+02  0.51100000000E-03 0.  1.
         11   -1    0    0    0    0 -0.00000000000E+00 -0.00000000000E+00 -0.45593999997E+02  0.45594000000E+02  0.51100000000E-03 0. -1.
         23    2    1    2    0    0  0.00000000000E+00  0.17763568394E-14  0.00000000000E+00  0.91188000000E+02  0.91188000000E+02 0.  0.
    9900012    2    3    3    0    0 -0.28542751519E+02  0.73810953447E+01  0.22059271742E+02  0.54367072492E+02  0.39999973360E+02 0.  0.
         12    1    3    3    0    0  0.28542751519E+02 -0.73810953447E+01 -0.22059271742E+02  0.36820927508E+02  0.00000000000E+00 0. -1.
         11    1    4    4    0    0 -0.17614259933E+01 -0.15146539719E+00  0.95609010763E+01  0.97229827187E+01  0.51100000000E-03 0. -1.
        -11    1    4    4    0    0 -0.22661270719E+02 -0.95651074245E+01  0.11146967065E+02  0.27005172572E+02  0.51100000000E-03 0.  1.
         12    1    4    4    0    0 -0.41200548064E+01  0.17097668166E+02  0.13514036006E+01  0.17638917201E+02  0.00000000000E+00 0. -1.
</event>
<event>
 8    1  0.1247338E-006  0.9118800E+02  0.7816164E-02  0.1184000E+00
        -11   -1    0    0    0    0  0.00000000000E+00  0.00000000000E+00  0.45593999997E+02  0.45594000000E+02  0.51100000000E-03 0.  1.
         11   -1    0    0    0    0 -0.00000000000E+00 -0.00000000000E+00 -0.45593999997E+02  0.45594000000E+02  0.51100000000E-03 0. -1.
         23    2    1    2    0    0  0.00000000000E+00  0.00000000000E+00  0.00000000000E+00  0.91188000000E+02  0.91188000000E+02 0.  0.
    9900012    2    3    3    0    0 -0.53859604014E+01  0.83079411984E+01  0.35464728545E+02  0.54367116969E+02  0.40000074755E+02 0.  0.
         12    1    3    3    0    0  0.53859604014E+01 -0.83079411984E+01 -0.35464728545E+02  0.36820883031E+02  0.00000000000E+00 0. -1.
         11    1    4    4    0    0 -0.29820476438E+01 -0.47043618876E+01  0.23802637488E+02  0.24445637250E+02  0.51100000000E-03 0.  1.
        -11    1    4    4    0    0 -0.11327427156E+02  0.44931266222E+01 -0.10198696163E+01  0.12228611005E+02  0.51100000000E-03 0. -1.
         12    1    4    4    0    0  0.89235143980E+01  0.85191764638E+01  0.12681960673E+02  0.17692868714E+02  0.00000000000E+00 0. -1.
</event>
<event>
 8    1  0.1247338E-006  0.9118800E+02  0.7816164E-02  0.1184000E+00
        -11   -1    0    0    0    0  0.00000000000E+00  0.00000000000E+00  0.45593999997E+02  0.45594000000E+02  0.51100000000E-03 0.  1.
         11   -1    0    0    0    0 -0.00000000000E+00 -0.00000000000E+00 -0.45593999997E+02  0.45594000000E+02  0.51100000000E-03 0. -1.
         23    2    1    2    0    0  0.00000000000E+00 -0.35527136788E-14  0.35527136788E-14  0.91188000000E+02  0.91188000000E+02 0.  0.
    9900012    2    3    3    0    0 -0.10007485218E+02  0.28085107895E+02 -0.21606874213E+02  0.54367081229E+02  0.39999993279E+02 0.  0.
        -12    1    3    3    0    0  0.10007485218E+02 -0.28085107895E+02  0.21606874213E+02  0.36820918771E+02  0.00000000000E+00 0.  1.
         11    1    4    4    0    0 -0.66739975025E+00  0.53022002299E+01  0.80286317922E+01  0.96445673009E+01  0.51100000000E-03 0. -1.
        -11    1    4    4    0    0  0.46440661015E+01  0.85421981646E+01 -0.93981801959E+00  0.97683037222E+01  0.51100000000E-03 0.  1.
         12    1    4    4    0    0 -0.13984151569E+02  0.14240709500E+02 -0.28695687986E+02  0.34954210206E+02  0.00000000000E+00 0. -1.
</event>
<event>
 8    1  0.1247338E-006  0.9118800E+02  0.7816164E-02  0.1184000E+00
        -11   -1    0    0    0    0  0.00000000000E+00  0.00000000000E+00  0.45593999997E+02  0.45594000000E+02  0.51100000000E-03 0.  1.
         11   -1    0    0    0    0 -0.00000000000E+00 -0.00000000000E+00 -0.45593999997E+02  0.45594000000E+02  0.51100000000E-03 0. -1.
         23    2    1    2    0    0 -0.35527136788E-14 -0.35527136788E-14  0.00000000000E+00  0.91188000000E+02  0.91188000000E+02 0.  0.
    9900012    2    3    3    0    0  0.25935540152E+02  0.17111884406E+02 -0.19756277767E+02  0.54367090966E+02  0.40000015474E+02 0.  0.
        -12    1    3    3    0    0 -0.25935540152E+02 -0.17111884406E+02  0.19756277767E+02  0.36820909034E+02  0.00000000000E+00 0.  1.
         11    1    4    4    0    0  0.98029551654E+01 -0.13724983597E+00 -0.78323554287E+00  0.98351525493E+01  0.51100000000E-03 0. -1.
        -11    1    4    4    0    0  0.10163053070E+02 -0.37858114239E+01 -0.19881842553E+02  0.22647465187E+02  0.51100000000E-03 0.  1.
        -12    1    4    4    0    0  0.59695319168E+01  0.21034945666E+02  0.90880032867E+00  0.21884473229E+02  0.00000000000E+00 0.  1.
</event>
<event>
 8    1  0.1247338E-006  0.9118800E+02  0.7816164E-02  0.1184000E+00
        -11   -1    0    0    0    0  0.00000000000E+00  0.00000000000E+00  0.45593999997E+02  0.45594000000E+02  0.51100000000E-03 0. -1.
         11   -1    0    0    0    0 -0.00000000000E+00 -0.00000000000E+00 -0.45593999997E+02  0.45594000000E+02  0.51100000000E-03 0.  1.
         23    2    1    2    0    0  0.00000000000E+00  0.00000000000E+00  0.71054273576E-14  0.91188000000E+02  0.91188000000E+02 0.  0.
    9900012    2    3    3    0    0 -0.34690958532E+01 -0.22751318756E+02  0.28742366689E+02  0.54367071521E+02  0.39999971146E+02 0.  0.
        -12    1    3    3    0    0  0.34690958532E+01  0.22751318756E+02 -0.28742366689E+02  0.36820928479E+02  0.00000000000E+00 0.  1.
         11    1    4    4    0    0 -0.42864724244E+01 -0.20187236960E+02  0.35922270298E+02  0.41428346401E+02  0.51100000000E-03 0. -1.
        -11    1    4    4    0    0 -0.28758309842E+01 -0.44678451356E+01 -0.69888881154E+01  0.87793280698E+01  0.51100000000E-03 0.  1.
        -12    1    4    4    0    0  0.36932075554E+01  0.19037633390E+01 -0.19101549378E+00  0.41593970497E+01  0.00000000000E+00 0.  1.
</event>
<event>
 8    1  0.1247338E-006  0.9118800E+02  0.7816164E-02  0.1184000E+00
        -11   -1    0    0    0    0  0.00000000000E+00  0.00000000000E+00  0.45593999997E+02  0.45594000000E+02  0.51100000000E-03 0. -1.
         11   -1    0    0    0    0 -0.00000000000E+00 -0.00000000000E+00 -0.45593999997E+02  0.45594000000E+02  0.51100000000E-03 0.  1.
         23    2    1    2    0    0 -0.35527136788E-14  0.35527136788E-14  0.00000000000E+00  0.91188000000E+02  0.91188000000E+02 0.  0.
    9900012    2    3    3    0    0  0.15991497078E+02 -0.19228962486E+02 -0.27024062140E+02  0.54367069653E+02  0.39999966888E+02 0.  0.
        -12    1    3    3    0    0 -0.15991497078E+02  0.19228962486E+02  0.27024062140E+02  0.36820930347E+02  0.00000000000E+00 0.  1.
         11    1    4    4    0    0  0.45944693635E+01 -0.13897909738E+01  0.93653964696E+01  0.10523845256E+02  0.51100000000E-03 0. -1.
        -11    1    4    4    0    0  0.11999580280E+02 -0.11990220301E+02 -0.18921389920E+02  0.25412089771E+02  0.51100000000E-03 0.  1.
         12    1    4    4    0    0 -0.60255256571E+00 -0.58489512108E+01 -0.17468068690E+02  0.18431134626E+02  0.00000000000E+00 0. -1.
</event>
<event>
 8    1  0.1247338E-006  0.9118800E+02  0.7816164E-02  0.1184000E+00
        -11   -1    0    0    0    0  0.00000000000E+00  0.00000000000E+00  0.45593999997E+02  0.45594000000E+02  0.51100000000E-03 0.  1.
         11   -1    0    0    0    0 -0.00000000000E+00 -0.00000000000E+00 -0.45593999997E+02  0.45594000000E+02  0.51100000000E-03 0. -1.
         23    2    1    2    0    0  0.00000000000E+00  0.35527136788E-14  0.35527136788E-14  0.91188000000E+02  0.91188000000E+02 0.  0.
    9900012    2    3    3    0    0 -0.25716536067E+02  0.21063731657E+02 -0.15835349450E+02  0.54367091391E+02  0.40000016443E+02 0.  0.
        -12    1    3    3    0    0  0.25716536067E+02 -0.21063731657E+02  0.15835349450E+02  0.36820908609E+02  0.00000000000E+00 0.  1.
         11    1    4    4    0    0 -0.15338342375E+02  0.15850967400E+01  0.21643639243E+00  0.15421547376E+02  0.51100000000E-03 0. -1.
        -11    1    4    4    0    0 -0.62657063588E+01 -0.57866857753E+01 -0.89886044170E+01  0.12391118515E+02  0.51100000000E-03 0.  1.
         12    1    4    4    0    0 -0.41124873334E+01  0.25265320692E+02 -0.70631814250E+01  0.26554425499E+02  0.00000000000E+00 0. -1.
</event>
<event>
 8    1  0.1247338E-006  0.9118800E+02  0.7816164E-02  0.1184000E+00
        -11   -1    0    0    0    0  0.00000000000E+00  0.00000000000E+00  0.45593999997E+02  0.45594000000E+02  0.51100000000E-03 0. -1.
         11   -1    0    0    0    0 -0.00000000000E+00 -0.00000000000E+00 -0.45593999997E+02  0.45594000000E+02  0.51100000000E-03 0.  1.
         23    2    1    2    0    0  0.11102230246E-14 -0.35527136788E-14  0.00000000000E+00  0.91188000000E+02  0.91188000000E+02 0.  0.
    9900012    2    3    3    0    0  0.18653742055E+01 -0.18105525509E+02  0.32007661294E+02  0.54367081266E+02  0.39999993363E+02 0.  0.
        -12    1    3    3    0    0 -0.18653742055E+01  0.18105525509E+02 -0.32007661294E+02  0.36820918734E+02  0.00000000000E+00 0.  1.
         11    1    4    4    0    0  0.44601238308E+01  0.70153210731E+01  0.68075022610E+01  0.10744743908E+02  0.51100000000E-03 0.  1.
        -11    1    4    4    0    0  0.10569343536E+02 -0.16651242668E+02  0.11565270804E+02  0.22863297973E+02  0.51100000000E-03 0. -1.
         12    1    4    4    0    0 -0.13164093161E+02 -0.84696039142E+01  0.13634888229E+02  0.20759039386E+02  0.00000000000E+00 0. -1.
</event>
<event>
 8    1  0.1247338E-006  0.9118800E+02  0.7816164E-02  0.1184000E+00
        -11   -1    0    0    0    0  0.00000000000E+00  0.00000000000E+00  0.45593999997E+02  0.45594000000E+02  0.51100000000E-03 0. -1.
         11   -1    0    0    0    0 -0.00000000000E+00 -0.00000000000E+00 -0.45593999997E+02  0.45594000000E+02  0.51100000000E-03 0.  1.
         23    2    1    2    0    0  0.00000000000E+00  0.00000000000E+00 -0.71054273576E-14  0.91188000000E+02  0.91188000000E+02 0.  0.
    9900012    2    3    3    0    0  0.14615485109E+01  0.86683942381E+01 -0.35756188346E+02  0.54367052324E+02  0.39999927384E+02 0.  0.
         12    1    3    3    0    0 -0.14615485109E+01 -0.86683942381E+01  0.35756188346E+02  0.36820947676E+02  0.00000000000E+00 0. -1.
         11    1    4    4    0    0  0.10309730579E+02 -0.94564036865E+01 -0.13172671202E+02  0.19215446447E+02  0.51100000000E-03 0. -1.
        -11    1    4    4    0    0 -0.71643760270E+01 -0.95145207492E+00 -0.95934624809E+01  0.12011164287E+02  0.51100000000E-03 0.  1.
        -12    1    4    4    0    0 -0.16838060415E+01  0.19076249999E+02 -0.12990054663E+02  0.23140441590E+02  0.00000000000E+00 0.  1.
</event>
<event>
 8    1  0.1247338E-006  0.9118800E+02  0.7816164E-02  0.1184000E+00
        -11   -1    0    0    0    0  0.00000000000E+00  0.00000000000E+00  0.45593999997E+02  0.45594000000E+02  0.51100000000E-03 0.  1.
         11   -1    0    0    0    0 -0.00000000000E+00 -0.00000000000E+00 -0.45593999997E+02  0.45594000000E+02  0.51100000000E-03 0. -1.
         23    2    1    2    0    0  0.88817841970E-15  0.00000000000E+00  0.00000000000E+00  0.91188000000E+02  0.91188000000E+02 0.  0.
    9900012    2    3    3    0    0  0.58737975649E+01  0.48189104383E+01  0.36028542131E+02  0.54367092301E+02  0.40000018519E+02 0.  0.
         12    1    3    3    0    0 -0.58737975649E+01 -0.48189104383E+01 -0.36028542131E+02  0.36820907699E+02  0.00000000000E+00 0. -1.
         11    1    4    4    0    0 -0.29893172999E+01  0.12465853274E+02 -0.86474739908E+00  0.12848396946E+02  0.51100000000E-03 0. -1.
        -11    1    4    4    0    0  0.33346964744E+01  0.45483103740E+01  0.10200260466E+02  0.11655584141E+02  0.51100000000E-03 0.  1.
        -12    1    4    4    0    0  0.55284183905E+01 -0.12195253209E+02  0.26693029064E+02  0.29863111214E+02  0.00000000000E+00 0.  1.
</event>
<event>
 8    1  0.1247338E-006  0.9118800E+02  0.7816164E-02  0.1184000E+00
        -11   -1    0    0    0    0  0.00000000000E+00  0.00000000000E+00  0.45593999997E+02  0.45594000000E+02  0.51100000000E-03 0.  1.
         11   -1    0    0    0    0 -0.00000000000E+00 -0.00000000000E+00 -0.45593999997E+02  0.45594000000E+02  0.51100000000E-03 0. -1.
         23    2    1    2    0    0 -0.16653345369E-14 -0.35527136788E-14  0.35527136788E-14  0.91188000000E+02  0.91188000000E+02 0.  0.
    9900012    2    3    3    0    0 -0.90954069353E+00  0.28679081064E+02 -0.23075269120E+02  0.54367014137E+02  0.39999840329E+02 0.  0.
         12    1    3    3    0    0  0.90954069353E+00 -0.28679081064E+02  0.23075269120E+02  0.36820985863E+02  0.00000000000E+00 0. -1.
         11    1    4    4    0    0 -0.10448375816E+02 -0.12043765697E+01 -0.11171775014E+02  0.15343651369E+02  0.51100000000E-03 0. -1.
        -11    1    4    4    0    0  0.20875854538E+01  0.24731116275E+02 -0.98857056687E+00  0.24838747901E+02  0.51100000000E-03 0.  1.
         12    1    4    4    0    0  0.74512496684E+01  0.51523413585E+01 -0.10914923538E+02  0.14184614868E+02  0.00000000000E+00 0. -1.
</event>
<event>
 8    1  0.1247338E-006  0.9118800E+02  0.7816164E-02  0.1184000E+00
        -11   -1    0    0    0    0  0.00000000000E+00  0.00000000000E+00  0.45593999997E+02  0.45594000000E+02  0.51100000000E-03 0. -1.
         11   -1    0    0    0    0 -0.00000000000E+00 -0.00000000000E+00 -0.45593999997E+02  0.45594000000E+02  0.51100000000E-03 0.  1.
         23    2    1    2    0    0  0.00000000000E+00  0.71054273576E-14  0.88817841970E-15  0.91188000000E+02  0.91188000000E+02 0.  0.
    9900012    2    3    3    0    0  0.19139524713E+02  0.31382864473E+02  0.21389789400E+01  0.54367070902E+02  0.39999969735E+02 0.  0.
         12    1    3    3    0    0 -0.19139524713E+02 -0.31382864473E+02 -0.21389789400E+01  0.36820929098E+02  0.00000000000E+00 0. -1.
         11    1    4    4    0    0  0.55532557091E+01 -0.34006818610E+00  0.15540968137E+02  0.16506846648E+02  0.51100000000E-03 0. -1.
        -11    1    4    4    0    0  0.33025591763E+01  0.10409920345E+02 -0.81318605450E+01  0.13616185034E+02  0.51100000000E-03 0.  1.
        -12    1    4    4    0    0  0.10283709827E+02  0.21313012314E+02 -0.52701286524E+01  0.24244039220E+02  0.00000000000E+00 0.  1.
</event>
<event>
 8    1  0.1247338E-006  0.9118800E+02  0.7816164E-02  0.1184000E+00
        -11   -1    0    0    0    0  0.00000000000E+00  0.00000000000E+00  0.45593999997E+02  0.45594000000E+02  0.51100000000E-03 0.  1.
         11   -1    0    0    0    0 -0.00000000000E+00 -0.00000000000E+00 -0.45593999997E+02  0.45594000000E+02  0.51100000000E-03 0. -1.
         23    2    1    2    0    0  0.35527136788E-14  0.00000000000E+00 -0.35527136788E-14  0.91188000000E+02  0.91188000000E+02 0.  0.
    9900012    2    3    3    0    0  0.17972414233E+02 -0.29404599718E+02 -0.12966908189E+02  0.54367097432E+02  0.40000030217E+02 0.  0.
        -12    1    3    3    0    0 -0.17972414233E+02  0.29404599718E+02  0.12966908189E+02  0.36820902568E+02  0.00000000000E+00 0.  1.
         11    1    4    4    0    0  0.33015777954E+01 -0.25336517170E+02 -0.47840390224E+01  0.25994740774E+02  0.51100000000E-03 0.  1.
        -11    1    4    4    0    0  0.38113952560E+01 -0.11793994189E+02  0.60368962651E+00  0.12409249540E+02  0.51100000000E-03 0. -1.
        -12    1    4    4    0    0  0.10859441182E+02  0.77259116412E+01 -0.87865587928E+01  0.15963107119E+02  0.00000000000E+00 0.  1.
</event>
<event>
 8    1  0.1247338E-006  0.9118800E+02  0.7816164E-02  0.1184000E+00
        -11   -1    0    0    0    0  0.00000000000E+00  0.00000000000E+00  0.45593999997E+02  0.45594000000E+02  0.51100000000E-03 0.  1.
         11   -1    0    0    0    0 -0.00000000000E+00 -0.00000000000E+00 -0.45593999997E+02  0.45594000000E+02  0.51100000000E-03 0. -1.
         23    2    1    2    0    0 -0.35527136788E-14  0.00000000000E+00  0.88817841970E-15  0.91188000000E+02  0.91188000000E+02 0.  0.
    9900012    2    3    3    0    0 -0.28770677262E+02  0.22724272014E+02 -0.34112404446E+01  0.54367068860E+02  0.39999965080E+02 0.  0.
        -12    1    3    3    0    0  0.28770677262E+02 -0.22724272014E+02  0.34112404446E+01  0.36820931140E+02  0.00000000000E+00 0.  1.
         11    1    4    4    0    0 -0.20535409150E+02  0.11307030862E+02  0.81338212328E+01  0.24813525021E+02  0.51100000000E-03 0. -1.
        -11    1    4    4    0    0 -0.76690238168E+01  0.56316274047E+01  0.58795895952E+01  0.11184754248E+02  0.51100000000E-03 0.  1.
        -12    1    4    4    0    0 -0.56624429466E+00  0.57856137475E+01 -0.17424651273E+02  0.18368789590E+02  0.00000000000E+00 0.  1.
</event>
<event>
 8    1  0.1247338E-006  0.9118800E+02  0.7816164E-02  0.1184000E+00
        -11   -1    0    0    0    0  0.00000000000E+00  0.00000000000E+00  0.45593999997E+02  0.45594000000E+02  0.51100000000E-03 0. -1.
         11   -1    0    0    0    0 -0.00000000000E+00 -0.00000000000E+00 -0.45593999997E+02  0.45594000000E+02  0.51100000000E-03 0.  1.
         23    2    1    2    0    0 -0.35527136788E-14 -0.35527136788E-14  0.35527136788E-14  0.91188000000E+02  0.91188000000E+02 0.  0.
    9900012    2    3    3    0    0 -0.29119078791E+02 -0.14086846966E+02  0.17590328766E+02  0.54367086470E+02  0.40000005225E+02 0.  0.
        -12    1    3    3    0    0  0.29119078791E+02  0.14086846966E+02 -0.17590328766E+02  0.36820913530E+02  0.00000000000E+00 0.  1.
         11    1    4    4    0    0 -0.17575193537E+02  0.56401630593E+01  0.96624373650E+01  0.20834144170E+02  0.51100000000E-03 0. -1.
        -11    1    4    4    0    0 -0.63750163990E+01 -0.14765751293E+02  0.16036840035E+02  0.22712298076E+02  0.51100000000E-03 0.  1.
         12    1    4    4    0    0 -0.51688688556E+01 -0.49612587327E+01 -0.81089486345E+01  0.10820644224E+02  0.00000000000E+00 0. -1.
</event>
<event>
 8    1  0.1247338E-006  0.9118800E+02  0.7816164E-02  0.1184000E+00
        -11   -1    0    0    0    0  0.00000000000E+00  0.00000000000E+00  0.45593999997E+02  0.45594000000E+02  0.51100000000E-03 0. -1.
         11   -1    0    0    0    0 -0.00000000000E+00 -0.00000000000E+00 -0.45593999997E+02  0.45594000000E+02  0.51100000000E-03 0.  1.
         23    2    1    2    0    0 -0.35527136788E-14 -0.35527136788E-14  0.26645352591E-14  0.91188000000E+02  0.91188000000E+02 0.  0.
    9900012    2    3    3    0    0 -0.19300566734E+02  0.31209899632E+02  0.30346428202E+01  0.54367098757E+02  0.40000033235E+02 0.  0.
        -12    1    3    3    0    0  0.19300566734E+02 -0.31209899632E+02 -0.30346428202E+01  0.36820901243E+02  0.00000000000E+00 0.  1.
         11    1    4    4    0    0 -0.11776312586E+02  0.15030696643E+02  0.12544155828E+02  0.22846426972E+02  0.51100000000E-03 0. -1.
        -11    1    4    4    0    0  0.16653361791E+01  0.17453720763E+02  0.92597090041E+00  0.17557423940E+02  0.51100000000E-03 0.  1.
         12    1    4    4    0    0 -0.91895903278E+01 -0.12745177739E+01 -0.10435483908E+02  0.13963247844E+02  0.00000000000E+00 0. -1.
</event>
<event>
 8    1  0.1247338E-006  0.9118800E+02  0.7816164E-02  0.1184000E+00
        -11   -1    0    0    0    0  0.00000000000E+00  0.00000000000E+00  0.45593999997E+02  0.45594000000E+02  0.51100000000E-03 0.  1.
         11   -1    0    0    0    0 -0.00000000000E+00 -0.00000000000E+00 -0.45593999997E+02  0.45594000000E+02  0.51100000000E-03 0. -1.
         23    2    1    2    0    0  0.00000000000E+00  0.00000000000E+00  0.22204460493E-15  0.91188000000E+02  0.91188000000E+02 0.  0.
    9900012    2    3    3    0    0 -0.33320145305E+02  0.15615370375E+02  0.13070501165E+01  0.54367078568E+02  0.39999987213E+02 0.  0.
         12    1    3    3    0    0  0.33320145305E+02 -0.15615370375E+02 -0.13070501165E+01  0.36820921432E+02  0.00000000000E+00 0. -1.
         11    1    4    4    0    0  0.71871125422E+00  0.11289626673E+02  0.17798242236E+01  0.11451637037E+02  0.51100000000E-03 0. -1.
        -11    1    4    4    0    0 -0.35207049012E+02  0.58002319059E+01  0.59931347579E+01  0.36181440751E+02  0.51100000000E-03 0.  1.
         12    1    4    4    0    0  0.11681924533E+01 -0.14744882044E+01 -0.64659088649E+01  0.67340007813E+01  0.00000000000E+00 0. -1.
</event>
<event>
 8    1  0.1247338E-006  0.9118800E+02  0.7816164E-02  0.1184000E+00
        -11   -1    0    0    0    0  0.00000000000E+00  0.00000000000E+00  0.45593999997E+02  0.45594000000E+02  0.51100000000E-03 0. -1.
         11   -1    0    0    0    0 -0.00000000000E+00 -0.00000000000E+00 -0.45593999997E+02  0.45594000000E+02  0.51100000000E-03 0.  1.
         23    2    1    2    0    0  0.00000000000E+00 -0.17763568394E-14  0.00000000000E+00  0.91188000000E+02  0.91188000000E+02 0.  0.
    9900012    2    3    3    0    0  0.35833421636E+02 -0.80162847462E+01 -0.27358400497E+01  0.54367085453E+02  0.40000002908E+02 0.  0.
        -12    1    3    3    0    0 -0.35833421636E+02  0.80162847462E+01  0.27358400497E+01  0.36820914547E+02  0.00000000000E+00 0.  1.
         11    1    4    4    0    0  0.83843860102E+01 -0.12540485233E+02 -0.76070149932E+01  0.16894625655E+02  0.51100000000E-03 0.  1.
        -11    1    4    4    0    0  0.27107898014E+02  0.10924351546E+02 -0.31458285826E+00  0.29228043965E+02  0.51100000000E-03 0. -1.
         12    1    4    4    0    0  0.34113761239E+00 -0.64001510587E+01  0.51857578018E+01  0.82444158328E+01  0.00000000000E+00 0. -1.
</event>
<event>
 8    1  0.1247338E-006  0.9118800E+02  0.7816164E-02  0.1184000E+00
        -11   -1    0    0    0    0  0.00000000000E+00  0.00000000000E+00  0.45593999997E+02  0.45594000000E+02  0.51100000000E-03 0.  1.
         11   -1    0    0    0    0 -0.00000000000E+00 -0.00000000000E+00 -0.45593999997E+02  0.45594000000E+02  0.51100000000E-03 0. -1.
         23    2    1    2    0    0  0.88817841970E-15  0.00000000000E+00 -0.17763568394E-14  0.91188000000E+02  0.91188000000E+02 0.  0.
    9900012    2    3    3    0    0  0.77263032674E+01  0.34882029700E+02  0.89066800427E+01  0.54367072424E+02  0.39999973204E+02 0.  0.
         12    1    3    3    0    0 -0.77263032674E+01 -0.34882029700E+02 -0.89066800427E+01  0.36820927576E+02  0.00000000000E+00 0. -1.
         11    1    4    4    0    0  0.10415184254E+02  0.16134008309E+02 -0.69541066185E+00  0.19216292135E+02  0.51100000000E-03 0. -1.
        -11    1    4    4    0    0 -0.59345347711E+01  0.52570807301E+00 -0.77530711961E+01  0.97777904027E+01  0.51100000000E-03 0.  1.
        -12    1    4    4    0    0  0.32456537849E+01  0.18222313318E+02  0.17355161901E+02  0.25372989886E+02  0.00000000000E+00 0.  1.
</event>
<event>
 8    1  0.1247338E-006  0.9118800E+02  0.7816164E-02  0.1184000E+00
        -11   -1    0    0    0    0  0.00000000000E+00  0.00000000000E+00  0.45593999997E+02  0.45594000000E+02  0.51100000000E-03 0.  1.
         11   -1    0    0    0    0 -0.00000000000E+00 -0.00000000000E+00 -0.45593999997E+02  0.45594000000E+02  0.51100000000E-03 0. -1.
         23    2    1    2    0    0  0.00000000000E+00  0.00000000000E+00 -0.35527136788E-14  0.91188000000E+02  0.91188000000E+02 0.  0.
    9900012    2    3    3    0    0 -0.20159775869E+02  0.39034044767E+01 -0.30563497846E+02  0.54367074832E+02  0.39999978695E+02 0.  0.
        -12    1    3    3    0    0  0.20159775869E+02 -0.39034044767E+01  0.30563497846E+02  0.36820925168E+02  0.00000000000E+00 0.  1.
         11    1    4    4    0    0 -0.69890153028E+01 -0.53633232611E+01 -0.28320040119E+02  0.29658662207E+02  0.51100000000E-03 0. -1.
        -11    1    4    4    0    0 -0.43602903134E+01  0.13915126727E+02 -0.46720112528E+00  0.14589762184E+02  0.51100000000E-03 0.  1.
         12    1    4    4    0    0 -0.88104702526E+01 -0.46483989890E+01 -0.17762566021E+01  0.10118650441E+02  0.00000000000E+00 0. -1.
</event>
<event>
 8    1  0.1247338E-006  0.9118800E+02  0.7816164E-02  0.1184000E+00
        -11   -1    0    0    0    0  0.00000000000E+00  0.00000000000E+00  0.45593999997E+02  0.45594000000E+02  0.51100000000E-03 0.  1.
         11   -1    0    0    0    0 -0.00000000000E+00 -0.00000000000E+00 -0.45593999997E+02  0.45594000000E+02  0.51100000000E-03 0. -1.
         23    2    1    2    0    0  0.00000000000E+00  0.00000000000E+00  0.35527136788E-14  0.91188000000E+02  0.91188000000E+02 0.  0.
    9900012    2    3    3    0    0 -0.85324398115E+01 -0.27120748536E+02 -0.23397485602E+02  0.54367083895E+02  0.39999999356E+02 0.  0.
        -12    1    3    3    0    0  0.85324398115E+01  0.27120748536E+02  0.23397485602E+02  0.36820916105E+02  0.00000000000E+00 0.  1.
         11    1    4    4    0    0 -0.38223141061E+00 -0.99170011486E+01 -0.85924028009E+01  0.13127162633E+02  0.51100000000E-03 0. -1.
        -11    1    4    4    0    0  0.11771189967E+02 -0.14033835153E+02 -0.68439745022E+01  0.19553757429E+02  0.51100000000E-03 0.  1.
        -12    1    4    4    0    0 -0.19921398368E+02 -0.31699122350E+01 -0.79611082985E+01  0.21686163834E+02  0.00000000000E+00 0.  1.
</event>
<event>
 8    1  0.1247338E-006  0.9118800E+02  0.7816164E-02  0.1184000E+00
        -11   -1    0    0    0    0  0.00000000000E+00  0.00000000000E+00  0.45593999997E+02  0.45594000000E+02  0.51100000000E-03 0.  1.
         11   -1    0    0    0    0 -0.00000000000E+00 -0.00000000000E+00 -0.45593999997E+02  0.45594000000E+02  0.51100000000E-03 0. -1.
         23    2    1    2    0    0  0.00000000000E+00  0.00000000000E+00  0.00000000000E+00  0.91188000000E+02  0.91188000000E+02 0.  0.
    9900012    2    3    3    0    0 -0.14078943530E+02 -0.10776944045E+02 -0.32271053042E+02  0.54367081512E+02  0.39999993923E+02 0.  0.
        -12    1    3    3    0    0  0.14078943530E+02  0.10776944045E+02  0.32271053042E+02  0.36820918488E+02  0.00000000000E+00 0.  1.
         11    1    4    4    0    0 -0.18064867779E+02 -0.52122600471E+01 -0.23135864882E+01  0.18943594838E+02  0.51100000000E-03 0.  1.
        -11    1    4    4    0    0 -0.61769222314E+01 -0.60278882206E+01 -0.11947946835E+02  0.14739173603E+02  0.51100000000E-03 0. -1.
         12    1    4    4    0    0  0.10162846481E+02  0.46320422246E+00 -0.18009519718E+02  0.20684313071E+02  0.00000000000E+00 0. -1.
</event>
<event>
 8    1  0.1247338E-006  0.9118800E+02  0.7816164E-02  0.1184000E+00
        -11   -1    0    0    0    0  0.00000000000E+00  0.00000000000E+00  0.45593999997E+02  0.45594000000E+02  0.51100000000E-03 0.  1.
         11   -1    0    0    0    0 -0.00000000000E+00 -0.00000000000E+00 -0.45593999997E+02  0.45594000000E+02  0.51100000000E-03 0. -1.
         23    2    1    2    0    0  0.17763568394E-14 -0.88817841970E-15  0.00000000000E+00  0.91188000000E+02  0.91188000000E+02 0.  0.
    9900012    2    3    3    0    0  0.49380550987E+01 -0.72807292663E+01  0.35754532062E+02  0.54367082442E+02  0.39999996044E+02 0.  0.
         12    1    3    3    0    0 -0.49380550987E+01  0.72807292663E+01 -0.35754532062E+02  0.36820917558E+02  0.00000000000E+00 0. -1.
         11    1    4    4    0    0 -0.12427577791E+02  0.39934283380E+01  0.20158979769E+01  0.13208179457E+02  0.51100000000E-03 0. -1.
        -11    1    4    4    0    0 -0.24870530981E+00  0.13458915357E+01  0.45317937803E+00  0.14417524638E+01  0.51100000000E-03 0.  1.
        -12    1    4    4    0    0  0.17614338200E+02 -0.12620049140E+02  0.33285454707E+02  0.39717150522E+02  0.00000000000E+00 0.  1.
</event>
<event>
 8    1  0.1247338E-006  0.9118800E+02  0.7816164E-02  0.1184000E+00
        -11   -1    0    0    0    0  0.00000000000E+00  0.00000000000E+00  0.45593999997E+02  0.45594000000E+02  0.51100000000E-03 0.  1.
         11   -1    0    0    0    0 -0.00000000000E+00 -0.00000000000E+00 -0.45593999997E+02  0.45594000000E+02  0.51100000000E-03 0. -1.
         23    2    1    2    0    0  0.00000000000E+00  0.00000000000E+00  0.88817841970E-15  0.91188000000E+02  0.91188000000E+02 0.  0.
    9900012    2    3    3    0    0  0.36373630849E+02  0.50158546186E+01 -0.27532826704E+01  0.54367076816E+02  0.39999983217E+02 0.  0.
        -12    1    3    3    0    0 -0.36373630849E+02 -0.50158546186E+01  0.27532826704E+01  0.36820923184E+02  0.00000000000E+00 0.  1.
         11    1    4    4    0    0  0.19566939556E+02  0.79023563212E+01 -0.13878143447E+02  0.25256983684E+02  0.51100000000E-03 0. -1.
        -11    1    4    4    0    0  0.13521345101E+02  0.35454490014E+01  0.15335179142E+02  0.20750053049E+02  0.51100000000E-03 0.  1.
        -12    1    4    4    0    0  0.32853461915E+01 -0.64319507040E+01 -0.42103183645E+01  0.83600400829E+01  0.00000000000E+00 0.  1.
</event>
<event>
 8    1  0.1247338E-006  0.9118800E+02  0.7816164E-02  0.1184000E+00
        -11   -1    0    0    0    0  0.00000000000E+00  0.00000000000E+00  0.45593999997E+02  0.45594000000E+02  0.51100000000E-03 0. -1.
         11   -1    0    0    0    0 -0.00000000000E+00 -0.00000000000E+00 -0.45593999997E+02  0.45594000000E+02  0.51100000000E-03 0.  1.
         23    2    1    2    0    0  0.22204460493E-15  0.00000000000E+00  0.00000000000E+00  0.91188000000E+02  0.91188000000E+02 0.  0.
    9900012    2    3    3    0    0 -0.19839170658E+01  0.34529641141E+02 -0.12631304230E+02  0.54367056357E+02  0.39999936576E+02 0.  0.
         12    1    3    3    0    0  0.19839170658E+01 -0.34529641141E+02  0.12631304230E+02  0.36820943643E+02  0.00000000000E+00 0. -1.
         11    1    4    4    0    0 -0.19865375652E+01  0.29290231489E+02  0.41470396129E+01  0.29648978566E+02  0.51100000000E-03 0.  1.
        -11    1    4    4    0    0  0.17503388709E+01 -0.51992480862E+01 -0.11818347061E+02  0.13029550811E+02  0.51100000000E-03 0. -1.
        -12    1    4    4    0    0 -0.17477183715E+01  0.10438657738E+02 -0.49599967814E+01  0.11688526979E+02  0.00000000000E+00 0.  1.
</event>
<event>
 8    1  0.1247338E-006  0.9118800E+02  0.7816164E-02  0.1184000E+00
        -11   -1    0    0    0    0  0.00000000000E+00  0.00000000000E+00  0.45593999997E+02  0.45594000000E+02  0.51100000000E-03 0.  1.
         11   -1    0    0    0    0 -0.00000000000E+00 -0.00000000000E+00 -0.45593999997E+02  0.45594000000E+02  0.51100000000E-03 0. -1.
         23    2    1    2    0    0 -0.88817841970E-15  0.00000000000E+00 -0.71054273576E-14  0.91188000000E+02  0.91188000000E+02 0.  0.
    9900012    2    3    3    0    0  0.12675934501E+01  0.10543318686E+02 -0.35256366202E+02  0.54367085837E+02  0.40000003782E+02 0.  0.
        -12    1    3    3    0    0 -0.12675934501E+01 -0.10543318686E+02  0.35256366202E+02  0.36820914163E+02  0.00000000000E+00 0.  1.
         11    1    4    4    0    0  0.33905162901E+01  0.40436204937E+01 -0.27042203592E+00  0.52838996725E+01  0.51100000000E-03 0. -1.
        -11    1    4    4    0    0  0.93142106768E+01  0.93313083411E+01 -0.11266670249E+01  0.13232430417E+02  0.51100000000E-03 0.  1.
        -12    1    4    4    0    0 -0.11437133517E+02 -0.28316101493E+01 -0.33859277141E+02  0.35850755747E+02  0.00000000000E+00 0.  1.
</event>
<event>
 8    1  0.1247338E-006  0.9118800E+02  0.7816164E-02  0.1184000E+00
        -11   -1    0    0    0    0  0.00000000000E+00  0.00000000000E+00  0.45593999997E+02  0.45594000000E+02  0.51100000000E-03 0.  1.
         11   -1    0    0    0    0 -0.00000000000E+00 -0.00000000000E+00 -0.45593999997E+02  0.45594000000E+02  0.51100000000E-03 0. -1.
         23    2    1    2    0    0  0.00000000000E+00  0.00000000000E+00  0.00000000000E+00  0.91188000000E+02  0.91188000000E+02 0.  0.
    9900012    2    3    3    0    0  0.22263999512E+02  0.27933520448E+02 -0.89336875511E+01  0.54367109026E+02  0.40000056646E+02 0.  0.
         12    1    3    3    0    0 -0.22263999512E+02 -0.27933520448E+02  0.89336875511E+01  0.36820890974E+02  0.00000000000E+00 0. -1.
         11    1    4    4    0    0  0.87711039240E+01 -0.69511565860E+01 -0.43541306179E+01  0.12008717485E+02  0.51100000000E-03 0. -1.
        -11    1    4    4    0    0  0.86874977685E+01  0.20507279914E+01 -0.10111424825E+01  0.89833463784E+01  0.51100000000E-03 0.  1.
        -12    1    4    4    0    0  0.48053978190E+01  0.32833949043E+02 -0.35684144506E+01  0.33375045163E+02  0.00000000000E+00 0.  1.
</event>
<event>
 8    1  0.1247338E-006  0.9118800E+02  0.7816164E-02  0.1184000E+00
        -11   -1    0    0    0    0  0.00000000000E+00  0.00000000000E+00  0.45593999997E+02  0.45594000000E+02  0.51100000000E-03 0. -1.
         11   -1    0    0    0    0 -0.00000000000E+00 -0.00000000000E+00 -0.45593999997E+02  0.45594000000E+02  0.51100000000E-03 0.  1.
         23    2    1    2    0    0 -0.86042284408E-15 -0.17763568394E-14  0.00000000000E+00  0.91188000000E+02  0.91188000000E+02 0.  0.
    9900012    2    3    3    0    0  0.24692658105E+00 -0.14285742914E+02 -0.33935749902E+02  0.54367101793E+02  0.40000040157E+02 0.  0.
         12    1    3    3    0    0 -0.24692658105E+00  0.14285742914E+02  0.33935749902E+02  0.36820898207E+02  0.00000000000E+00 0. -1.
         11    1    4    4    0    0  0.59021384214E+01  0.43827694652E+01 -0.13383438348E+02  0.15269588351E+02  0.51100000000E-03 0. -1.
        -11    1    4    4    0    0 -0.29097103012E+01  0.16602561096E+01 -0.18135482290E+02  0.18442304155E+02  0.51100000000E-03 0.  1.
         12    1    4    4    0    0 -0.27455015392E+01 -0.20328768489E+02 -0.24168292639E+01  0.20655209287E+02  0.00000000000E+00 0. -1.
</event>
<event>
 8    1  0.1247338E-006  0.9118800E+02  0.7816164E-02  0.1184000E+00
        -11   -1    0    0    0    0  0.00000000000E+00  0.00000000000E+00  0.45593999997E+02  0.45594000000E+02  0.51100000000E-03 0. -1.
         11   -1    0    0    0    0 -0.00000000000E+00 -0.00000000000E+00 -0.45593999997E+02  0.45594000000E+02  0.51100000000E-03 0.  1.
         23    2    1    2    0    0 -0.35527136788E-14 -0.17763568394E-14  0.00000000000E+00  0.91188000000E+02  0.91188000000E+02 0.  0.
    9900012    2    3    3    0    0 -0.24330671814E+02 -0.11962612288E+02 -0.24913746398E+02  0.54367076013E+02  0.39999981387E+02 0.  0.
         12    1    3    3    0    0  0.24330671814E+02  0.11962612288E+02  0.24913746398E+02  0.36820923987E+02  0.00000000000E+00 0. -1.
         11    1    4    4    0    0 -0.72472333341E+01 -0.77242853171E+01  0.47514472790E+01  0.11608756444E+02  0.51100000000E-03 0. -1.
        -11    1    4    4    0    0 -0.13184185885E+02  0.38370511140E+01 -0.22507091216E+01  0.13914431735E+02  0.51100000000E-03 0.  1.
        -12    1    4    4    0    0 -0.38992525957E+01 -0.80753780846E+01 -0.27414484555E+02  0.28843887835E+02  0.00000000000E+00 0.  1.
</event>
<event>
 8    1  0.1247338E-006  0.9118800E+02  0.7816164E-02  0.1184000E+00
        -11   -1    0    0    0    0  0.00000000000E+00  0.00000000000E+00  0.45593999997E+02  0.45594000000E+02  0.51100000000E-03 0. -1.
         11   -1    0    0    0    0 -0.00000000000E+00 -0.00000000000E+00 -0.45593999997E+02  0.45594000000E+02  0.51100000000E-03 0.  1.
         23    2    1    2    0    0  0.00000000000E+00  0.00000000000E+00 -0.71054273576E-14  0.91188000000E+02  0.91188000000E+02 0.  0.
    9900012    2    3    3    0    0  0.11279622265E+02  0.65919293842E+00  0.35044525403E+02  0.54367038925E+02  0.39999896837E+02 0.  0.
        -12    1    3    3    0    0 -0.11279622265E+02 -0.65919293842E+00 -0.35044525403E+02  0.36820961075E+02  0.00000000000E+00 0.  1.
         11    1    4    4    0    0 -0.74892329342E+00 -0.69569034178E+01  0.26450732675E+02  0.27360567439E+02  0.51100000000E-03 0. -1.
        -11    1    4    4    0    0  0.32934738248E+01  0.14105749050E+02  0.67053947788E+01  0.15961874749E+02  0.51100000000E-03 0.  1.
        -12    1    4    4    0    0  0.87350717340E+01 -0.64896526936E+01  0.18883979492E+01  0.11044596738E+02  0.00000000000E+00 0.  1.
</event>
<event>
 8    1  0.1247338E-006  0.9118800E+02  0.7816164E-02  0.1184000E+00
        -11   -1    0    0    0    0  0.00000000000E+00  0.00000000000E+00  0.45593999997E+02  0.45594000000E+02  0.51100000000E-03 0.  1.
         11   -1    0    0    0    0 -0.00000000000E+00 -0.00000000000E+00 -0.45593999997E+02  0.45594000000E+02  0.51100000000E-03 0. -1.
         23    2    1    2    0    0 -0.44408920985E-15  0.88817841970E-15 -0.71054273576E-14  0.91188000000E+02  0.91188000000E+02 0.  0.
    9900012    2    3    3    0    0 -0.33620416361E+01 -0.50860915284E+01  0.36312664812E+02  0.54367064695E+02  0.39999955586E+02 0.  0.
         12    1    3    3    0    0  0.33620416361E+01  0.50860915284E+01 -0.36312664812E+02  0.36820935305E+02  0.00000000000E+00 0. -1.
         11    1    4    4    0    0 -0.15861662601E+02 -0.44716026656E+01  0.93212668490E+01  0.18933398713E+02  0.51100000000E-03 0. -1.
        -11    1    4    4    0    0  0.13897671377E+02  0.44673666894E+01  0.26350835636E+02  0.30124229016E+02  0.51100000000E-03 0.  1.
         12    1    4    4    0    0 -0.13980504116E+01 -0.50818555523E+01  0.64056232688E+00  0.53094369666E+01  0.00000000000E+00 0. -1.
</event>
<event>
 8    1  0.1247338E-006  0.9118800E+02  0.7816164E-02  0.1184000E+00
        -11   -1    0    0    0    0  0.00000000000E+00  0.00000000000E+00  0.45593999997E+02  0.45594000000E+02  0.51100000000E-03 0.  1.
         11   -1    0    0    0    0 -0.00000000000E+00 -0.00000000000E+00 -0.45593999997E+02  0.45594000000E+02  0.51100000000E-03 0. -1.
         23    2    1    2    0    0  0.00000000000E+00  0.00000000000E+00 -0.17763568394E-14  0.91188000000E+02  0.91188000000E+02 0.  0.
    9900012    2    3    3    0    0  0.84939945012E+01  0.32814083217E+02 -0.14382892620E+02  0.54367087462E+02  0.40000007488E+02 0.  0.
        -12    1    3    3    0    0 -0.84939945012E+01 -0.32814083217E+02  0.14382892620E+02  0.36820912538E+02  0.00000000000E+00 0.  1.
         11    1    4    4    0    0  0.93567354222E+01  0.22480133315E+02 -0.15443854716E+02  0.28834311859E+02  0.51100000000E-03 0. -1.
        -11    1    4    4    0    0  0.42019080942E+01  0.63395970088E+01  0.11186563443E+02  0.13527221584E+02  0.51100000000E-03 0.  1.
        -12    1    4    4    0    0 -0.50646490153E+01  0.39943528934E+01 -0.10125601346E+02  0.12005554019E+02  0.00000000000E+00 0.  1.
</event>
<event>
 8    1  0.1247338E-006  0.9118800E+02  0.7816164E-02  0.1184000E+00
        -11   -1    0    0    0    0  0.00000000000E+00  0.00000000000E+00  0.45593999997E+02  0.45594000000E+02  0.51100000000E-03 0.  1.
         11   -1    0    0    0    0 -0.00000000000E+00 -0.00000000000E+00 -0.45593999997E+02  0.45594000000E+02  0.51100000000E-03 0. -1.
         23    2    1    2    0    0 -0.17763568394E-14  0.00000000000E+00  0.35527136788E-14  0.91188000000E+02  0.91188000000E+02 0.  0.
    9900012    2    3    3    0    0  0.11860083997E+02  0.29862502097E+02 -0.17981944683E+02  0.54367069016E+02  0.39999965436E+02 0.  0.
        -12    1    3    3    0    0 -0.11860083997E+02 -0.29862502097E+02  0.17981944683E+02  0.36820930984E+02  0.00000000000E+00 0.  1.
         11    1    4    4    0    0  0.21670429878E+02  0.17621636726E+02 -0.42854328616E+01  0.28257645816E+02  0.51100000000E-03 0. -1.
        -11    1    4    4    0    0 -0.11005669937E+02  0.89103236173E+01 -0.25159113304E+01  0.14382226803E+02  0.51100000000E-03 0.  1.
         12    1    4    4    0    0  0.11953240556E+01  0.33305417545E+01 -0.11180600491E+02  0.11727196397E+02  0.00000000000E+00 0. -1.
</event>
<event>
 8    1  0.1247338E-006  0.9118800E+02  0.7816164E-02  0.1184000E+00
        -11   -1    0    0    0    0  0.00000000000E+00  0.00000000000E+00  0.45593999997E+02  0.45594000000E+02  0.51100000000E-03 0. -1.
         11   -1    0    0    0    0 -0.00000000000E+00 -0.00000000000E+00 -0.45593999997E+02  0.45594000000E+02  0.51100000000E-03 0.  1.
         23    2    1    2    0    0  0.00000000000E+00  0.00000000000E+00  0.00000000000E+00  0.91188000000E+02  0.91188000000E+02 0.  0.
    9900012    2    3    3    0    0 -0.29290168022E+02  0.14281848307E+02  0.17143396026E+02  0.54367066265E+02  0.39999959164E+02 0.  0.
        -12    1    3    3    0    0  0.29290168022E+02 -0.14281848307E+02 -0.17143396026E+02  0.36820933735E+02  0.00000000000E+00 0.  1.
         11    1    4    4    0    0 -0.77390301569E+01 -0.36760355958E+01  0.12901074472E+02  0.15486883103E+02  0.51100000000E-03 0. -1.
        -11    1    4    4    0    0 -0.27630534228E+02  0.16155035278E+02  0.53269660920E+01  0.32447005325E+02  0.51100000000E-03 0.  1.
        -12    1    4    4    0    0  0.60793963632E+01  0.18028486252E+01 -0.10846445375E+01  0.64331778367E+01  0.00000000000E+00 0.  1.
</event>
<event>
 8    1  0.1247338E-006  0.9118800E+02  0.7816164E-02  0.1184000E+00
        -11   -1    0    0    0    0  0.00000000000E+00  0.00000000000E+00  0.45593999997E+02  0.45594000000E+02  0.51100000000E-03 0.  1.
         11   -1    0    0    0    0 -0.00000000000E+00 -0.00000000000E+00 -0.45593999997E+02  0.45594000000E+02  0.51100000000E-03 0. -1.
         23    2    1    2    0    0 -0.35527136788E-14  0.00000000000E+00  0.35527136788E-14  0.91188000000E+02  0.91188000000E+02 0.  0.
    9900012    2    3    3    0    0  0.21283533212E+02 -0.21936129478E+02  0.20532821384E+02  0.54367091314E+02  0.40000016269E+02 0.  0.
         12    1    3    3    0    0 -0.21283533212E+02  0.21936129478E+02 -0.20532821384E+02  0.36820908686E+02  0.00000000000E+00 0. -1.
         11    1    4    4    0    0 -0.70164778725E+01 -0.66453596082E+01 -0.65065678418E+01  0.11650201346E+02  0.51100000000E-03 0. -1.
        -11    1    4    4    0    0  0.22986240055E+02 -0.86630763351E+01  0.19621329823E+02  0.31439031597E+02  0.51100000000E-03 0.  1.
         12    1    4    4    0    0  0.53137710287E+01 -0.66276935350E+01  0.74180594032E+01  0.11277858372E+02  0.00000000000E+00 0. -1.
</event>
<event>
 8    1  0.1247338E-006  0.9118800E+02  0.7816164E-02  0.1184000E+00
        -11   -1    0    0    0    0  0.00000000000E+00  0.00000000000E+00  0.45593999997E+02  0.45594000000E+02  0.51100000000E-03 0.  1.
         11   -1    0    0    0    0 -0.00000000000E+00 -0.00000000000E+00 -0.45593999997E+02  0.45594000000E+02  0.51100000000E-03 0. -1.
         23    2    1    2    0    0  0.00000000000E+00  0.00000000000E+00 -0.35527136788E-14  0.91188000000E+02  0.91188000000E+02 0.  0.
    9900012    2    3    3    0    0 -0.17629323258E+02 -0.98834579343E+01  0.30778299049E+02  0.54367089207E+02  0.40000011465E+02 0.  0.
         12    1    3    3    0    0  0.17629323258E+02  0.98834579343E+01 -0.30778299049E+02  0.36820910793E+02  0.00000000000E+00 0. -1.
         11    1    4    4    0    0 -0.17437573985E+02  0.38489032895E+01  0.14299963003E+02  0.22877324694E+02  0.51100000000E-03 0. -1.
        -11    1    4    4    0    0 -0.64981784111E+01  0.40450240515E+01  0.70306330277E+01  0.10393187349E+02  0.51100000000E-03 0.  1.
         12    1    4    4    0    0  0.63064291386E+01 -0.17777385275E+02  0.94477030188E+01  0.21096577164E+02  0.00000000000E+00 0. -1.
</event>
<event>
 8    1  0.1247338E-006  0.9118800E+02  0.7816164E-02  0.1184000E+00
        -11   -1    0    0    0    0  0.00000000000E+00  0.00000000000E+00  0.45593999997E+02  0.45594000000E+02  0.51100000000E-03 0.  1.
         11   -1    0    0    0    0 -0.00000000000E+00 -0.00000000000E+00 -0.45593999997E+02  0.45594000000E+02  0.51100000000E-03 0. -1.
         23    2    1    2    0    0  0.35527136788E-14  0.00000000000E+00  0.44408920985E-15  0.91188000000E+02  0.91188000000E+02 0.  0.
    9900012    2    3    3    0    0  0.97371335610E+01 -0.35466272775E+02  0.17640150044E+01  0.54367081714E+02  0.39999994383E+02 0.  0.
        -12    1    3    3    0    0 -0.97371335610E+01  0.35466272775E+02 -0.17640150044E+01  0.36820918286E+02  0.00000000000E+00 0.  1.
         11    1    4    4    0    0 -0.36187435110E+00 -0.30864776814E+02 -0.68832042724E+00  0.30874571836E+02  0.51100000000E-03 0. -1.
        -11    1    4    4    0    0 -0.57626252200E+01  0.67865870279E+00 -0.20926882363E+01  0.61682875562E+01  0.51100000000E-03 0.  1.
        -12    1    4    4    0    0  0.15861633132E+02 -0.52801546639E+01  0.45450236680E+01  0.17324222321E+02  0.00000000000E+00 0.  1.
</event>
<event>
 8    1  0.1247338E-006  0.9118800E+02  0.7816164E-02  0.1184000E+00
        -11   -1    0    0    0    0  0.00000000000E+00  0.00000000000E+00  0.45593999997E+02  0.45594000000E+02  0.51100000000E-03 0.  1.
         11   -1    0    0    0    0 -0.00000000000E+00 -0.00000000000E+00 -0.45593999997E+02  0.45594000000E+02  0.51100000000E-03 0. -1.
         23    2    1    2    0    0  0.44408920985E-15  0.00000000000E+00  0.35527136788E-14  0.91188000000E+02  0.91188000000E+02 0.  0.
    9900012    2    3    3    0    0  0.30060703237E+01 -0.32440943563E+02 -0.17156002867E+02  0.54367085937E+02  0.40000004010E+02 0.  0.
        -12    1    3    3    0    0 -0.30060703237E+01  0.32440943563E+02  0.17156002867E+02  0.36820914063E+02  0.00000000000E+00 0.  1.
         11    1    4    4    0    0  0.17393479208E+02 -0.93871112598E+01 -0.11612987809E+02  0.22924058604E+02  0.51100000000E-03 0. -1.
        -11    1    4    4    0    0  0.15926645236E+00 -0.35564097263E+01  0.39615865422E+01  0.53261228053E+01  0.51100000000E-03 0.  1.
         12    1    4    4    0    0 -0.14546675337E+02 -0.19497422577E+02 -0.95046016005E+01  0.26116904527E+02  0.00000000000E+00 0. -1.
</event>
<event>
 8    1  0.1247338E-006  0.9118800E+02  0.7816164E-02  0.1184000E+00
        -11   -1    0    0    0    0  0.00000000000E+00  0.00000000000E+00  0.45593999997E+02  0.45594000000E+02  0.51100000000E-03 0. -1.
         11   -1    0    0    0    0 -0.00000000000E+00 -0.00000000000E+00 -0.45593999997E+02  0.45594000000E+02  0.51100000000E-03 0.  1.
         23    2    1    2    0    0 -0.71054273576E-14  0.44408920985E-15  0.00000000000E+00  0.91188000000E+02  0.91188000000E+02 0.  0.
    9900012    2    3    3    0    0 -0.23171694432E+02  0.28597363644E+01  0.28472358686E+02  0.54367072200E+02  0.39999972694E+02 0.  0.
        -12    1    3    3    0    0  0.23171694432E+02 -0.28597363644E+01 -0.28472358686E+02  0.36820927800E+02  0.00000000000E+00 0.  1.
         11    1    4    4    0    0 -0.22816716068E+02  0.57172978845E+01  0.96026058926E+00  0.23541710386E+02  0.51100000000E-03 0. -1.
        -11    1    4    4    0    0 -0.46968027212E+01  0.21656577387E+01  0.44384374043E+01  0.68154057910E+01  0.51100000000E-03 0.  1.
        -12    1    4    4    0    0  0.43418243578E+01 -0.50232192588E+01  0.23073660692E+02  0.24009956023E+02  0.00000000000E+00 0.  1.
</event>
<event>
 8    1  0.1247338E-006  0.9118800E+02  0.7816164E-02  0.1184000E+00
        -11   -1    0    0    0    0  0.00000000000E+00  0.00000000000E+00  0.45593999997E+02  0.45594000000E+02  0.51100000000E-03 0.  1.
         11   -1    0    0    0    0 -0.00000000000E+00 -0.00000000000E+00 -0.45593999997E+02  0.45594000000E+02  0.51100000000E-03 0. -1.
         23    2    1    2    0    0  0.00000000000E+00 -0.35527136788E-14  0.00000000000E+00  0.91188000000E+02  0.91188000000E+02 0.  0.
    9900012    2    3    3    0    0  0.40676545796E+01 -0.20713200422E+02  0.30169443477E+02  0.54367111835E+02  0.40000063051E+02 0.  0.
         12    1    3    3    0    0 -0.40676545796E+01  0.20713200422E+02 -0.30169443477E+02  0.36820888165E+02  0.00000000000E+00 0. -1.
         11    1    4    4    0    0 -0.36308914872E+01 -0.23998735727E+00  0.29199043003E+02  0.29424905769E+02  0.51100000000E-03 0. -1.
        -11    1    4    4    0    0  0.66799958136E+01 -0.68084472819E+01  0.48506207172E+01  0.10700739230E+02  0.51100000000E-03 0.  1.
         12    1    4    4    0    0  0.10185502532E+01 -0.13664765783E+02 -0.38802202433E+01  0.14241466837E+02  0.00000000000E+00 0. -1.
</event>
<event>
 8    1  0.1247338E-006  0.9118800E+02  0.7816164E-02  0.1184000E+00
        -11   -1    0    0    0    0  0.00000000000E+00  0.00000000000E+00  0.45593999997E+02  0.45594000000E+02  0.51100000000E-03 0. -1.
         11   -1    0    0    0    0 -0.00000000000E+00 -0.00000000000E+00 -0.45593999997E+02  0.45594000000E+02  0.51100000000E-03 0.  1.
         23    2    1    2    0    0  0.00000000000E+00  0.17763568394E-14  0.35527136788E-14  0.91188000000E+02  0.91188000000E+02 0.  0.
    9900012    2    3    3    0    0 -0.32945144886E+02 -0.94363614974E+01  0.13466721789E+02  0.54367080870E+02  0.39999992459E+02 0.  0.
        -12    1    3    3    0    0  0.32945144886E+02  0.94363614974E+01 -0.13466721789E+02  0.36820919130E+02  0.00000000000E+00 0.  1.
         11    1    4    4    0    0 -0.10617547851E+02  0.67767975440E+01  0.13655615176E+02  0.18577759107E+02  0.51100000000E-03 0. -1.
        -11    1    4    4    0    0 -0.71761322859E+01 -0.11392354939E+02 -0.10295374243E+02  0.16949258294E+02  0.51100000000E-03 0.  1.
        -12    1    4    4    0    0 -0.15151464748E+02 -0.48208041023E+01  0.10106480857E+02  0.18840063469E+02  0.00000000000E+00 0.  1.
</event>
<event>
 8    1  0.1247338E-006  0.9118800E+02  0.7816164E-02  0.1184000E+00
        -11   -1    0    0    0    0  0.00000000000E+00  0.00000000000E+00  0.45593999997E+02  0.45594000000E+02  0.51100000000E-03 0.  1.
         11   -1    0    0    0    0 -0.00000000000E+00 -0.00000000000E+00 -0.45593999997E+02  0.45594000000E+02  0.51100000000E-03 0. -1.
         23    2    1    2    0    0  0.00000000000E+00  0.00000000000E+00 -0.88817841970E-15  0.91188000000E+02  0.91188000000E+02 0.  0.
    9900012    2    3    3    0    0 -0.31314851954E+01 -0.35956962102E+02 -0.72849661586E+01  0.54367081285E+02  0.39999993405E+02 0.  0.
         12    1    3    3    0    0  0.31314851954E+01  0.35956962102E+02  0.72849661586E+01  0.36820918715E+02  0.00000000000E+00 0. -1.
         11    1    4    4    0    0 -0.56251621624E+01 -0.17949934999E+02 -0.53393373661E+01  0.19553801155E+02  0.51100000000E-03 0. -1.
        -11    1    4    4    0    0  0.31008232909E+01 -0.25293717656E+02  0.34644368308E+01  0.25717495616E+02  0.51100000000E-03 0.  1.
         12    1    4    4    0    0 -0.60714632386E+00  0.72866905535E+01 -0.54100656233E+01  0.90957845143E+01  0.00000000000E+00 0. -1.
</event>
<event>
 8    1  0.1247338E-006  0.9118800E+02  0.7816164E-02  0.1184000E+00
        -11   -1    0    0    0    0  0.00000000000E+00  0.00000000000E+00  0.45593999997E+02  0.45594000000E+02  0.51100000000E-03 0.  1.
         11   -1    0    0    0    0 -0.00000000000E+00 -0.00000000000E+00 -0.45593999997E+02  0.45594000000E+02  0.51100000000E-03 0. -1.
         23    2    1    2    0    0  0.00000000000E+00  0.35527136788E-14  0.00000000000E+00  0.91188000000E+02  0.91188000000E+02 0.  0.
    9900012    2    3    3    0    0 -0.33082427331E+02 -0.13616241926E+02  0.87138365241E+01  0.54367082178E+02  0.39999995442E+02 0.  0.
         12    1    3    3    0    0  0.33082427331E+02  0.13616241926E+02 -0.87138365241E+01  0.36820917822E+02  0.00000000000E+00 0. -1.
         11    1    4    4    0    0 -0.32231146245E+00  0.63609529545E+01 -0.55334782344E+01  0.84371196981E+01  0.51100000000E-03 0. -1.
        -11    1    4    4    0    0 -0.25274646320E+02 -0.18738798172E+02  0.20051465757E+01  0.31527304302E+02  0.51100000000E-03 0.  1.
        -12    1    4    4    0    0 -0.74854695485E+01 -0.12383967080E+01  0.12242168183E+02  0.14402658178E+02  0.00000000000E+00 0.  1.
</event>
<event>
 8    1  0.1247338E-006  0.9118800E+02  0.7816164E-02  0.1184000E+00
        -11   -1    0    0    0    0  0.00000000000E+00  0.00000000000E+00  0.45593999997E+02  0.45594000000E+02  0.51100000000E-03 0.  1.
         11   -1    0    0    0    0 -0.00000000000E+00 -0.00000000000E+00 -0.45593999997E+02  0.45594000000E+02  0.51100000000E-03 0. -1.
         23    2    1    2    0    0 -0.17763568394E-14  0.00000000000E+00  0.71054273576E-14  0.91188000000E+02  0.91188000000E+02 0.  0.
    9900012    2    3    3    0    0  0.91116362326E+01 -0.51595603715E+01 -0.35300608748E+02  0.54367136946E+02  0.40000120296E+02 0.  0.
        -12    1    3    3    0    0 -0.91116362326E+01  0.51595603715E+01  0.35300608748E+02  0.36820863054E+02  0.00000000000E+00 0.  1.
         11    1    4    4    0    0 -0.18621694086E+01  0.15167621067E+01 -0.24301226508E+02  0.24419620232E+02  0.51100000000E-03 0. -1.
        -11    1    4    4    0    0 -0.64940394397E+01 -0.59495996460E+01  0.81796758022E+00  0.88453013185E+01  0.51100000000E-03 0.  1.
         12    1    4    4    0    0  0.17467845081E+02 -0.72672283228E+00 -0.11817349820E+02  0.21102215396E+02  0.00000000000E+00 0. -1.
</event>
<event>
 8    1  0.1247338E-006  0.9118800E+02  0.7816164E-02  0.1184000E+00
        -11   -1    0    0    0    0  0.00000000000E+00  0.00000000000E+00  0.45593999997E+02  0.45594000000E+02  0.51100000000E-03 0.  1.
         11   -1    0    0    0    0 -0.00000000000E+00 -0.00000000000E+00 -0.45593999997E+02  0.45594000000E+02  0.51100000000E-03 0. -1.
         23    2    1    2    0    0  0.00000000000E+00  0.00000000000E+00  0.00000000000E+00  0.91188000000E+02  0.91188000000E+02 0.  0.
    9900012    2    3    3    0    0  0.11505382093E+02 -0.10459121262E+02  0.33376818880E+02  0.54367094617E+02  0.40000023798E+02 0.  0.
         12    1    3    3    0    0 -0.11505382093E+02  0.10459121262E+02 -0.33376818880E+02  0.36820905383E+02  0.00000000000E+00 0. -1.
         11    1    4    4    0    0  0.73342722856E+01 -0.12638467716E+01  0.18404847546E+02  0.19852638920E+02  0.51100000000E-03 0. -1.
        -11    1    4    4    0    0 -0.31938411633E+01 -0.65315921414E+01  0.22503471036E+02  0.23648858878E+02  0.51100000000E-03 0.  1.
         12    1    4    4    0    0  0.73649509708E+01 -0.26636823491E+01 -0.75314997029E+01  0.10865596819E+02  0.00000000000E+00 0. -1.
</event>
<event>
 8    1  0.1247338E-006  0.9118800E+02  0.7816164E-02  0.1184000E+00
        -11   -1    0    0    0    0  0.00000000000E+00  0.00000000000E+00  0.45593999997E+02  0.45594000000E+02  0.51100000000E-03 0.  1.
         11   -1    0    0    0    0 -0.00000000000E+00 -0.00000000000E+00 -0.45593999997E+02  0.45594000000E+02  0.51100000000E-03 0. -1.
         23    2    1    2    0    0 -0.35527136788E-14 -0.35527136788E-14  0.00000000000E+00  0.91188000000E+02  0.91188000000E+02 0.  0.
    9900012    2    3    3    0    0 -0.22101219107E+02 -0.24029083919E+02  0.17027002074E+02  0.54367088012E+02  0.40000008741E+02 0.  0.
         12    1    3    3    0    0  0.22101219107E+02  0.24029083919E+02 -0.17027002074E+02  0.36820911988E+02  0.00000000000E+00 0. -1.
         11    1    4    4    0    0 -0.42159542460E+01 -0.52880441162E+01 -0.93252986759E+01  0.11519499834E+02  0.51100000000E-03 0. -1.
        -11    1    4    4    0    0 -0.89300389698E+01 -0.22307662957E+02  0.20384622479E+02  0.31510478519E+02  0.51100000000E-03 0.  1.
         12    1    4    4    0    0 -0.89552258907E+01  0.35666231533E+01  0.59676782708E+01  0.11337109659E+02  0.00000000000E+00 0. -1.
</event>
<event>
 8    1  0.1247338E-006  0.9118800E+02  0.7816164E-02  0.1184000E+00
        -11   -1    0    0    0    0  0.00000000000E+00  0.00000000000E+00  0.45593999997E+02  0.45594000000E+02  0.51100000000E-03 0. -1.
         11   -1    0    0    0    0 -0.00000000000E+00 -0.00000000000E+00 -0.45593999997E+02  0.45594000000E+02  0.51100000000E-03 0.  1.
         23    2    1    2    0    0 -0.44408920985E-15  0.35527136788E-14  0.35527136788E-14  0.91188000000E+02  0.91188000000E+02 0.  0.
    9900012    2    3    3    0    0  0.31959912343E+01  0.23319997045E+02 -0.28315074388E+02  0.54367081220E+02  0.39999993258E+02 0.  0.
         12    1    3    3    0    0 -0.31959912343E+01 -0.23319997045E+02  0.28315074388E+02  0.36820918780E+02  0.00000000000E+00 0. -1.
         11    1    4    4    0    0 -0.79432053942E+00  0.25956716836E+02 -0.34000543626E+02  0.42783397027E+02  0.51100000000E-03 0. -1.
        -11    1    4    4    0    0 -0.21169519165E+01 -0.56426060218E+00  0.45295807144E+01  0.50315978728E+01  0.51100000000E-03 0.  1.
         12    1    4    4    0    0  0.61072636903E+01 -0.20724591885E+01  0.11558885234E+01  0.65520863203E+01  0.00000000000E+00 0. -1.
</event>
<event>
 8    1  0.1247338E-006  0.9118800E+02  0.7816164E-02  0.1184000E+00
        -11   -1    0    0    0    0  0.00000000000E+00  0.00000000000E+00  0.45593999997E+02  0.45594000000E+02  0.51100000000E-03 0.  1.
         11   -1    0    0    0    0 -0.00000000000E+00 -0.00000000000E+00 -0.45593999997E+02  0.45594000000E+02  0.51100000000E-03 0. -1.
         23    2    1    2    0    0 -0.88817841970E-15 -0.22204460493E-14  0.71054273576E-14  0.91188000000E+02  0.91188000000E+02 0.  0.
    9900012    2    3    3    0    0 -0.50651061153E+01 -0.16607153541E+01  0.36433046919E+02  0.54367079544E+02  0.39999989436E+02 0.  0.
         12    1    3    3    0    0  0.50651061153E+01  0.16607153541E+01 -0.36433046919E+02  0.36820920456E+02  0.00000000000E+00 0. -1.
         11    1    4    4    0    0 -0.11969017154E+02  0.66488521387E+01  0.23223019122E+02  0.26958731865E+02  0.51100000000E-03 0. -1.
        -11    1    4    4    0    0  0.40306176972E+01 -0.11515490681E+02  0.17498417977E+02  0.21331831534E+02  0.51100000000E-03 0.  1.
         12    1    4    4    0    0  0.28732933417E+01  0.32059231885E+01 -0.42883901797E+01  0.60765161442E+01  0.00000000000E+00 0. -1.
</event>
<event>
 8    1  0.1247338E-006  0.9118800E+02  0.7816164E-02  0.1184000E+00
        -11   -1    0    0    0    0  0.00000000000E+00  0.00000000000E+00  0.45593999997E+02  0.45594000000E+02  0.51100000000E-03 0. -1.
         11   -1    0    0    0    0 -0.00000000000E+00 -0.00000000000E+00 -0.45593999997E+02  0.45594000000E+02  0.51100000000E-03 0.  1.
         23    2    1    2    0    0  0.00000000000E+00  0.00000000000E+00  0.00000000000E+00  0.91188000000E+02  0.91188000000E+02 0.  0.
    9900012    2    3    3    0    0 -0.22387936210E+02 -0.24164799113E+02 -0.16450592445E+02  0.54367092953E+02  0.40000020006E+02 0.  0.
         12    1    3    3    0    0  0.22387936210E+02  0.24164799113E+02  0.16450592445E+02  0.36820907047E+02  0.00000000000E+00 0. -1.
         11    1    4    4    0    0 -0.14184516915E+02 -0.20901364204E+02  0.52333415353E+01  0.25796422419E+02  0.51100000000E-03 0.  1.
        -11    1    4    4    0    0  0.39225056831E+01 -0.44824547952E+01 -0.43255951466E+01  0.73613331305E+01  0.51100000000E-03 0. -1.
         12    1    4    4    0    0 -0.12125924978E+02  0.12190198863E+01 -0.17358338834E+02  0.21209337404E+02  0.00000000000E+00 0. -1.
</event>
<event>
 8    1  0.1247338E-006  0.9118800E+02  0.7816164E-02  0.1184000E+00
        -11   -1    0    0    0    0  0.00000000000E+00  0.00000000000E+00  0.45593999997E+02  0.45594000000E+02  0.51100000000E-03 0. -1.
         11   -1    0    0    0    0 -0.00000000000E+00 -0.00000000000E+00 -0.45593999997E+02  0.45594000000E+02  0.51100000000E-03 0.  1.
         23    2    1    2    0    0  0.00000000000E+00 -0.35527136788E-14  0.00000000000E+00  0.91188000000E+02  0.91188000000E+02 0.  0.
    9900012    2    3    3    0    0  0.16666763134E+02 -0.22964607996E+02 -0.23465362611E+02  0.54367116575E+02  0.40000073855E+02 0.  0.
         12    1    3    3    0    0 -0.16666763134E+02  0.22964607996E+02  0.23465362611E+02  0.36820883425E+02  0.00000000000E+00 0. -1.
         11    1    4    4    0    0  0.60526248438E+01 -0.11509806761E+01  0.79593842862E+01  0.10065327739E+02  0.51100000000E-03 0. -1.
        -11    1    4    4    0    0  0.13230282387E+02 -0.16512254129E+02 -0.12726539211E+02  0.24691288120E+02  0.51100000000E-03 0.  1.
         12    1    4    4    0    0 -0.26161440972E+01 -0.53013731909E+01 -0.18698207686E+02  0.19610500716E+02  0.00000000000E+00 0. -1.
</event>
<event>
 8    1  0.1247338E-006  0.9118800E+02  0.7816164E-02  0.1184000E+00
        -11   -1    0    0    0    0  0.00000000000E+00  0.00000000000E+00  0.45593999997E+02  0.45594000000E+02  0.51100000000E-03 0.  1.
         11   -1    0    0    0    0 -0.00000000000E+00 -0.00000000000E+00 -0.45593999997E+02  0.45594000000E+02  0.51100000000E-03 0. -1.
         23    2    1    2    0    0  0.88817841970E-15  0.00000000000E+00  0.00000000000E+00  0.91188000000E+02  0.91188000000E+02 0.  0.
    9900012    2    3    3    0    0  0.65659735750E+01  0.35797250975E+02 -0.55878727796E+01  0.54367088706E+02  0.40000010323E+02 0.  0.
        -12    1    3    3    0    0 -0.65659735750E+01 -0.35797250975E+02  0.55878727796E+01  0.36820911294E+02  0.00000000000E+00 0.  1.
         11    1    4    4    0    0 -0.35149737439E+01 -0.39118276841E+01 -0.18005162580E+01  0.55587134579E+01  0.51100000000E-03 0. -1.
        -11    1    4    4    0    0  0.13736718555E+02  0.14064245362E+02 -0.10163116488E+02  0.22131185492E+02  0.51100000000E-03 0.  1.
         12    1    4    4    0    0 -0.36557712360E+01  0.25644833296E+02  0.63757599665E+01  0.26677189756E+02  0.00000000000E+00 0. -1.
</event>
<event>
 8    1  0.1247338E-006  0.9118800E+02  0.7816164E-02  0.1184000E+00
        -11   -1    0    0    0    0  0.00000000000E+00  0.00000000000E+00  0.45593999997E+02  0.45594000000E+02  0.51100000000E-03 0.  1.
         11   -1    0    0    0    0 -0.00000000000E+00 -0.00000000000E+00 -0.45593999997E+02  0.45594000000E+02  0.51100000000E-03 0. -1.
         23    2    1    2    0    0  0.17763568394E-14  0.00000000000E+00 -0.71054273576E-14  0.91188000000E+02  0.91188000000E+02 0.  0.
    9900012    2    3    3    0    0 -0.11124361843E+02  0.10355980967E+02  0.33537832927E+02  0.54367027638E+02  0.39999871107E+02 0.  0.
         12    1    3    3    0    0  0.11124361843E+02 -0.10355980967E+02 -0.33537832927E+02  0.36820972362E+02  0.00000000000E+00 0. -1.
         11    1    4    4    0    0 -0.93089515207E+01  0.10055591603E+02  0.16885084763E+02  0.21745748748E+02  0.51100000000E-03 0. -1.
        -11    1    4    4    0    0 -0.39716150050E+01  0.12879946450E+02  0.14285987451E+02  0.19640676771E+02  0.51100000000E-03 0.  1.
         12    1    4    4    0    0  0.21562046831E+01 -0.12579557086E+02  0.23667607127E+01  0.12980602119E+02  0.00000000000E+00 0. -1.
</event>
<event>
 8    1  0.1247338E-006  0.9118800E+02  0.7816164E-02  0.1184000E+00
        -11   -1    0    0    0    0  0.00000000000E+00  0.00000000000E+00  0.45593999997E+02  0.45594000000E+02  0.51100000000E-03 0. -1.
         11   -1    0    0    0    0 -0.00000000000E+00 -0.00000000000E+00 -0.45593999997E+02  0.45594000000E+02  0.51100000000E-03 0.  1.
         23    2    1    2    0    0  0.00000000000E+00  0.00000000000E+00  0.17763568394E-14  0.91188000000E+02  0.91188000000E+02 0.  0.
    9900012    2    3    3    0    0  0.43927825287E+00 -0.34658060872E+02 -0.12425970398E+02  0.54367097117E+02  0.40000029498E+02 0.  0.
         12    1    3    3    0    0 -0.43927825287E+00  0.34658060872E+02  0.12425970398E+02  0.36820902883E+02  0.00000000000E+00 0. -1.
         11    1    4    4    0    0  0.39805120586E+01  0.11656471425E+01 -0.17855205141E+00  0.41515166633E+01  0.51100000000E-03 0. -1.
        -11    1    4    4    0    0 -0.97172932884E+01 -0.22882763259E+02  0.73574725818E+01  0.25926415993E+02  0.51100000000E-03 0.  1.
        -12    1    4    4    0    0  0.61760594827E+01 -0.12940944756E+02 -0.19604890928E+02  0.24289164461E+02  0.00000000000E+00 0.  1.
</event>
<event>
 8    1  0.1247338E-006  0.9118800E+02  0.7816164E-02  0.1184000E+00
        -11   -1    0    0    0    0  0.00000000000E+00  0.00000000000E+00  0.45593999997E+02  0.45594000000E+02  0.51100000000E-03 0.  1.
         11   -1    0    0    0    0 -0.00000000000E+00 -0.00000000000E+00 -0.45593999997E+02  0.45594000000E+02  0.51100000000E-03 0. -1.
         23    2    1    2    0    0 -0.35527136788E-14 -0.35527136788E-14 -0.17763568394E-14  0.91188000000E+02  0.91188000000E+02 0.  0.
    9900012    2    3    3    0    0  0.13845970115E+02 -0.30966585519E+02  0.14322739872E+02  0.54367065946E+02  0.39999958438E+02 0.  0.
         12    1    3    3    0    0 -0.13845970115E+02  0.30966585519E+02 -0.14322739872E+02  0.36820934054E+02  0.00000000000E+00 0. -1.
         11    1    4    4    0    0 -0.78603156252E+00 -0.41754874416E+01 -0.85742100340E+00  0.43344794417E+01  0.51100000000E-03 0. -1.
        -11    1    4    4    0    0  0.21284777375E+02 -0.20894533997E+01  0.26618868235E+01  0.21552104425E+02  0.51100000000E-03 0.  1.
         12    1    4    4    0    0 -0.66527756977E+01 -0.24701644678E+02  0.12518274052E+02  0.28480482080E+02  0.00000000000E+00 0. -1.
</event>
<event>
 8    1  0.1247338E-006  0.9118800E+02  0.7816164E-02  0.1184000E+00
        -11   -1    0    0    0    0  0.00000000000E+00  0.00000000000E+00  0.45593999997E+02  0.45594000000E+02  0.51100000000E-03 0. -1.
         11   -1    0    0    0    0 -0.00000000000E+00 -0.00000000000E+00 -0.45593999997E+02  0.45594000000E+02  0.51100000000E-03 0.  1.
         23    2    1    2    0    0  0.00000000000E+00  0.00000000000E+00  0.00000000000E+00  0.91188000000E+02  0.91188000000E+02 0.  0.
    9900012    2    3    3    0    0 -0.26831271195E+02  0.41717240300E+01 -0.24868824859E+02  0.54367097714E+02  0.40000030858E+02 0.  0.
         12    1    3    3    0    0  0.26831271195E+02 -0.41717240300E+01  0.24868824859E+02  0.36820902286E+02  0.00000000000E+00 0. -1.
         11    1    4    4    0    0 -0.20495440155E+02 -0.14844199718E+02 -0.12823701224E+02  0.28370066016E+02  0.51100000000E-03 0. -1.
        -11    1    4    4    0    0 -0.92465011623E+01  0.12930705131E+02 -0.10576384401E+02  0.19093476011E+02  0.51100000000E-03 0.  1.
         12    1    4    4    0    0  0.29106701228E+01  0.60852186168E+01 -0.14687392335E+01  0.69035556863E+01  0.00000000000E+00 0. -1.
</event>
<event>
 8    1  0.1247338E-006  0.9118800E+02  0.7816164E-02  0.1184000E+00
        -11   -1    0    0    0    0  0.00000000000E+00  0.00000000000E+00  0.45593999997E+02  0.45594000000E+02  0.51100000000E-03 0.  1.
         11   -1    0    0    0    0 -0.00000000000E+00 -0.00000000000E+00 -0.45593999997E+02  0.45594000000E+02  0.51100000000E-03 0. -1.
         23    2    1    2    0    0  0.00000000000E+00  0.00000000000E+00 -0.44408920985E-15  0.91188000000E+02  0.91188000000E+02 0.  0.
    9900012    2    3    3    0    0  0.33128313006E+02 -0.15765268454E+02  0.31225229537E+01  0.54367096132E+02  0.40000027253E+02 0.  0.
        -12    1    3    3    0    0 -0.33128313006E+02  0.15765268454E+02 -0.31225229537E+01  0.36820903868E+02  0.00000000000E+00 0.  1.
         11    1    4    4    0    0 -0.40672544581E+01 -0.65751416938E+01  0.39157412508E+01  0.86664916156E+01  0.51100000000E-03 0. -1.
        -11    1    4    4    0    0  0.87410560468E+01  0.44057513436E+01  0.83498734662E+01  0.12866121905E+02  0.51100000000E-03 0.  1.
         12    1    4    4    0    0  0.28454511417E+02 -0.13595878104E+02 -0.91430917632E+01  0.32834482612E+02  0.00000000000E+00 0. -1.
</event>
<event>
 8    1  0.1247338E-006  0.9118800E+02  0.7816164E-02  0.1184000E+00
        -11   -1    0    0    0    0  0.00000000000E+00  0.00000000000E+00  0.45593999997E+02  0.45594000000E+02  0.51100000000E-03 0.  1.
         11   -1    0    0    0    0 -0.00000000000E+00 -0.00000000000E+00 -0.45593999997E+02  0.45594000000E+02  0.51100000000E-03 0. -1.
         23    2    1    2    0    0 -0.35527136788E-14  0.00000000000E+00  0.00000000000E+00  0.91188000000E+02  0.91188000000E+02 0.  0.
    9900012    2    3    3    0    0 -0.24432679247E+02  0.18127675586E+02  0.20741528249E+02  0.54367089753E+02  0.40000012709E+02 0.  0.
        -12    1    3    3    0    0  0.24432679247E+02 -0.18127675586E+02 -0.20741528249E+02  0.36820910247E+02  0.00000000000E+00 0.  1.
         11    1    4    4    0    0 -0.72997239059E+01  0.20285061666E+02  0.11067289004E+02  0.24233336173E+02  0.51100000000E-03 0. -1.
        -11    1    4    4    0    0 -0.36608130613E+01 -0.24055000455E+01 -0.72683745245E+01  0.84862978517E+01  0.51100000000E-03 0.  1.
         12    1    4    4    0    0 -0.13472142280E+02  0.24811396505E+00  0.16942613769E+02  0.21647455728E+02  0.00000000000E+00 0. -1.
</event>
<event>
 8    1  0.1247338E-006  0.9118800E+02  0.7816164E-02  0.1184000E+00
        -11   -1    0    0    0    0  0.00000000000E+00  0.00000000000E+00  0.45593999997E+02  0.45594000000E+02  0.51100000000E-03 0.  1.
         11   -1    0    0    0    0 -0.00000000000E+00 -0.00000000000E+00 -0.45593999997E+02  0.45594000000E+02  0.51100000000E-03 0. -1.
         23    2    1    2    0    0  0.35527136788E-14  0.00000000000E+00  0.00000000000E+00  0.91188000000E+02  0.91188000000E+02 0.  0.
    9900012    2    3    3    0    0 -0.22166025683E+02 -0.26700254804E+02 -0.12310343359E+02  0.54367070425E+02  0.39999968648E+02 0.  0.
        -12    1    3    3    0    0  0.22166025683E+02  0.26700254804E+02  0.12310343359E+02  0.36820929575E+02  0.00000000000E+00 0.  1.
         11    1    4    4    0    0 -0.17538213209E+02 -0.20447626782E+02 -0.57807990759E+01  0.27551987257E+02  0.51100000000E-03 0. -1.
        -11    1    4    4    0    0 -0.79621049773E+01  0.80432071983E+01 -0.24594380941E+01  0.11581758662E+02  0.51100000000E-03 0.  1.
         12    1    4    4    0    0  0.33342925029E+01 -0.14295835220E+02 -0.40701061889E+01  0.15233324506E+02  0.00000000000E+00 0. -1.
</event>
<event>
 8    1  0.1247338E-006  0.9118800E+02  0.7816164E-02  0.1184000E+00
        -11   -1    0    0    0    0  0.00000000000E+00  0.00000000000E+00  0.45593999997E+02  0.45594000000E+02  0.51100000000E-03 0.  1.
         11   -1    0    0    0    0 -0.00000000000E+00 -0.00000000000E+00 -0.45593999997E+02  0.45594000000E+02  0.51100000000E-03 0. -1.
         23    2    1    2    0    0  0.00000000000E+00 -0.17763568394E-14  0.35527136788E-14  0.91188000000E+02  0.91188000000E+02 0.  0.
    9900012    2    3    3    0    0 -0.27367353363E+02  0.12320570741E+02 -0.21330956758E+02  0.54367106343E+02  0.40000050530E+02 0.  0.
        -12    1    3    3    0    0  0.27367353363E+02 -0.12320570741E+02  0.21330956758E+02  0.36820893657E+02  0.00000000000E+00 0.  1.
         11    1    4    4    0    0 -0.78224898111E+00 -0.31791760827E+01 -0.77738775951E+01  0.84351791420E+01  0.51100000000E-03 0. -1.
        -11    1    4    4    0    0 -0.18148560332E+02 -0.26547806125E+01  0.45950893724E+01  0.18908541690E+02  0.51100000000E-03 0.  1.
         12    1    4    4    0    0 -0.84365440491E+01  0.18154527436E+02 -0.18152168536E+02  0.27023385511E+02  0.00000000000E+00 0. -1.
</event>
<event>
 8    1  0.1247338E-006  0.9118800E+02  0.7816164E-02  0.1184000E+00
        -11   -1    0    0    0    0  0.00000000000E+00  0.00000000000E+00  0.45593999997E+02  0.45594000000E+02  0.51100000000E-03 0. -1.
         11   -1    0    0    0    0 -0.00000000000E+00 -0.00000000000E+00 -0.45593999997E+02  0.45594000000E+02  0.51100000000E-03 0.  1.
         23    2    1    2    0    0  0.00000000000E+00 -0.88817841970E-15 -0.35527136788E-14  0.91188000000E+02  0.91188000000E+02 0.  0.
    9900012    2    3    3    0    0 -0.32926566076E+02  0.20958292129E+01 -0.16347211527E+02  0.54367047020E+02  0.39999915292E+02 0.  0.
         12    1    3    3    0    0  0.32926566076E+02 -0.20958292129E+01  0.16347211527E+02  0.36820952980E+02  0.00000000000E+00 0. -1.
         11    1    4    4    0    0 -0.30420786523E+02 -0.45826991985E+01 -0.91976053777E+01  0.32109520855E+02  0.51100000000E-03 0. -1.
        -11    1    4    4    0    0 -0.99436045814E+01  0.59696945698E+01 -0.88573407877E+01  0.14593320781E+02  0.51100000000E-03 0.  1.
        -12    1    4    4    0    0  0.74378250288E+01  0.70883384158E+00  0.17077346381E+01  0.76642053840E+01  0.00000000000E+00 0.  1.
</event>
<event>
 8    1  0.1247338E-006  0.9118800E+02  0.7816164E-02  0.1184000E+00
        -11   -1    0    0    0    0  0.00000000000E+00  0.00000000000E+00  0.45593999997E+02  0.45594000000E+02  0.51100000000E-03 0.  1.
         11   -1    0    0    0    0 -0.00000000000E+00 -0.00000000000E+00 -0.45593999997E+02  0.45594000000E+02  0.51100000000E-03 0. -1.
         23    2    1    2    0    0  0.00000000000E+00 -0.22204460493E-15 -0.88817841970E-15  0.91188000000E+02  0.91188000000E+02 0.  0.
    9900012    2    3    3    0    0 -0.36527942777E+02  0.15702286486E+01 -0.43614109287E+01  0.54367107469E+02  0.40000053096E+02 0.  0.
        -12    1    3    3    0    0  0.36527942777E+02 -0.15702286486E+01  0.43614109287E+01  0.36820892531E+02  0.00000000000E+00 0.  1.
         11    1    4    4    0    0 -0.37991355520E+02  0.62442860427E-01  0.76457091405E+01  0.38753114222E+02  0.51100000000E-03 0. -1.
        -11    1    4    4    0    0 -0.11955242579E+01 -0.36890112283E+01 -0.31012487390E+01  0.49654633315E+01  0.51100000000E-03 0.  1.
         12    1    4    4    0    0  0.26589370011E+01  0.51967970165E+01 -0.89058713302E+01  0.10648529915E+02  0.00000000000E+00 0. -1.
</event>
<event>
 8    1  0.1247338E-006  0.9118800E+02  0.7816164E-02  0.1184000E+00
        -11   -1    0    0    0    0  0.00000000000E+00  0.00000000000E+00  0.45593999997E+02  0.45594000000E+02  0.51100000000E-03 0.  1.
         11   -1    0    0    0    0 -0.00000000000E+00 -0.00000000000E+00 -0.45593999997E+02  0.45594000000E+02  0.51100000000E-03 0. -1.
         23    2    1    2    0    0 -0.35527136788E-14  0.00000000000E+00 -0.71054273576E-14  0.91188000000E+02  0.91188000000E+02 0.  0.
    9900012    2    3    3    0    0  0.17952032353E+02 -0.20587961336E+02  0.24690905045E+02  0.54367076471E+02  0.39999982432E+02 0.  0.
         12    1    3    3    0    0 -0.17952032353E+02  0.20587961336E+02 -0.24690905045E+02  0.36820923529E+02  0.00000000000E+00 0. -1.
         11    1    4    4    0    0 -0.23918185406E+00  0.41214953214E+01  0.17334839098E+01  0.44775996215E+01  0.51100000000E-03 0. -1.
        -11    1    4    4    0    0  0.15631075979E+02 -0.24713804327E+02  0.25842808328E+01  0.29356109556E+02  0.51100000000E-03 0.  1.
        -12    1    4    4    0    0  0.25601382279E+01  0.43476697533E-02  0.20373140302E+02  0.20533367294E+02  0.00000000000E+00 0.  1.
</event>
<event>
 8    1  0.1247338E-006  0.9118800E+02  0.7816164E-02  0.1184000E+00
        -11   -1    0    0    0    0  0.00000000000E+00  0.00000000000E+00  0.45593999997E+02  0.45594000000E+02  0.51100000000E-03 0.  1.
         11   -1    0    0    0    0 -0.00000000000E+00 -0.00000000000E+00 -0.45593999997E+02  0.45594000000E+02  0.51100000000E-03 0. -1.
         23    2    1    2    0    0  0.00000000000E+00  0.00000000000E+00  0.00000000000E+00  0.91188000000E+02  0.91188000000E+02 0.  0.
    9900012    2    3    3    0    0  0.44659839789E+01 -0.17913121405E+02 -0.31858358843E+02  0.54367082582E+02  0.39999996362E+02 0.  0.
        -12    1    3    3    0    0 -0.44659839789E+01  0.17913121405E+02  0.31858358843E+02  0.36820917418E+02  0.00000000000E+00 0.  1.
         11    1    4    4    0    0 -0.49915535395E+01  0.13830664218E+01 -0.11856333326E+02  0.12938358460E+02  0.51100000000E-03 0. -1.
        -11    1    4    4    0    0  0.43836099371E+01 -0.10466026137E+02 -0.26854826746E+02  0.29153652584E+02  0.51100000000E-03 0.  1.
        -12    1    4    4    0    0  0.50739275812E+01 -0.88301616894E+01  0.68528012286E+01  0.12275071537E+02  0.00000000000E+00 0.  1.
</event>
<event>
 8    1  0.1247338E-006  0.9118800E+02  0.7816164E-02  0.1184000E+00
        -11   -1    0    0    0    0  0.00000000000E+00  0.00000000000E+00  0.45593999997E+02  0.45594000000E+02  0.51100000000E-03 0.  1.
         11   -1    0    0    0    0 -0.00000000000E+00 -0.00000000000E+00 -0.45593999997E+02  0.45594000000E+02  0.51100000000E-03 0. -1.
         23    2    1    2    0    0  0.88817841970E-15 -0.35527136788E-14 -0.35527136788E-14  0.91188000000E+02  0.91188000000E+02 0.  0.
    9900012    2    3    3    0    0  0.53669297856E+01 -0.25641636282E+02 -0.25874371232E+02  0.54367074792E+02  0.39999978603E+02 0.  0.
        -12    1    3    3    0    0 -0.53669297856E+01  0.25641636282E+02  0.25874371232E+02  0.36820925208E+02  0.00000000000E+00 0.  1.
         11    1    4    4    0    0  0.43349326193E+01 -0.90587457827E+01  0.55912778974E+01  0.11494124793E+02  0.51100000000E-03 0. -1.
        -11    1    4    4    0    0  0.87226249333E+00  0.17108236025E+01  0.31678922602E+01  0.37044973869E+01  0.51100000000E-03 0.  1.
         12    1    4    4    0    0  0.15973467293E+00 -0.18293714102E+02 -0.34633541390E+02  0.39168452612E+02  0.00000000000E+00 0. -1.
</event>
<event>
 8    1  0.1247338E-006  0.9118800E+02  0.7816164E-02  0.1184000E+00
        -11   -1    0    0    0    0  0.00000000000E+00  0.00000000000E+00  0.45593999997E+02  0.45594000000E+02  0.51100000000E-03 0. -1.
         11   -1    0    0    0    0 -0.00000000000E+00 -0.00000000000E+00 -0.45593999997E+02  0.45594000000E+02  0.51100000000E-03 0.  1.
         23    2    1    2    0    0 -0.35527136788E-14  0.00000000000E+00 -0.35527136788E-14  0.91188000000E+02  0.91188000000E+02 0.  0.
    9900012    2    3    3    0    0  0.27005516996E+02 -0.18673071453E+02 -0.16667271904E+02  0.54367088843E+02  0.40000010635E+02 0.  0.
         12    1    3    3    0    0 -0.27005516996E+02  0.18673071453E+02  0.16667271904E+02  0.36820911157E+02  0.00000000000E+00 0. -1.
         11    1    4    4    0    0  0.25416013448E+01  0.26663459571E+01  0.35260693088E+01  0.50992453551E+01  0.51100000000E-03 0. -1.
        -11    1    4    4    0    0  0.45524921854E+01  0.16598229348E+01 -0.18141894403E+02  0.18777873417E+02  0.51100000000E-03 0.  1.
        -12    1    4    4    0    0  0.19911423466E+02 -0.22999240345E+02 -0.20514468094E+01  0.30489970070E+02  0.00000000000E+00 0.  1.
</event>
<event>
 8    1  0.1247338E-006  0.9118800E+02  0.7816164E-02  0.1184000E+00
        -11   -1    0    0    0    0  0.00000000000E+00  0.00000000000E+00  0.45593999997E+02  0.45594000000E+02  0.51100000000E-03 0. -1.
         11   -1    0    0    0    0 -0.00000000000E+00 -0.00000000000E+00 -0.45593999997E+02  0.45594000000E+02  0.51100000000E-03 0.  1.
         23    2    1    2    0    0  0.00000000000E+00  0.00000000000E+00  0.17763568394E-14  0.91188000000E+02  0.91188000000E+02 0.  0.
    9900012    2    3    3    0    0  0.20079883663E+02  0.28839040309E+02  0.10994879814E+02  0.54367090777E+02  0.40000015045E+02 0.  0.
        -12    1    3    3    0    0 -0.20079883663E+02 -0.28839040309E+02 -0.10994879814E+02  0.36820909223E+02  0.00000000000E+00 0.  1.
         11    1    4    4    0    0  0.51473444871E+01  0.10578681869E+02  0.17922628128E+02  0.21438849424E+02  0.51100000000E-03 0. -1.
        -11    1    4    4    0    0 -0.38702189445E+00  0.29042501371E+01 -0.10539002857E+02  0.10938694451E+02  0.51100000000E-03 0.  1.
         12    1    4    4    0    0  0.15319561071E+02  0.15356108303E+02  0.36112545428E+01  0.21989546902E+02  0.00000000000E+00 0. -1.
</event>
<event>
 8    1  0.1247338E-006  0.9118800E+02  0.7816164E-02  0.1184000E+00
        -11   -1    0    0    0    0  0.00000000000E+00  0.00000000000E+00  0.45593999997E+02  0.45594000000E+02  0.51100000000E-03 0. -1.
         11   -1    0    0    0    0 -0.00000000000E+00 -0.00000000000E+00 -0.45593999997E+02  0.45594000000E+02  0.51100000000E-03 0.  1.
         23    2    1    2    0    0  0.00000000000E+00 -0.71054273576E-14 -0.17763568394E-14  0.91188000000E+02  0.91188000000E+02 0.  0.
    9900012    2    3    3    0    0 -0.42738237546E+01 -0.35082931527E+02  0.10329689481E+02  0.54367080147E+02  0.39999990811E+02 0.  0.
         12    1    3    3    0    0  0.42738237546E+01  0.35082931527E+02 -0.10329689481E+02  0.36820919853E+02  0.00000000000E+00 0. -1.
         11    1    4    4    0    0 -0.20608528260E+01  0.76201063861E+01  0.58806265128E+01  0.98435209224E+01  0.51100000000E-03 0. -1.
        -11    1    4    4    0    0 -0.49682393078E+01 -0.32941737937E+02  0.70513176168E+01  0.34052350587E+02  0.51100000000E-03 0.  1.
        -12    1    4    4    0    0  0.27552683792E+01 -0.97612999765E+01 -0.26022546486E+01  0.10471208637E+02  0.00000000000E+00 0.  1.
</event>
<event>
 8    1  0.1247338E-006  0.9118800E+02  0.7816164E-02  0.1184000E+00
        -11   -1    0    0    0    0  0.00000000000E+00  0.00000000000E+00  0.45593999997E+02  0.45594000000E+02  0.51100000000E-03 0.  1.
         11   -1    0    0    0    0 -0.00000000000E+00 -0.00000000000E+00 -0.45593999997E+02  0.45594000000E+02  0.51100000000E-03 0. -1.
         23    2    1    2    0    0  0.00000000000E+00  0.00000000000E+00  0.00000000000E+00  0.91188000000E+02  0.91188000000E+02 0.  0.
    9900012    2    3    3    0    0 -0.15778749248E+02  0.24021036791E+02 -0.23017485663E+02  0.54367030668E+02  0.39999878013E+02 0.  0.
        -12    1    3    3    0    0  0.15778749248E+02 -0.24021036791E+02  0.23017485663E+02  0.36820969332E+02  0.00000000000E+00 0.  1.
         11    1    4    4    0    0 -0.16769612546E+02  0.11123478283E+01 -0.18191610286E+02  0.24766750044E+02  0.51100000000E-03 0. -1.
        -11    1    4    4    0    0  0.54497776044E+01 -0.28479771147E+00 -0.20064607619E+01  0.58143848104E+01  0.51100000000E-03 0.  1.
        -12    1    4    4    0    0 -0.44589143056E+01  0.23193486674E+02 -0.28194146147E+01  0.23785895814E+02  0.00000000000E+00 0.  1.
</event>
<event>
 8    1  0.1247338E-006  0.9118800E+02  0.7816164E-02  0.1184000E+00
        -11   -1    0    0    0    0  0.00000000000E+00  0.00000000000E+00  0.45593999997E+02  0.45594000000E+02  0.51100000000E-03 0.  1.
         11   -1    0    0    0    0 -0.00000000000E+00 -0.00000000000E+00 -0.45593999997E+02  0.45594000000E+02  0.51100000000E-03 0. -1.
         23    2    1    2    0    0  0.55511151231E-15  0.00000000000E+00  0.00000000000E+00  0.91188000000E+02  0.91188000000E+02 0.  0.
    9900012    2    3    3    0    0 -0.68421773698E+00  0.16328433689E+02 -0.32995361361E+02  0.54367085128E+02  0.40000002167E+02 0.  0.
        -12    1    3    3    0    0  0.68421773698E+00 -0.16328433689E+02  0.32995361361E+02  0.36820914872E+02  0.00000000000E+00 0.  1.
         11    1    4    4    0    0 -0.29696094756E+01 -0.60684784618E+01 -0.24361578894E+01  0.71819131714E+01  0.51100000000E-03 0. -1.
        -11    1    4    4    0    0 -0.43365466959E+01  0.27121564486E+02 -0.26190520754E+02  0.37951657078E+02  0.51100000000E-03 0.  1.
        -12    1    4    4    0    0  0.66219384344E+01 -0.47246523351E+01 -0.43686827181E+01  0.92335148784E+01  0.00000000000E+00 0.  1.
</event>
<event>
 8    1  0.1247338E-006  0.9118800E+02  0.7816164E-02  0.1184000E+00
        -11   -1    0    0    0    0  0.00000000000E+00  0.00000000000E+00  0.45593999997E+02  0.45594000000E+02  0.51100000000E-03 0.  1.
         11   -1    0    0    0    0 -0.00000000000E+00 -0.00000000000E+00 -0.45593999997E+02  0.45594000000E+02  0.51100000000E-03 0. -1.
         23    2    1    2    0    0 -0.17763568394E-14  0.00000000000E+00  0.00000000000E+00  0.91188000000E+02  0.91188000000E+02 0.  0.
    9900012    2    3    3    0    0  0.91222324429E+01  0.34551766966E+02 -0.88735920331E+01  0.54367077133E+02  0.39999983941E+02 0.  0.
        -12    1    3    3    0    0 -0.91222324429E+01 -0.34551766966E+02  0.88735920331E+01  0.36820922867E+02  0.00000000000E+00 0.  1.
         11    1    4    4    0    0  0.79863843136E+01  0.10132023149E+01 -0.82213628936E+01  0.11506507786E+02  0.51100000000E-03 0. -1.
        -11    1    4    4    0    0 -0.25443928100E+01 -0.11225769603E+01  0.66852844357E+01  0.72406589514E+01  0.51100000000E-03 0.  1.
         12    1    4    4    0    0  0.36802409392E+01  0.34661141611E+02 -0.73375135752E+01  0.35619910396E+02  0.00000000000E+00 0. -1.
</event>
<event>
 8    1  0.1247338E-006  0.9118800E+02  0.7816164E-02  0.1184000E+00
        -11   -1    0    0    0    0  0.00000000000E+00  0.00000000000E+00  0.45593999997E+02  0.45594000000E+02  0.51100000000E-03 0.  1.
         11   -1    0    0    0    0 -0.00000000000E+00 -0.00000000000E+00 -0.45593999997E+02  0.45594000000E+02  0.51100000000E-03 0. -1.
         23    2    1    2    0    0  0.00000000000E+00 -0.83266726847E-16  0.00000000000E+00  0.91188000000E+02  0.91188000000E+02 0.  0.
    9900012    2    3    3    0    0  0.16512149315E+02 -0.20348386199E+00  0.32910282396E+02  0.54367093329E+02  0.40000020862E+02 0.  0.
         12    1    3    3    0    0 -0.16512149315E+02  0.20348386199E+00 -0.32910282396E+02  0.36820906671E+02  0.00000000000E+00 0. -1.
         11    1    4    4    0    0  0.11035637882E+02  0.77237904842E+01 -0.30993876734E+01  0.13822027605E+02  0.51100000000E-03 0. -1.
        -11    1    4    4    0    0  0.26623236299E+01  0.20700193813E+01  0.33457462738E+00  0.33889360855E+01  0.51100000000E-03 0.  1.
        -12    1    4    4    0    0  0.28141878032E+01 -0.99972937275E+01  0.35675095442E+02  0.37156129638E+02  0.00000000000E+00 0.  1.
</event>
<event>
 8    1  0.1247338E-006  0.9118800E+02  0.7816164E-02  0.1184000E+00
        -11   -1    0    0    0    0  0.00000000000E+00  0.00000000000E+00  0.45593999997E+02  0.45594000000E+02  0.51100000000E-03 0. -1.
         11   -1    0    0    0    0 -0.00000000000E+00 -0.00000000000E+00 -0.45593999997E+02  0.45594000000E+02  0.51100000000E-03 0.  1.
         23    2    1    2    0    0 -0.17763568394E-14  0.00000000000E+00  0.88817841970E-15  0.91188000000E+02  0.91188000000E+02 0.  0.
    9900012    2    3    3    0    0 -0.12606425238E+02  0.34442748228E+02 -0.32482693811E+01  0.54367134764E+02  0.40000115320E+02 0.  0.
         12    1    3    3    0    0  0.12606425238E+02 -0.34442748228E+02  0.32482693811E+01  0.36820865236E+02  0.00000000000E+00 0. -1.
         11    1    4    4    0    0 -0.15614175860E+02  0.16826256749E+02  0.37730966688E+01  0.23262881651E+02  0.51100000000E-03 0. -1.
        -11    1    4    4    0    0 -0.42990859863E+01  0.20013355431E+02  0.32039586803E+00  0.20472400683E+02  0.51100000000E-03 0.  1.
        -12    1    4    4    0    0  0.73068366090E+01 -0.23968639518E+01 -0.73417619179E+01  0.10631852430E+02  0.00000000000E+00 0.  1.
</event>
<event>
 8    1  0.1247338E-006  0.9118800E+02  0.7816164E-02  0.1184000E+00
        -11   -1    0    0    0    0  0.00000000000E+00  0.00000000000E+00  0.45593999997E+02  0.45594000000E+02  0.51100000000E-03 0. -1.
         11   -1    0    0    0    0 -0.00000000000E+00 -0.00000000000E+00 -0.45593999997E+02  0.45594000000E+02  0.51100000000E-03 0.  1.
         23    2    1    2    0    0  0.00000000000E+00  0.35527136788E-14  0.71054273576E-14  0.91188000000E+02  0.91188000000E+02 0.  0.
    9900012    2    3    3    0    0  0.86453920265E+01  0.19894568010E+02  0.29753036257E+02  0.54367084665E+02  0.40000001111E+02 0.  0.
        -12    1    3    3    0    0 -0.86453920265E+01 -0.19894568010E+02 -0.29753036257E+02  0.36820915335E+02  0.00000000000E+00 0.  1.
         11    1    4    4    0    0  0.29768643220E+01  0.34140369747E+01  0.29909840427E+02  0.30250883034E+02  0.51100000000E-03 0. -1.
        -11    1    4    4    0    0  0.62135477731E+01  0.10274098565E+02 -0.77524949455E+01  0.14292181618E+02  0.51100000000E-03 0.  1.
        -12    1    4    4    0    0 -0.54502006858E+00  0.62064324701E+01  0.75956907748E+01  0.98240200136E+01  0.00000000000E+00 0.  1.
</event>
<event>
 8    1  0.1247338E-006  0.9118800E+02  0.7816164E-02  0.1184000E+00
        -11   -1    0    0    0    0  0.00000000000E+00  0.00000000000E+00  0.45593999997E+02  0.45594000000E+02  0.51100000000E-03 0. -1.
         11   -1    0    0    0    0 -0.00000000000E+00 -0.00000000000E+00 -0.45593999997E+02  0.45594000000E+02  0.51100000000E-03 0.  1.
         23    2    1    2    0    0  0.00000000000E+00 -0.71054273576E-14 -0.33306690739E-15  0.91188000000E+02  0.91188000000E+02 0.  0.
    9900012    2    3    3    0    0 -0.50681917963E+01 -0.36468291929E+02  0.39164304119E+00  0.54367132702E+02  0.40000110620E+02 0.  0.
         12    1    3    3    0    0  0.50681917963E+01  0.36468291929E+02 -0.39164304119E+00  0.36820867298E+02  0.00000000000E+00 0. -1.
         11    1    4    4    0    0  0.60576613769E+00 -0.12315869807E+02  0.14949853736E+02  0.19379002263E+02  0.51100000000E-03 0. -1.
        -11    1    4    4    0    0  0.73849153654E+00 -0.17428291529E+02  0.32004545583E+00  0.17446866330E+02  0.51100000000E-03 0.  1.
        -12    1    4    4    0    0 -0.64124494706E+01 -0.67241305929E+01 -0.14878256151E+02  0.17541264109E+02  0.00000000000E+00 0.  1.
</event>
<event>
 8    1  0.1247338E-006  0.9118800E+02  0.7816164E-02  0.1184000E+00
        -11   -1    0    0    0    0  0.00000000000E+00  0.00000000000E+00  0.45593999997E+02  0.45594000000E+02  0.51100000000E-03 0. -1.
         11   -1    0    0    0    0 -0.00000000000E+00 -0.00000000000E+00 -0.45593999997E+02  0.45594000000E+02  0.51100000000E-03 0.  1.
         23    2    1    2    0    0  0.22204460493E-15  0.27755575616E-15 -0.71054273576E-14  0.91188000000E+02  0.91188000000E+02 0.  0.
    9900012    2    3    3    0    0 -0.19748369769E+01 -0.45308581296E+00 -0.36765127216E+02  0.54367084109E+02  0.39999999844E+02 0.  0.
         12    1    3    3    0    0  0.19748369769E+01  0.45308581296E+00  0.36765127216E+02  0.36820915891E+02  0.00000000000E+00 0. -1.
         11    1    4    4    0    0  0.39973707729E+01 -0.32511157914E+01 -0.15915247674E+02  0.16728533581E+02  0.51100000000E-03 0. -1.
        -11    1    4    4    0    0  0.91755265962E+01 -0.83029300645E+01 -0.10286345498E+02  0.16091545604E+02  0.51100000000E-03 0.  1.
         12    1    4    4    0    0 -0.15147734346E+02  0.11100960043E+02 -0.10563534044E+02  0.21547004924E+02  0.00000000000E+00 0. -1.
</event>
<event>
 8    1  0.1247338E-006  0.9118800E+02  0.7816164E-02  0.1184000E+00
        -11   -1    0    0    0    0  0.00000000000E+00  0.00000000000E+00  0.45593999997E+02  0.45594000000E+02  0.51100000000E-03 0.  1.
         11   -1    0    0    0    0 -0.00000000000E+00 -0.00000000000E+00 -0.45593999997E+02  0.45594000000E+02  0.51100000000E-03 0. -1.
         23    2    1    2    0    0  0.88817841970E-15  0.71054273576E-14  0.00000000000E+00  0.91188000000E+02  0.91188000000E+02 0.  0.
    9900012    2    3    3    0    0 -0.70135658739E+01 -0.34767588805E+02 -0.98896610555E+01  0.54367072073E+02  0.39999972405E+02 0.  0.
         12    1    3    3    0    0  0.70135658739E+01  0.34767588805E+02  0.98896610555E+01  0.36820927927E+02  0.00000000000E+00 0. -1.
         11    1    4    4    0    0 -0.34380859250E+01  0.45090290411E+01 -0.74468646661E+00  0.57189453499E+01  0.51100000000E-03 0. -1.
        -11    1    4    4    0    0  0.40120400325E+01 -0.36425273911E+02 -0.29440357542E+00  0.36646742263E+02  0.51100000000E-03 0.  1.
        -12    1    4    4    0    0 -0.75875199814E+01 -0.28513439351E+01 -0.88505710135E+01  0.12001384461E+02  0.00000000000E+00 0.  1.
</event>
<event>
 8    1  0.1247338E-006  0.9118800E+02  0.7816164E-02  0.1184000E+00
        -11   -1    0    0    0    0  0.00000000000E+00  0.00000000000E+00  0.45593999997E+02  0.45594000000E+02  0.51100000000E-03 0. -1.
         11   -1    0    0    0    0 -0.00000000000E+00 -0.00000000000E+00 -0.45593999997E+02  0.45594000000E+02  0.51100000000E-03 0.  1.
         23    2    1    2    0    0  0.17763568394E-14  0.17763568394E-14 -0.35527136788E-14  0.91188000000E+02  0.91188000000E+02 0.  0.
    9900012    2    3    3    0    0  0.12757659925E+02 -0.13011993483E+02 -0.31995466106E+02  0.54367085936E+02  0.40000004008E+02 0.  0.
         12    1    3    3    0    0 -0.12757659925E+02  0.13011993483E+02  0.31995466106E+02  0.36820914064E+02  0.00000000000E+00 0. -1.
         11    1    4    4    0    0  0.15505384853E+02  0.15215393219E+01 -0.33088442336E+01  0.15927350432E+02  0.51100000000E-03 0. -1.
        -11    1    4    4    0    0  0.60880428086E-01 -0.55740416363E+01 -0.28508784166E+02  0.29048656105E+02  0.51100000000E-03 0.  1.
         12    1    4    4    0    0 -0.28086053557E+01 -0.89594911683E+01 -0.17783770626E+00  0.93910793995E+01  0.00000000000E+00 0. -1.
</event>
<event>
 8    1  0.1247338E-006  0.9118800E+02  0.7816164E-02  0.1184000E+00
        -11   -1    0    0    0    0  0.00000000000E+00  0.00000000000E+00  0.45593999997E+02  0.45594000000E+02  0.51100000000E-03 0.  1.
         11   -1    0    0    0    0 -0.00000000000E+00 -0.00000000000E+00 -0.45593999997E+02  0.45594000000E+02  0.51100000000E-03 0. -1.
         23    2    1    2    0    0  0.71054273576E-14  0.00000000000E+00  0.00000000000E+00  0.91188000000E+02  0.91188000000E+02 0.  0.
    9900012    2    3    3    0    0 -0.34991772751E+02 -0.11039417525E+02  0.30801554245E+01  0.54367078542E+02  0.39999987152E+02 0.  0.
        -12    1    3    3    0    0  0.34991772751E+02  0.11039417525E+02 -0.30801554245E+01  0.36820921458E+02  0.00000000000E+00 0.  1.
         11    1    4    4    0    0 -0.22401342594E+02 -0.70989842040E+01 -0.48653908395E+01  0.23997661449E+02  0.51100000000E-03 0. -1.
        -11    1    4    4    0    0  0.69356639627E+01 -0.51799253591E+01 -0.12580055874E+01  0.87474361758E+01  0.51100000000E-03 0.  1.
         12    1    4    4    0    0 -0.19526094121E+02  0.12394920385E+01  0.92035518515E+01  0.21621980918E+02  0.00000000000E+00 0. -1.
</event>
<event>
 8    1  0.1247338E-006  0.9118800E+02  0.7816164E-02  0.1184000E+00
        -11   -1    0    0    0    0  0.00000000000E+00  0.00000000000E+00  0.45593999997E+02  0.45594000000E+02  0.51100000000E-03 0. -1.
         11   -1    0    0    0    0 -0.00000000000E+00 -0.00000000000E+00 -0.45593999997E+02  0.45594000000E+02  0.51100000000E-03 0.  1.
         23    2    1    2    0    0 -0.35527136788E-14 -0.88817841970E-15 -0.35527136788E-14  0.91188000000E+02  0.91188000000E+02 0.  0.
    9900012    2    3    3    0    0 -0.27507384264E+02 -0.72272311131E+01 -0.23385679460E+02  0.54367094764E+02  0.40000024133E+02 0.  0.
         12    1    3    3    0    0  0.27507384264E+02  0.72272311131E+01  0.23385679460E+02  0.36820905236E+02  0.00000000000E+00 0. -1.
         11    1    4    4    0    0 -0.91714845596E+00 -0.69438456813E+01 -0.55081795211E+01  0.89105665383E+01  0.51100000000E-03 0. -1.
        -11    1    4    4    0    0 -0.20765716331E+02 -0.75202882023E+01 -0.25287000942E+02  0.33573830974E+02  0.51100000000E-03 0.  1.
        -12    1    4    4    0    0 -0.58245194769E+01  0.72369027705E+01  0.74095010033E+01  0.11882697251E+02  0.00000000000E+00 0.  1.
</event>
<event>
 8    1  0.1247338E-006  0.9118800E+02  0.7816164E-02  0.1184000E+00
        -11   -1    0    0    0    0  0.00000000000E+00  0.00000000000E+00  0.45593999997E+02  0.45594000000E+02  0.51100000000E-03 0.  1.
         11   -1    0    0    0    0 -0.00000000000E+00 -0.00000000000E+00 -0.45593999997E+02  0.45594000000E+02  0.51100000000E-03 0. -1.
         23    2    1    2    0    0  0.88817841970E-15  0.00000000000E+00  0.00000000000E+00  0.91188000000E+02  0.91188000000E+02 0.  0.
    9900012    2    3    3    0    0  0.51769780089E+01  0.32314603947E+02  0.16874382542E+02  0.54367088608E+02  0.40000010100E+02 0.  0.
         12    1    3    3    0    0 -0.51769780089E+01 -0.32314603947E+02 -0.16874382542E+02  0.36820911392E+02  0.00000000000E+00 0. -1.
         11    1    4    4    0    0 -0.57593632292E+01  0.11162452140E+02 -0.28144477172E+01  0.12872129537E+02  0.51100000000E-03 0. -1.
        -11    1    4    4    0    0 -0.58057797220E+00  0.48637255557E+01 -0.67714679780E+01  0.83573725478E+01  0.51100000000E-03 0.  1.
        -12    1    4    4    0    0  0.11516919210E+02  0.16288426251E+02  0.26460298237E+02  0.33137586524E+02  0.00000000000E+00 0.  1.
</event>
<event>
 8    1  0.1247338E-006  0.9118800E+02  0.7816164E-02  0.1184000E+00
        -11   -1    0    0    0    0  0.00000000000E+00  0.00000000000E+00  0.45593999997E+02  0.45594000000E+02  0.51100000000E-03 0.  1.
         11   -1    0    0    0    0 -0.00000000000E+00 -0.00000000000E+00 -0.45593999997E+02  0.45594000000E+02  0.51100000000E-03 0. -1.
         23    2    1    2    0    0 -0.35527136788E-14  0.00000000000E+00 -0.44408920985E-15  0.91188000000E+02  0.91188000000E+02 0.  0.
    9900012    2    3    3    0    0 -0.23683416493E+02 -0.28031120214E+02 -0.30230302153E+01  0.54366992017E+02  0.39999789899E+02 0.  0.
        -12    1    3    3    0    0  0.23683416493E+02  0.28031120214E+02  0.30230302153E+01  0.36821007983E+02  0.00000000000E+00 0.  1.
         11    1    4    4    0    0  0.14761683117E+01 -0.26009486021E+02 -0.50645683028E+01  0.26539070977E+02  0.51100000000E-03 0. -1.
        -11    1    4    4    0    0 -0.16784410829E+02 -0.60419170458E+01  0.41195323162E+01  0.18308242822E+02  0.51100000000E-03 0.  1.
         12    1    4    4    0    0 -0.83751739760E+01  0.40202828532E+01 -0.20779942287E+01  0.95196782174E+01  0.00000000000E+00 0. -1.
</event>
<event>
 8    1  0.1247338E-006  0.9118800E+02  0.7816164E-02  0.1184000E+00
        -11   -1    0    0    0    0  0.00000000000E+00  0.00000000000E+00  0.45593999997E+02  0.45594000000E+02  0.51100000000E-03 0.  1.
         11   -1    0    0    0    0 -0.00000000000E+00 -0.00000000000E+00 -0.45593999997E+02  0.45594000000E+02  0.51100000000E-03 0. -1.
         23    2    1    2    0    0  0.00000000000E+00  0.35527136788E-14 -0.35527136788E-14  0.91188000000E+02  0.91188000000E+02 0.  0.
    9900012    2    3    3    0    0  0.13623780896E+02  0.26336232922E+02 -0.21830846148E+02  0.54366940619E+02  0.39999672728E+02 0.  0.
        -12    1    3    3    0    0 -0.13623780896E+02 -0.26336232922E+02  0.21830846148E+02  0.36821059381E+02  0.00000000000E+00 0.  1.
         11    1    4    4    0    0 -0.12387625649E+00 -0.54774110532E+01 -0.12002684466E+02  0.13194006663E+02  0.51100000000E-03 0. -1.
        -11    1    4    4    0    0  0.68302034489E+01  0.17000651338E+02  0.51171342314E+01  0.19022588890E+02  0.51100000000E-03 0.  1.
        -12    1    4    4    0    0  0.69174537038E+01  0.14812992637E+02 -0.14945295913E+02  0.22150345066E+02  0.00000000000E+00 0.  1.
</event>
<event>
 8    1  0.1247338E-006  0.9118800E+02  0.7816164E-02  0.1184000E+00
        -11   -1    0    0    0    0  0.00000000000E+00  0.00000000000E+00  0.45593999997E+02  0.45594000000E+02  0.51100000000E-03 0.  1.
         11   -1    0    0    0    0 -0.00000000000E+00 -0.00000000000E+00 -0.45593999997E+02  0.45594000000E+02  0.51100000000E-03 0. -1.
         23    2    1    2    0    0  0.35527136788E-14  0.00000000000E+00  0.00000000000E+00  0.91188000000E+02  0.91188000000E+02 0.  0.
    9900012    2    3    3    0    0  0.15968473994E+02 -0.24990598997E+02 -0.21823285196E+02  0.54367109507E+02  0.40000057744E+02 0.  0.
        -12    1    3    3    0    0 -0.15968473994E+02  0.24990598997E+02  0.21823285196E+02  0.36820890493E+02  0.00000000000E+00 0.  1.
         11    1    4    4    0    0 -0.86870755011E+01 -0.11985079055E+02 -0.67383078469E+01  0.16263830841E+02  0.51100000000E-03 0. -1.
        -11    1    4    4    0    0  0.29359941140E+01 -0.12938695235E+02 -0.54884291828E+01  0.14358020441E+02  0.51100000000E-03 0.  1.
        -12    1    4    4    0    0  0.21719555381E+02 -0.66824706928E-01 -0.95965481663E+01  0.23745258225E+02  0.00000000000E+00 0.  1.
</event>
<event>
 8    1  0.1247338E-006  0.9118800E+02  0.7816164E-02  0.1184000E+00
        -11   -1    0    0    0    0  0.00000000000E+00  0.00000000000E+00  0.45593999997E+02  0.45594000000E+02  0.51100000000E-03 0. -1.
         11   -1    0    0    0    0 -0.00000000000E+00 -0.00000000000E+00 -0.45593999997E+02  0.45594000000E+02  0.51100000000E-03 0.  1.
         23    2    1    2    0    0  0.33306690739E-15  0.00000000000E+00  0.00000000000E+00  0.91188000000E+02  0.91188000000E+02 0.  0.
    9900012    2    3    3    0    0  0.43625011348E+00  0.11497897287E+02 -0.34976960685E+02  0.54367085632E+02  0.40000003315E+02 0.  0.
         12    1    3    3    0    0 -0.43625011348E+00 -0.11497897287E+02  0.34976960685E+02  0.36820914368E+02  0.00000000000E+00 0. -1.
         11    1    4    4    0    0 -0.34599439419E+01  0.11238594216E+02 -0.14538417332E+02  0.18698737680E+02  0.51100000000E-03 0. -1.
        -11    1    4    4    0    0 -0.85666528385E+01  0.10144653459E+02 -0.82989063418E+01  0.15658013328E+02  0.51100000000E-03 0.  1.
         12    1    4    4    0    0  0.12462846894E+02 -0.98853503882E+01 -0.12139637011E+02  0.20010334624E+02  0.00000000000E+00 0. -1.
</event>
<event>
 8    1  0.1247338E-006  0.9118800E+02  0.7816164E-02  0.1184000E+00
        -11   -1    0    0    0    0  0.00000000000E+00  0.00000000000E+00  0.45593999997E+02  0.45594000000E+02  0.51100000000E-03 0. -1.
         11   -1    0    0    0    0 -0.00000000000E+00 -0.00000000000E+00 -0.45593999997E+02  0.45594000000E+02  0.51100000000E-03 0.  1.
         23    2    1    2    0    0  0.00000000000E+00 -0.17763568394E-14  0.00000000000E+00  0.91188000000E+02  0.91188000000E+02 0.  0.
    9900012    2    3    3    0    0 -0.15298819237E+02  0.15617040316E+02 -0.29628202474E+02  0.54367133632E+02  0.40000112740E+02 0.  0.
         12    1    3    3    0    0  0.15298819237E+02 -0.15617040316E+02  0.29628202474E+02  0.36820866368E+02  0.00000000000E+00 0. -1.
         11    1    4    4    0    0 -0.13217095687E+01  0.75091098296E+01 -0.19564433575E+02  0.20997635771E+02  0.51100000000E-03 0.  1.
        -11    1    4    4    0    0 -0.63066584483E+01 -0.99806615634E+01 -0.62374859851E+01  0.13352669310E+02  0.51100000000E-03 0. -1.
        -12    1    4    4    0    0 -0.76704512204E+01  0.18088592050E+02 -0.38262829141E+01  0.20016828551E+02  0.00000000000E+00 0.  1.
</event>
<event>
 8    1  0.1247338E-006  0.9118800E+02  0.7816164E-02  0.1184000E+00
        -11   -1    0    0    0    0  0.00000000000E+00  0.00000000000E+00  0.45593999997E+02  0.45594000000E+02  0.51100000000E-03 0. -1.
         11   -1    0    0    0    0 -0.00000000000E+00 -0.00000000000E+00 -0.45593999997E+02  0.45594000000E+02  0.51100000000E-03 0.  1.
         23    2    1    2    0    0 -0.35527136788E-14  0.00000000000E+00 -0.11102230246E-14  0.91188000000E+02  0.91188000000E+02 0.  0.
    9900012    2    3    3    0    0 -0.29800487915E+02 -0.21623373897E+02  0.37504461182E+00  0.54367081528E+02  0.39999993959E+02 0.  0.
        -12    1    3    3    0    0  0.29800487915E+02  0.21623373897E+02 -0.37504461182E+00  0.36820918472E+02  0.00000000000E+00 0.  1.
         11    1    4    4    0    0 -0.88026449154E+01 -0.14600757933E+02  0.72268107479E+01  0.18517437284E+02  0.51100000000E-03 0. -1.
        -11    1    4    4    0    0  0.26633825436E+01 -0.92642017846E+01 -0.72783707378E+01  0.12078647364E+02  0.51100000000E-03 0.  1.
         12    1    4    4    0    0 -0.23661225543E+02  0.22415858201E+01  0.42660460172E+00  0.23770996880E+02  0.00000000000E+00 0. -1.
</event>
<event>
 8    1  0.1247338E-006  0.9118800E+02  0.7816164E-02  0.1184000E+00
        -11   -1    0    0    0    0  0.00000000000E+00  0.00000000000E+00  0.45593999997E+02  0.45594000000E+02  0.51100000000E-03 0.  1.
         11   -1    0    0    0    0 -0.00000000000E+00 -0.00000000000E+00 -0.45593999997E+02  0.45594000000E+02  0.51100000000E-03 0. -1.
         23    2    1    2    0    0  0.35527136788E-14  0.00000000000E+00  0.00000000000E+00  0.91188000000E+02  0.91188000000E+02 0.  0.
    9900012    2    3    3    0    0  0.55192426561E+01 -0.21423910285E+02 -0.29433392670E+02  0.54367210010E+02  0.40000286859E+02 0.  0.
        -12    1    3    3    0    0 -0.55192426561E+01  0.21423910285E+02  0.29433392670E+02  0.36820789990E+02  0.00000000000E+00 0.  1.
         11    1    4    4    0    0 -0.12814717698E+02 -0.20487794337E+02 -0.86433778069E+01  0.25664658320E+02  0.51100000000E-03 0. -1.
        -11    1    4    4    0    0  0.22732401028E+01  0.30937223358E+00  0.13138086840E+00  0.22979540765E+01  0.51100000000E-03 0.  1.
         12    1    4    4    0    0  0.16060720251E+02 -0.12454881815E+01 -0.20921395732E+02  0.26404597614E+02  0.00000000000E+00 0. -1.
</event>
<event>
 8    1  0.1247338E-006  0.9118800E+02  0.7816164E-02  0.1184000E+00
        -11   -1    0    0    0    0  0.00000000000E+00  0.00000000000E+00  0.45593999997E+02  0.45594000000E+02  0.51100000000E-03 0.  1.
         11   -1    0    0    0    0 -0.00000000000E+00 -0.00000000000E+00 -0.45593999997E+02  0.45594000000E+02  0.51100000000E-03 0. -1.
         23    2    1    2    0    0  0.00000000000E+00  0.00000000000E+00  0.35527136788E-14  0.91188000000E+02  0.91188000000E+02 0.  0.
    9900012    2    3    3    0    0 -0.24387735807E+02  0.24128647562E+02 -0.13372589826E+02  0.54367089506E+02  0.40000012147E+02 0.  0.
        -12    1    3    3    0    0  0.24387735807E+02 -0.24128647562E+02  0.13372589826E+02  0.36820910494E+02  0.00000000000E+00 0.  1.
         11    1    4    4    0    0  0.10951384495E+01  0.12968422521E+02  0.98760483001E+01  0.16337553097E+02  0.51100000000E-03 0. -1.
        -11    1    4    4    0    0 -0.56800822761E+01 -0.72334096418E+00 -0.96716143474E+01  0.11239514276E+02  0.51100000000E-03 0.  1.
         12    1    4    4    0    0 -0.19802791980E+02  0.11883566006E+02 -0.13577023778E+02  0.26790022133E+02  0.00000000000E+00 0. -1.
</event>
<event>
 8    1  0.1247338E-006  0.9118800E+02  0.7816164E-02  0.1184000E+00
        -11   -1    0    0    0    0  0.00000000000E+00  0.00000000000E+00  0.45593999997E+02  0.45594000000E+02  0.51100000000E-03 0.  1.
         11   -1    0    0    0    0 -0.00000000000E+00 -0.00000000000E+00 -0.45593999997E+02  0.45594000000E+02  0.51100000000E-03 0. -1.
         23    2    1    2    0    0  0.00000000000E+00  0.44408920985E-15  0.00000000000E+00  0.91188000000E+02  0.91188000000E+02 0.  0.
    9900012    2    3    3    0    0  0.23290295601E+02 -0.31596539930E+01 -0.28343580927E+02  0.54367083902E+02  0.39999999371E+02 0.  0.
        -12    1    3    3    0    0 -0.23290295601E+02  0.31596539930E+01  0.28343580927E+02  0.36820916098E+02  0.00000000000E+00 0.  1.
         11    1    4    4    0    0  0.20711140288E+02 -0.16042657991E+01 -0.20208470155E+02  0.28981153653E+02  0.51100000000E-03 0. -1.
        -11    1    4    4    0    0  0.25686488887E+01 -0.12635739268E+02 -0.53562943230E+01  0.13962440801E+02  0.51100000000E-03 0.  1.
        -12    1    4    4    0    0  0.10506423891E-01  0.11080351075E+02 -0.27788164489E+01  0.11423489448E+02  0.00000000000E+00 0.  1.
</event>
<event>
 8    1  0.1247338E-006  0.9118800E+02  0.7816164E-02  0.1184000E+00
        -11   -1    0    0    0    0  0.00000000000E+00  0.00000000000E+00  0.45593999997E+02  0.45594000000E+02  0.51100000000E-03 0. -1.
         11   -1    0    0    0    0 -0.00000000000E+00 -0.00000000000E+00 -0.45593999997E+02  0.45594000000E+02  0.51100000000E-03 0.  1.
         23    2    1    2    0    0  0.00000000000E+00 -0.17763568394E-14 -0.88817841970E-15  0.91188000000E+02  0.91188000000E+02 0.  0.
    9900012    2    3    3    0    0 -0.33200298268E+02 -0.14906163519E+02  0.55954521565E+01  0.54367318302E+02  0.40000533728E+02 0.  0.
        -12    1    3    3    0    0  0.33200298268E+02  0.14906163519E+02 -0.55954521565E+01  0.36820681698E+02  0.00000000000E+00 0.  1.
         11    1    4    4    0    0 -0.18076781354E+02 -0.91939547466E+01 -0.41892594672E+01  0.20708662998E+02  0.51100000000E-03 0. -1.
        -11    1    4    4    0    0 -0.55022217480E+01  0.83139491359E+01 -0.49718336011E+01  0.11140705724E+02  0.51100000000E-03 0.  1.
         12    1    4    4    0    0 -0.96212951652E+01 -0.14026157908E+02  0.14756545225E+02  0.22517949580E+02  0.00000000000E+00 0. -1.
</event>
<event>
 8    1  0.1247338E-006  0.9118800E+02  0.7816164E-02  0.1184000E+00
        -11   -1    0    0    0    0  0.00000000000E+00  0.00000000000E+00  0.45593999997E+02  0.45594000000E+02  0.51100000000E-03 0.  1.
         11   -1    0    0    0    0 -0.00000000000E+00 -0.00000000000E+00 -0.45593999997E+02  0.45594000000E+02  0.51100000000E-03 0. -1.
         23    2    1    2    0    0  0.88817841970E-15  0.35527136788E-14 -0.35527136788E-14  0.91188000000E+02  0.91188000000E+02 0.  0.
    9900012    2    3    3    0    0  0.54417726168E+01  0.22373503886E+02 -0.28733117842E+02  0.54367100687E+02  0.40000037636E+02 0.  0.
        -12    1    3    3    0    0 -0.54417726168E+01 -0.22373503886E+02  0.28733117842E+02  0.36820899313E+02  0.00000000000E+00 0.  1.
         11    1    4    4    0    0  0.24471483576E+01  0.71046106959E-01 -0.85117376230E+01  0.88568199856E+01  0.51100000000E-03 0. -1.
        -11    1    4    4    0    0 -0.14536339707E+02  0.52581708033E+01 -0.33876153220E+01  0.15824963511E+02  0.51100000000E-03 0.  1.
         12    1    4    4    0    0  0.17530963967E+02  0.17044286975E+02 -0.16833764897E+02  0.29685317190E+02  0.00000000000E+00 0. -1.
</event>
<event>
 8    1  0.1247338E-006  0.9118800E+02  0.7816164E-02  0.1184000E+00
        -11   -1    0    0    0    0  0.00000000000E+00  0.00000000000E+00  0.45593999997E+02  0.45594000000E+02  0.51100000000E-03 0. -1.
         11   -1    0    0    0    0 -0.00000000000E+00 -0.00000000000E+00 -0.45593999997E+02  0.45594000000E+02  0.51100000000E-03 0.  1.
         23    2    1    2    0    0  0.00000000000E+00  0.00000000000E+00 -0.35527136788E-14  0.91188000000E+02  0.91188000000E+02 0.  0.
    9900012    2    3    3    0    0 -0.23458030575E+02 -0.16344581590E+02 -0.23202459994E+02  0.54367099745E+02  0.40000035489E+02 0.  0.
         12    1    3    3    0    0  0.23458030575E+02  0.16344581590E+02  0.23202459994E+02  0.36820900255E+02  0.00000000000E+00 0. -1.
         11    1    4    4    0    0  0.58930878626E+01 -0.48701750999E+01 -0.64245358966E+01  0.99860778991E+01  0.51100000000E-03 0.  1.
        -11    1    4    4    0    0 -0.16413268581E+02  0.14134804643E+01 -0.19921632199E+02  0.25850817052E+02  0.51100000000E-03 0. -1.
         12    1    4    4    0    0 -0.12937849856E+02 -0.12887886955E+02  0.31437081018E+01  0.18530204794E+02  0.00000000000E+00 0. -1.
</event>
<event>
 8    1  0.1247338E-006  0.9118800E+02  0.7816164E-02  0.1184000E+00
        -11   -1    0    0    0    0  0.00000000000E+00  0.00000000000E+00  0.45593999997E+02  0.45594000000E+02  0.51100000000E-03 0.  1.
         11   -1    0    0    0    0 -0.00000000000E+00 -0.00000000000E+00 -0.45593999997E+02  0.45594000000E+02  0.51100000000E-03 0. -1.
         23    2    1    2    0    0  0.00000000000E+00  0.00000000000E+00  0.00000000000E+00  0.91188000000E+02  0.91188000000E+02 0.  0.
    9900012    2    3    3    0    0 -0.21944220164E+02  0.25589096609E+02 -0.14813120675E+02  0.54367092786E+02  0.40000019625E+02 0.  0.
        -12    1    3    3    0    0  0.21944220164E+02 -0.25589096609E+02  0.14813120675E+02  0.36820907214E+02  0.00000000000E+00 0.  1.
         11    1    4    4    0    0 -0.36818288659E+01 -0.14805566545E+01 -0.13724724673E+02  0.14286916372E+02  0.51100000000E-03 0. -1.
        -11    1    4    4    0    0  0.48834124303E+00  0.87026177034E+01  0.84627866429E+01  0.12148777308E+02  0.51100000000E-03 0.  1.
        -12    1    4    4    0    0 -0.18750732541E+02  0.18367035560E+02 -0.95511826449E+01  0.27931399106E+02  0.00000000000E+00 0.  1.
</event>
<event>
 8    1  0.1247338E-006  0.9118800E+02  0.7816164E-02  0.1184000E+00
        -11   -1    0    0    0    0  0.00000000000E+00  0.00000000000E+00  0.45593999997E+02  0.45594000000E+02  0.51100000000E-03 0. -1.
         11   -1    0    0    0    0 -0.00000000000E+00 -0.00000000000E+00 -0.45593999997E+02  0.45594000000E+02  0.51100000000E-03 0.  1.
         23    2    1    2    0    0 -0.35527136788E-14  0.00000000000E+00  0.35527136788E-14  0.91188000000E+02  0.91188000000E+02 0.  0.
    9900012    2    3    3    0    0 -0.27257068645E+02 -0.16299534026E+02 -0.18632166510E+02  0.54367078916E+02  0.39999988006E+02 0.  0.
         12    1    3    3    0    0  0.27257068645E+02  0.16299534026E+02  0.18632166510E+02  0.36820921084E+02  0.00000000000E+00 0. -1.
         11    1    4    4    0    0 -0.12573822679E+02  0.72426004151E+01 -0.12233240404E+02  0.18979158268E+02  0.51100000000E-03 0.  1.
        -11    1    4    4    0    0 -0.52998800401E+01 -0.72799802884E+01  0.77482267716E+01  0.11879472202E+02  0.51100000000E-03 0. -1.
        -12    1    4    4    0    0 -0.93833659259E+01 -0.16262154153E+02 -0.14147152878E+02  0.23508448446E+02  0.00000000000E+00 0.  1.
</event>
<event>
 8    1  0.1247338E-006  0.9118800E+02  0.7816164E-02  0.1184000E+00
        -11   -1    0    0    0    0  0.00000000000E+00  0.00000000000E+00  0.45593999997E+02  0.45594000000E+02  0.51100000000E-03 0.  1.
         11   -1    0    0    0    0 -0.00000000000E+00 -0.00000000000E+00 -0.45593999997E+02  0.45594000000E+02  0.51100000000E-03 0. -1.
         23    2    1    2    0    0 -0.17763568394E-14  0.35527136788E-14  0.00000000000E+00  0.91188000000E+02  0.91188000000E+02 0.  0.
    9900012    2    3    3    0    0 -0.10350572952E+02 -0.31157140770E+02 -0.16669681665E+02  0.54367081106E+02  0.39999992997E+02 0.  0.
        -12    1    3    3    0    0  0.10350572952E+02  0.31157140770E+02  0.16669681665E+02  0.36820918894E+02  0.00000000000E+00 0.  1.
         11    1    4    4    0    0  0.75380645330E-01  0.49357888364E+01 -0.78262739154E+01  0.92530134193E+01  0.51100000000E-03 0. -1.
        -11    1    4    4    0    0  0.60085702318E+01 -0.77393279792E+01 -0.74563404047E+01  0.12312478479E+02  0.51100000000E-03 0.  1.
         12    1    4    4    0    0 -0.16434523829E+02 -0.28353601627E+02 -0.13870673450E+01  0.32801589208E+02  0.00000000000E+00 0. -1.
</event>
<event>
 8    1  0.1247338E-006  0.9118800E+02  0.7816164E-02  0.1184000E+00
        -11   -1    0    0    0    0  0.00000000000E+00  0.00000000000E+00  0.45593999997E+02  0.45594000000E+02  0.51100000000E-03 0. -1.
         11   -1    0    0    0    0 -0.00000000000E+00 -0.00000000000E+00 -0.45593999997E+02  0.45594000000E+02  0.51100000000E-03 0.  1.
         23    2    1    2    0    0  0.00000000000E+00 -0.44408920985E-15  0.71054273576E-14  0.91188000000E+02  0.91188000000E+02 0.  0.
    9900012    2    3    3    0    0  0.16716691573E+02 -0.30176974599E+01  0.32668423076E+02  0.54367080113E+02  0.39999990733E+02 0.  0.
        -12    1    3    3    0    0 -0.16716691573E+02  0.30176974599E+01 -0.32668423076E+02  0.36820919887E+02  0.00000000000E+00 0.  1.
         11    1    4    4    0    0  0.12866485668E+02 -0.62625048576E+01  0.13257214962E+02  0.19506900557E+02  0.51100000000E-03 0. -1.
        -11    1    4    4    0    0  0.13622964807E+02 -0.10045374200E+01  0.19963126071E+02  0.24189267628E+02  0.51100000000E-03 0.  1.
        -12    1    4    4    0    0 -0.97727589022E+01  0.42493448177E+01 -0.55191795792E+00  0.10670911928E+02  0.00000000000E+00 0.  1.
</event>
<event>
 8    1  0.1247338E-006  0.9118800E+02  0.7816164E-02  0.1184000E+00
        -11   -1    0    0    0    0  0.00000000000E+00  0.00000000000E+00  0.45593999997E+02  0.45594000000E+02  0.51100000000E-03 0.  1.
         11   -1    0    0    0    0 -0.00000000000E+00 -0.00000000000E+00 -0.45593999997E+02  0.45594000000E+02  0.51100000000E-03 0. -1.
         23    2    1    2    0    0 -0.66613381478E-15  0.00000000000E+00  0.17763568394E-14  0.91188000000E+02  0.91188000000E+02 0.  0.
    9900012    2    3    3    0    0 -0.18576326633E+01 -0.35510816068E+02  0.95557150558E+01  0.54367074602E+02  0.39999978171E+02 0.  0.
        -12    1    3    3    0    0  0.18576326633E+01  0.35510816068E+02 -0.95557150558E+01  0.36820925398E+02  0.00000000000E+00 0.  1.
         11    1    4    4    0    0 -0.16991394298E+02 -0.17506747060E+02  0.85740639209E+01  0.25859393751E+02  0.51100000000E-03 0. -1.
        -11    1    4    4    0    0  0.91549941454E+01 -0.16429756510E+02  0.68176123482E+01  0.20005765549E+02  0.51100000000E-03 0.  1.
        -12    1    4    4    0    0  0.59787674890E+01 -0.15743124974E+01 -0.58359612133E+01  0.85019153025E+01  0.00000000000E+00 0.  1.
</event>
<event>
 8    1  0.1247338E-006  0.9118800E+02  0.7816164E-02  0.1184000E+00
        -11   -1    0    0    0    0  0.00000000000E+00  0.00000000000E+00  0.45593999997E+02  0.45594000000E+02  0.51100000000E-03 0.  1.
         11   -1    0    0    0    0 -0.00000000000E+00 -0.00000000000E+00 -0.45593999997E+02  0.45594000000E+02  0.51100000000E-03 0. -1.
         23    2    1    2    0    0 -0.88817841970E-15  0.00000000000E+00  0.00000000000E+00  0.91188000000E+02  0.91188000000E+02 0.  0.
    9900012    2    3    3    0    0 -0.27247532575E+01 -0.19859550120E+02  0.30886138855E+02  0.54367087672E+02  0.40000007966E+02 0.  0.
         12    1    3    3    0    0  0.27247532575E+01  0.19859550120E+02 -0.30886138855E+02  0.36820912328E+02  0.00000000000E+00 0. -1.
         11    1    4    4    0    0 -0.47564057819E+01 -0.13181549860E+02  0.17100415379E+02  0.22108841197E+02  0.51100000000E-03 0.  1.
        -11    1    4    4    0    0  0.69513007112E+01 -0.12280704926E+02  0.18626615573E+02  0.23368506649E+02  0.51100000000E-03 0. -1.
         12    1    4    4    0    0 -0.49196481869E+01  0.56027046663E+01 -0.48408920975E+01  0.88897398252E+01  0.00000000000E+00 0. -1.
</event>
<event>
 8    1  0.1247338E-006  0.9118800E+02  0.7816164E-02  0.1184000E+00
        -11   -1    0    0    0    0  0.00000000000E+00  0.00000000000E+00  0.45593999997E+02  0.45594000000E+02  0.51100000000E-03 0.  1.
         11   -1    0    0    0    0 -0.00000000000E+00 -0.00000000000E+00 -0.45593999997E+02  0.45594000000E+02  0.51100000000E-03 0. -1.
         23    2    1    2    0    0 -0.71054273576E-14  0.17763568394E-14  0.00000000000E+00  0.91188000000E+02  0.91188000000E+02 0.  0.
    9900012    2    3    3    0    0  0.32837749935E+02 -0.94081552122E+01  0.13745810771E+02  0.54367102143E+02  0.40000040954E+02 0.  0.
        -12    1    3    3    0    0 -0.32837749935E+02  0.94081552122E+01 -0.13745810771E+02  0.36820897857E+02  0.00000000000E+00 0.  1.
         11    1    4    4    0    0 -0.17334092223E+01  0.13562777304E+01 -0.20729486592E+01  0.30234604709E+01  0.51100000000E-03 0. -1.
        -11    1    4    4    0    0 -0.58849425678E+01  0.23179487229E+01  0.18815623233E+01  0.65989175132E+01  0.51100000000E-03 0.  1.
         12    1    4    4    0    0  0.40456101725E+02 -0.13082381665E+02  0.13937197107E+02  0.44744724158E+02  0.00000000000E+00 0. -1.
</event>
<event>
 8    1  0.1247338E-006  0.9118800E+02  0.7816164E-02  0.1184000E+00
        -11   -1    0    0    0    0  0.00000000000E+00  0.00000000000E+00  0.45593999997E+02  0.45594000000E+02  0.51100000000E-03 0.  1.
         11   -1    0    0    0    0 -0.00000000000E+00 -0.00000000000E+00 -0.45593999997E+02  0.45594000000E+02  0.51100000000E-03 0. -1.
         23    2    1    2    0    0  0.00000000000E+00  0.66613381478E-15  0.00000000000E+00  0.91188000000E+02  0.91188000000E+02 0.  0.
    9900012    2    3    3    0    0 -0.35673817118E+02 -0.10090046928E+01 -0.90631928658E+01  0.54367071397E+02  0.39999970864E+02 0.  0.
        -12    1    3    3    0    0  0.35673817118E+02  0.10090046928E+01  0.90631928658E+01  0.36820928603E+02  0.00000000000E+00 0.  1.
         11    1    4    4    0    0 -0.12936870426E+02 -0.50892603725E+00 -0.15027335972E+02  0.19835383757E+02  0.51100000000E-03 0. -1.
        -11    1    4    4    0    0  0.19461631848E+01 -0.47414413642E+01  0.78947348237E+01  0.94125265232E+01  0.51100000000E-03 0.  1.
        -12    1    4    4    0    0 -0.24683109877E+02  0.42413627087E+01 -0.19305917177E+01  0.25119161117E+02  0.00000000000E+00 0.  1.
</event>
<event>
 8    1  0.1247338E-006  0.9118800E+02  0.7816164E-02  0.1184000E+00
        -11   -1    0    0    0    0  0.00000000000E+00  0.00000000000E+00  0.45593999997E+02  0.45594000000E+02  0.51100000000E-03 0.  1.
         11   -1    0    0    0    0 -0.00000000000E+00 -0.00000000000E+00 -0.45593999997E+02  0.45594000000E+02  0.51100000000E-03 0. -1.
         23    2    1    2    0    0  0.00000000000E+00  0.00000000000E+00  0.00000000000E+00  0.91188000000E+02  0.91188000000E+02 0.  0.
    9900012    2    3    3    0    0  0.19766813413E+02 -0.17789991716E+02  0.25467019209E+02  0.54367084950E+02  0.40000001759E+02 0.  0.
         12    1    3    3    0    0 -0.19766813413E+02  0.17789991716E+02 -0.25467019209E+02  0.36820915050E+02  0.00000000000E+00 0. -1.
         11    1    4    4    0    0  0.64088750757E+01 -0.84541552162E+01 -0.81713839309E+01  0.13390964706E+02  0.51100000000E-03 0. -1.
        -11    1    4    4    0    0  0.21853988564E+00 -0.75953619829E+01  0.22214696900E+02  0.23478288735E+02  0.51100000000E-03 0.  1.
        -12    1    4    4    0    0  0.13139398452E+02 -0.17404745167E+01  0.11423706240E+02  0.17497831508E+02  0.00000000000E+00 0.  1.
</event>
<event>
 8    1  0.1247338E-006  0.9118800E+02  0.7816164E-02  0.1184000E+00
        -11   -1    0    0    0    0  0.00000000000E+00  0.00000000000E+00  0.45593999997E+02  0.45594000000E+02  0.51100000000E-03 0. -1.
         11   -1    0    0    0    0 -0.00000000000E+00 -0.00000000000E+00 -0.45593999997E+02  0.45594000000E+02  0.51100000000E-03 0.  1.
         23    2    1    2    0    0  0.00000000000E+00  0.00000000000E+00  0.00000000000E+00  0.91188000000E+02  0.91188000000E+02 0.  0.
    9900012    2    3    3    0    0  0.11483038434E+02 -0.15757526928E+02  0.31234905018E+02  0.54367094009E+02  0.40000022411E+02 0.  0.
        -12    1    3    3    0    0 -0.11483038434E+02  0.15757526928E+02 -0.31234905018E+02  0.36820905991E+02  0.00000000000E+00 0.  1.
         11    1    4    4    0    0  0.99055552429E+01 -0.18311817825E+02  0.11608382530E+02  0.23836888260E+02  0.51100000000E-03 0. -1.
        -11    1    4    4    0    0  0.26517408697E+01  0.12788472116E+02  0.10146924728E+02  0.16538948890E+02  0.51100000000E-03 0.  1.
        -12    1    4    4    0    0 -0.10742576789E+01 -0.10234181219E+02  0.94795977598E+01  0.13991256858E+02  0.00000000000E+00 0.  1.
</event>
<event>
 8    1  0.1247338E-006  0.9118800E+02  0.7816164E-02  0.1184000E+00
        -11   -1    0    0    0    0  0.00000000000E+00  0.00000000000E+00  0.45593999997E+02  0.45594000000E+02  0.51100000000E-03 0.  1.
         11   -1    0    0    0    0 -0.00000000000E+00 -0.00000000000E+00 -0.45593999997E+02  0.45594000000E+02  0.51100000000E-03 0. -1.
         23    2    1    2    0    0  0.71054273576E-14  0.35527136788E-14  0.00000000000E+00  0.91188000000E+02  0.91188000000E+02 0.  0.
    9900012    2    3    3    0    0  0.22842527781E+02  0.21142158407E+02 -0.19672484927E+02  0.54367101033E+02  0.40000038425E+02 0.  0.
        -12    1    3    3    0    0 -0.22842527781E+02 -0.21142158407E+02  0.19672484927E+02  0.36820898967E+02  0.00000000000E+00 0.  1.
         11    1    4    4    0    0  0.20329584402E+01 -0.30331694091E+01 -0.96882957087E+01  0.10353555461E+02  0.51100000000E-03 0. -1.
        -11    1    4    4    0    0 -0.67953955835E+01  0.31715695309E+01 -0.48946180194E+01  0.89550846028E+01  0.51100000000E-03 0.  1.
         12    1    4    4    0    0  0.27604964924E+02  0.21003758285E+02 -0.50895711989E+01  0.35058460969E+02  0.00000000000E+00 0. -1.
</event>
<event>
 8    1  0.1247338E-006  0.9118800E+02  0.7816164E-02  0.1184000E+00
        -11   -1    0    0    0    0  0.00000000000E+00  0.00000000000E+00  0.45593999997E+02  0.45594000000E+02  0.51100000000E-03 0. -1.
         11   -1    0    0    0    0 -0.00000000000E+00 -0.00000000000E+00 -0.45593999997E+02  0.45594000000E+02  0.51100000000E-03 0.  1.
         23    2    1    2    0    0  0.13322676296E-14  0.35527136788E-14  0.71054273576E-14  0.91188000000E+02  0.91188000000E+02 0.  0.
    9900012    2    3    3    0    0 -0.16255021853E+01  0.15305753158E+02  0.33449547523E+02  0.54367074338E+02  0.39999977569E+02 0.  0.
        -12    1    3    3    0    0  0.16255021853E+01 -0.15305753158E+02 -0.33449547523E+02  0.36820925662E+02  0.00000000000E+00 0.  1.
         11    1    4    4    0    0 -0.82462840159E+01  0.15862548559E+02  0.12915677488E+02  0.22055302585E+02  0.51100000000E-03 0.  1.
        -11    1    4    4    0    0 -0.11483918472E+01 -0.11231037251E+02  0.64274392300E+01  0.12991034481E+02  0.51100000000E-03 0. -1.
         12    1    4    4    0    0  0.77691736778E+01  0.10674241850E+02  0.14106430805E+02  0.19320737273E+02  0.00000000000E+00 0. -1.
</event>
<event>
 8    1  0.1247338E-006  0.9118800E+02  0.7816164E-02  0.1184000E+00
        -11   -1    0    0    0    0  0.00000000000E+00  0.00000000000E+00  0.45593999997E+02  0.45594000000E+02  0.51100000000E-03 0.  1.
         11   -1    0    0    0    0 -0.00000000000E+00 -0.00000000000E+00 -0.45593999997E+02  0.45594000000E+02  0.51100000000E-03 0. -1.
         23    2    1    2    0    0  0.00000000000E+00  0.88817841970E-15 -0.31086244690E-14  0.91188000000E+02  0.91188000000E+02 0.  0.
    9900012    2    3    3    0    0  0.36565644470E+02  0.41128142165E+01  0.13486892773E+01  0.54367074440E+02  0.39999977801E+02 0.  0.
         12    1    3    3    0    0 -0.36565644470E+02 -0.41128142165E+01 -0.13486892773E+01  0.36820925560E+02  0.00000000000E+00 0. -1.
         11    1    4    4    0    0  0.28659818599E+02  0.33590427715E+00 -0.11389439029E+02  0.30841811805E+02  0.51100000000E-03 0. -1.
        -11    1    4    4    0    0 -0.32567850337E+00  0.94819512123E+01  0.42459786987E+01  0.10394315786E+02  0.51100000000E-03 0.  1.
         12    1    4    4    0    0  0.82315043752E+01 -0.57050412730E+01  0.84921496074E+01  0.13130946849E+02  0.00000000000E+00 0. -1.
</event>
<event>
 8    1  0.1247338E-006  0.9118800E+02  0.7816164E-02  0.1184000E+00
        -11   -1    0    0    0    0  0.00000000000E+00  0.00000000000E+00  0.45593999997E+02  0.45594000000E+02  0.51100000000E-03 0.  1.
         11   -1    0    0    0    0 -0.00000000000E+00 -0.00000000000E+00 -0.45593999997E+02  0.45594000000E+02  0.51100000000E-03 0. -1.
         23    2    1    2    0    0  0.00000000000E+00  0.00000000000E+00  0.35527136788E-14  0.91188000000E+02  0.91188000000E+02 0.  0.
    9900012    2    3    3    0    0 -0.26712937956E+02  0.10545476381E+02  0.23043256638E+02  0.54367084709E+02  0.40000001212E+02 0.  0.
         12    1    3    3    0    0  0.26712937956E+02 -0.10545476381E+02 -0.23043256638E+02  0.36820915291E+02  0.00000000000E+00 0. -1.
         11    1    4    4    0    0  0.60991313474E+01  0.25763139757E+01  0.49050821890E+01  0.82399410457E+01  0.51100000000E-03 0.  1.
        -11    1    4    4    0    0  0.33967107731E+01  0.19468221311E+01  0.65577473625E+01  0.76375265117E+01  0.51100000000E-03 0. -1.
         12    1    4    4    0    0 -0.36208780076E+02  0.60223402746E+01  0.11580427087E+02  0.38489617152E+02  0.00000000000E+00 0. -1.
</event>
<event>
 8    1  0.1247338E-006  0.9118800E+02  0.7816164E-02  0.1184000E+00
        -11   -1    0    0    0    0  0.00000000000E+00  0.00000000000E+00  0.45593999997E+02  0.45594000000E+02  0.51100000000E-03 0.  1.
         11   -1    0    0    0    0 -0.00000000000E+00 -0.00000000000E+00 -0.45593999997E+02  0.45594000000E+02  0.51100000000E-03 0. -1.
         23    2    1    2    0    0  0.71054273576E-14  0.00000000000E+00  0.35527136788E-14  0.91188000000E+02  0.91188000000E+02 0.  0.
    9900012    2    3    3    0    0  0.24171229818E+02 -0.41028294738E+01  0.27471782291E+02  0.54367076833E+02  0.39999983256E+02 0.  0.
         12    1    3    3    0    0 -0.24171229818E+02  0.41028294738E+01 -0.27471782291E+02  0.36820923167E+02  0.00000000000E+00 0. -1.
         11    1    4    4    0    0 -0.25356967737E+01 -0.12842057266E+02  0.16739595618E+02  0.21249994228E+02  0.51100000000E-03 0. -1.
        -11    1    4    4    0    0  0.24856812098E+02  0.37195869195E+01  0.56984833396E+01  0.25771479336E+02  0.51100000000E-03 0.  1.
         12    1    4    4    0    0  0.18501144937E+01  0.50196408731E+01  0.50337033339E+01  0.73456032692E+01  0.00000000000E+00 0. -1.
</event>
<event>
 8    1  0.1247338E-006  0.9118800E+02  0.7816164E-02  0.1184000E+00
        -11   -1    0    0    0    0  0.00000000000E+00  0.00000000000E+00  0.45593999997E+02  0.45594000000E+02  0.51100000000E-03 0.  1.
         11   -1    0    0    0    0 -0.00000000000E+00 -0.00000000000E+00 -0.45593999997E+02  0.45594000000E+02  0.51100000000E-03 0. -1.
         23    2    1    2    0    0  0.00000000000E+00 -0.17763568394E-14  0.00000000000E+00  0.91188000000E+02  0.91188000000E+02 0.  0.
    9900012    2    3    3    0    0 -0.26754551989E+02  0.15640438665E+02  0.19883376161E+02  0.54367108901E+02  0.40000056361E+02 0.  0.
         12    1    3    3    0    0  0.26754551989E+02 -0.15640438665E+02 -0.19883376161E+02  0.36820891099E+02  0.00000000000E+00 0. -1.
         11    1    4    4    0    0 -0.21896180911E+02 -0.15509215760E+01  0.35894785932E+01  0.22242581978E+02  0.51100000000E-03 0. -1.
        -11    1    4    4    0    0 -0.60427672125E+01 -0.34462501963E+01  0.50193964659E+01  0.85782292545E+01  0.51100000000E-03 0.  1.
         12    1    4    4    0    0  0.11843961343E+01  0.20637610438E+02  0.11274501102E+02  0.23546297668E+02  0.00000000000E+00 0. -1.
</event>
<event>
 8    1  0.1247338E-006  0.9118800E+02  0.7816164E-02  0.1184000E+00
        -11   -1    0    0    0    0  0.00000000000E+00  0.00000000000E+00  0.45593999997E+02  0.45594000000E+02  0.51100000000E-03 0. -1.
         11   -1    0    0    0    0 -0.00000000000E+00 -0.00000000000E+00 -0.45593999997E+02  0.45594000000E+02  0.51100000000E-03 0.  1.
         23    2    1    2    0    0  0.00000000000E+00  0.00000000000E+00 -0.71054273576E-14  0.91188000000E+02  0.91188000000E+02 0.  0.
    9900012    2    3    3    0    0  0.80230680534E+01  0.12440664761E+02  0.33714124084E+02  0.54367055913E+02  0.39999935565E+02 0.  0.
        -12    1    3    3    0    0 -0.80230680534E+01 -0.12440664761E+02 -0.33714124084E+02  0.36820944087E+02  0.00000000000E+00 0.  1.
         11    1    4    4    0    0 -0.65238460552E+01 -0.60465426499E+01  0.87366068609E+01  0.12467940691E+02  0.51100000000E-03 0. -1.
        -11    1    4    4    0    0 -0.33494139959E+01  0.51735762327E+01 -0.23748505378E+01  0.66048755090E+01  0.51100000000E-03 0.  1.
         12    1    4    4    0    0  0.17896328104E+02  0.13313631179E+02  0.27352367761E+02  0.35294239713E+02  0.00000000000E+00 0. -1.
</event>
<event>
 8    1  0.1247338E-006  0.9118800E+02  0.7816164E-02  0.1184000E+00
        -11   -1    0    0    0    0  0.00000000000E+00  0.00000000000E+00  0.45593999997E+02  0.45594000000E+02  0.51100000000E-03 0. -1.
         11   -1    0    0    0    0 -0.00000000000E+00 -0.00000000000E+00 -0.45593999997E+02  0.45594000000E+02  0.51100000000E-03 0.  1.
         23    2    1    2    0    0 -0.35527136788E-14  0.00000000000E+00  0.00000000000E+00  0.91188000000E+02  0.91188000000E+02 0.  0.
    9900012    2    3    3    0    0  0.17205780466E+02  0.11269786935E+02 -0.30540679910E+02  0.54367080561E+02  0.39999991755E+02 0.  0.
         12    1    3    3    0    0 -0.17205780466E+02 -0.11269786935E+02  0.30540679910E+02  0.36820919439E+02  0.00000000000E+00 0. -1.
         11    1    4    4    0    0  0.33852899526E+01 -0.67458190040E+01 -0.15017905695E+01  0.76955595816E+01  0.51100000000E-03 0. -1.
        -11    1    4    4    0    0 -0.84882988695E+01  0.59798928792E+01 -0.42574913293E+01  0.11222146373E+02  0.51100000000E-03 0.  1.
        -12    1    4    4    0    0  0.22308789382E+02  0.12035713060E+02 -0.24781398011E+02  0.35449374606E+02  0.00000000000E+00 0.  1.
</event>
<event>
 8    1  0.1247338E-006  0.9118800E+02  0.7816164E-02  0.1184000E+00
        -11   -1    0    0    0    0  0.00000000000E+00  0.00000000000E+00  0.45593999997E+02  0.45594000000E+02  0.51100000000E-03 0.  1.
         11   -1    0    0    0    0 -0.00000000000E+00 -0.00000000000E+00 -0.45593999997E+02  0.45594000000E+02  0.51100000000E-03 0. -1.
         23    2    1    2    0    0  0.00000000000E+00 -0.17763568394E-14  0.00000000000E+00  0.91188000000E+02  0.91188000000E+02 0.  0.
    9900012    2    3    3    0    0  0.32007418000E+02  0.15297227192E+02  0.98640841862E+01  0.54367080353E+02  0.39999991282E+02 0.  0.
         12    1    3    3    0    0 -0.32007418000E+02 -0.15297227192E+02 -0.98640841862E+01  0.36820919647E+02  0.00000000000E+00 0. -1.
         11    1    4    4    0    0  0.65913693525E+00 -0.32337607884E+01 -0.51057657070E+01  0.60795159389E+01  0.51100000000E-03 0. -1.
        -11    1    4    4    0    0  0.32170636725E+02  0.23975802586E+02  0.11346053016E+02  0.41695586052E+02  0.51100000000E-03 0.  1.
        -12    1    4    4    0    0 -0.82235566047E+00 -0.54448146054E+01  0.36237968769E+01  0.65919783620E+01  0.00000000000E+00 0.  1.
</event>
<event>
 8    1  0.1247338E-006  0.9118800E+02  0.7816164E-02  0.1184000E+00
        -11   -1    0    0    0    0  0.00000000000E+00  0.00000000000E+00  0.45593999997E+02  0.45594000000E+02  0.51100000000E-03 0.  1.
         11   -1    0    0    0    0 -0.00000000000E+00 -0.00000000000E+00 -0.45593999997E+02  0.45594000000E+02  0.51100000000E-03 0. -1.
         23    2    1    2    0    0 -0.44408920985E-15 -0.17763568394E-14  0.00000000000E+00  0.91188000000E+02  0.91188000000E+02 0.  0.
    9900012    2    3    3    0    0 -0.25176962245E+01 -0.98247974866E+01 -0.35396508070E+02  0.54367106156E+02  0.40000050104E+02 0.  0.
        -12    1    3    3    0    0  0.25176962245E+01  0.98247974866E+01  0.35396508070E+02  0.36820893844E+02  0.00000000000E+00 0.  1.
         11    1    4    4    0    0 -0.95527468318E+01 -0.12582187115E+02 -0.18546275191E+02  0.24362486087E+02  0.51100000000E-03 0. -1.
        -11    1    4    4    0    0 -0.85521494156E+01  0.31776988138E+01 -0.48771966353E+01  0.10345244157E+02  0.51100000000E-03 0.  1.
        -12    1    4    4    0    0  0.15587200023E+02 -0.42030918524E+00 -0.11973036244E+02  0.19659375912E+02  0.00000000000E+00 0.  1.
</event>
<event>
 8    1  0.1247338E-006  0.9118800E+02  0.7816164E-02  0.1184000E+00
        -11   -1    0    0    0    0  0.00000000000E+00  0.00000000000E+00  0.45593999997E+02  0.45594000000E+02  0.51100000000E-03 0. -1.
         11   -1    0    0    0    0 -0.00000000000E+00 -0.00000000000E+00 -0.45593999997E+02  0.45594000000E+02  0.51100000000E-03 0.  1.
         23    2    1    2    0    0  0.35527136788E-14 -0.71054273576E-14 -0.22204460493E-15  0.91188000000E+02  0.91188000000E+02 0.  0.
    9900012    2    3    3    0    0  0.13501527697E+02 -0.34201757694E+02  0.19310880088E+01  0.54367074151E+02  0.39999977141E+02 0.  0.
        -12    1    3    3    0    0 -0.13501527697E+02  0.34201757694E+02 -0.19310880088E+01  0.36820925849E+02  0.00000000000E+00 0.  1.
         11    1    4    4    0    0  0.58232869706E+01 -0.51797228156E+01  0.24996805286E+01  0.81846565349E+01  0.51100000000E-03 0. -1.
        -11    1    4    4    0    0  0.18524849517E+02 -0.41496176272E+01 -0.13962982392E+01  0.19035204887E+02  0.51100000000E-03 0.  1.
         12    1    4    4    0    0 -0.10846608790E+02 -0.24872417251E+02  0.82770571941E+00  0.27147212729E+02  0.00000000000E+00 0. -1.
</event>
<event>
 8    1  0.1247338E-006  0.9118800E+02  0.7816164E-02  0.1184000E+00
        -11   -1    0    0    0    0  0.00000000000E+00  0.00000000000E+00  0.45593999997E+02  0.45594000000E+02  0.51100000000E-03 0. -1.
         11   -1    0    0    0    0 -0.00000000000E+00 -0.00000000000E+00 -0.45593999997E+02  0.45594000000E+02  0.51100000000E-03 0.  1.
         23    2    1    2    0    0  0.44408920985E-15  0.00000000000E+00  0.88817841970E-15  0.91188000000E+02  0.91188000000E+02 0.  0.
    9900012    2    3    3    0    0 -0.21270960722E+01 -0.36459644257E+02 -0.46850559982E+01  0.54367082755E+02  0.39999996757E+02 0.  0.
         12    1    3    3    0    0  0.21270960722E+01  0.36459644257E+02  0.46850559982E+01  0.36820917245E+02  0.00000000000E+00 0. -1.
         11    1    4    4    0    0 -0.75205824632E+01 -0.15795859800E+01  0.85861157283E+01  0.11522831076E+02  0.51100000000E-03 0.  1.
        -11    1    4    4    0    0 -0.58159557440E+01 -0.82794297964E+01  0.18059732266E+01  0.10277929681E+02  0.51100000000E-03 0. -1.
        -12    1    4    4    0    0  0.11209442135E+02 -0.26600628481E+02 -0.15077144953E+02  0.32566321998E+02  0.00000000000E+00 0.  1.
</event>
<event>
 8    1  0.1247338E-006  0.9118800E+02  0.7816164E-02  0.1184000E+00
        -11   -1    0    0    0    0  0.00000000000E+00  0.00000000000E+00  0.45593999997E+02  0.45594000000E+02  0.51100000000E-03 0.  1.
         11   -1    0    0    0    0 -0.00000000000E+00 -0.00000000000E+00 -0.45593999997E+02  0.45594000000E+02  0.51100000000E-03 0. -1.
         23    2    1    2    0    0  0.00000000000E+00  0.00000000000E+00 -0.88817841970E-15  0.91188000000E+02  0.91188000000E+02 0.  0.
    9900012    2    3    3    0    0 -0.35946354659E+02 -0.21221485738E+01 -0.76899206704E+01  0.54367098222E+02  0.40000032016E+02 0.  0.
        -12    1    3    3    0    0  0.35946354659E+02  0.21221485738E+01  0.76899206704E+01  0.36820901778E+02  0.00000000000E+00 0.  1.
         11    1    4    4    0    0 -0.25167329825E+02 -0.12352368795E+02 -0.17680040507E+02  0.33144521990E+02  0.51100000000E-03 0. -1.
        -11    1    4    4    0    0  0.10820667749E+01 -0.11214705711E+01  0.29958931929E+01  0.33769721692E+01  0.51100000000E-03 0.  1.
        -12    1    4    4    0    0 -0.11861091609E+02  0.11351690793E+02  0.69942266436E+01  0.17845604062E+02  0.00000000000E+00 0.  1.
</event>
<event>
 8    1  0.1247338E-006  0.9118800E+02  0.7816164E-02  0.1184000E+00
        -11   -1    0    0    0    0  0.00000000000E+00  0.00000000000E+00  0.45593999997E+02  0.45594000000E+02  0.51100000000E-03 0. -1.
         11   -1    0    0    0    0 -0.00000000000E+00 -0.00000000000E+00 -0.45593999997E+02  0.45594000000E+02  0.51100000000E-03 0.  1.
         23    2    1    2    0    0  0.00000000000E+00  0.00000000000E+00  0.88817841970E-15  0.91188000000E+02  0.91188000000E+02 0.  0.
    9900012    2    3    3    0    0  0.16923822890E+02 -0.32437550565E+02  0.41438016300E+01  0.54367060851E+02  0.39999946821E+02 0.  0.
        -12    1    3    3    0    0 -0.16923822890E+02  0.32437550565E+02 -0.41438016300E+01  0.36820939149E+02  0.00000000000E+00 0.  1.
         11    1    4    4    0    0  0.57180849304E+01  0.68905543757E+00 -0.55015470637E+01  0.79648171995E+01  0.51100000000E-03 0. -1.
        -11    1    4    4    0    0  0.10853312176E+02 -0.23126029211E+01 -0.51320859194E+01  0.12226235054E+02  0.51100000000E-03 0.  1.
         12    1    4    4    0    0  0.35242578342E+00 -0.30814003082E+02  0.14777434613E+02  0.34176008597E+02  0.00000000000E+00 0. -1.
</event>
<event>
 8    1  0.1247338E-006  0.9118800E+02  0.7816164E-02  0.1184000E+00
        -11   -1    0    0    0    0  0.00000000000E+00  0.00000000000E+00  0.45593999997E+02  0.45594000000E+02  0.51100000000E-03 0.  1.
         11   -1    0    0    0    0 -0.00000000000E+00 -0.00000000000E+00 -0.45593999997E+02  0.45594000000E+02  0.51100000000E-03 0. -1.
         23    2    1    2    0    0 -0.22204460493E-14 -0.88817841970E-15  0.71054273576E-14  0.91188000000E+02  0.91188000000E+02 0.  0.
    9900012    2    3    3    0    0 -0.50218390114E+00  0.74508846317E+01 -0.36055657940E+02  0.54367104574E+02  0.40000046497E+02 0.  0.
        -12    1    3    3    0    0  0.50218390114E+00 -0.74508846317E+01  0.36055657940E+02  0.36820895426E+02  0.00000000000E+00 0.  1.
         11    1    4    4    0    0 -0.47873081271E+01 -0.25734368648E+01  0.10321303141E+01  0.55322861140E+01  0.51100000000E-03 0. -1.
        -11    1    4    4    0    0 -0.12340602352E+02  0.19293098485E+01 -0.98212866126E+01  0.15889316344E+02  0.51100000000E-03 0.  1.
         12    1    4    4    0    0  0.16625726578E+02  0.80950116479E+01 -0.27266501642E+02  0.32945502115E+02  0.00000000000E+00 0. -1.
</event>
<event>
 8    1  0.1247338E-006  0.9118800E+02  0.7816164E-02  0.1184000E+00
        -11   -1    0    0    0    0  0.00000000000E+00  0.00000000000E+00  0.45593999997E+02  0.45594000000E+02  0.51100000000E-03 0.  1.
         11   -1    0    0    0    0 -0.00000000000E+00 -0.00000000000E+00 -0.45593999997E+02  0.45594000000E+02  0.51100000000E-03 0. -1.
         23    2    1    2    0    0  0.00000000000E+00 -0.88817841970E-15  0.00000000000E+00  0.91188000000E+02  0.91188000000E+02 0.  0.
    9900012    2    3    3    0    0 -0.83273103728E+01 -0.65831267258E+01 -0.35257613614E+02  0.54367068815E+02  0.39999964978E+02 0.  0.
        -12    1    3    3    0    0  0.83273103728E+01  0.65831267258E+01  0.35257613614E+02  0.36820931185E+02  0.00000000000E+00 0.  1.
         11    1    4    4    0    0 -0.15320879637E+02  0.12235538001E+01 -0.15643041220E+02  0.21930143082E+02  0.51100000000E-03 0. -1.
        -11    1    4    4    0    0  0.13089738503E+02 -0.92300016318E+01 -0.20606102534E+02  0.26098767138E+02  0.51100000000E-03 0.  1.
         12    1    4    4    0    0 -0.60961692392E+01  0.14233211059E+01  0.99153013924E+00  0.63381585954E+01  0.00000000000E+00 0. -1.
</event>
<event>
 8    1  0.1247338E-006  0.9118800E+02  0.7816164E-02  0.1184000E+00
        -11   -1    0    0    0    0  0.00000000000E+00  0.00000000000E+00  0.45593999997E+02  0.45594000000E+02  0.51100000000E-03 0. -1.
         11   -1    0    0    0    0 -0.00000000000E+00 -0.00000000000E+00 -0.45593999997E+02  0.45594000000E+02  0.51100000000E-03 0.  1.
         23    2    1    2    0    0  0.88817841970E-15 -0.35527136788E-14  0.71054273576E-14  0.91188000000E+02  0.91188000000E+02 0.  0.
    9900012    2    3    3    0    0  0.75894226755E+01 -0.13869093418E+02  0.33254008005E+02  0.54367080169E+02  0.39999990861E+02 0.  0.
        -12    1    3    3    0    0 -0.75894226755E+01  0.13869093418E+02 -0.33254008005E+02  0.36820919831E+02  0.00000000000E+00 0.  1.
         11    1    4    4    0    0 -0.43956037707E+00 -0.18287024741E+01  0.72507761792E+00  0.20157142349E+01  0.51100000000E-03 0. -1.
        -11    1    4    4    0    0 -0.88194856181E+01  0.94760409001E+01  0.15316952125E+02  0.20054617931E+02  0.51100000000E-03 0.  1.
         12    1    4    4    0    0  0.16848468671E+02 -0.21516431844E+02  0.17211978262E+02  0.32296748003E+02  0.00000000000E+00 0. -1.
</event>
<event>
 8    1  0.1247338E-006  0.9118800E+02  0.7816164E-02  0.1184000E+00
        -11   -1    0    0    0    0  0.00000000000E+00  0.00000000000E+00  0.45593999997E+02  0.45594000000E+02  0.51100000000E-03 0.  1.
         11   -1    0    0    0    0 -0.00000000000E+00 -0.00000000000E+00 -0.45593999997E+02  0.45594000000E+02  0.51100000000E-03 0. -1.
         23    2    1    2    0    0  0.00000000000E+00  0.35527136788E-14 -0.22204460493E-15  0.91188000000E+02  0.91188000000E+02 0.  0.
    9900012    2    3    3    0    0  0.23576836462E+02  0.28219132462E+02  0.18953723187E+01  0.54367094379E+02  0.40000023257E+02 0.  0.
         12    1    3    3    0    0 -0.23576836462E+02 -0.28219132462E+02 -0.18953723187E+01  0.36820905621E+02  0.00000000000E+00 0. -1.
         11    1    4    4    0    0  0.19690170285E+02  0.27935669296E+01 -0.59934785713E+01  0.20770859580E+02  0.51100000000E-03 0. -1.
        -11    1    4    4    0    0  0.26282844804E+00 -0.34678836560E+01  0.14792601344E+01  0.37793526762E+01  0.51100000000E-03 0.  1.
        -12    1    4    4    0    0  0.36238377295E+01  0.28893449189E+02  0.64095907556E+01  0.29816882123E+02  0.00000000000E+00 0.  1.
</event>
<event>
 8    1  0.1247338E-006  0.9118800E+02  0.7816164E-02  0.1184000E+00
        -11   -1    0    0    0    0  0.00000000000E+00  0.00000000000E+00  0.45593999997E+02  0.45594000000E+02  0.51100000000E-03 0.  1.
         11   -1    0    0    0    0 -0.00000000000E+00 -0.00000000000E+00 -0.45593999997E+02  0.45594000000E+02  0.51100000000E-03 0. -1.
         23    2    1    2    0    0 -0.71054273576E-14  0.88817841970E-15 -0.11102230246E-14  0.91188000000E+02  0.91188000000E+02 0.  0.
    9900012    2    3    3    0    0  0.36497325814E+02 -0.47632437195E+01  0.10180420648E+01  0.54367086215E+02  0.40000004645E+02 0.  0.
         12    1    3    3    0    0 -0.36497325814E+02  0.47632437195E+01 -0.10180420648E+01  0.36820913785E+02  0.00000000000E+00 0. -1.
         11    1    4    4    0    0  0.13069264966E+02 -0.56057708265E+01 -0.14474537683E+02  0.20291441416E+02  0.51100000000E-03 0. -1.
        -11    1    4    4    0    0  0.28281651695E+01 -0.75794194477E+01  0.44115733046E+01  0.92145589516E+01  0.51100000000E-03 0.  1.
        -12    1    4    4    0    0  0.20599895679E+02  0.84219465547E+01  0.11081006444E+02  0.24861085848E+02  0.00000000000E+00 0.  1.
</event>
<event>
 8    1  0.1247338E-006  0.9118800E+02  0.7816164E-02  0.1184000E+00
        -11   -1    0    0    0    0  0.00000000000E+00  0.00000000000E+00  0.45593999997E+02  0.45594000000E+02  0.51100000000E-03 0.  1.
         11   -1    0    0    0    0 -0.00000000000E+00 -0.00000000000E+00 -0.45593999997E+02  0.45594000000E+02  0.51100000000E-03 0. -1.
         23    2    1    2    0    0 -0.17763568394E-14 -0.71054273576E-14  0.00000000000E+00  0.91188000000E+02  0.91188000000E+02 0.  0.
    9900012    2    3    3    0    0 -0.12131346433E+02 -0.31464832485E+02 -0.14784263732E+02  0.54367086056E+02  0.40000004281E+02 0.  0.
        -12    1    3    3    0    0  0.12131346433E+02  0.31464832485E+02  0.14784263732E+02  0.36820913944E+02  0.00000000000E+00 0.  1.
         11    1    4    4    0    0 -0.10982700161E+02 -0.15959325817E+01 -0.42064018697E+01  0.11868467491E+02  0.51100000000E-03 0. -1.
        -11    1    4    4    0    0  0.27715040733E+01 -0.18207295108E+02  0.81108130965E+01  0.20123919085E+02  0.51100000000E-03 0.  1.
         12    1    4    4    0    0 -0.39201503452E+01 -0.11661604796E+02 -0.18688674958E+02  0.22374699481E+02  0.00000000000E+00 0. -1.
</event>
<event>
 8    1  0.1247338E-006  0.9118800E+02  0.7816164E-02  0.1184000E+00
        -11   -1    0    0    0    0  0.00000000000E+00  0.00000000000E+00  0.45593999997E+02  0.45594000000E+02  0.51100000000E-03 0. -1.
         11   -1    0    0    0    0 -0.00000000000E+00 -0.00000000000E+00 -0.45593999997E+02  0.45594000000E+02  0.51100000000E-03 0.  1.
         23    2    1    2    0    0  0.44408920985E-15  0.00000000000E+00 -0.17763568394E-14  0.91188000000E+02  0.91188000000E+02 0.  0.
    9900012    2    3    3    0    0  0.25635606270E+01 -0.33524171422E+02 -0.15011231111E+02  0.54367095991E+02  0.40000026930E+02 0.  0.
         12    1    3    3    0    0 -0.25635606270E+01  0.33524171422E+02  0.15011231111E+02  0.36820904009E+02  0.00000000000E+00 0. -1.
         11    1    4    4    0    0 -0.34391330298E+01 -0.19315825113E+02  0.30023071305E+01  0.19847986904E+02  0.51100000000E-03 0. -1.
        -11    1    4    4    0    0 -0.73350664357E+01 -0.99749043660E+01 -0.16228233112E+02  0.20412189175E+02  0.51100000000E-03 0.  1.
         12    1    4    4    0    0  0.13337760092E+02 -0.42334419426E+01 -0.17853051298E+01  0.14106919911E+02  0.00000000000E+00 0. -1.
</event>
<event>
 8    1  0.1247338E-006  0.9118800E+02  0.7816164E-02  0.1184000E+00
        -11   -1    0    0    0    0  0.00000000000E+00  0.00000000000E+00  0.45593999997E+02  0.45594000000E+02  0.51100000000E-03 0.  1.
         11   -1    0    0    0    0 -0.00000000000E+00 -0.00000000000E+00 -0.45593999997E+02  0.45594000000E+02  0.51100000000E-03 0. -1.
         23    2    1    2    0    0  0.00000000000E+00 -0.35527136788E-14  0.23314683517E-14  0.91188000000E+02  0.91188000000E+02 0.  0.
    9900012    2    3    3    0    0 -0.19793178029E+02  0.31046464055E+02  0.35541901719E+00  0.54367093582E+02  0.40000021439E+02 0.  0.
        -12    1    3    3    0    0  0.19793178029E+02 -0.31046464055E+02 -0.35541901719E+00  0.36820906418E+02  0.00000000000E+00 0.  1.
         11    1    4    4    0    0 -0.45012990930E+01  0.18108170956E+02 -0.91748263837E+01  0.20792907164E+02  0.51100000000E-03 0. -1.
        -11    1    4    4    0    0 -0.58164946824E+01  0.15341430906E+01  0.16226246259E+02  0.17305382785E+02  0.51100000000E-03 0.  1.
         12    1    4    4    0    0 -0.94753842532E+01  0.11404150008E+02 -0.66960008584E+01  0.16268803633E+02  0.00000000000E+00 0. -1.
</event>
<event>
 8    1  0.1247338E-006  0.9118800E+02  0.7816164E-02  0.1184000E+00
        -11   -1    0    0    0    0  0.00000000000E+00  0.00000000000E+00  0.45593999997E+02  0.45594000000E+02  0.51100000000E-03 0. -1.
         11   -1    0    0    0    0 -0.00000000000E+00 -0.00000000000E+00 -0.45593999997E+02  0.45594000000E+02  0.51100000000E-03 0.  1.
         23    2    1    2    0    0 -0.26645352591E-14  0.00000000000E+00  0.00000000000E+00  0.91188000000E+02  0.91188000000E+02 0.  0.
    9900012    2    3    3    0    0 -0.50768418575E+01  0.29386632722E+02 -0.21597036136E+02  0.54367075570E+02  0.39999980378E+02 0.  0.
         12    1    3    3    0    0  0.50768418575E+01 -0.29386632722E+02  0.21597036136E+02  0.36820924430E+02  0.00000000000E+00 0. -1.
         11    1    4    4    0    0 -0.18300879244E+02  0.21429236791E+01 -0.11380549557E+02  0.21657128421E+02  0.51100000000E-03 0. -1.
        -11    1    4    4    0    0  0.10991306804E+02  0.23153967934E+02 -0.11162087864E+02  0.27955451384E+02  0.51100000000E-03 0.  1.
         12    1    4    4    0    0  0.22327305823E+01  0.40897411091E+01  0.94560128403E+00  0.47544957651E+01  0.00000000000E+00 0. -1.
</event>
<event>
 8    1  0.1247338E-006  0.9118800E+02  0.7816164E-02  0.1184000E+00
        -11   -1    0    0    0    0  0.00000000000E+00  0.00000000000E+00  0.45593999997E+02  0.45594000000E+02  0.51100000000E-03 0.  1.
         11   -1    0    0    0    0 -0.00000000000E+00 -0.00000000000E+00 -0.45593999997E+02  0.45594000000E+02  0.51100000000E-03 0. -1.
         23    2    1    2    0    0  0.71054273576E-14 -0.88817841970E-15 -0.22204460493E-15  0.91188000000E+02  0.91188000000E+02 0.  0.
    9900012    2    3    3    0    0  0.36747954390E+02 -0.22920473169E+01  0.33711292076E+00  0.54367091838E+02  0.40000017464E+02 0.  0.
        -12    1    3    3    0    0 -0.36747954390E+02  0.22920473169E+01 -0.33711292076E+00  0.36820908162E+02  0.00000000000E+00 0.  1.
         11    1    4    4    0    0  0.17796015698E+02  0.33296042810E+01  0.91089949925E+01  0.20267171224E+02  0.51100000000E-03 0. -1.
        -11    1    4    4    0    0  0.20701931056E+02 -0.43516829908E+01  0.36710373042E+01  0.21470528858E+02  0.51100000000E-03 0.  1.
        -12    1    4    4    0    0 -0.17499923643E+01 -0.12699686071E+01 -0.12442919376E+02  0.12629391756E+02  0.00000000000E+00 0.  1.
</event>
<event>
 8    1  0.1247338E-006  0.9118800E+02  0.7816164E-02  0.1184000E+00
        -11   -1    0    0    0    0  0.00000000000E+00  0.00000000000E+00  0.45593999997E+02  0.45594000000E+02  0.51100000000E-03 0.  1.
         11   -1    0    0    0    0 -0.00000000000E+00 -0.00000000000E+00 -0.45593999997E+02  0.45594000000E+02  0.51100000000E-03 0. -1.
         23    2    1    2    0    0  0.35527136788E-14 -0.11102230246E-14  0.35527136788E-14  0.91188000000E+02  0.91188000000E+02 0.  0.
    9900012    2    3    3    0    0  0.23536995829E+02  0.14106195554E+01  0.28280738837E+02  0.54367079189E+02  0.39999988627E+02 0.  0.
         12    1    3    3    0    0 -0.23536995829E+02 -0.14106195554E+01 -0.28280738837E+02  0.36820920811E+02  0.00000000000E+00 0. -1.
         11    1    4    4    0    0  0.50241919610E+01  0.16727918810E+02  0.12095935536E+02  0.21245644950E+02  0.51100000000E-03 0. -1.
        -11    1    4    4    0    0  0.15970791922E+02 -0.46538546267E+01  0.47929001498E+01  0.17311743113E+02  0.51100000000E-03 0.  1.
        -12    1    4    4    0    0  0.25420119461E+01 -0.10663444628E+02  0.11391903152E+02  0.15809691126E+02  0.00000000000E+00 0.  1.
</event>
<event>
 8    1  0.1247338E-006  0.9118800E+02  0.7816164E-02  0.1184000E+00
        -11   -1    0    0    0    0  0.00000000000E+00  0.00000000000E+00  0.45593999997E+02  0.45594000000E+02  0.51100000000E-03 0.  1.
         11   -1    0    0    0    0 -0.00000000000E+00 -0.00000000000E+00 -0.45593999997E+02  0.45594000000E+02  0.51100000000E-03 0. -1.
         23    2    1    2    0    0  0.00000000000E+00 -0.35527136788E-14  0.00000000000E+00  0.91188000000E+02  0.91188000000E+02 0.  0.
    9900012    2    3    3    0    0 -0.19125087363E+02 -0.22436552936E+02  0.22059283140E+02  0.54367084110E+02  0.39999999846E+02 0.  0.
         12    1    3    3    0    0  0.19125087363E+02  0.22436552936E+02 -0.22059283140E+02  0.36820915890E+02  0.00000000000E+00 0. -1.
         11    1    4    4    0    0  0.26931141387E+01 -0.99884301106E+01 -0.27972116875E+01  0.10716622291E+02  0.51100000000E-03 0. -1.
        -11    1    4    4    0    0  0.19295878762E+01  0.52245887770E+01  0.74780040719E+01  0.93241719429E+01  0.51100000000E-03 0.  1.
        -12    1    4    4    0    0 -0.23747789378E+02 -0.17672711603E+02  0.17378490756E+02  0.34326289876E+02  0.00000000000E+00 0.  1.
</event>
<event>
 8    1  0.1247338E-006  0.9118800E+02  0.7816164E-02  0.1184000E+00
        -11   -1    0    0    0    0  0.00000000000E+00  0.00000000000E+00  0.45593999997E+02  0.45594000000E+02  0.51100000000E-03 0.  1.
         11   -1    0    0    0    0 -0.00000000000E+00 -0.00000000000E+00 -0.45593999997E+02  0.45594000000E+02  0.51100000000E-03 0. -1.
         23    2    1    2    0    0  0.00000000000E+00  0.44408920985E-15 -0.35527136788E-14  0.91188000000E+02  0.91188000000E+02 0.  0.
    9900012    2    3    3    0    0  0.29921201115E+02 -0.20207315297E+01 -0.21364012728E+02  0.54367045750E+02  0.39999912395E+02 0.  0.
        -12    1    3    3    0    0 -0.29921201115E+02  0.20207315297E+01  0.21364012728E+02  0.36820954250E+02  0.00000000000E+00 0.  1.
         11    1    4    4    0    0  0.50956356670E+01  0.82760105939E+01  0.28004198844E+01  0.10114356430E+02  0.51100000000E-03 0. -1.
        -11    1    4    4    0    0 -0.48182506365E+01  0.49982085277E-01 -0.69165467676E+01  0.84295110686E+01  0.51100000000E-03 0.  1.
         12    1    4    4    0    0  0.29643816084E+02 -0.10346724209E+02 -0.17247885845E+02  0.35823178251E+02  0.00000000000E+00 0. -1.
</event>
<event>
 8    1  0.1247338E-006  0.9118800E+02  0.7816164E-02  0.1184000E+00
        -11   -1    0    0    0    0  0.00000000000E+00  0.00000000000E+00  0.45593999997E+02  0.45594000000E+02  0.51100000000E-03 0.  1.
         11   -1    0    0    0    0 -0.00000000000E+00 -0.00000000000E+00 -0.45593999997E+02  0.45594000000E+02  0.51100000000E-03 0. -1.
         23    2    1    2    0    0  0.00000000000E+00 -0.17763568394E-14  0.71054273576E-14  0.91188000000E+02  0.91188000000E+02 0.  0.
    9900012    2    3    3    0    0 -0.49365108602E+01 -0.10130232137E+02  0.35054077775E+02  0.54367094101E+02  0.40000022622E+02 0.  0.
         12    1    3    3    0    0  0.49365108602E+01  0.10130232137E+02 -0.35054077775E+02  0.36820905899E+02  0.00000000000E+00 0. -1.
         11    1    4    4    0    0 -0.72790521191E+01  0.10206732230E+02  0.29547794710E+01  0.12879934183E+02  0.51100000000E-03 0. -1.
        -11    1    4    4    0    0 -0.59382515179E+00  0.28476372122E+01  0.33104086897E+01  0.44068664556E+01  0.51100000000E-03 0.  1.
        -12    1    4    4    0    0  0.29363664107E+01 -0.23184601579E+02  0.28788889614E+02  0.37080293462E+02  0.00000000000E+00 0.  1.
</event>
<event>
 8    1  0.1247338E-006  0.9118800E+02  0.7816164E-02  0.1184000E+00
        -11   -1    0    0    0    0  0.00000000000E+00  0.00000000000E+00  0.45593999997E+02  0.45594000000E+02  0.51100000000E-03 0.  1.
         11   -1    0    0    0    0 -0.00000000000E+00 -0.00000000000E+00 -0.45593999997E+02  0.45594000000E+02  0.51100000000E-03 0. -1.
         23    2    1    2    0    0  0.00000000000E+00 -0.35527136788E-14  0.00000000000E+00  0.91188000000E+02  0.91188000000E+02 0.  0.
    9900012    2    3    3    0    0 -0.32532570530E+02  0.16796531780E+02  0.39100345774E+01  0.54367082093E+02  0.39999995247E+02 0.  0.
         12    1    3    3    0    0  0.32532570530E+02 -0.16796531780E+02 -0.39100345774E+01  0.36820917907E+02  0.00000000000E+00 0. -1.
         11    1    4    4    0    0 -0.35377899011E+02  0.10862342304E+02 -0.75739750188E+01  0.37775009154E+02  0.51100000000E-03 0. -1.
        -11    1    4    4    0    0 -0.10502321947E+01  0.76357937372E+01  0.69750764118E+01  0.10395192392E+02  0.51100000000E-03 0.  1.
         12    1    4    4    0    0  0.38955606756E+01 -0.17016042618E+01  0.45089331845E+01  0.61968805461E+01  0.00000000000E+00 0. -1.
</event>
<event>
 8    1  0.1247338E-006  0.9118800E+02  0.7816164E-02  0.1184000E+00
        -11   -1    0    0    0    0  0.00000000000E+00  0.00000000000E+00  0.45593999997E+02  0.45594000000E+02  0.51100000000E-03 0. -1.
         11   -1    0    0    0    0 -0.00000000000E+00 -0.00000000000E+00 -0.45593999997E+02  0.45594000000E+02  0.51100000000E-03 0.  1.
         23    2    1    2    0    0 -0.22204460493E-15  0.00000000000E+00  0.26645352591E-14  0.91188000000E+02  0.91188000000E+02 0.  0.
    9900012    2    3    3    0    0 -0.14901053477E+01 -0.36256823776E+02 -0.62451261492E+01  0.54367091743E+02  0.40000017247E+02 0.  0.
         12    1    3    3    0    0  0.14901053477E+01  0.36256823776E+02  0.62451261492E+01  0.36820908257E+02  0.00000000000E+00 0. -1.
         11    1    4    4    0    0 -0.22054883298E+01 -0.27762309790E+01  0.15693289129E+01  0.38774257852E+01  0.51100000000E-03 0. -1.
        -11    1    4    4    0    0 -0.99707153151E+01 -0.22042909511E+01  0.88155112046E+01  0.13490266882E+02  0.51100000000E-03 0.  1.
        -12    1    4    4    0    0  0.10686098297E+02 -0.31276301845E+02 -0.16629966267E+02  0.36999399076E+02  0.00000000000E+00 0.  1.
</event>
<event>
 8    1  0.1247338E-006  0.9118800E+02  0.7816164E-02  0.1184000E+00
        -11   -1    0    0    0    0  0.00000000000E+00  0.00000000000E+00  0.45593999997E+02  0.45594000000E+02  0.51100000000E-03 0.  1.
         11   -1    0    0    0    0 -0.00000000000E+00 -0.00000000000E+00 -0.45593999997E+02  0.45594000000E+02  0.51100000000E-03 0. -1.
         23    2    1    2    0    0  0.71054273576E-14  0.00000000000E+00  0.88817841970E-15  0.91188000000E+02  0.91188000000E+02 0.  0.
    9900012    2    3    3    0    0  0.33053191930E+02 -0.14583938903E+02  0.71116901272E+01  0.54367069714E+02  0.39999967027E+02 0.  0.
         12    1    3    3    0    0 -0.33053191930E+02  0.14583938903E+02 -0.71116901272E+01  0.36820930286E+02  0.00000000000E+00 0. -1.
         11    1    4    4    0    0  0.12261343541E+02 -0.32297130772E+01 -0.12653806570E+02  0.17913414330E+02  0.51100000000E-03 0. -1.
        -11    1    4    4    0    0  0.16807372416E+02  0.17020076495E+01  0.95693299976E+01  0.19415372116E+02  0.51100000000E-03 0.  1.
        -12    1    4    4    0    0  0.39844759733E+01 -0.13056233475E+02  0.10196166700E+02  0.17038283268E+02  0.00000000000E+00 0.  1.
</event>
<event>
 8    1  0.1247338E-006  0.9118800E+02  0.7816164E-02  0.1184000E+00
        -11   -1    0    0    0    0  0.00000000000E+00  0.00000000000E+00  0.45593999997E+02  0.45594000000E+02  0.51100000000E-03 0. -1.
         11   -1    0    0    0    0 -0.00000000000E+00 -0.00000000000E+00 -0.45593999997E+02  0.45594000000E+02  0.51100000000E-03 0.  1.
         23    2    1    2    0    0  0.71054273576E-14  0.00000000000E+00 -0.17763568394E-14  0.91188000000E+02  0.91188000000E+02 0.  0.
    9900012    2    3    3    0    0 -0.33616191949E+02  0.65929643865E+01  0.13500541696E+02  0.54367079769E+02  0.39999989949E+02 0.  0.
        -12    1    3    3    0    0  0.33616191949E+02 -0.65929643865E+01 -0.13500541696E+02  0.36820920231E+02  0.00000000000E+00 0.  1.
         11    1    4    4    0    0 -0.13947633754E+02 -0.14910469713E+01  0.50051916093E+01  0.14893342530E+02  0.51100000000E-03 0. -1.
        -11    1    4    4    0    0 -0.24453551301E+02  0.12979387166E+02 -0.10769086965E+01  0.27705602232E+02  0.51100000000E-03 0.  1.
        -12    1    4    4    0    0  0.47849931058E+01 -0.48953758083E+01  0.95722587829E+01  0.11768135007E+02  0.00000000000E+00 0.  1.
</event>
<event>
 8    1  0.1247338E-006  0.9118800E+02  0.7816164E-02  0.1184000E+00
        -11   -1    0    0    0    0  0.00000000000E+00  0.00000000000E+00  0.45593999997E+02  0.45594000000E+02  0.51100000000E-03 0.  1.
         11   -1    0    0    0    0 -0.00000000000E+00 -0.00000000000E+00 -0.45593999997E+02  0.45594000000E+02  0.51100000000E-03 0. -1.
         23    2    1    2    0    0  0.00000000000E+00  0.00000000000E+00  0.00000000000E+00  0.91188000000E+02  0.91188000000E+02 0.  0.
    9900012    2    3    3    0    0 -0.22713906315E+02  0.16794503313E+02 -0.23617836844E+02  0.54367094270E+02  0.40000023007E+02 0.  0.
        -12    1    3    3    0    0  0.22713906315E+02 -0.16794503313E+02  0.23617836844E+02  0.36820905730E+02  0.00000000000E+00 0.  1.
         11    1    4    4    0    0 -0.73086940882E+01  0.20451575009E+02 -0.13349807330E+02  0.25493161546E+02  0.51100000000E-03 0. -1.
        -11    1    4    4    0    0 -0.18441728887E+02 -0.13936977639E+00 -0.95626577373E+00  0.18467030967E+02  0.51100000000E-03 0.  1.
        -12    1    4    4    0    0  0.30365166598E+01 -0.35177019191E+01 -0.93117637395E+01  0.10406901756E+02  0.00000000000E+00 0.  1.
</event>
<event>
 8    1  0.1247338E-006  0.9118800E+02  0.7816164E-02  0.1184000E+00
        -11   -1    0    0    0    0  0.00000000000E+00  0.00000000000E+00  0.45593999997E+02  0.45594000000E+02  0.51100000000E-03 0. -1.
         11   -1    0    0    0    0 -0.00000000000E+00 -0.00000000000E+00 -0.45593999997E+02  0.45594000000E+02  0.51100000000E-03 0.  1.
         23    2    1    2    0    0 -0.35527136788E-14  0.35527136788E-14  0.88817841970E-15  0.91188000000E+02  0.91188000000E+02 0.  0.
    9900012    2    3    3    0    0  0.26913802829E+02 -0.24779904979E+02 -0.41694183158E+01  0.54367074936E+02  0.39999978931E+02 0.  0.
         12    1    3    3    0    0 -0.26913802829E+02  0.24779904979E+02  0.41694183158E+01  0.36820925064E+02  0.00000000000E+00 0. -1.
         11    1    4    4    0    0 -0.41317005261E+01 -0.12864612385E+02 -0.22182223729E+01  0.13692688260E+02  0.51100000000E-03 0. -1.
        -11    1    4    4    0    0  0.14194507328E+02 -0.17538433316E+02 -0.35407931282E+01  0.22838955705E+02  0.51100000000E-03 0.  1.
        -12    1    4    4    0    0  0.16850996027E+02  0.56231407211E+01  0.15895971854E+01  0.17835430970E+02  0.00000000000E+00 0.  1.
</event>
<event>
 8    1  0.1247338E-006  0.9118800E+02  0.7816164E-02  0.1184000E+00
        -11   -1    0    0    0    0  0.00000000000E+00  0.00000000000E+00  0.45593999997E+02  0.45594000000E+02  0.51100000000E-03 0.  1.
         11   -1    0    0    0    0 -0.00000000000E+00 -0.00000000000E+00 -0.45593999997E+02  0.45594000000E+02  0.51100000000E-03 0. -1.
         23    2    1    2    0    0  0.00000000000E+00  0.17763568394E-14  0.00000000000E+00  0.91188000000E+02  0.91188000000E+02 0.  0.
    9900012    2    3    3    0    0  0.33717073315E+02 -0.12343321900E+02  0.81597391221E+01  0.54367082426E+02  0.39999996007E+02 0.  0.
        -12    1    3    3    0    0 -0.33717073315E+02  0.12343321900E+02 -0.81597391221E+01  0.36820917574E+02  0.00000000000E+00 0.  1.
         11    1    4    4    0    0  0.32263598619E+01  0.11794391813E+01 -0.78480008784E+01  0.85668893298E+01  0.51100000000E-03 0. -1.
        -11    1    4    4    0    0 -0.47587635543E+01  0.60906441577E+00  0.67425173739E+00  0.48447296824E+01  0.51100000000E-03 0.  1.
         12    1    4    4    0    0  0.35249477007E+02 -0.14131825497E+02  0.15333488263E+02  0.40955463414E+02  0.00000000000E+00 0. -1.
</event>
<event>
 8    1  0.1247338E-006  0.9118800E+02  0.7816164E-02  0.1184000E+00
        -11   -1    0    0    0    0  0.00000000000E+00  0.00000000000E+00  0.45593999997E+02  0.45594000000E+02  0.51100000000E-03 0.  1.
         11   -1    0    0    0    0 -0.00000000000E+00 -0.00000000000E+00 -0.45593999997E+02  0.45594000000E+02  0.51100000000E-03 0. -1.
         23    2    1    2    0    0  0.00000000000E+00  0.00000000000E+00  0.00000000000E+00  0.91188000000E+02  0.91188000000E+02 0.  0.
    9900012    2    3    3    0    0 -0.33668831822E+02  0.57553683125E+01 -0.13750051580E+02  0.54367103499E+02  0.40000044048E+02 0.  0.
        -12    1    3    3    0    0  0.33668831822E+02 -0.57553683125E+01  0.13750051580E+02  0.36820896501E+02  0.00000000000E+00 0.  1.
         11    1    4    4    0    0 -0.22135676666E+02 -0.44009589129E+01 -0.76931601490E+01  0.23844104809E+02  0.51100000000E-03 0. -1.
        -11    1    4    4    0    0 -0.17628030975E+02  0.37428706772E+01 -0.10250001815E+02  0.20732078874E+02  0.51100000000E-03 0.  1.
        -12    1    4    4    0    0  0.60948758192E+01  0.64134565482E+01  0.41931103847E+01  0.97909198161E+01  0.00000000000E+00 0.  1.
</event>
<event>
 8    1  0.1247338E-006  0.9118800E+02  0.7816164E-02  0.1184000E+00
        -11   -1    0    0    0    0  0.00000000000E+00  0.00000000000E+00  0.45593999997E+02  0.45594000000E+02  0.51100000000E-03 0. -1.
         11   -1    0    0    0    0 -0.00000000000E+00 -0.00000000000E+00 -0.45593999997E+02  0.45594000000E+02  0.51100000000E-03 0.  1.
         23    2    1    2    0    0 -0.66613381478E-15  0.00000000000E+00  0.17763568394E-14  0.91188000000E+02  0.91188000000E+02 0.  0.
    9900012    2    3    3    0    0 -0.11403037117E+01  0.33824135154E+02  0.14505251514E+02  0.54367153554E+02  0.40000158157E+02 0.  0.
        -12    1    3    3    0    0  0.11403037117E+01 -0.33824135154E+02 -0.14505251514E+02  0.36820846446E+02  0.00000000000E+00 0.  1.
         11    1    4    4    0    0  0.82677611410E+01  0.71279210321E+01  0.34684741094E+01  0.11453970728E+02  0.51100000000E-03 0. -1.
        -11    1    4    4    0    0  0.58300641867E+01 -0.28679352498E+01 -0.25569215587E+01  0.69823025670E+01  0.51100000000E-03 0.  1.
         12    1    4    4    0    0 -0.15238129040E+02  0.29564149372E+02  0.13593698964E+02  0.35930880259E+02  0.00000000000E+00 0. -1.
</event>
<event>
 8    1  0.1247338E-006  0.9118800E+02  0.7816164E-02  0.1184000E+00
        -11   -1    0    0    0    0  0.00000000000E+00  0.00000000000E+00  0.45593999997E+02  0.45594000000E+02  0.51100000000E-03 0.  1.
         11   -1    0    0    0    0 -0.00000000000E+00 -0.00000000000E+00 -0.45593999997E+02  0.45594000000E+02  0.51100000000E-03 0. -1.
         23    2    1    2    0    0 -0.35527136788E-14  0.00000000000E+00 -0.53290705182E-14  0.91188000000E+02  0.91188000000E+02 0.  0.
    9900012    2    3    3    0    0  0.29543642916E+02 -0.16849360170E+02 -0.14108436080E+02  0.54367139832E+02  0.40000126874E+02 0.  0.
        -12    1    3    3    0    0 -0.29543642916E+02  0.16849360170E+02  0.14108436080E+02  0.36820860168E+02  0.00000000000E+00 0.  1.
         11    1    4    4    0    0  0.32842798941E+02 -0.13055206957E+02 -0.18884754506E+02  0.40071458970E+02  0.51100000000E-03 0. -1.
        -11    1    4    4    0    0  0.12369725461E+01  0.34131159639E+00  0.74793312065E+01  0.75886092430E+01  0.51100000000E-03 0.  1.
        -12    1    4    4    0    0 -0.45361285712E+01 -0.41354648098E+01 -0.27030127803E+01  0.67070716186E+01  0.00000000000E+00 0.  1.
</event>
<event>
 8    1  0.1247338E-006  0.9118800E+02  0.7816164E-02  0.1184000E+00
        -11   -1    0    0    0    0  0.00000000000E+00  0.00000000000E+00  0.45593999997E+02  0.45594000000E+02  0.51100000000E-03 0.  1.
         11   -1    0    0    0    0 -0.00000000000E+00 -0.00000000000E+00 -0.45593999997E+02  0.45594000000E+02  0.51100000000E-03 0. -1.
         23    2    1    2    0    0  0.00000000000E+00  0.17763568394E-14  0.00000000000E+00  0.91188000000E+02  0.91188000000E+02 0.  0.
    9900012    2    3    3    0    0 -0.37083919373E+01 -0.11511871280E+02  0.34777931600E+02  0.54367083695E+02  0.39999998900E+02 0.  0.
         12    1    3    3    0    0  0.37083919373E+01  0.11511871280E+02 -0.34777931600E+02  0.36820916305E+02  0.00000000000E+00 0. -1.
         11    1    4    4    0    0  0.19675766165E+01 -0.24513489106E+02  0.26835148118E+02  0.36399281320E+02  0.51100000000E-03 0. -1.
        -11    1    4    4    0    0  0.12247405506E+01  0.37707130742E+01  0.43725265166E+01  0.59023092857E+01  0.51100000000E-03 0.  1.
         12    1    4    4    0    0 -0.69007091044E+01  0.92309047515E+01  0.35702569662E+01  0.12065493089E+02  0.00000000000E+00 0. -1.
</event>
<event>
 8    1  0.1247338E-006  0.9118800E+02  0.7816164E-02  0.1184000E+00
        -11   -1    0    0    0    0  0.00000000000E+00  0.00000000000E+00  0.45593999997E+02  0.45594000000E+02  0.51100000000E-03 0. -1.
         11   -1    0    0    0    0 -0.00000000000E+00 -0.00000000000E+00 -0.45593999997E+02  0.45594000000E+02  0.51100000000E-03 0.  1.
         23    2    1    2    0    0 -0.35527136788E-14  0.00000000000E+00  0.00000000000E+00  0.91188000000E+02  0.91188000000E+02 0.  0.
    9900012    2    3    3    0    0 -0.23806554457E+02 -0.21075412124E+02 -0.18570211989E+02  0.54367111844E+02  0.40000063070E+02 0.  0.
         12    1    3    3    0    0  0.23806554457E+02  0.21075412124E+02  0.18570211989E+02  0.36820888156E+02  0.00000000000E+00 0. -1.
         11    1    4    4    0    0 -0.44242509239E+01 -0.41868634963E+01  0.67188226078E+01  0.90689800788E+01  0.51100000000E-03 0. -1.
        -11    1    4    4    0    0 -0.87114110088E+00 -0.13800729130E+02 -0.27257412981E-01  0.13828223116E+02  0.51100000000E-03 0.  1.
         12    1    4    4    0    0 -0.18511162433E+02 -0.30878194977E+01 -0.25261777184E+02  0.31469908648E+02  0.00000000000E+00 0. -1.
</event>
<event>
 8    1  0.1247338E-006  0.9118800E+02  0.7816164E-02  0.1184000E+00
        -11   -1    0    0    0    0  0.00000000000E+00  0.00000000000E+00  0.45593999997E+02  0.45594000000E+02  0.51100000000E-03 0.  1.
         11   -1    0    0    0    0 -0.00000000000E+00 -0.00000000000E+00 -0.45593999997E+02  0.45594000000E+02  0.51100000000E-03 0. -1.
         23    2    1    2    0    0 -0.35527136788E-14 -0.35527136788E-14  0.00000000000E+00  0.91188000000E+02  0.91188000000E+02 0.  0.
    9900012    2    3    3    0    0 -0.30565356457E+02 -0.20196251103E+02 -0.36946200882E+01  0.54367084863E+02  0.40000001561E+02 0.  0.
         12    1    3    3    0    0  0.30565356457E+02  0.20196251103E+02  0.36946200882E+01  0.36820915137E+02  0.00000000000E+00 0. -1.
         11    1    4    4    0    0 -0.10729306787E+02  0.46389936030E+01 -0.31921702970E+01  0.12117270206E+02  0.51100000000E-03 0. -1.
        -11    1    4    4    0    0 -0.18605831085E+02 -0.14388375112E+01  0.15832921534E+01  0.18728428072E+02  0.51100000000E-03 0.  1.
        -12    1    4    4    0    0 -0.12302185849E+01 -0.23396407195E+02 -0.20857419446E+01  0.23521386585E+02  0.00000000000E+00 0.  1.
</event>
<event>
 8    1  0.1247338E-006  0.9118800E+02  0.7816164E-02  0.1184000E+00
        -11   -1    0    0    0    0  0.00000000000E+00  0.00000000000E+00  0.45593999997E+02  0.45594000000E+02  0.51100000000E-03 0. -1.
         11   -1    0    0    0    0 -0.00000000000E+00 -0.00000000000E+00 -0.45593999997E+02  0.45594000000E+02  0.51100000000E-03 0.  1.
         23    2    1    2    0    0  0.00000000000E+00  0.35527136788E-14  0.35527136788E-14  0.91188000000E+02  0.91188000000E+02 0.  0.
    9900012    2    3    3    0    0  0.25669783863E+02  0.19103455484E+02  0.18218110982E+02  0.54367090414E+02  0.40000014216E+02 0.  0.
        -12    1    3    3    0    0 -0.25669783863E+02 -0.19103455484E+02 -0.18218110982E+02  0.36820909586E+02  0.00000000000E+00 0.  1.
         11    1    4    4    0    0  0.33796647752E+00  0.86182442802E+01  0.20603280351E+02  0.22335700510E+02  0.51100000000E-03 0. -1.
        -11    1    4    4    0    0  0.16303619102E+02  0.94699557182E+01  0.58791792552E+01  0.19749754583E+02  0.51100000000E-03 0.  1.
        -12    1    4    4    0    0  0.90281982838E+01  0.10152554854E+01 -0.82643486242E+01  0.12281635320E+02  0.00000000000E+00 0.  1.
</event>
<event>
 8    1  0.1247338E-006  0.9118800E+02  0.7816164E-02  0.1184000E+00
        -11   -1    0    0    0    0  0.00000000000E+00  0.00000000000E+00  0.45593999997E+02  0.45594000000E+02  0.51100000000E-03 0.  1.
         11   -1    0    0    0    0 -0.00000000000E+00 -0.00000000000E+00 -0.45593999997E+02  0.45594000000E+02  0.51100000000E-03 0. -1.
         23    2    1    2    0    0 -0.17763568394E-14  0.71054273576E-14  0.44408920985E-15  0.91188000000E+02  0.91188000000E+02 0.  0.
    9900012    2    3    3    0    0 -0.13070150101E+02 -0.34392267938E+02  0.14567277387E+01  0.54367095974E+02  0.40000026892E+02 0.  0.
        -12    1    3    3    0    0  0.13070150101E+02  0.34392267938E+02 -0.14567277387E+01  0.36820904026E+02  0.00000000000E+00 0.  1.
         11    1    4    4    0    0 -0.67429360507E+01 -0.24031462837E+02  0.12493249689E+02  0.27911640595E+02  0.51100000000E-03 0. -1.
        -11    1    4    4    0    0  0.25820947037E+01 -0.13804847707E+02 -0.90252137308E+01  0.16694176123E+02  0.51100000000E-03 0.  1.
         12    1    4    4    0    0 -0.89093087545E+01  0.34440426062E+01 -0.20113082195E+01  0.97612792558E+01  0.00000000000E+00 0. -1.
</event>
<event>
 8    1  0.1247338E-006  0.9118800E+02  0.7816164E-02  0.1184000E+00
        -11   -1    0    0    0    0  0.00000000000E+00  0.00000000000E+00  0.45593999997E+02  0.45594000000E+02  0.51100000000E-03 0.  1.
         11   -1    0    0    0    0 -0.00000000000E+00 -0.00000000000E+00 -0.45593999997E+02  0.45594000000E+02  0.51100000000E-03 0. -1.
         23    2    1    2    0    0  0.00000000000E+00  0.17763568394E-14  0.00000000000E+00  0.91188000000E+02  0.91188000000E+02 0.  0.
    9900012    2    3    3    0    0  0.29626198402E+02  0.15146926705E+02 -0.15768281888E+02  0.54367085644E+02  0.40000003342E+02 0.  0.
        -12    1    3    3    0    0 -0.29626198402E+02 -0.15146926705E+02  0.15768281888E+02  0.36820914356E+02  0.00000000000E+00 0.  1.
         11    1    4    4    0    0  0.27516554868E+02  0.20457697893E+02 -0.25409531207E+02  0.42676954804E+02  0.51100000000E-03 0. -1.
        -11    1    4    4    0    0  0.23925832976E+01 -0.29865478261E+01  0.78807755661E+01  0.87607389264E+01  0.51100000000E-03 0.  1.
         12    1    4    4    0    0 -0.28293976319E+00 -0.23242233623E+01  0.17604737533E+01  0.29293919136E+01  0.00000000000E+00 0. -1.
</event>
<event>
 8    1  0.1247338E-006  0.9118800E+02  0.7816164E-02  0.1184000E+00
        -11   -1    0    0    0    0  0.00000000000E+00  0.00000000000E+00  0.45593999997E+02  0.45594000000E+02  0.51100000000E-03 0.  1.
         11   -1    0    0    0    0 -0.00000000000E+00 -0.00000000000E+00 -0.45593999997E+02  0.45594000000E+02  0.51100000000E-03 0. -1.
         23    2    1    2    0    0  0.35527136788E-14  0.00000000000E+00 -0.71054273576E-14  0.91188000000E+02  0.91188000000E+02 0.  0.
    9900012    2    3    3    0    0 -0.19172150174E+02  0.12166612364E+02  0.28985909667E+02  0.54367071740E+02  0.39999971645E+02 0.  0.
         12    1    3    3    0    0  0.19172150174E+02 -0.12166612364E+02 -0.28985909667E+02  0.36820928260E+02  0.00000000000E+00 0. -1.
         11    1    4    4    0    0 -0.68389594845E+01  0.60804854390E+00 -0.59542215172E+01  0.90881155362E+01  0.51100000000E-03 0. -1.
        -11    1    4    4    0    0 -0.66182763413E+01  0.72667320647E+01  0.22050922995E+00  0.98313580553E+01  0.51100000000E-03 0.  1.
        -12    1    4    4    0    0 -0.57149143486E+01  0.42918317558E+01  0.34719621954E+02  0.35447598148E+02  0.00000000000E+00 0.  1.
</event>
<event>
 8    1  0.1247338E-006  0.9118800E+02  0.7816164E-02  0.1184000E+00
        -11   -1    0    0    0    0  0.00000000000E+00  0.00000000000E+00  0.45593999997E+02  0.45594000000E+02  0.51100000000E-03 0.  1.
         11   -1    0    0    0    0 -0.00000000000E+00 -0.00000000000E+00 -0.45593999997E+02  0.45594000000E+02  0.51100000000E-03 0. -1.
         23    2    1    2    0    0  0.77715611724E-15  0.17763568394E-14  0.71054273576E-14  0.91188000000E+02  0.91188000000E+02 0.  0.
    9900012    2    3    3    0    0 -0.62996390610E+00  0.10636896904E+02  0.35245426931E+02  0.54367074566E+02  0.39999978087E+02 0.  0.
         12    1    3    3    0    0  0.62996390610E+00 -0.10636896904E+02 -0.35245426931E+02  0.36820925434E+02  0.00000000000E+00 0. -1.
         11    1    4    4    0    0  0.85115983607E+01  0.85625093873E+01  0.16704043333E+02  0.20610408477E+02  0.51100000000E-03 0. -1.
        -11    1    4    4    0    0 -0.65007925754E+01 -0.96247656470E+01  0.18403941255E+02  0.21762386631E+02  0.51100000000E-03 0.  1.
        -12    1    4    4    0    0 -0.26407696915E+01  0.11699153164E+02  0.13744234271E+00  0.11994279458E+02  0.00000000000E+00 0.  1.
</event>
<event>
 8    1  0.1247338E-006  0.9118800E+02  0.7816164E-02  0.1184000E+00
        -11   -1    0    0    0    0  0.00000000000E+00  0.00000000000E+00  0.45593999997E+02  0.45594000000E+02  0.51100000000E-03 0.  1.
         11   -1    0    0    0    0 -0.00000000000E+00 -0.00000000000E+00 -0.45593999997E+02  0.45594000000E+02  0.51100000000E-03 0. -1.
         23    2    1    2    0    0 -0.35527136788E-14  0.00000000000E+00  0.00000000000E+00  0.91188000000E+02  0.91188000000E+02 0.  0.
    9900012    2    3    3    0    0  0.15456618897E+02  0.11267508627E+02  0.31462931648E+02  0.54367083576E+02  0.39999998629E+02 0.  0.
         12    1    3    3    0    0 -0.15456618897E+02 -0.11267508627E+02 -0.31462931648E+02  0.36820916424E+02  0.00000000000E+00 0. -1.
         11    1    4    4    0    0  0.45761846422E-01  0.15315059604E+02 -0.41288398742E+00  0.15320692487E+02  0.51100000000E-03 0.  1.
        -11    1    4    4    0    0  0.65622925671E+01 -0.99360690863E+01  0.16135477925E+02  0.20053498467E+02  0.51100000000E-03 0. -1.
        -12    1    4    4    0    0  0.88485644837E+01  0.58885181091E+01  0.15740337710E+02  0.18992892623E+02  0.00000000000E+00 0.  1.
</event>
<event>
 8    1  0.1247338E-006  0.9118800E+02  0.7816164E-02  0.1184000E+00
        -11   -1    0    0    0    0  0.00000000000E+00  0.00000000000E+00  0.45593999997E+02  0.45594000000E+02  0.51100000000E-03 0.  1.
         11   -1    0    0    0    0 -0.00000000000E+00 -0.00000000000E+00 -0.45593999997E+02  0.45594000000E+02  0.51100000000E-03 0. -1.
         23    2    1    2    0    0  0.35527136788E-14  0.00000000000E+00 -0.17763568394E-14  0.91188000000E+02  0.91188000000E+02 0.  0.
    9900012    2    3    3    0    0  0.17862037988E+02 -0.27984102668E+02 -0.15925390012E+02  0.54367075918E+02  0.39999981171E+02 0.  0.
        -12    1    3    3    0    0 -0.17862037988E+02  0.27984102668E+02  0.15925390012E+02  0.36820924082E+02  0.00000000000E+00 0.  1.
         11    1    4    4    0    0  0.10563301534E+02 -0.59851584234E+01 -0.58785011235E+01  0.13489337878E+02  0.51100000000E-03 0. -1.
        -11    1    4    4    0    0 -0.29211687944E+00 -0.25127617793E+02 -0.16816013801E+02  0.30236746331E+02  0.51100000000E-03 0.  1.
        -12    1    4    4    0    0  0.75908533327E+01  0.31286735487E+01  0.67691249125E+01  0.10640991710E+02  0.00000000000E+00 0.  1.
</event>
<event>
 8    1  0.1247338E-006  0.9118800E+02  0.7816164E-02  0.1184000E+00
        -11   -1    0    0    0    0  0.00000000000E+00  0.00000000000E+00  0.45593999997E+02  0.45594000000E+02  0.51100000000E-03 0.  1.
         11   -1    0    0    0    0 -0.00000000000E+00 -0.00000000000E+00 -0.45593999997E+02  0.45594000000E+02  0.51100000000E-03 0. -1.
         23    2    1    2    0    0  0.00000000000E+00  0.00000000000E+00 -0.88817841970E-15  0.91188000000E+02  0.91188000000E+02 0.  0.
    9900012    2    3    3    0    0 -0.35994441717E+02  0.68164999315E+01 -0.37033738326E+01  0.54367089045E+02  0.40000011095E+02 0.  0.
         12    1    3    3    0    0  0.35994441717E+02 -0.68164999315E+01  0.37033738326E+01  0.36820910955E+02  0.00000000000E+00 0. -1.
         11    1    4    4    0    0 -0.10806527456E+02  0.10977644168E+02  0.10497593814E+02  0.18641061753E+02  0.51100000000E-03 0.  1.
        -11    1    4    4    0    0 -0.83375780836E+01  0.47682680419E+01 -0.13595925291E+02  0.16646344139E+02  0.51100000000E-03 0. -1.
        -12    1    4    4    0    0 -0.16850336178E+02 -0.89294122784E+01 -0.60504235566E+00  0.19079683152E+02  0.00000000000E+00 0.  1.
</event>
<event>
 8    1  0.1247338E-006  0.9118800E+02  0.7816164E-02  0.1184000E+00
        -11   -1    0    0    0    0  0.00000000000E+00  0.00000000000E+00  0.45593999997E+02  0.45594000000E+02  0.51100000000E-03 0.  1.
         11   -1    0    0    0    0 -0.00000000000E+00 -0.00000000000E+00 -0.45593999997E+02  0.45594000000E+02  0.51100000000E-03 0. -1.
         23    2    1    2    0    0 -0.17763568394E-14  0.00000000000E+00  0.00000000000E+00  0.91188000000E+02  0.91188000000E+02 0.  0.
    9900012    2    3    3    0    0  0.11811082127E+02  0.20206870476E+01 -0.34816617175E+02  0.54367059373E+02  0.39999943454E+02 0.  0.
        -12    1    3    3    0    0 -0.11811082127E+02 -0.20206870476E+01  0.34816617175E+02  0.36820940627E+02  0.00000000000E+00 0.  1.
         11    1    4    4    0    0  0.17556939799E+02 -0.11382332872E+01 -0.13025786060E+02  0.21890929922E+02  0.51100000000E-03 0. -1.
        -11    1    4    4    0    0 -0.64827682266E+01  0.49200710493E+00  0.32600016493E+01  0.72729612873E+01  0.51100000000E-03 0.  1.
         12    1    4    4    0    0  0.73691055441E+00  0.26669132298E+01 -0.25050832764E+02  0.25203168164E+02  0.00000000000E+00 0. -1.
</event>
<event>
 8    1  0.1247338E-006  0.9118800E+02  0.7816164E-02  0.1184000E+00
        -11   -1    0    0    0    0  0.00000000000E+00  0.00000000000E+00  0.45593999997E+02  0.45594000000E+02  0.51100000000E-03 0.  1.
         11   -1    0    0    0    0 -0.00000000000E+00 -0.00000000000E+00 -0.45593999997E+02  0.45594000000E+02  0.51100000000E-03 0. -1.
         23    2    1    2    0    0  0.00000000000E+00  0.00000000000E+00 -0.35527136788E-14  0.91188000000E+02  0.91188000000E+02 0.  0.
    9900012    2    3    3    0    0 -0.13780321601E+02 -0.18385490065E+02  0.28772489562E+02  0.54367086595E+02  0.40000005510E+02 0.  0.
         12    1    3    3    0    0  0.13780321601E+02  0.18385490065E+02 -0.28772489562E+02  0.36820913405E+02  0.00000000000E+00 0. -1.
         11    1    4    4    0    0 -0.75124108139E+01 -0.13493312049E+02  0.26296539232E+02  0.30496127003E+02  0.51100000000E-03 0.  1.
        -11    1    4    4    0    0  0.28119493387E+00 -0.27387082564E+01  0.11888843571E+02  0.12203450136E+02  0.51100000000E-03 0. -1.
         12    1    4    4    0    0 -0.65491057209E+01 -0.21534697596E+01 -0.94128932408E+01  0.11667509456E+02  0.00000000000E+00 0. -1.
</event>
<event>
 8    1  0.1247338E-006  0.9118800E+02  0.7816164E-02  0.1184000E+00
        -11   -1    0    0    0    0  0.00000000000E+00  0.00000000000E+00  0.45593999997E+02  0.45594000000E+02  0.51100000000E-03 0.  1.
         11   -1    0    0    0    0 -0.00000000000E+00 -0.00000000000E+00 -0.45593999997E+02  0.45594000000E+02  0.51100000000E-03 0. -1.
         23    2    1    2    0    0  0.00000000000E+00  0.17763568394E-14  0.00000000000E+00  0.91188000000E+02  0.91188000000E+02 0.  0.
    9900012    2    3    3    0    0  0.75952419872E+01 -0.14563779627E+02  0.32954312457E+02  0.54367108004E+02  0.40000054316E+02 0.  0.
         12    1    3    3    0    0 -0.75952419872E+01  0.14563779627E+02 -0.32954312457E+02  0.36820891996E+02  0.00000000000E+00 0. -1.
         11    1    4    4    0    0  0.62904446847E+01 -0.17739710292E+02  0.12683990307E+02  0.22696929879E+02  0.51100000000E-03 0. -1.
        -11    1    4    4    0    0  0.33798551601E+01  0.13410604096E+02  0.10437063543E+02  0.17326281158E+02  0.51100000000E-03 0.  1.
        -12    1    4    4    0    0 -0.20750578576E+01 -0.10234673431E+02  0.98332586077E+01  0.14343896967E+02  0.00000000000E+00 0.  1.
</event>
<event>
 8    1  0.1247338E-006  0.9118800E+02  0.7816164E-02  0.1184000E+00
        -11   -1    0    0    0    0  0.00000000000E+00  0.00000000000E+00  0.45593999997E+02  0.45594000000E+02  0.51100000000E-03 0. -1.
         11   -1    0    0    0    0 -0.00000000000E+00 -0.00000000000E+00 -0.45593999997E+02  0.45594000000E+02  0.51100000000E-03 0.  1.
         23    2    1    2    0    0  0.17763568394E-14 -0.71054273576E-14 -0.17763568394E-14  0.91188000000E+02  0.91188000000E+02 0.  0.
    9900012    2    3    3    0    0  0.12646808258E+02 -0.32704828170E+02 -0.11235177800E+02  0.54367125962E+02  0.40000095255E+02 0.  0.
         12    1    3    3    0    0 -0.12646808258E+02  0.32704828170E+02  0.11235177800E+02  0.36820874038E+02  0.00000000000E+00 0. -1.
         11    1    4    4    0    0  0.61592450234E+00  0.17987494837E+01 -0.55468697250E+01  0.58636700713E+01  0.51100000000E-03 0. -1.
        -11    1    4    4    0    0  0.13076824441E+02 -0.23159864474E+01 -0.91293092898E+01  0.16115564497E+02  0.51100000000E-03 0.  1.
         12    1    4    4    0    0 -0.10459406852E+01 -0.32187591206E+02  0.34410012146E+01  0.32387891394E+02  0.00000000000E+00 0. -1.
</event>
<event>
 8    1  0.1247338E-006  0.9118800E+02  0.7816164E-02  0.1184000E+00
        -11   -1    0    0    0    0  0.00000000000E+00  0.00000000000E+00  0.45593999997E+02  0.45594000000E+02  0.51100000000E-03 0.  1.
         11   -1    0    0    0    0 -0.00000000000E+00 -0.00000000000E+00 -0.45593999997E+02  0.45594000000E+02  0.51100000000E-03 0. -1.
         23    2    1    2    0    0  0.88817841970E-15 -0.35527136788E-14  0.00000000000E+00  0.91188000000E+02  0.91188000000E+02 0.  0.
    9900012    2    3    3    0    0 -0.46695048545E+01 -0.27832494343E+02  0.23650101005E+02  0.54367091612E+02  0.40000016949E+02 0.  0.
         12    1    3    3    0    0  0.46695048545E+01  0.27832494343E+02 -0.23650101005E+02  0.36820908388E+02  0.00000000000E+00 0. -1.
         11    1    4    4    0    0 -0.56398528267E+01 -0.59589900668E+01 -0.81563843954E+00  0.82451663930E+01  0.51100000000E-03 0. -1.
        -11    1    4    4    0    0 -0.13930303548E+02 -0.79916800816E+01  0.19307591617E+02  0.25113808985E+02  0.51100000000E-03 0.  1.
        -12    1    4    4    0    0  0.14900651520E+02 -0.13881824194E+02  0.51581478285E+01  0.21008116234E+02  0.00000000000E+00 0.  1.
</event>
<event>
 8    1  0.1247338E-006  0.9118800E+02  0.7816164E-02  0.1184000E+00
        -11   -1    0    0    0    0  0.00000000000E+00  0.00000000000E+00  0.45593999997E+02  0.45594000000E+02  0.51100000000E-03 0. -1.
         11   -1    0    0    0    0 -0.00000000000E+00 -0.00000000000E+00 -0.45593999997E+02  0.45594000000E+02  0.51100000000E-03 0.  1.
         23    2    1    2    0    0  0.00000000000E+00  0.44408920985E-15  0.00000000000E+00  0.91188000000E+02  0.91188000000E+02 0.  0.
    9900012    2    3    3    0    0 -0.64075659977E+01 -0.34326422422E+01 -0.36096257961E+02  0.54367085107E+02  0.40000002118E+02 0.  0.
         12    1    3    3    0    0  0.64075659977E+01  0.34326422422E+01  0.36096257961E+02  0.36820914893E+02  0.00000000000E+00 0. -1.
         11    1    4    4    0    0 -0.54158307611E+00  0.99143785023E+01 -0.28404973940E+01  0.10327470117E+02  0.51100000000E-03 0. -1.
        -11    1    4    4    0    0 -0.54513671261E+01  0.26465733260E+01  0.10837470515E+01  0.61559939771E+01  0.51100000000E-03 0.  1.
         12    1    4    4    0    0 -0.41461579545E+00 -0.15993594070E+02 -0.34339507619E+02  0.37883621013E+02  0.00000000000E+00 0. -1.
</event>
<event>
 8    1  0.1247338E-006  0.9118800E+02  0.7816164E-02  0.1184000E+00
        -11   -1    0    0    0    0  0.00000000000E+00  0.00000000000E+00  0.45593999997E+02  0.45594000000E+02  0.51100000000E-03 0. -1.
         11   -1    0    0    0    0 -0.00000000000E+00 -0.00000000000E+00 -0.45593999997E+02  0.45594000000E+02  0.51100000000E-03 0.  1.
         23    2    1    2    0    0  0.44408920985E-15  0.00000000000E+00  0.00000000000E+00  0.91188000000E+02  0.91188000000E+02 0.  0.
    9900012    2    3    3    0    0  0.37017748758E+01 -0.28025672997E+02  0.23593216814E+02  0.54367063513E+02  0.39999952890E+02 0.  0.
        -12    1    3    3    0    0 -0.37017748758E+01  0.28025672997E+02 -0.23593216814E+02  0.36820936487E+02  0.00000000000E+00 0.  1.
         11    1    4    4    0    0  0.10825609347E+02 -0.11033300141E+02  0.17267298804E+02  0.23175140517E+02  0.51100000000E-03 0. -1.
        -11    1    4    4    0    0 -0.57076766908E+01  0.62883366077E+00 -0.69999966133E+01  0.90538918608E+01  0.51100000000E-03 0.  1.
         12    1    4    4    0    0 -0.14161577809E+01 -0.17621206516E+02  0.13325914624E+02  0.22138031134E+02  0.00000000000E+00 0. -1.
</event>
<event>
 8    1  0.1247338E-006  0.9118800E+02  0.7816164E-02  0.1184000E+00
        -11   -1    0    0    0    0  0.00000000000E+00  0.00000000000E+00  0.45593999997E+02  0.45594000000E+02  0.51100000000E-03 0.  1.
         11   -1    0    0    0    0 -0.00000000000E+00 -0.00000000000E+00 -0.45593999997E+02  0.45594000000E+02  0.51100000000E-03 0. -1.
         23    2    1    2    0    0  0.22204460493E-15 -0.17763568394E-14  0.00000000000E+00  0.91188000000E+02  0.91188000000E+02 0.  0.
    9900012    2    3    3    0    0  0.11152511625E+01  0.15196424834E+02 -0.33520201929E+02  0.54367094930E+02  0.40000024511E+02 0.  0.
        -12    1    3    3    0    0 -0.11152511625E+01 -0.15196424834E+02  0.33520201929E+02  0.36820905070E+02  0.00000000000E+00 0.  1.
         11    1    4    4    0    0  0.74591109468E+01  0.22320171376E+02 -0.75639491006E+01  0.24719257930E+02  0.51100000000E-03 0. -1.
        -11    1    4    4    0    0 -0.68121143372E+00 -0.84685222209E+01 -0.15974052252E+02  0.18092823529E+02  0.51100000000E-03 0.  1.
        -12    1    4    4    0    0 -0.56626483505E+01  0.13447756786E+01 -0.99822005757E+01  0.11555013470E+02  0.00000000000E+00 0.  1.
</event>
<event>
 8    1  0.1247338E-006  0.9118800E+02  0.7816164E-02  0.1184000E+00
        -11   -1    0    0    0    0  0.00000000000E+00  0.00000000000E+00  0.45593999997E+02  0.45594000000E+02  0.51100000000E-03 0. -1.
         11   -1    0    0    0    0 -0.00000000000E+00 -0.00000000000E+00 -0.45593999997E+02  0.45594000000E+02  0.51100000000E-03 0.  1.
         23    2    1    2    0    0  0.00000000000E+00  0.00000000000E+00  0.00000000000E+00  0.91188000000E+02  0.91188000000E+02 0.  0.
    9900012    2    3    3    0    0 -0.51298796083E+01  0.34499471749E+02 -0.11800420235E+02  0.54367093799E+02  0.40000021933E+02 0.  0.
        -12    1    3    3    0    0  0.51298796083E+01 -0.34499471749E+02  0.11800420235E+02  0.36820906201E+02  0.00000000000E+00 0.  1.
         11    1    4    4    0    0  0.52139735571E+01 -0.48561019646E+01 -0.58993468261E+01  0.92503805208E+01  0.51100000000E-03 0. -1.
        -11    1    4    4    0    0 -0.42787243000E+01  0.84764951427E+01 -0.95132491285E+01  0.13440995528E+02  0.51100000000E-03 0.  1.
         12    1    4    4    0    0 -0.60651288654E+01  0.30879078571E+02  0.36121757198E+01  0.31675717750E+02  0.00000000000E+00 0. -1.
</event>
<event>
 8    1  0.1247338E-006  0.9118800E+02  0.7816164E-02  0.1184000E+00
        -11   -1    0    0    0    0  0.00000000000E+00  0.00000000000E+00  0.45593999997E+02  0.45594000000E+02  0.51100000000E-03 0. -1.
         11   -1    0    0    0    0 -0.00000000000E+00 -0.00000000000E+00 -0.45593999997E+02  0.45594000000E+02  0.51100000000E-03 0.  1.
         23    2    1    2    0    0  0.00000000000E+00  0.00000000000E+00  0.00000000000E+00  0.91188000000E+02  0.91188000000E+02 0.  0.
    9900012    2    3    3    0    0 -0.34267318730E+02 -0.12622743389E+02 -0.47113208733E+01  0.54367091158E+02  0.40000015912E+02 0.  0.
        -12    1    3    3    0    0  0.34267318730E+02  0.12622743389E+02  0.47113208733E+01  0.36820908842E+02  0.00000000000E+00 0.  1.
         11    1    4    4    0    0 -0.11968571869E+02  0.67832597770E+01  0.54495777781E+01  0.14797203249E+02  0.51100000000E-03 0.  1.
        -11    1    4    4    0    0 -0.25736355780E+02 -0.17626893041E+02 -0.28833453622E+01  0.31327001897E+02  0.51100000000E-03 0. -1.
        -12    1    4    4    0    0  0.34376089190E+01 -0.17791101251E+01 -0.72775532892E+01  0.82428860113E+01  0.00000000000E+00 0.  1.
</event>
<event>
 8    1  0.1247338E-006  0.9118800E+02  0.7816164E-02  0.1184000E+00
        -11   -1    0    0    0    0  0.00000000000E+00  0.00000000000E+00  0.45593999997E+02  0.45594000000E+02  0.51100000000E-03 0.  1.
         11   -1    0    0    0    0 -0.00000000000E+00 -0.00000000000E+00 -0.45593999997E+02  0.45594000000E+02  0.51100000000E-03 0. -1.
         23    2    1    2    0    0  0.00000000000E+00  0.00000000000E+00  0.00000000000E+00  0.91188000000E+02  0.91188000000E+02 0.  0.
    9900012    2    3    3    0    0  0.28649892500E+02 -0.12783580184E+02  0.19275448634E+02  0.54367093131E+02  0.40000020412E+02 0.  0.
         12    1    3    3    0    0 -0.28649892500E+02  0.12783580184E+02 -0.19275448634E+02  0.36820906869E+02  0.00000000000E+00 0. -1.
         11    1    4    4    0    0  0.72914521616E+01 -0.16587205113E+02  0.13372783791E+02  0.22519591353E+02  0.51100000000E-03 0. -1.
        -11    1    4    4    0    0  0.89469948544E+01  0.53725094155E+01  0.13612301466E+02  0.17152472878E+02  0.51100000000E-03 0.  1.
         12    1    4    4    0    0  0.12411445484E+02 -0.15688844864E+01 -0.77096366240E+01  0.14695028901E+02  0.00000000000E+00 0. -1.
</event>
<event>
 8    1  0.1247338E-006  0.9118800E+02  0.7816164E-02  0.1184000E+00
        -11   -1    0    0    0    0  0.00000000000E+00  0.00000000000E+00  0.45593999997E+02  0.45594000000E+02  0.51100000000E-03 0.  1.
         11   -1    0    0    0    0 -0.00000000000E+00 -0.00000000000E+00 -0.45593999997E+02  0.45594000000E+02  0.51100000000E-03 0. -1.
         23    2    1    2    0    0  0.00000000000E+00  0.00000000000E+00  0.00000000000E+00  0.91188000000E+02  0.91188000000E+02 0.  0.
    9900012    2    3    3    0    0 -0.24020479507E+02  0.40439566806E+01 -0.27612318847E+02  0.54367120414E+02  0.40000082607E+02 0.  0.
        -12    1    3    3    0    0  0.24020479507E+02 -0.40439566806E+01  0.27612318847E+02  0.36820879586E+02  0.00000000000E+00 0.  1.
         11    1    4    4    0    0 -0.15942826730E+02 -0.44098155459E+01 -0.19804648267E+02  0.25803958816E+02  0.51100000000E-03 0. -1.
        -11    1    4    4    0    0  0.41874209525E+01  0.11150634370E+02 -0.10315747505E+02  0.15757086912E+02  0.51100000000E-03 0.  1.
         12    1    4    4    0    0 -0.12265073729E+02 -0.26968621437E+01  0.25080769250E+01  0.12806074686E+02  0.00000000000E+00 0. -1.
</event>
<event>
 8    1  0.1247338E-006  0.9118800E+02  0.7816164E-02  0.1184000E+00
        -11   -1    0    0    0    0  0.00000000000E+00  0.00000000000E+00  0.45593999997E+02  0.45594000000E+02  0.51100000000E-03 0.  1.
         11   -1    0    0    0    0 -0.00000000000E+00 -0.00000000000E+00 -0.45593999997E+02  0.45594000000E+02  0.51100000000E-03 0. -1.
         23    2    1    2    0    0  0.71054273576E-14 -0.12559397966E-14  0.88817841970E-15  0.91188000000E+02  0.91188000000E+02 0.  0.
    9900012    2    3    3    0    0  0.36096935893E+02 -0.42143596505E-01  0.72659468307E+01  0.54367020378E+02  0.39999854556E+02 0.  0.
         12    1    3    3    0    0 -0.36096935893E+02  0.42143596505E-01 -0.72659468307E+01  0.36820979622E+02  0.00000000000E+00 0. -1.
         11    1    4    4    0    0  0.80911768766E+01  0.11403303127E+02 -0.43574624083E+01  0.14645475218E+02  0.51100000000E-03 0. -1.
        -11    1    4    4    0    0  0.31844153006E+02 -0.81423307934E+01  0.93647308767E+01  0.34176685270E+02  0.51100000000E-03 0.  1.
         12    1    4    4    0    0 -0.38383939892E+01 -0.33031159299E+01  0.22586783624E+01  0.55448598907E+01  0.00000000000E+00 0. -1.
</event>
<event>
 8    1  0.1247338E-006  0.9118800E+02  0.7816164E-02  0.1184000E+00
        -11   -1    0    0    0    0  0.00000000000E+00  0.00000000000E+00  0.45593999997E+02  0.45594000000E+02  0.51100000000E-03 0.  1.
         11   -1    0    0    0    0 -0.00000000000E+00 -0.00000000000E+00 -0.45593999997E+02  0.45594000000E+02  0.51100000000E-03 0. -1.
         23    2    1    2    0    0  0.00000000000E+00  0.00000000000E+00  0.00000000000E+00  0.91188000000E+02  0.91188000000E+02 0.  0.
    9900012    2    3    3    0    0 -0.12849572146E+02  0.27623492514E+02  0.20678764548E+02  0.54367080046E+02  0.39999990580E+02 0.  0.
        -12    1    3    3    0    0  0.12849572146E+02 -0.27623492514E+02 -0.20678764548E+02  0.36820919954E+02  0.00000000000E+00 0.  1.
         11    1    4    4    0    0 -0.15950401518E+02  0.60398158234E+01  0.22614839080E+02  0.28325353142E+02  0.51100000000E-03 0. -1.
        -11    1    4    4    0    0 -0.40425095057E+01  0.10162949619E+01  0.13810055811E+00  0.41705887568E+01  0.51100000000E-03 0.  1.
         12    1    4    4    0    0  0.71433388785E+01  0.20567381729E+02 -0.20741750894E+01  0.21871138147E+02  0.00000000000E+00 0. -1.
</event>
<event>
 8    1  0.1247338E-006  0.9118800E+02  0.7816164E-02  0.1184000E+00
        -11   -1    0    0    0    0  0.00000000000E+00  0.00000000000E+00  0.45593999997E+02  0.45594000000E+02  0.51100000000E-03 0. -1.
         11   -1    0    0    0    0 -0.00000000000E+00 -0.00000000000E+00 -0.45593999997E+02  0.45594000000E+02  0.51100000000E-03 0.  1.
         23    2    1    2    0    0 -0.71054273576E-14  0.00000000000E+00 -0.88817841970E-15  0.91188000000E+02  0.91188000000E+02 0.  0.
    9900012    2    3    3    0    0 -0.35512848329E+02  0.59070588824E+01 -0.77281247052E+01  0.54367086750E+02  0.40000005864E+02 0.  0.
        -12    1    3    3    0    0  0.35512848329E+02 -0.59070588824E+01  0.77281247052E+01  0.36820913250E+02  0.00000000000E+00 0.  1.
         11    1    4    4    0    0 -0.10819627652E+01  0.15841592878E+02 -0.49290801154E+01  0.16625959803E+02  0.51100000000E-03 0.  1.
        -11    1    4    4    0    0 -0.91283195603E+01  0.18770062999E+01  0.16529788743E+01  0.94647614901E+01  0.51100000000E-03 0. -1.
        -12    1    4    4    0    0 -0.25302566004E+02 -0.11811540295E+02 -0.44520234642E+01  0.28276365457E+02  0.00000000000E+00 0.  1.
</event>
<event>
 8    1  0.1247338E-006  0.9118800E+02  0.7816164E-02  0.1184000E+00
        -11   -1    0    0    0    0  0.00000000000E+00  0.00000000000E+00  0.45593999997E+02  0.45594000000E+02  0.51100000000E-03 0.  1.
         11   -1    0    0    0    0 -0.00000000000E+00 -0.00000000000E+00 -0.45593999997E+02  0.45594000000E+02  0.51100000000E-03 0. -1.
         23    2    1    2    0    0 -0.26645352591E-14  0.00000000000E+00  0.00000000000E+00  0.91188000000E+02  0.91188000000E+02 0.  0.
    9900012    2    3    3    0    0  0.66626219821E+01  0.31369742145E+02 -0.18092224593E+02  0.54367084142E+02  0.39999999918E+02 0.  0.
        -12    1    3    3    0    0 -0.66626219821E+01 -0.31369742145E+02  0.18092224593E+02  0.36820915858E+02  0.00000000000E+00 0.  1.
         11    1    4    4    0    0 -0.90184750594E+01  0.21159061866E+01 -0.55052055301E+01  0.10775770950E+02  0.51100000000E-03 0. -1.
        -11    1    4    4    0    0  0.44048620548E+01 -0.29794321374E+00 -0.11077924350E+02  0.11925266792E+02  0.51100000000E-03 0.  1.
         12    1    4    4    0    0  0.11276234987E+02  0.29551779172E+02 -0.15090947121E+01  0.31666046400E+02  0.00000000000E+00 0. -1.
</event>
<event>
 8    1  0.1247338E-006  0.9118800E+02  0.7816164E-02  0.1184000E+00
        -11   -1    0    0    0    0  0.00000000000E+00  0.00000000000E+00  0.45593999997E+02  0.45594000000E+02  0.51100000000E-03 0.  1.
         11   -1    0    0    0    0 -0.00000000000E+00 -0.00000000000E+00 -0.45593999997E+02  0.45594000000E+02  0.51100000000E-03 0. -1.
         23    2    1    2    0    0  0.00000000000E+00  0.00000000000E+00  0.00000000000E+00  0.91188000000E+02  0.91188000000E+02 0.  0.
    9900012    2    3    3    0    0 -0.83186569399E+01 -0.24708831571E+02  0.26001032931E+02  0.54367080343E+02  0.39999991258E+02 0.  0.
         12    1    3    3    0    0  0.83186569399E+01  0.24708831571E+02 -0.26001032931E+02  0.36820919657E+02  0.00000000000E+00 0. -1.
         11    1    4    4    0    0 -0.13699513613E+02 -0.15230919334E+02  0.16133867596E+02  0.26076028472E+02  0.51100000000E-03 0. -1.
        -11    1    4    4    0    0 -0.74385062622E+01  0.34459162140E+01  0.18699415856E+01  0.84084716662E+01  0.51100000000E-03 0.  1.
         12    1    4    4    0    0  0.12819362936E+02 -0.12923828451E+02  0.79972237499E+01  0.19882580205E+02  0.00000000000E+00 0. -1.
</event>
<event>
 8    1  0.1247338E-006  0.9118800E+02  0.7816164E-02  0.1184000E+00
        -11   -1    0    0    0    0  0.00000000000E+00  0.00000000000E+00  0.45593999997E+02  0.45594000000E+02  0.51100000000E-03 0.  1.
         11   -1    0    0    0    0 -0.00000000000E+00 -0.00000000000E+00 -0.45593999997E+02  0.45594000000E+02  0.51100000000E-03 0. -1.
         23    2    1    2    0    0  0.00000000000E+00  0.00000000000E+00  0.35527136788E-14  0.91188000000E+02  0.91188000000E+02 0.  0.
    9900012    2    3    3    0    0  0.18812974073E+02 -0.16748840640E+02  0.26857562170E+02  0.54367077932E+02  0.39999985761E+02 0.  0.
         12    1    3    3    0    0 -0.18812974073E+02  0.16748840640E+02 -0.26857562170E+02  0.36820922068E+02  0.00000000000E+00 0. -1.
         11    1    4    4    0    0 -0.38385170511E+01 -0.29893199312E+01  0.21777153546E+02  0.22314001515E+02  0.51100000000E-03 0.  1.
        -11    1    4    4    0    0  0.20180790130E+02 -0.35988788360E+01  0.64894671464E+01  0.21501846508E+02  0.51100000000E-03 0. -1.
        -12    1    4    4    0    0  0.24707009941E+01 -0.10160641872E+02 -0.14090585225E+01  0.10551229908E+02  0.00000000000E+00 0.  1.
</event>
<event>
 8    1  0.1247338E-006  0.9118800E+02  0.7816164E-02  0.1184000E+00
        -11   -1    0    0    0    0  0.00000000000E+00  0.00000000000E+00  0.45593999997E+02  0.45594000000E+02  0.51100000000E-03 0.  1.
         11   -1    0    0    0    0 -0.00000000000E+00 -0.00000000000E+00 -0.45593999997E+02  0.45594000000E+02  0.51100000000E-03 0. -1.
         23    2    1    2    0    0  0.35527136788E-14  0.17763568394E-14  0.00000000000E+00  0.91188000000E+02  0.91188000000E+02 0.  0.
    9900012    2    3    3    0    0 -0.21256797814E+02 -0.11170200233E+02 -0.27913392502E+02  0.54367050698E+02  0.39999923676E+02 0.  0.
        -12    1    3    3    0    0  0.21256797814E+02  0.11170200233E+02  0.27913392502E+02  0.36820949302E+02  0.00000000000E+00 0.  1.
         11    1    4    4    0    0 -0.19797200978E+01  0.66860744908E+01 -0.18443764924E+02  0.19717894122E+02  0.51100000000E-03 0. -1.
        -11    1    4    4    0    0 -0.16200985918E+02 -0.12715588383E+02  0.30025508321E+01  0.20812819233E+02  0.51100000000E-03 0.  1.
         12    1    4    4    0    0 -0.30760917980E+01 -0.51406863405E+01 -0.12472178409E+02  0.13836337343E+02  0.00000000000E+00 0. -1.
</event>
<event>
 8    1  0.1247338E-006  0.9118800E+02  0.7816164E-02  0.1184000E+00
        -11   -1    0    0    0    0  0.00000000000E+00  0.00000000000E+00  0.45593999997E+02  0.45594000000E+02  0.51100000000E-03 0. -1.
         11   -1    0    0    0    0 -0.00000000000E+00 -0.00000000000E+00 -0.45593999997E+02  0.45594000000E+02  0.51100000000E-03 0.  1.
         23    2    1    2    0    0  0.00000000000E+00  0.35527136788E-14 -0.35527136788E-14  0.91188000000E+02  0.91188000000E+02 0.  0.
    9900012    2    3    3    0    0 -0.39536891162E+01  0.27263054886E+02  0.24431027928E+02  0.54367069200E+02  0.39999965855E+02 0.  0.
        -12    1    3    3    0    0  0.39536891162E+01 -0.27263054886E+02 -0.24431027928E+02  0.36820930800E+02  0.00000000000E+00 0.  1.
         11    1    4    4    0    0 -0.48425150015E+01  0.12417305830E+02  0.15463337452E+01  0.13417547612E+02  0.51100000000E-03 0. -1.
        -11    1    4    4    0    0  0.30441442245E+01  0.28731013248E+01 -0.72947979578E+01  0.84104460517E+01  0.51100000000E-03 0.  1.
         12    1    4    4    0    0 -0.21553183393E+01  0.11972647731E+02  0.30179492141E+02  0.32539075536E+02  0.00000000000E+00 0. -1.
</event>
<event>
 8    1  0.1247338E-006  0.9118800E+02  0.7816164E-02  0.1184000E+00
        -11   -1    0    0    0    0  0.00000000000E+00  0.00000000000E+00  0.45593999997E+02  0.45594000000E+02  0.51100000000E-03 0.  1.
         11   -1    0    0    0    0 -0.00000000000E+00 -0.00000000000E+00 -0.45593999997E+02  0.45594000000E+02  0.51100000000E-03 0. -1.
         23    2    1    2    0    0  0.26645352591E-14  0.00000000000E+00  0.00000000000E+00  0.91188000000E+02  0.91188000000E+02 0.  0.
    9900012    2    3    3    0    0 -0.53327465873E+01  0.74449177540E+01 -0.35663908076E+02  0.54367091188E+02  0.40000015980E+02 0.  0.
        -12    1    3    3    0    0  0.53327465873E+01 -0.74449177540E+01  0.35663908076E+02  0.36820908812E+02  0.00000000000E+00 0.  1.
         11    1    4    4    0    0  0.13326317353E+02  0.66405978113E+01 -0.11894510112E+02  0.19056957904E+02  0.51100000000E-03 0. -1.
        -11    1    4    4    0    0 -0.10795057276E+02  0.64881539365E+01 -0.38779778670E+01  0.13178319912E+02  0.51100000000E-03 0.  1.
         12    1    4    4    0    0 -0.78640066641E+01 -0.56838339937E+01 -0.19891420097E+02  0.22131813372E+02  0.00000000000E+00 0. -1.
</event>
<event>
 8    1  0.1247338E-006  0.9118800E+02  0.7816164E-02  0.1184000E+00
        -11   -1    0    0    0    0  0.00000000000E+00  0.00000000000E+00  0.45593999997E+02  0.45594000000E+02  0.51100000000E-03 0.  1.
         11   -1    0    0    0    0 -0.00000000000E+00 -0.00000000000E+00 -0.45593999997E+02  0.45594000000E+02  0.51100000000E-03 0. -1.
         23    2    1    2    0    0  0.00000000000E+00 -0.71054273576E-14  0.35527136788E-14  0.91188000000E+02  0.91188000000E+02 0.  0.
    9900012    2    3    3    0    0  0.16728571579E+02 -0.16114178039E+02  0.28570415350E+02  0.54367075593E+02  0.39999980429E+02 0.  0.
         12    1    3    3    0    0 -0.16728571579E+02  0.16114178039E+02 -0.28570415350E+02  0.36820924407E+02  0.00000000000E+00 0. -1.
         11    1    4    4    0    0 -0.27603586024E+01  0.83708907202E+01  0.19931642842E+01  0.90368188645E+01  0.51100000000E-03 0. -1.
        -11    1    4    4    0    0  0.24823040493E+01  0.21988877565E+01 -0.88514361203E+00  0.34322616791E+01  0.51100000000E-03 0.  1.
        -12    1    4    4    0    0  0.17006626132E+02 -0.26683956515E+02  0.27462394678E+02  0.41897995049E+02  0.00000000000E+00 0.  1.
</event>
<event>
 8    1  0.1247338E-006  0.9118800E+02  0.7816164E-02  0.1184000E+00
        -11   -1    0    0    0    0  0.00000000000E+00  0.00000000000E+00  0.45593999997E+02  0.45594000000E+02  0.51100000000E-03 0. -1.
         11   -1    0    0    0    0 -0.00000000000E+00 -0.00000000000E+00 -0.45593999997E+02  0.45594000000E+02  0.51100000000E-03 0.  1.
         23    2    1    2    0    0  0.00000000000E+00  0.00000000000E+00  0.00000000000E+00  0.91188000000E+02  0.91188000000E+02 0.  0.
    9900012    2    3    3    0    0 -0.15624080927E+02  0.25798037482E+02  0.21121780365E+02  0.54367078657E+02  0.39999987415E+02 0.  0.
        -12    1    3    3    0    0  0.15624080927E+02 -0.25798037482E+02 -0.21121780365E+02  0.36820921343E+02  0.00000000000E+00 0.  1.
         11    1    4    4    0    0 -0.50020064352E+01  0.16022841535E+02  0.18765434507E+02  0.25177232805E+02  0.51100000000E-03 0. -1.
        -11    1    4    4    0    0 -0.13342891009E+02 -0.21740478576E+01  0.79882672174E+01  0.15702599720E+02  0.51100000000E-03 0.  1.
        -12    1    4    4    0    0  0.27208165171E+01  0.11949243805E+02 -0.56319213596E+01  0.13487246132E+02  0.00000000000E+00 0.  1.
</event>
<event>
 8    1  0.1247338E-006  0.9118800E+02  0.7816164E-02  0.1184000E+00
        -11   -1    0    0    0    0  0.00000000000E+00  0.00000000000E+00  0.45593999997E+02  0.45594000000E+02  0.51100000000E-03 0.  1.
         11   -1    0    0    0    0 -0.00000000000E+00 -0.00000000000E+00 -0.45593999997E+02  0.45594000000E+02  0.51100000000E-03 0. -1.
         23    2    1    2    0    0  0.00000000000E+00  0.00000000000E+00  0.35527136788E-14  0.91188000000E+02  0.91188000000E+02 0.  0.
    9900012    2    3    3    0    0 -0.71178049135E+01 -0.29596135615E+02  0.20716805669E+02  0.54367076231E+02  0.39999981883E+02 0.  0.
         12    1    3    3    0    0  0.71178049135E+01  0.29596135615E+02 -0.20716805669E+02  0.36820923769E+02  0.00000000000E+00 0. -1.
         11    1    4    4    0    0  0.34656508096E+01 -0.87004645579E+00  0.35449320571E+01  0.50333150030E+01  0.51100000000E-03 0. -1.
        -11    1    4    4    0    0  0.68587604865E+01 -0.16111054241E+02  0.21134677316E+02  0.27446006079E+02  0.51100000000E-03 0.  1.
         12    1    4    4    0    0 -0.17442216210E+02 -0.12615034918E+02 -0.39628037040E+01  0.21887755149E+02  0.00000000000E+00 0. -1.
</event>
<event>
 8    1  0.1247338E-006  0.9118800E+02  0.7816164E-02  0.1184000E+00
        -11   -1    0    0    0    0  0.00000000000E+00  0.00000000000E+00  0.45593999997E+02  0.45594000000E+02  0.51100000000E-03 0. -1.
         11   -1    0    0    0    0 -0.00000000000E+00 -0.00000000000E+00 -0.45593999997E+02  0.45594000000E+02  0.51100000000E-03 0.  1.
         23    2    1    2    0    0 -0.35527136788E-14  0.00000000000E+00 -0.35527136788E-14  0.91188000000E+02  0.91188000000E+02 0.  0.
    9900012    2    3    3    0    0 -0.16182520410E+02  0.13788986131E+02 -0.30062769434E+02  0.54367079162E+02  0.39999988565E+02 0.  0.
         12    1    3    3    0    0  0.16182520410E+02 -0.13788986131E+02  0.30062769434E+02  0.36820920838E+02  0.00000000000E+00 0. -1.
         11    1    4    4    0    0  0.51030773257E+01  0.64387530809E+00 -0.24306896838E+01  0.56889565128E+01  0.51100000000E-03 0. -1.
        -11    1    4    4    0    0 -0.42560444666E+01  0.86656560396E+01 -0.29434414428E+02  0.30977286228E+02  0.51100000000E-03 0.  1.
         12    1    4    4    0    0 -0.17029553269E+02  0.44794547835E+01  0.18023346777E+01  0.17700836421E+02  0.00000000000E+00 0. -1.
</event>
<event>
 8    1  0.1247338E-006  0.9118800E+02  0.7816164E-02  0.1184000E+00
        -11   -1    0    0    0    0  0.00000000000E+00  0.00000000000E+00  0.45593999997E+02  0.45594000000E+02  0.51100000000E-03 0.  1.
         11   -1    0    0    0    0 -0.00000000000E+00 -0.00000000000E+00 -0.45593999997E+02  0.45594000000E+02  0.51100000000E-03 0. -1.
         23    2    1    2    0    0 -0.35527136788E-14  0.35527136788E-14  0.44408920985E-15  0.91188000000E+02  0.91188000000E+02 0.  0.
    9900012    2    3    3    0    0  0.24376885357E+02  0.27499687012E+02  0.23053060558E+01  0.54367085271E+02  0.40000002492E+02 0.  0.
         12    1    3    3    0    0 -0.24376885357E+02 -0.27499687012E+02 -0.23053060558E+01  0.36820914729E+02  0.00000000000E+00 0. -1.
         11    1    4    4    0    0  0.43156300919E+01  0.28854343094E+01 -0.90119415911E+01  0.10400263735E+02  0.51100000000E-03 0. -1.
        -11    1    4    4    0    0 -0.60445296814E+01  0.97239896593E+01  0.74625288339E+01  0.13666808363E+02  0.51100000000E-03 0.  1.
        -12    1    4    4    0    0  0.26105784947E+02  0.14890263043E+02  0.38547188130E+01  0.30300013174E+02  0.00000000000E+00 0.  1.
</event>
<event>
 8    1  0.1247338E-006  0.9118800E+02  0.7816164E-02  0.1184000E+00
        -11   -1    0    0    0    0  0.00000000000E+00  0.00000000000E+00  0.45593999997E+02  0.45594000000E+02  0.51100000000E-03 0.  1.
         11   -1    0    0    0    0 -0.00000000000E+00 -0.00000000000E+00 -0.45593999997E+02  0.45594000000E+02  0.51100000000E-03 0. -1.
         23    2    1    2    0    0 -0.17763568394E-14  0.00000000000E+00  0.35527136788E-14  0.91188000000E+02  0.91188000000E+02 0.  0.
    9900012    2    3    3    0    0  0.81861698168E+01  0.21950023682E+02 -0.28407063396E+02  0.54367106927E+02  0.40000051861E+02 0.  0.
        -12    1    3    3    0    0 -0.81861698168E+01 -0.21950023682E+02  0.28407063396E+02  0.36820893073E+02  0.00000000000E+00 0.  1.
         11    1    4    4    0    0 -0.31640629425E+01  0.13195326165E+02 -0.16818428967E+01  0.13673204551E+02  0.51100000000E-03 0. -1.
        -11    1    4    4    0    0  0.13753537923E+02  0.93689952498E+01 -0.30863417712E+01  0.16925229191E+02  0.51100000000E-03 0.  1.
         12    1    4    4    0    0 -0.24033051638E+01 -0.61429773255E+00 -0.23638878728E+02  0.23768673184E+02  0.00000000000E+00 0. -1.
</event>
<event>
 8    1  0.1247338E-006  0.9118800E+02  0.7816164E-02  0.1184000E+00
        -11   -1    0    0    0    0  0.00000000000E+00  0.00000000000E+00  0.45593999997E+02  0.45594000000E+02  0.51100000000E-03 0.  1.
         11   -1    0    0    0    0 -0.00000000000E+00 -0.00000000000E+00 -0.45593999997E+02  0.45594000000E+02  0.51100000000E-03 0. -1.
         23    2    1    2    0    0  0.00000000000E+00  0.44408920985E-15  0.00000000000E+00  0.91188000000E+02  0.91188000000E+02 0.  0.
    9900012    2    3    3    0    0  0.96040827961E+01 -0.34478130994E+01  0.35378608941E+02  0.54367193489E+02  0.40000249196E+02 0.  0.
         12    1    3    3    0    0 -0.96040827961E+01  0.34478130994E+01 -0.35378608941E+02  0.36820806511E+02  0.00000000000E+00 0. -1.
         11    1    4    4    0    0  0.11372448192E+02  0.66300834522E+01  0.36014496195E+01  0.13647747949E+02  0.51100000000E-03 0. -1.
        -11    1    4    4    0    0  0.52981726222E+01  0.54461619256E+01  0.54529547381E+01  0.93523274371E+01  0.51100000000E-03 0.  1.
         12    1    4    4    0    0 -0.70665380176E+01 -0.15524058477E+02  0.26324204583E+02  0.31367118103E+02  0.00000000000E+00 0. -1.
</event>
<event>
 8    1  0.1247338E-006  0.9118800E+02  0.7816164E-02  0.1184000E+00
        -11   -1    0    0    0    0  0.00000000000E+00  0.00000000000E+00  0.45593999997E+02  0.45594000000E+02  0.51100000000E-03 0.  1.
         11   -1    0    0    0    0 -0.00000000000E+00 -0.00000000000E+00 -0.45593999997E+02  0.45594000000E+02  0.51100000000E-03 0. -1.
         23    2    1    2    0    0 -0.17763568394E-14  0.00000000000E+00  0.00000000000E+00  0.91188000000E+02  0.91188000000E+02 0.  0.
    9900012    2    3    3    0    0  0.14349080096E+02  0.26745888399E+02  0.20845623369E+02  0.54367100235E+02  0.40000036605E+02 0.  0.
         12    1    3    3    0    0 -0.14349080096E+02 -0.26745888399E+02 -0.20845623369E+02  0.36820899765E+02  0.00000000000E+00 0. -1.
         11    1    4    4    0    0  0.16842103299E+02  0.15218394157E+02  0.10122884439E+02  0.24854149631E+02  0.51100000000E-03 0.  1.
        -11    1    4    4    0    0  0.44859340603E+01  0.14239470251E+02 -0.16818797915E+01  0.15023809015E+02  0.51100000000E-03 0. -1.
         12    1    4    4    0    0 -0.69789572628E+01 -0.27119760088E+01  0.12404618722E+02  0.14489141589E+02  0.00000000000E+00 0. -1.
</event>
<event>
 8    1  0.1247338E-006  0.9118800E+02  0.7816164E-02  0.1184000E+00
        -11   -1    0    0    0    0  0.00000000000E+00  0.00000000000E+00  0.45593999997E+02  0.45594000000E+02  0.51100000000E-03 0. -1.
         11   -1    0    0    0    0 -0.00000000000E+00 -0.00000000000E+00 -0.45593999997E+02  0.45594000000E+02  0.51100000000E-03 0.  1.
         23    2    1    2    0    0 -0.35527136788E-14 -0.35527136788E-14 -0.13877787808E-15  0.91188000000E+02  0.91188000000E+02 0.  0.
    9900012    2    3    3    0    0 -0.21635488954E+02 -0.29793574872E+02 -0.17026111909E+00  0.54367075585E+02  0.39999980411E+02 0.  0.
         12    1    3    3    0    0  0.21635488954E+02  0.29793574872E+02  0.17026111909E+00  0.36820924415E+02  0.00000000000E+00 0. -1.
         11    1    4    4    0    0 -0.48692283623E+01 -0.21659294691E+02  0.99016693176E+01  0.24307971674E+02  0.51100000000E-03 0. -1.
        -11    1    4    4    0    0  0.42497434020E+01 -0.10970635429E+01  0.19982538175E+01  0.48225393705E+01  0.51100000000E-03 0.  1.
        -12    1    4    4    0    0 -0.21016003993E+02 -0.70372166378E+01 -0.12070184254E+02  0.25236564540E+02  0.00000000000E+00 0.  1.
</event>
<event>
 8    1  0.1247338E-006  0.9118800E+02  0.7816164E-02  0.1184000E+00
        -11   -1    0    0    0    0  0.00000000000E+00  0.00000000000E+00  0.45593999997E+02  0.45594000000E+02  0.51100000000E-03 0. -1.
         11   -1    0    0    0    0 -0.00000000000E+00 -0.00000000000E+00 -0.45593999997E+02  0.45594000000E+02  0.51100000000E-03 0.  1.
         23    2    1    2    0    0  0.00000000000E+00 -0.35527136788E-14 -0.35527136788E-14  0.91188000000E+02  0.91188000000E+02 0.  0.
    9900012    2    3    3    0    0 -0.14353618610E+01 -0.20186072881E+02  0.30761106747E+02  0.54367034636E+02  0.39999887059E+02 0.  0.
        -12    1    3    3    0    0  0.14353618610E+01  0.20186072881E+02 -0.30761106747E+02  0.36820965364E+02  0.00000000000E+00 0.  1.
         11    1    4    4    0    0  0.59768178852E+01  0.32400245311E+01  0.10851829546E+02  0.12805558002E+02  0.51100000000E-03 0. -1.
        -11    1    4    4    0    0  0.33450912721E+01  0.47368725795E+01  0.60518078375E+01  0.83816451737E+01  0.51100000000E-03 0.  1.
        -12    1    4    4    0    0 -0.10757271018E+02 -0.28162969992E+02  0.13857469363E+02  0.33179831460E+02  0.00000000000E+00 0.  1.
</event>
<event>
 8    1  0.1247338E-006  0.9118800E+02  0.7816164E-02  0.1184000E+00
        -11   -1    0    0    0    0  0.00000000000E+00  0.00000000000E+00  0.45593999997E+02  0.45594000000E+02  0.51100000000E-03 0. -1.
         11   -1    0    0    0    0 -0.00000000000E+00 -0.00000000000E+00 -0.45593999997E+02  0.45594000000E+02  0.51100000000E-03 0.  1.
         23    2    1    2    0    0 -0.35527136788E-14  0.88817841970E-15  0.00000000000E+00  0.91188000000E+02  0.91188000000E+02 0.  0.
    9900012    2    3    3    0    0  0.29145540537E+02  0.59137364908E+00  0.22493729850E+02  0.54367080151E+02  0.39999990820E+02 0.  0.
        -12    1    3    3    0    0 -0.29145540537E+02 -0.59137364908E+00 -0.22493729850E+02  0.36820919849E+02  0.00000000000E+00 0.  1.
         11    1    4    4    0    0  0.21515756820E+02  0.14276190176E+02  0.24643567246E+02  0.35693736206E+02  0.51100000000E-03 0. -1.
        -11    1    4    4    0    0  0.93299400445E+01 -0.13995132508E+02 -0.18942234722E+01  0.16926299004E+02  0.51100000000E-03 0.  1.
         12    1    4    4    0    0 -0.17001563278E+01  0.31031598131E+00 -0.25561392358E+00  0.17470449408E+01  0.00000000000E+00 0. -1.
</event>
<event>
 8    1  0.1247338E-006  0.9118800E+02  0.7816164E-02  0.1184000E+00
        -11   -1    0    0    0    0  0.00000000000E+00  0.00000000000E+00  0.45593999997E+02  0.45594000000E+02  0.51100000000E-03 0. -1.
         11   -1    0    0    0    0 -0.00000000000E+00 -0.00000000000E+00 -0.45593999997E+02  0.45594000000E+02  0.51100000000E-03 0.  1.
         23    2    1    2    0    0 -0.88817841970E-15  0.00000000000E+00  0.00000000000E+00  0.91188000000E+02  0.91188000000E+02 0.  0.
    9900012    2    3    3    0    0 -0.53924929649E+01  0.10516044831E+02  0.34872820958E+02  0.54367084465E+02  0.40000000655E+02 0.  0.
        -12    1    3    3    0    0  0.53924929649E+01 -0.10516044831E+02 -0.34872820958E+02  0.36820915535E+02  0.00000000000E+00 0.  1.
         11    1    4    4    0    0  0.87262399560E+01 -0.90713139955E+01  0.56918191163E+01  0.13814224788E+02  0.51100000000E-03 0.  1.
        -11    1    4    4    0    0 -0.12615760481E+02  0.15446757714E+02  0.13056764516E+02  0.23837760723E+02  0.51100000000E-03 0. -1.
        -12    1    4    4    0    0 -0.15029724399E+01  0.41406011117E+01  0.16124237326E+02  0.16715098954E+02  0.00000000000E+00 0.  1.
</event>
<event>
 8    1  0.1247338E-006  0.9118800E+02  0.7816164E-02  0.1184000E+00
        -11   -1    0    0    0    0  0.00000000000E+00  0.00000000000E+00  0.45593999997E+02  0.45594000000E+02  0.51100000000E-03 0. -1.
         11   -1    0    0    0    0 -0.00000000000E+00 -0.00000000000E+00 -0.45593999997E+02  0.45594000000E+02  0.51100000000E-03 0.  1.
         23    2    1    2    0    0  0.00000000000E+00  0.22204460493E-15  0.35527136788E-14  0.91188000000E+02  0.91188000000E+02 0.  0.
    9900012    2    3    3    0    0  0.28425058497E+02  0.17022330961E+01 -0.23343064330E+02  0.54367079310E+02  0.39999988904E+02 0.  0.
         12    1    3    3    0    0 -0.28425058497E+02 -0.17022330961E+01  0.23343064330E+02  0.36820920690E+02  0.00000000000E+00 0. -1.
         11    1    4    4    0    0  0.11361263153E+02 -0.11517610909E+02 -0.15028466854E+02  0.22081405701E+02  0.51100000000E-03 0. -1.
        -11    1    4    4    0    0  0.91813476809E+01  0.78938654488E+01 -0.15993595118E+02  0.20060043420E+02  0.51100000000E-03 0.  1.
         12    1    4    4    0    0  0.78824476634E+01  0.53259785566E+01  0.76789976411E+01  0.12225630189E+02  0.00000000000E+00 0. -1.
</event>
<event>
 8    1  0.1247338E-006  0.9118800E+02  0.7816164E-02  0.1184000E+00
        -11   -1    0    0    0    0  0.00000000000E+00  0.00000000000E+00  0.45593999997E+02  0.45594000000E+02  0.51100000000E-03 0.  1.
         11   -1    0    0    0    0 -0.00000000000E+00 -0.00000000000E+00 -0.45593999997E+02  0.45594000000E+02  0.51100000000E-03 0. -1.
         23    2    1    2    0    0  0.00000000000E+00  0.00000000000E+00  0.35527136788E-14  0.91188000000E+02  0.91188000000E+02 0.  0.
    9900012    2    3    3    0    0  0.74615420036E+01 -0.31451450504E+02 -0.17632678347E+02  0.54367086193E+02  0.40000004594E+02 0.  0.
        -12    1    3    3    0    0 -0.74615420036E+01  0.31451450504E+02  0.17632678347E+02  0.36820913807E+02  0.00000000000E+00 0.  1.
         11    1    4    4    0    0  0.50702443966E+01 -0.29613982836E+02 -0.18352922105E+02  0.35206890061E+02  0.51100000000E-03 0. -1.
        -11    1    4    4    0    0  0.10389158891E+02  0.14649651596E+01  0.52780086199E+00  0.10505204395E+02  0.51100000000E-03 0.  1.
        -12    1    4    4    0    0 -0.79978612838E+01 -0.33024328277E+01  0.19244289640E+00  0.86549917368E+01  0.00000000000E+00 0.  1.
</event>
<event>
 8    1  0.1247338E-006  0.9118800E+02  0.7816164E-02  0.1184000E+00
        -11   -1    0    0    0    0  0.00000000000E+00  0.00000000000E+00  0.45593999997E+02  0.45594000000E+02  0.51100000000E-03 0.  1.
         11   -1    0    0    0    0 -0.00000000000E+00 -0.00000000000E+00 -0.45593999997E+02  0.45594000000E+02  0.51100000000E-03 0. -1.
         23    2    1    2    0    0  0.00000000000E+00  0.71054273576E-14  0.00000000000E+00  0.91188000000E+02  0.91188000000E+02 0.  0.
    9900012    2    3    3    0    0  0.94695662402E+01  0.35473848315E+02 -0.27773313822E+01  0.54367079742E+02  0.39999989887E+02 0.  0.
        -12    1    3    3    0    0 -0.94695662402E+01 -0.35473848315E+02  0.27773313822E+01  0.36820920258E+02  0.00000000000E+00 0.  1.
         11    1    4    4    0    0  0.44218094417E+01  0.62492074682E+01 -0.86943923913E+01  0.11584362392E+02  0.51100000000E-03 0. -1.
        -11    1    4    4    0    0 -0.19836793703E+01  0.14338129502E+02  0.17457090352E+02  0.22677454559E+02  0.51100000000E-03 0.  1.
        -12    1    4    4    0    0  0.70314361687E+01  0.14886511345E+02 -0.11540029343E+02  0.20105262790E+02  0.00000000000E+00 0.  1.
</event>
<event>
 8    1  0.1247338E-006  0.9118800E+02  0.7816164E-02  0.1184000E+00
        -11   -1    0    0    0    0  0.00000000000E+00  0.00000000000E+00  0.45593999997E+02  0.45594000000E+02  0.51100000000E-03 0.  1.
         11   -1    0    0    0    0 -0.00000000000E+00 -0.00000000000E+00 -0.45593999997E+02  0.45594000000E+02  0.51100000000E-03 0. -1.
         23    2    1    2    0    0  0.35527136788E-14  0.10658141036E-13  0.88817841970E-15  0.91188000000E+02  0.91188000000E+02 0.  0.
    9900012    2    3    3    0    0 -0.17709673143E+02 -0.31783241086E+02 -0.56544638990E+01  0.54367083407E+02  0.39999998242E+02 0.  0.
        -12    1    3    3    0    0  0.17709673143E+02  0.31783241086E+02  0.56544638990E+01  0.36820916593E+02  0.00000000000E+00 0.  1.
         11    1    4    4    0    0  0.26171654593E+01 -0.42465878571E+01 -0.81430757097E+01  0.95494892923E+01  0.51100000000E-03 0. -1.
        -11    1    4    4    0    0  0.10558163548E+00 -0.95916234313E+01 -0.10888959258E+02  0.14511368699E+02  0.51100000000E-03 0.  1.
        -12    1    4    4    0    0 -0.20432420238E+02 -0.17945029798E+02  0.13377571069E+02  0.30306225415E+02  0.00000000000E+00 0.  1.
</event>
<event>
 8    1  0.1247338E-006  0.9118800E+02  0.7816164E-02  0.1184000E+00
        -11   -1    0    0    0    0  0.00000000000E+00  0.00000000000E+00  0.45593999997E+02  0.45594000000E+02  0.51100000000E-03 0.  1.
         11   -1    0    0    0    0 -0.00000000000E+00 -0.00000000000E+00 -0.45593999997E+02  0.45594000000E+02  0.51100000000E-03 0. -1.
         23    2    1    2    0    0  0.11102230246E-14 -0.17763568394E-14 -0.71054273576E-14  0.91188000000E+02  0.91188000000E+02 0.  0.
    9900012    2    3    3    0    0 -0.28188485807E+00  0.83454178478E+01  0.35861579200E+02  0.54367104833E+02  0.40000047089E+02 0.  0.
         12    1    3    3    0    0  0.28188485807E+00 -0.83454178478E+01 -0.35861579200E+02  0.36820895167E+02  0.00000000000E+00 0. -1.
         11    1    4    4    0    0  0.42326151655E+01 -0.88020172243E+01  0.14196411204E+02  0.17231617152E+02  0.51100000000E-03 0. -1.
        -11    1    4    4    0    0 -0.85500579569E+01 -0.19952445547E+01  0.13121320243E+02  0.15787765424E+02  0.51100000000E-03 0.  1.
         12    1    4    4    0    0  0.40355579334E+01  0.19142679627E+02  0.85438477531E+01  0.21347722257E+02  0.00000000000E+00 0. -1.
</event>
<event>
 8    1  0.1247338E-006  0.9118800E+02  0.7816164E-02  0.1184000E+00
        -11   -1    0    0    0    0  0.00000000000E+00  0.00000000000E+00  0.45593999997E+02  0.45594000000E+02  0.51100000000E-03 0.  1.
         11   -1    0    0    0    0 -0.00000000000E+00 -0.00000000000E+00 -0.45593999997E+02  0.45594000000E+02  0.51100000000E-03 0. -1.
         23    2    1    2    0    0  0.00000000000E+00  0.00000000000E+00  0.00000000000E+00  0.91188000000E+02  0.91188000000E+02 0.  0.
    9900012    2    3    3    0    0  0.25360797601E+02  0.26511477561E+02  0.31226658629E+01  0.54367088285E+02  0.40000009363E+02 0.  0.
        -12    1    3    3    0    0 -0.25360797601E+02 -0.26511477561E+02 -0.31226658629E+01  0.36820911715E+02  0.00000000000E+00 0.  1.
         11    1    4    4    0    0  0.10755769984E+02  0.13829621797E+02 -0.10699855163E+02  0.20528807266E+02  0.51100000000E-03 0. -1.
        -11    1    4    4    0    0  0.11152975277E+02  0.18816685013E+02  0.15237903585E+02  0.26658023151E+02  0.51100000000E-03 0.  1.
         12    1    4    4    0    0  0.34520523403E+01 -0.61348292482E+01 -0.14153825591E+01  0.71802578681E+01  0.00000000000E+00 0. -1.
</event>
<event>
 8    1  0.1247338E-006  0.9118800E+02  0.7816164E-02  0.1184000E+00
        -11   -1    0    0    0    0  0.00000000000E+00  0.00000000000E+00  0.45593999997E+02  0.45594000000E+02  0.51100000000E-03 0.  1.
         11   -1    0    0    0    0 -0.00000000000E+00 -0.00000000000E+00 -0.45593999997E+02  0.45594000000E+02  0.51100000000E-03 0. -1.
         23    2    1    2    0    0  0.17763568394E-14 -0.17763568394E-14  0.00000000000E+00  0.91188000000E+02  0.91188000000E+02 0.  0.
    9900012    2    3    3    0    0  0.14854321974E+02 -0.10996649805E+02  0.31846659975E+02  0.54366987795E+02  0.39999780275E+02 0.  0.
         12    1    3    3    0    0 -0.14854321974E+02  0.10996649805E+02 -0.31846659975E+02  0.36821012205E+02  0.00000000000E+00 0. -1.
         11    1    4    4    0    0  0.59832067624E+01  0.64784853590E+01  0.58775160568E+01  0.10597864453E+02  0.51100000000E-03 0. -1.
        -11    1    4    4    0    0  0.81865469398E+01  0.43985170462E+01  0.18398255190E+02  0.20612188077E+02  0.51100000000E-03 0.  1.
         12    1    4    4    0    0  0.68456827200E+00 -0.21873652210E+02  0.75708887283E+01  0.23156935265E+02  0.00000000000E+00 0. -1.
</event>
<event>
 8    1  0.1247338E-006  0.9118800E+02  0.7816164E-02  0.1184000E+00
        -11   -1    0    0    0    0  0.00000000000E+00  0.00000000000E+00  0.45593999997E+02  0.45594000000E+02  0.51100000000E-03 0.  1.
         11   -1    0    0    0    0 -0.00000000000E+00 -0.00000000000E+00 -0.45593999997E+02  0.45594000000E+02  0.51100000000E-03 0. -1.
         23    2    1    2    0    0 -0.35527136788E-14 -0.35527136788E-14 -0.35527136788E-14  0.91188000000E+02  0.91188000000E+02 0.  0.
    9900012    2    3    3    0    0  0.16593724424E+02  0.28585096266E+02  0.16227223864E+02  0.54367051979E+02  0.39999926597E+02 0.  0.
         12    1    3    3    0    0 -0.16593724424E+02 -0.28585096266E+02 -0.16227223864E+02  0.36820948021E+02  0.00000000000E+00 0. -1.
         11    1    4    4    0    0  0.76158940653E+00 -0.34047259510E+01 -0.62711948123E+01  0.71763543572E+01  0.51100000000E-03 0. -1.
        -11    1    4    4    0    0  0.48451434930E+01  0.40227870137E+00  0.10654968024E+02  0.11711771321E+02  0.51100000000E-03 0.  1.
        -12    1    4    4    0    0  0.10986991525E+02  0.31587543516E+02  0.11843450652E+02  0.35478926301E+02  0.00000000000E+00 0.  1.
</event>
<event>
 8    1  0.1247338E-006  0.9118800E+02  0.7816164E-02  0.1184000E+00
        -11   -1    0    0    0    0  0.00000000000E+00  0.00000000000E+00  0.45593999997E+02  0.45594000000E+02  0.51100000000E-03 0. -1.
         11   -1    0    0    0    0 -0.00000000000E+00 -0.00000000000E+00 -0.45593999997E+02  0.45594000000E+02  0.51100000000E-03 0.  1.
         23    2    1    2    0    0 -0.17763568394E-14  0.00000000000E+00 -0.35527136788E-14  0.91188000000E+02  0.91188000000E+02 0.  0.
    9900012    2    3    3    0    0  0.86221935218E+01  0.23248241147E+02  0.27220527574E+02  0.54367081232E+02  0.39999993284E+02 0.  0.
        -12    1    3    3    0    0 -0.86221935218E+01 -0.23248241147E+02 -0.27220527574E+02  0.36820918768E+02  0.00000000000E+00 0.  1.
         11    1    4    4    0    0 -0.19964084536E+01  0.17500576840E+02  0.21205658110E+02  0.27566932593E+02  0.51100000000E-03 0. -1.
        -11    1    4    4    0    0 -0.33988863616E+01  0.74835566709E+01 -0.43322713332E+01  0.92911045689E+01  0.51100000000E-03 0.  1.
         12    1    4    4    0    0  0.14017488337E+02 -0.17358923639E+01  0.10347140797E+02  0.17509044070E+02  0.00000000000E+00 0. -1.
</event>
<event>
 8    1  0.1247338E-006  0.9118800E+02  0.7816164E-02  0.1184000E+00
        -11   -1    0    0    0    0  0.00000000000E+00  0.00000000000E+00  0.45593999997E+02  0.45594000000E+02  0.51100000000E-03 0.  1.
         11   -1    0    0    0    0 -0.00000000000E+00 -0.00000000000E+00 -0.45593999997E+02  0.45594000000E+02  0.51100000000E-03 0. -1.
         23    2    1    2    0    0  0.00000000000E+00  0.71054273576E-14  0.17763568394E-14  0.91188000000E+02  0.91188000000E+02 0.  0.
    9900012    2    3    3    0    0  0.10866074811E+02  0.34202322726E+02 -0.82409062606E+01  0.54367041327E+02  0.39999902313E+02 0.  0.
        -12    1    3    3    0    0 -0.10866074811E+02 -0.34202322726E+02  0.82409062606E+01  0.36820958673E+02  0.00000000000E+00 0.  1.
         11    1    4    4    0    0  0.36688735390E+01  0.23554477241E+01  0.13902962664E+02  0.14570557235E+02  0.51100000000E-03 0.  1.
        -11    1    4    4    0    0 -0.71254514705E+00  0.40230413485E+01 -0.35240063412E+01  0.53954798890E+01  0.51100000000E-03 0. -1.
         12    1    4    4    0    0  0.79097464186E+01  0.27823833653E+02 -0.18619862584E+02  0.34401004203E+02  0.00000000000E+00 0. -1.
</event>
<event>
 8    1  0.1247338E-006  0.9118800E+02  0.7816164E-02  0.1184000E+00
        -11   -1    0    0    0    0  0.00000000000E+00  0.00000000000E+00  0.45593999997E+02  0.45594000000E+02  0.51100000000E-03 0. -1.
         11   -1    0    0    0    0 -0.00000000000E+00 -0.00000000000E+00 -0.45593999997E+02  0.45594000000E+02  0.51100000000E-03 0.  1.
         23    2    1    2    0    0  0.00000000000E+00 -0.44408920985E-15  0.71054273576E-14  0.91188000000E+02  0.91188000000E+02 0.  0.
    9900012    2    3    3    0    0  0.19077216413E+01 -0.38729502972E+01  0.36566972515E+02  0.54367046389E+02  0.39999913854E+02 0.  0.
        -12    1    3    3    0    0 -0.19077216413E+01  0.38729502972E+01 -0.36566972515E+02  0.36820953611E+02  0.00000000000E+00 0.  1.
         11    1    4    4    0    0 -0.80963823102E+00 -0.31566226614E+01  0.37196420484E+02  0.37338900329E+02  0.51100000000E-03 0. -1.
        -11    1    4    4    0    0  0.78681664991E+01 -0.54162511624E+01 -0.23691617567E+01  0.98415826167E+01  0.51100000000E-03 0.  1.
        -12    1    4    4    0    0 -0.51508066268E+01  0.46999235267E+01  0.17397137879E+01  0.71865634435E+01  0.00000000000E+00 0.  1.
</event>
<event>
 8    1  0.1247338E-006  0.9118800E+02  0.7816164E-02  0.1184000E+00
        -11   -1    0    0    0    0  0.00000000000E+00  0.00000000000E+00  0.45593999997E+02  0.45594000000E+02  0.51100000000E-03 0.  1.
         11   -1    0    0    0    0 -0.00000000000E+00 -0.00000000000E+00 -0.45593999997E+02  0.45594000000E+02  0.51100000000E-03 0. -1.
         23    2    1    2    0    0  0.00000000000E+00  0.00000000000E+00  0.35527136788E-14  0.91188000000E+02  0.91188000000E+02 0.  0.
    9900012    2    3    3    0    0 -0.26197069285E+02 -0.15522437524E+02 -0.20701369869E+02  0.54367092620E+02  0.40000019245E+02 0.  0.
        -12    1    3    3    0    0  0.26197069285E+02  0.15522437524E+02  0.20701369869E+02  0.36820907380E+02  0.00000000000E+00 0.  1.
         11    1    4    4    0    0  0.35604079672E+01 -0.13796816589E+02 -0.17634050689E+02  0.22671312199E+02  0.51100000000E-03 0.  1.
        -11    1    4    4    0    0 -0.50320355248E+01  0.11312041655E+01  0.31468634320E+01  0.60418336709E+01  0.51100000000E-03 0. -1.
         12    1    4    4    0    0 -0.24725441728E+02 -0.28568251011E+01 -0.62141826122E+01  0.25653946749E+02  0.00000000000E+00 0. -1.
</event>
<event>
 8    1  0.1247338E-006  0.9118800E+02  0.7816164E-02  0.1184000E+00
        -11   -1    0    0    0    0  0.00000000000E+00  0.00000000000E+00  0.45593999997E+02  0.45594000000E+02  0.51100000000E-03 0.  1.
         11   -1    0    0    0    0 -0.00000000000E+00 -0.00000000000E+00 -0.45593999997E+02  0.45594000000E+02  0.51100000000E-03 0. -1.
         23    2    1    2    0    0 -0.17763568394E-14  0.00000000000E+00  0.88817841970E-15  0.91188000000E+02  0.91188000000E+02 0.  0.
    9900012    2    3    3    0    0 -0.13691293166E+02 -0.33780321409E+02  0.52171144603E+01  0.54367083304E+02  0.39999998009E+02 0.  0.
         12    1    3    3    0    0  0.13691293166E+02  0.33780321409E+02 -0.52171144603E+01  0.36820916696E+02  0.00000000000E+00 0. -1.
         11    1    4    4    0    0 -0.14817886690E+02 -0.25208688053E+01  0.39239526486E+01  0.15534540551E+02  0.51100000000E-03 0. -1.
        -11    1    4    4    0    0 -0.16373445413E+01 -0.33278513737E+02  0.51070813102E+01  0.33707901943E+02  0.51100000000E-03 0.  1.
        -12    1    4    4    0    0  0.27639380651E+01  0.20190611334E+01 -0.38139194986E+01  0.51246408098E+01  0.00000000000E+00 0.  1.
</event>
<event>
 8    1  0.1247338E-006  0.9118800E+02  0.7816164E-02  0.1184000E+00
        -11   -1    0    0    0    0  0.00000000000E+00  0.00000000000E+00  0.45593999997E+02  0.45594000000E+02  0.51100000000E-03 0. -1.
         11   -1    0    0    0    0 -0.00000000000E+00 -0.00000000000E+00 -0.45593999997E+02  0.45594000000E+02  0.51100000000E-03 0.  1.
         23    2    1    2    0    0  0.00000000000E+00  0.00000000000E+00  0.00000000000E+00  0.91188000000E+02  0.91188000000E+02 0.  0.
    9900012    2    3    3    0    0  0.32380541676E+02 -0.48476890773E+01 -0.16845792294E+02  0.54367078140E+02  0.39999986235E+02 0.  0.
         12    1    3    3    0    0 -0.32380541676E+02  0.48476890773E+01  0.16845792294E+02  0.36820921860E+02  0.00000000000E+00 0. -1.
         11    1    4    4    0    0 -0.17946354951E+01 -0.36650971566E+01 -0.37166925524E+00  0.40977789135E+01  0.51100000000E-03 0. -1.
        -11    1    4    4    0    0  0.40252647601E+01 -0.11882702921E+02 -0.13036402662E+02  0.18092793586E+02  0.51100000000E-03 0.  1.
        -12    1    4    4    0    0  0.30149912411E+02  0.10700111001E+02 -0.34377203765E+01  0.32176505640E+02  0.00000000000E+00 0.  1.
</event>
<event>
 8    1  0.1247338E-006  0.9118800E+02  0.7816164E-02  0.1184000E+00
        -11   -1    0    0    0    0  0.00000000000E+00  0.00000000000E+00  0.45593999997E+02  0.45594000000E+02  0.51100000000E-03 0. -1.
         11   -1    0    0    0    0 -0.00000000000E+00 -0.00000000000E+00 -0.45593999997E+02  0.45594000000E+02  0.51100000000E-03 0.  1.
         23    2    1    2    0    0  0.00000000000E+00  0.33306690739E-15  0.35527136788E-14  0.91188000000E+02  0.91188000000E+02 0.  0.
    9900012    2    3    3    0    0 -0.29075708305E+02  0.80921620065E+00  0.22577146655E+02  0.54367092958E+02  0.40000020017E+02 0.  0.
        -12    1    3    3    0    0  0.29075708305E+02 -0.80921620065E+00 -0.22577146655E+02  0.36820907042E+02  0.00000000000E+00 0.  1.
         11    1    4    4    0    0 -0.20083211258E+01  0.41473495630E+01  0.94355377108E+01  0.10500630186E+02  0.51100000000E-03 0. -1.
        -11    1    4    4    0    0 -0.16688650690E+02  0.38827383759E+01  0.22395433179E+02  0.28198264959E+02  0.51100000000E-03 0.  1.
        -12    1    4    4    0    0 -0.10378736489E+02 -0.72208717382E+01 -0.92538242345E+01  0.15668197813E+02  0.00000000000E+00 0.  1.
</event>
<event>
 8    1  0.1247338E-006  0.9118800E+02  0.7816164E-02  0.1184000E+00
        -11   -1    0    0    0    0  0.00000000000E+00  0.00000000000E+00  0.45593999997E+02  0.45594000000E+02  0.51100000000E-03 0.  1.
         11   -1    0    0    0    0 -0.00000000000E+00 -0.00000000000E+00 -0.45593999997E+02  0.45594000000E+02  0.51100000000E-03 0. -1.
         23    2    1    2    0    0  0.00000000000E+00 -0.71054273576E-14  0.00000000000E+00  0.91188000000E+02  0.91188000000E+02 0.  0.
    9900012    2    3    3    0    0  0.17973671926E+02 -0.31672322600E+02  0.54397166543E+01  0.54367089926E+02  0.40000013104E+02 0.  0.
        -12    1    3    3    0    0 -0.17973671926E+02  0.31672322600E+02 -0.54397166543E+01  0.36820910074E+02  0.00000000000E+00 0.  1.
         11    1    4    4    0    0  0.35718257578E+01 -0.72712561607E+01  0.11406929739E+02  0.13990966790E+02  0.51100000000E-03 0. -1.
        -11    1    4    4    0    0 -0.31434796267E+01  0.46965201682E+01 -0.26335390700E+01  0.62349253522E+01  0.51100000000E-03 0.  1.
         12    1    4    4    0    0  0.17545325795E+02 -0.29097586608E+02 -0.33336740143E+01  0.34141197784E+02  0.00000000000E+00 0. -1.
</event>
<event>
 8    1  0.1247338E-006  0.9118800E+02  0.7816164E-02  0.1184000E+00
        -11   -1    0    0    0    0  0.00000000000E+00  0.00000000000E+00  0.45593999997E+02  0.45594000000E+02  0.51100000000E-03 0.  1.
         11   -1    0    0    0    0 -0.00000000000E+00 -0.00000000000E+00 -0.45593999997E+02  0.45594000000E+02  0.51100000000E-03 0. -1.
         23    2    1    2    0    0  0.00000000000E+00 -0.17763568394E-14  0.00000000000E+00  0.91188000000E+02  0.91188000000E+02 0.  0.
    9900012    2    3    3    0    0 -0.34581075713E+02  0.12346879548E+02  0.27356203896E+01  0.54367084056E+02  0.39999999721E+02 0.  0.
         12    1    3    3    0    0  0.34581075713E+02 -0.12346879548E+02 -0.27356203896E+01  0.36820915944E+02  0.00000000000E+00 0. -1.
         11    1    4    4    0    0  0.95967349938E+00  0.26404185337E+01  0.12336414785E+02  0.12652269096E+02  0.51100000000E-03 0. -1.
        -11    1    4    4    0    0 -0.14343570676E+02  0.10274062746E+02  0.16315496610E+01  0.17718813154E+02  0.51100000000E-03 0.  1.
        -12    1    4    4    0    0 -0.21197178537E+02 -0.56760173154E+00 -0.11232344056E+02  0.23996001806E+02  0.00000000000E+00 0.  1.
</event>
<event>
 8    1  0.1247338E-006  0.9118800E+02  0.7816164E-02  0.1184000E+00
        -11   -1    0    0    0    0  0.00000000000E+00  0.00000000000E+00  0.45593999997E+02  0.45594000000E+02  0.51100000000E-03 0. -1.
         11   -1    0    0    0    0 -0.00000000000E+00 -0.00000000000E+00 -0.45593999997E+02  0.45594000000E+02  0.51100000000E-03 0.  1.
         23    2    1    2    0    0  0.00000000000E+00  0.00000000000E+00  0.00000000000E+00  0.91188000000E+02  0.91188000000E+02 0.  0.
    9900012    2    3    3    0    0 -0.36213986216E+02 -0.40414615666E+01  0.52912862157E+01  0.54367028814E+02  0.39999873788E+02 0.  0.
         12    1    3    3    0    0  0.36213986216E+02  0.40414615666E+01 -0.52912862157E+01  0.36820971186E+02  0.00000000000E+00 0. -1.
         11    1    4    4    0    0 -0.17509177766E+02  0.25819118240E+01 -0.14736601083E+02  0.23030522930E+02  0.51100000000E-03 0. -1.
        -11    1    4    4    0    0 -0.67412273820E+01 -0.23101817581E+01  0.16750998803E+02  0.18203764653E+02  0.51100000000E-03 0.  1.
        -12    1    4    4    0    0 -0.11963581068E+02 -0.43131916326E+01  0.32768884956E+01  0.13132741231E+02  0.00000000000E+00 0.  1.
</event>
<event>
 8    1  0.1247338E-006  0.9118800E+02  0.7816164E-02  0.1184000E+00
        -11   -1    0    0    0    0  0.00000000000E+00  0.00000000000E+00  0.45593999997E+02  0.45594000000E+02  0.51100000000E-03 0. -1.
         11   -1    0    0    0    0 -0.00000000000E+00 -0.00000000000E+00 -0.45593999997E+02  0.45594000000E+02  0.51100000000E-03 0.  1.
         23    2    1    2    0    0 -0.17763568394E-14  0.00000000000E+00  0.00000000000E+00  0.91188000000E+02  0.91188000000E+02 0.  0.
    9900012    2    3    3    0    0 -0.84916865217E+01 -0.32884570474E+02 -0.14222374265E+02  0.54367086853E+02  0.40000006099E+02 0.  0.
        -12    1    3    3    0    0  0.84916865217E+01  0.32884570474E+02  0.14222374265E+02  0.36820913147E+02  0.00000000000E+00 0.  1.
         11    1    4    4    0    0 -0.12808606268E+02 -0.64148436308E+01 -0.51779725210E+01  0.15232268807E+02  0.51100000000E-03 0. -1.
        -11    1    4    4    0    0  0.12960956063E+02 -0.22802258984E+02 -0.19071132615E+00  0.26229101546E+02  0.51100000000E-03 0.  1.
        -12    1    4    4    0    0 -0.86440363168E+01 -0.36674678590E+01 -0.88536904183E+01  0.12905716500E+02  0.00000000000E+00 0.  1.
</event>
<event>
 8    1  0.1247338E-006  0.9118800E+02  0.7816164E-02  0.1184000E+00
        -11   -1    0    0    0    0  0.00000000000E+00  0.00000000000E+00  0.45593999997E+02  0.45594000000E+02  0.51100000000E-03 0.  1.
         11   -1    0    0    0    0 -0.00000000000E+00 -0.00000000000E+00 -0.45593999997E+02  0.45594000000E+02  0.51100000000E-03 0. -1.
         23    2    1    2    0    0  0.00000000000E+00  0.00000000000E+00  0.00000000000E+00  0.91188000000E+02  0.91188000000E+02 0.  0.
    9900012    2    3    3    0    0  0.16966360581E+02  0.24355436378E+02 -0.21788623093E+02  0.54366962959E+02  0.39999723656E+02 0.  0.
        -12    1    3    3    0    0 -0.16966360581E+02 -0.24355436378E+02  0.21788623093E+02  0.36821037041E+02  0.00000000000E+00 0.  1.
         11    1    4    4    0    0  0.14588448710E+02  0.27553393787E+02 -0.24102512809E+02  0.39407403732E+02  0.51100000000E-03 0. -1.
        -11    1    4    4    0    0  0.72108229587E+01 -0.27787923340E+01 -0.25032728346E+01  0.81230554425E+01  0.51100000000E-03 0.  1.
         12    1    4    4    0    0 -0.48329110878E+01 -0.41916507503E+00  0.48171625509E+01  0.68365037837E+01  0.00000000000E+00 0. -1.
</event>
<event>
 8    1  0.1247338E-006  0.9118800E+02  0.7816164E-02  0.1184000E+00
        -11   -1    0    0    0    0  0.00000000000E+00  0.00000000000E+00  0.45593999997E+02  0.45594000000E+02  0.51100000000E-03 0.  1.
         11   -1    0    0    0    0 -0.00000000000E+00 -0.00000000000E+00 -0.45593999997E+02  0.45594000000E+02  0.51100000000E-03 0. -1.
         23    2    1    2    0    0  0.55511151231E-16  0.00000000000E+00  0.00000000000E+00  0.91188000000E+02  0.91188000000E+02 0.  0.
    9900012    2    3    3    0    0  0.41668006585E+00  0.28959819729E+02  0.22736223608E+02  0.54367073274E+02  0.39999975144E+02 0.  0.
         12    1    3    3    0    0 -0.41668006585E+00 -0.28959819729E+02 -0.22736223608E+02  0.36820926726E+02  0.00000000000E+00 0. -1.
         11    1    4    4    0    0  0.13755811006E+01  0.25018129992E+02  0.54683709933E+01  0.25645703992E+02  0.51100000000E-03 0. -1.
        -11    1    4    4    0    0  0.11564026271E+01  0.12810462956E+02  0.59062992085E+01  0.14153783903E+02  0.51100000000E-03 0.  1.
         12    1    4    4    0    0 -0.21153036619E+01 -0.88687732189E+01  0.11361553406E+02  0.14567585379E+02  0.00000000000E+00 0. -1.
</event>
<event>
 8    1  0.1247338E-006  0.9118800E+02  0.7816164E-02  0.1184000E+00
        -11   -1    0    0    0    0  0.00000000000E+00  0.00000000000E+00  0.45593999997E+02  0.45594000000E+02  0.51100000000E-03 0.  1.
         11   -1    0    0    0    0 -0.00000000000E+00 -0.00000000000E+00 -0.45593999997E+02  0.45594000000E+02  0.51100000000E-03 0. -1.
         23    2    1    2    0    0  0.00000000000E+00  0.00000000000E+00  0.00000000000E+00  0.91188000000E+02  0.91188000000E+02 0.  0.
    9900012    2    3    3    0    0 -0.24279767504E+02 -0.26039099108E+02 -0.93935184883E+01  0.54367082277E+02  0.39999995666E+02 0.  0.
         12    1    3    3    0    0  0.24279767504E+02  0.26039099108E+02  0.93935184883E+01  0.36820917723E+02  0.00000000000E+00 0. -1.
         11    1    4    4    0    0 -0.20095348973E+02 -0.49153015567E+01 -0.85596657734E+01  0.22388638149E+02  0.51100000000E-03 0. -1.
        -11    1    4    4    0    0 -0.64421506191E+01 -0.18342940675E+02  0.90654326687E+01  0.21451033703E+02  0.51100000000E-03 0.  1.
        -12    1    4    4    0    0  0.22577320877E+01 -0.27808568763E+01 -0.98992853836E+01  0.10527410425E+02  0.00000000000E+00 0.  1.
</event>
<event>
 8    1  0.1247338E-006  0.9118800E+02  0.7816164E-02  0.1184000E+00
        -11   -1    0    0    0    0  0.00000000000E+00  0.00000000000E+00  0.45593999997E+02  0.45594000000E+02  0.51100000000E-03 0. -1.
         11   -1    0    0    0    0 -0.00000000000E+00 -0.00000000000E+00 -0.45593999997E+02  0.45594000000E+02  0.51100000000E-03 0.  1.
         23    2    1    2    0    0 -0.71054273576E-14 -0.17763568394E-14 -0.17763568394E-14  0.91188000000E+02  0.91188000000E+02 0.  0.
    9900012    2    3    3    0    0 -0.32334778190E+02 -0.99107682661E+01  0.14560859639E+02  0.54367084182E+02  0.40000000010E+02 0.  0.
        -12    1    3    3    0    0  0.32334778190E+02  0.99107682661E+01 -0.14560859639E+02  0.36820915818E+02  0.00000000000E+00 0.  1.
         11    1    4    4    0    0 -0.70470481711E+01 -0.21886225251E+01 -0.46857372234E+01  0.87411149215E+01  0.51100000000E-03 0. -1.
        -11    1    4    4    0    0 -0.12342244389E+02  0.99301367852E+00 -0.76321402323E+01  0.14545330436E+02  0.51100000000E-03 0.  1.
         12    1    4    4    0    0 -0.12945485630E+02 -0.87151594194E+01  0.26878737095E+02  0.31080638824E+02  0.00000000000E+00 0. -1.
</event>
<event>
 8    1  0.1247338E-006  0.9118800E+02  0.7816164E-02  0.1184000E+00
        -11   -1    0    0    0    0  0.00000000000E+00  0.00000000000E+00  0.45593999997E+02  0.45594000000E+02  0.51100000000E-03 0. -1.
         11   -1    0    0    0    0 -0.00000000000E+00 -0.00000000000E+00 -0.45593999997E+02  0.45594000000E+02  0.51100000000E-03 0.  1.
         23    2    1    2    0    0  0.00000000000E+00 -0.17763568394E-14 -0.17763568394E-14  0.91188000000E+02  0.91188000000E+02 0.  0.
    9900012    2    3    3    0    0  0.32713935692E+02 -0.86195250503E+01 -0.14535511427E+02  0.54367097064E+02  0.40000029377E+02 0.  0.
         12    1    3    3    0    0 -0.32713935692E+02  0.86195250503E+01  0.14535511427E+02  0.36820902936E+02  0.00000000000E+00 0. -1.
         11    1    4    4    0    0 -0.20277299183E+01 -0.50507868220E+01 -0.52457418312E+01  0.75590967558E+01  0.51100000000E-03 0. -1.
        -11    1    4    4    0    0  0.23042132256E+02 -0.38359433314E+01 -0.20144979774E+02  0.30845980784E+02  0.51100000000E-03 0.  1.
        -12    1    4    4    0    0  0.11699533354E+02  0.26720510313E+00  0.10855210178E+02  0.15962019524E+02  0.00000000000E+00 0.  1.
</event>
<event>
 8    1  0.1247338E-006  0.9118800E+02  0.7816164E-02  0.1184000E+00
        -11   -1    0    0    0    0  0.00000000000E+00  0.00000000000E+00  0.45593999997E+02  0.45594000000E+02  0.51100000000E-03 0. -1.
         11   -1    0    0    0    0 -0.00000000000E+00 -0.00000000000E+00 -0.45593999997E+02  0.45594000000E+02  0.51100000000E-03 0.  1.
         23    2    1    2    0    0 -0.44408920985E-15  0.00000000000E+00  0.35527136788E-14  0.91188000000E+02  0.91188000000E+02 0.  0.
    9900012    2    3    3    0    0  0.75718658238E+00 -0.29000218052E+02  0.22675814806E+02  0.54367101645E+02  0.40000039819E+02 0.  0.
        -12    1    3    3    0    0 -0.75718658238E+00  0.29000218052E+02 -0.22675814806E+02  0.36820898355E+02  0.00000000000E+00 0.  1.
         11    1    4    4    0    0  0.12064013711E+02 -0.12105261585E+02  0.28327162667E+01  0.17323454233E+02  0.51100000000E-03 0. -1.
        -11    1    4    4    0    0 -0.12689293954E+01 -0.66508063639E+01 -0.49594628363E+01  0.83928349791E+01  0.51100000000E-03 0.  1.
         12    1    4    4    0    0 -0.10037897733E+02 -0.10244150103E+02  0.24802561376E+02  0.28650812433E+02  0.00000000000E+00 0. -1.
</event>
<event>
 8    1  0.1247338E-006  0.9118800E+02  0.7816164E-02  0.1184000E+00
        -11   -1    0    0    0    0  0.00000000000E+00  0.00000000000E+00  0.45593999997E+02  0.45594000000E+02  0.51100000000E-03 0. -1.
         11   -1    0    0    0    0 -0.00000000000E+00 -0.00000000000E+00 -0.45593999997E+02  0.45594000000E+02  0.51100000000E-03 0.  1.
         23    2    1    2    0    0 -0.17763568394E-14  0.44408920985E-15  0.00000000000E+00  0.91188000000E+02  0.91188000000E+02 0.  0.
    9900012    2    3    3    0    0 -0.11532829529E+02 -0.39517250807E+01 -0.34744176589E+02  0.54367080743E+02  0.39999992169E+02 0.  0.
         12    1    3    3    0    0  0.11532829529E+02  0.39517250807E+01  0.34744176589E+02  0.36820919257E+02  0.00000000000E+00 0. -1.
         11    1    4    4    0    0  0.51423348888E+01  0.28949355835E+01 -0.12497004537E+02  0.13820252631E+02  0.51100000000E-03 0. -1.
        -11    1    4    4    0    0  0.16148297851E+01  0.69829786689E+01 -0.14789345715E+02  0.16434549378E+02  0.51100000000E-03 0.  1.
         12    1    4    4    0    0 -0.18289994203E+02 -0.13829639333E+02 -0.74578263377E+01  0.24112278733E+02  0.00000000000E+00 0. -1.
</event>
<event>
 8    1  0.1247338E-006  0.9118800E+02  0.7816164E-02  0.1184000E+00
        -11   -1    0    0    0    0  0.00000000000E+00  0.00000000000E+00  0.45593999997E+02  0.45594000000E+02  0.51100000000E-03 0.  1.
         11   -1    0    0    0    0 -0.00000000000E+00 -0.00000000000E+00 -0.45593999997E+02  0.45594000000E+02  0.51100000000E-03 0. -1.
         23    2    1    2    0    0  0.35527136788E-14  0.00000000000E+00 -0.35527136788E-14  0.91188000000E+02  0.91188000000E+02 0.  0.
    9900012    2    3    3    0    0 -0.19928747272E+02 -0.62789412613E+01 -0.30318307679E+02  0.54367084045E+02  0.39999999698E+02 0.  0.
        -12    1    3    3    0    0  0.19928747272E+02  0.62789412613E+01  0.30318307679E+02  0.36820915955E+02  0.00000000000E+00 0.  1.
         11    1    4    4    0    0 -0.83931171924E+01 -0.52316159289E+01  0.28959086725E+01  0.10305363105E+02  0.51100000000E-03 0. -1.
        -11    1    4    4    0    0  0.21868141567E+01 -0.55904384138E+01  0.17288004772E+01  0.62469119704E+01  0.51100000000E-03 0.  1.
         12    1    4    4    0    0 -0.13722444236E+02  0.45431130814E+01 -0.34943016829E+02  0.37814808970E+02  0.00000000000E+00 0. -1.
</event>
<event>
 8    1  0.1247338E-006  0.9118800E+02  0.7816164E-02  0.1184000E+00
        -11   -1    0    0    0    0  0.00000000000E+00  0.00000000000E+00  0.45593999997E+02  0.45594000000E+02  0.51100000000E-03 0.  1.
         11   -1    0    0    0    0 -0.00000000000E+00 -0.00000000000E+00 -0.45593999997E+02  0.45594000000E+02  0.51100000000E-03 0. -1.
         23    2    1    2    0    0 -0.53290705182E-14 -0.12212453271E-14 -0.71054273576E-14  0.91188000000E+02  0.91188000000E+02 0.  0.
    9900012    2    3    3    0    0 -0.11833516276E+02 -0.42218722821E+00 -0.34865059125E+02  0.54367045405E+02  0.39999911610E+02 0.  0.
        -12    1    3    3    0    0  0.11833516276E+02  0.42218722821E+00  0.34865059125E+02  0.36820954595E+02  0.00000000000E+00 0.  1.
         11    1    4    4    0    0 -0.22059611970E+01 -0.10928983013E+02 -0.21201669435E+02  0.23954534468E+02  0.51100000000E-03 0. -1.
        -11    1    4    4    0    0  0.16778449110E+01  0.13135924982E+02 -0.13345903865E+02  0.18801086110E+02  0.51100000000E-03 0.  1.
        -12    1    4    4    0    0 -0.11305399990E+02 -0.26291291966E+01 -0.31748582498E+00  0.11611424827E+02  0.00000000000E+00 0.  1.
</event>
<event>
 8    1  0.1247338E-006  0.9118800E+02  0.7816164E-02  0.1184000E+00
        -11   -1    0    0    0    0  0.00000000000E+00  0.00000000000E+00  0.45593999997E+02  0.45594000000E+02  0.51100000000E-03 0.  1.
         11   -1    0    0    0    0 -0.00000000000E+00 -0.00000000000E+00 -0.45593999997E+02  0.45594000000E+02  0.51100000000E-03 0. -1.
         23    2    1    2    0    0  0.35527136788E-14  0.00000000000E+00  0.35527136788E-14  0.91188000000E+02  0.91188000000E+02 0.  0.
    9900012    2    3    3    0    0 -0.22971249066E+02  0.92775339153E+01 -0.27240193378E+02  0.54367094872E+02  0.40000024379E+02 0.  0.
         12    1    3    3    0    0  0.22971249066E+02 -0.92775339153E+01  0.27240193378E+02  0.36820905128E+02  0.00000000000E+00 0. -1.
         11    1    4    4    0    0 -0.80210347172E+01  0.87943277091E+01 -0.25328299859E+02  0.27985710136E+02  0.51100000000E-03 0. -1.
        -11    1    4    4    0    0 -0.76886122769E+01  0.63467781172E+01 -0.99340706387E+01  0.14074164662E+02  0.51100000000E-03 0.  1.
        -12    1    4    4    0    0 -0.72616020719E+01 -0.58635719111E+01  0.80221771197E+01  0.12307220074E+02  0.00000000000E+00 0.  1.
</event>
<event>
 8    1  0.1247338E-006  0.9118800E+02  0.7816164E-02  0.1184000E+00
        -11   -1    0    0    0    0  0.00000000000E+00  0.00000000000E+00  0.45593999997E+02  0.45594000000E+02  0.51100000000E-03 0.  1.
         11   -1    0    0    0    0 -0.00000000000E+00 -0.00000000000E+00 -0.45593999997E+02  0.45594000000E+02  0.51100000000E-03 0. -1.
         23    2    1    2    0    0  0.00000000000E+00  0.00000000000E+00  0.00000000000E+00  0.91188000000E+02  0.91188000000E+02 0.  0.
    9900012    2    3    3    0    0  0.64447974659E+01 -0.12443571452E+02 -0.34049991780E+02  0.54367084408E+02  0.40000000525E+02 0.  0.
        -12    1    3    3    0    0 -0.64447974659E+01  0.12443571452E+02  0.34049991780E+02  0.36820915592E+02  0.00000000000E+00 0.  1.
         11    1    4    4    0    0 -0.16127494630E+01 -0.79414493436E+01 -0.28984378727E+02  0.30095876611E+02  0.51100000000E-03 0. -1.
        -11    1    4    4    0    0  0.93284407679E+01 -0.82826921327E+01  0.50035225415E+01  0.13440908980E+02  0.51100000000E-03 0.  1.
        -12    1    4    4    0    0 -0.12708938390E+01  0.37805700244E+01 -0.10069135594E+02  0.10830298817E+02  0.00000000000E+00 0.  1.
</event>
<event>
 8    1  0.1247338E-006  0.9118800E+02  0.7816164E-02  0.1184000E+00
        -11   -1    0    0    0    0  0.00000000000E+00  0.00000000000E+00  0.45593999997E+02  0.45594000000E+02  0.51100000000E-03 0.  1.
         11   -1    0    0    0    0 -0.00000000000E+00 -0.00000000000E+00 -0.45593999997E+02  0.45594000000E+02  0.51100000000E-03 0. -1.
         23    2    1    2    0    0 -0.35527136788E-14 -0.22204460493E-15  0.35527136788E-14  0.91188000000E+02  0.91188000000E+02 0.  0.
    9900012    2    3    3    0    0  0.21287118174E+02 -0.14624193937E+01 -0.30008319869E+02  0.54367091103E+02  0.40000015787E+02 0.  0.
        -12    1    3    3    0    0 -0.21287118174E+02  0.14624193937E+01  0.30008319869E+02  0.36820908897E+02  0.00000000000E+00 0.  1.
         11    1    4    4    0    0  0.99573757924E+01 -0.97083136536E+01 -0.22723719119E+02  0.26641473261E+02  0.51100000000E-03 0. -1.
        -11    1    4    4    0    0  0.18330766897E+02  0.48186574764E+01 -0.49693423705E+01  0.19594153178E+02  0.51100000000E-03 0.  1.
        -12    1    4    4    0    0 -0.70010245145E+01  0.34272367835E+01 -0.23152583797E+01  0.81314646644E+01  0.00000000000E+00 0.  1.
</event>
<event>
 8    1  0.1247338E-006  0.9118800E+02  0.7816164E-02  0.1184000E+00
        -11   -1    0    0    0    0  0.00000000000E+00  0.00000000000E+00  0.45593999997E+02  0.45594000000E+02  0.51100000000E-03 0. -1.
         11   -1    0    0    0    0 -0.00000000000E+00 -0.00000000000E+00 -0.45593999997E+02  0.45594000000E+02  0.51100000000E-03 0.  1.
         23    2    1    2    0    0 -0.17763568394E-14  0.35527136788E-14  0.00000000000E+00  0.91188000000E+02  0.91188000000E+02 0.  0.
    9900012    2    3    3    0    0  0.15403179999E+02 -0.23533411261E+02 -0.23763358517E+02  0.54367128097E+02  0.40000100123E+02 0.  0.
         12    1    3    3    0    0 -0.15403179999E+02  0.23533411261E+02  0.23763358517E+02  0.36820871903E+02  0.00000000000E+00 0. -1.
         11    1    4    4    0    0  0.21225032450E+01  0.57923038923E+01 -0.24268363827E+01  0.66291281097E+01  0.51100000000E-03 0. -1.
        -11    1    4    4    0    0  0.15781664239E+01 -0.29229709607E+02 -0.21007832451E+02  0.36030480950E+02  0.51100000000E-03 0.  1.
        -12    1    4    4    0    0  0.11702510330E+02 -0.96005546486E-01 -0.32868968365E+00  0.11707519037E+02  0.00000000000E+00 0.  1.
</event>
<event>
 8    1  0.1247338E-006  0.9118800E+02  0.7816164E-02  0.1184000E+00
        -11   -1    0    0    0    0  0.00000000000E+00  0.00000000000E+00  0.45593999997E+02  0.45594000000E+02  0.51100000000E-03 0. -1.
         11   -1    0    0    0    0 -0.00000000000E+00 -0.00000000000E+00 -0.45593999997E+02  0.45594000000E+02  0.51100000000E-03 0.  1.
         23    2    1    2    0    0  0.00000000000E+00  0.88817841970E-15 -0.35527136788E-14  0.91188000000E+02  0.91188000000E+02 0.  0.
    9900012    2    3    3    0    0 -0.19126182339E+02 -0.64892514312E+01  0.30787322514E+02  0.54367075750E+02  0.39999980788E+02 0.  0.
        -12    1    3    3    0    0  0.19126182339E+02  0.64892514312E+01 -0.30787322514E+02  0.36820924250E+02  0.00000000000E+00 0.  1.
         11    1    4    4    0    0 -0.97479165972E+00 -0.88133011003E+00  0.20372703745E+02  0.20415043955E+02  0.51100000000E-03 0. -1.
        -11    1    4    4    0    0 -0.10764256098E+02 -0.14509490228E+02 -0.46454403258E+00  0.18072363360E+02  0.51100000000E-03 0.  1.
         12    1    4    4    0    0 -0.73871345818E+01  0.89015689067E+01  0.10879162802E+02  0.15879668435E+02  0.00000000000E+00 0. -1.
</event>
<event>
 8    1  0.1247338E-006  0.9118800E+02  0.7816164E-02  0.1184000E+00
        -11   -1    0    0    0    0  0.00000000000E+00  0.00000000000E+00  0.45593999997E+02  0.45594000000E+02  0.51100000000E-03 0.  1.
         11   -1    0    0    0    0 -0.00000000000E+00 -0.00000000000E+00 -0.45593999997E+02  0.45594000000E+02  0.51100000000E-03 0. -1.
         23    2    1    2    0    0  0.35527136788E-14 -0.17763568394E-14  0.35527136788E-14  0.91188000000E+02  0.91188000000E+02 0.  0.
    9900012    2    3    3    0    0 -0.18380713482E+02  0.10152744116E+02 -0.30246504302E+02  0.54367083883E+02  0.39999999328E+02 0.  0.
        -12    1    3    3    0    0  0.18380713482E+02 -0.10152744116E+02  0.30246504302E+02  0.36820916117E+02  0.00000000000E+00 0.  1.
         11    1    4    4    0    0 -0.46916203441E+01  0.61424150355E+01 -0.33743081139E+02  0.34616991333E+02  0.51100000000E-03 0. -1.
        -11    1    4    4    0    0 -0.16051206366E+01 -0.39389389646E+01  0.31304948666E+01  0.52812546611E+01  0.51100000000E-03 0.  1.
         12    1    4    4    0    0 -0.12083972501E+02  0.79492680446E+01  0.36608196998E+00  0.14468837889E+02  0.00000000000E+00 0. -1.
</event>
<event>
 8    1  0.1247338E-006  0.9118800E+02  0.7816164E-02  0.1184000E+00
        -11   -1    0    0    0    0  0.00000000000E+00  0.00000000000E+00  0.45593999997E+02  0.45594000000E+02  0.51100000000E-03 0.  1.
         11   -1    0    0    0    0 -0.00000000000E+00 -0.00000000000E+00 -0.45593999997E+02  0.45594000000E+02  0.51100000000E-03 0. -1.
         23    2    1    2    0    0  0.35527136788E-14  0.00000000000E+00  0.00000000000E+00  0.91188000000E+02  0.91188000000E+02 0.  0.
    9900012    2    3    3    0    0  0.19062611504E+02 -0.20628299816E+02  0.23809028416E+02  0.54367085498E+02  0.40000003010E+02 0.  0.
         12    1    3    3    0    0 -0.19062611504E+02  0.20628299816E+02 -0.23809028416E+02  0.36820914502E+02  0.00000000000E+00 0. -1.
         11    1    4    4    0    0  0.16781107818E+02 -0.12419450512E+02  0.21297763545E+00  0.20878067209E+02  0.51100000000E-03 0. -1.
        -11    1    4    4    0    0  0.80487928231E+01 -0.12416428265E+02  0.21404489747E+02  0.26021201709E+02  0.51100000000E-03 0.  1.
        -12    1    4    4    0    0 -0.57672891371E+01  0.42075789621E+01  0.21915610335E+01  0.74678165803E+01  0.00000000000E+00 0.  1.
</event>
<event>
 8    1  0.1247338E-006  0.9118800E+02  0.7816164E-02  0.1184000E+00
        -11   -1    0    0    0    0  0.00000000000E+00  0.00000000000E+00  0.45593999997E+02  0.45594000000E+02  0.51100000000E-03 0.  1.
         11   -1    0    0    0    0 -0.00000000000E+00 -0.00000000000E+00 -0.45593999997E+02  0.45594000000E+02  0.51100000000E-03 0. -1.
         23    2    1    2    0    0  0.00000000000E+00  0.35527136788E-14  0.00000000000E+00  0.91188000000E+02  0.91188000000E+02 0.  0.
    9900012    2    3    3    0    0 -0.22741799529E+02 -0.27881270005E+02  0.78247096248E+01  0.54367071934E+02  0.39999972088E+02 0.  0.
         12    1    3    3    0    0  0.22741799529E+02  0.27881270005E+02 -0.78247096248E+01  0.36820928066E+02  0.00000000000E+00 0. -1.
         11    1    4    4    0    0 -0.64819737740E+01  0.16300665410E+01 -0.12058684787E+02  0.13787130955E+02  0.51100000000E-03 0. -1.
        -11    1    4    4    0    0 -0.69087637338E+01 -0.14776071798E+02  0.35846860974E+01  0.16700697254E+02  0.51100000000E-03 0.  1.
         12    1    4    4    0    0 -0.93510620216E+01 -0.14735264748E+02  0.16298708314E+02  0.23879243724E+02  0.00000000000E+00 0. -1.
</event>
<event>
 8    1  0.1247338E-006  0.9118800E+02  0.7816164E-02  0.1184000E+00
        -11   -1    0    0    0    0  0.00000000000E+00  0.00000000000E+00  0.45593999997E+02  0.45594000000E+02  0.51100000000E-03 0. -1.
         11   -1    0    0    0    0 -0.00000000000E+00 -0.00000000000E+00 -0.45593999997E+02  0.45594000000E+02  0.51100000000E-03 0.  1.
         23    2    1    2    0    0  0.00000000000E+00  0.44408920985E-15  0.71054273576E-14  0.91188000000E+02  0.91188000000E+02 0.  0.
    9900012    2    3    3    0    0 -0.80897556252E+01  0.29938965529E+01  0.35796256081E+02  0.54367088658E+02  0.40000010214E+02 0.  0.
        -12    1    3    3    0    0  0.80897556252E+01 -0.29938965529E+01 -0.35796256081E+02  0.36820911342E+02  0.00000000000E+00 0.  1.
         11    1    4    4    0    0  0.56617148807E+01  0.16963526399E+02  0.14459019231E+02  0.22997379865E+02  0.51100000000E-03 0. -1.
        -11    1    4    4    0    0 -0.93618977117E+00 -0.54959977437E+01  0.12400558839E+02  0.13596187049E+02  0.51100000000E-03 0.  1.
        -12    1    4    4    0    0 -0.12815280735E+02 -0.84736321026E+01  0.89366780112E+01  0.17773521744E+02  0.00000000000E+00 0.  1.
</event>
<event>
 8    1  0.1247338E-006  0.9118800E+02  0.7816164E-02  0.1184000E+00
        -11   -1    0    0    0    0  0.00000000000E+00  0.00000000000E+00  0.45593999997E+02  0.45594000000E+02  0.51100000000E-03 0.  1.
         11   -1    0    0    0    0 -0.00000000000E+00 -0.00000000000E+00 -0.45593999997E+02  0.45594000000E+02  0.51100000000E-03 0. -1.
         23    2    1    2    0    0  0.00000000000E+00  0.00000000000E+00  0.44408920985E-15  0.91188000000E+02  0.91188000000E+02 0.  0.
    9900012    2    3    3    0    0 -0.27791377239E+02 -0.24136599491E+02  0.91865558594E+00  0.54367081870E+02  0.39999994740E+02 0.  0.
        -12    1    3    3    0    0  0.27791377239E+02  0.24136599491E+02 -0.91865558594E+00  0.36820918130E+02  0.00000000000E+00 0.  1.
         11    1    4    4    0    0 -0.75707993741E+01  0.43109258795E+00  0.59669929900E+01  0.96492408813E+01  0.51100000000E-03 0.  1.
        -11    1    4    4    0    0  0.79224672886E+01 -0.89349748772E+01  0.91626084206E+00  0.11976593764E+02  0.51100000000E-03 0. -1.
         12    1    4    4    0    0 -0.28143045154E+02 -0.15632717201E+02 -0.59645982461E+01  0.32741247225E+02  0.00000000000E+00 0. -1.
</event>
<event>
 8    1  0.1247338E-006  0.9118800E+02  0.7816164E-02  0.1184000E+00
        -11   -1    0    0    0    0  0.00000000000E+00  0.00000000000E+00  0.45593999997E+02  0.45594000000E+02  0.51100000000E-03 0. -1.
         11   -1    0    0    0    0 -0.00000000000E+00 -0.00000000000E+00 -0.45593999997E+02  0.45594000000E+02  0.51100000000E-03 0.  1.
         23    2    1    2    0    0  0.00000000000E+00 -0.35527136788E-14  0.00000000000E+00  0.91188000000E+02  0.91188000000E+02 0.  0.
    9900012    2    3    3    0    0  0.25201684151E+02  0.21214657306E+02  0.16449721331E+02  0.54367083383E+02  0.39999998188E+02 0.  0.
        -12    1    3    3    0    0 -0.25201684151E+02 -0.21214657306E+02 -0.16449721331E+02  0.36820916617E+02  0.00000000000E+00 0.  1.
         11    1    4    4    0    0  0.18977868153E+02  0.23962638418E+02  0.14037404186E+02  0.33636531274E+02  0.51100000000E-03 0. -1.
        -11    1    4    4    0    0  0.42116074319E+01  0.74119781234E+01 -0.30087221912E+01  0.90403244603E+01  0.51100000000E-03 0.  1.
         12    1    4    4    0    0  0.20122085665E+01 -0.10159959236E+02  0.54210393358E+01  0.11690227649E+02  0.00000000000E+00 0. -1.
</event>
<event>
 8    1  0.1247338E-006  0.9118800E+02  0.7816164E-02  0.1184000E+00
        -11   -1    0    0    0    0  0.00000000000E+00  0.00000000000E+00  0.45593999997E+02  0.45594000000E+02  0.51100000000E-03 0. -1.
         11   -1    0    0    0    0 -0.00000000000E+00 -0.00000000000E+00 -0.45593999997E+02  0.45594000000E+02  0.51100000000E-03 0.  1.
         23    2    1    2    0    0  0.35527136788E-14  0.00000000000E+00 -0.35527136788E-14  0.91188000000E+02  0.91188000000E+02 0.  0.
    9900012    2    3    3    0    0  0.14708443803E+02  0.24713811671E+02  0.22992800504E+02  0.54367086358E+02  0.40000004971E+02 0.  0.
        -12    1    3    3    0    0 -0.14708443803E+02 -0.24713811671E+02 -0.22992800504E+02  0.36820913642E+02  0.00000000000E+00 0.  1.
         11    1    4    4    0    0  0.83850979011E+01  0.19036067549E+02  0.13695995759E+02  0.24905060422E+02  0.51100000000E-03 0. -1.
        -11    1    4    4    0    0 -0.10210358260E+02  0.46316594038E+01  0.21337091438E+01  0.11412992578E+02  0.51100000000E-03 0.  1.
        -12    1    4    4    0    0  0.16533704162E+02  0.10460847179E+01  0.71630956014E+01  0.18049033358E+02  0.00000000000E+00 0.  1.
</event>
<event>
 8    1  0.1247338E-006  0.9118800E+02  0.7816164E-02  0.1184000E+00
        -11   -1    0    0    0    0  0.00000000000E+00  0.00000000000E+00  0.45593999997E+02  0.45594000000E+02  0.51100000000E-03 0.  1.
         11   -1    0    0    0    0 -0.00000000000E+00 -0.00000000000E+00 -0.45593999997E+02  0.45594000000E+02  0.51100000000E-03 0. -1.
         23    2    1    2    0    0 -0.26645352591E-14  0.35527136788E-14  0.00000000000E+00  0.91188000000E+02  0.91188000000E+02 0.  0.
    9900012    2    3    3    0    0 -0.77053258842E+01  0.16021023621E+02  0.32244950147E+02  0.54367054129E+02  0.39999931498E+02 0.  0.
         12    1    3    3    0    0  0.77053258842E+01 -0.16021023621E+02 -0.32244950147E+02  0.36820945871E+02  0.00000000000E+00 0. -1.
         11    1    4    4    0    0  0.24437587949E+01 -0.89763078554E+01  0.36877103496E+01  0.10007260746E+02  0.51100000000E-03 0. -1.
        -11    1    4    4    0    0 -0.91072446702E+01  0.20084357383E+00  0.83029309761E+01  0.12325619931E+02  0.51100000000E-03 0.  1.
         12    1    4    4    0    0 -0.10418400089E+01  0.24796487902E+02  0.20254308822E+02  0.32034173452E+02  0.00000000000E+00 0. -1.
</event>
<event>
 8    1  0.1247338E-006  0.9118800E+02  0.7816164E-02  0.1184000E+00
        -11   -1    0    0    0    0  0.00000000000E+00  0.00000000000E+00  0.45593999997E+02  0.45594000000E+02  0.51100000000E-03 0.  1.
         11   -1    0    0    0    0 -0.00000000000E+00 -0.00000000000E+00 -0.45593999997E+02  0.45594000000E+02  0.51100000000E-03 0. -1.
         23    2    1    2    0    0  0.00000000000E+00  0.35527136788E-14  0.00000000000E+00  0.91188000000E+02  0.91188000000E+02 0.  0.
    9900012    2    3    3    0    0 -0.22410384839E+02  0.23933870058E+02  0.16754828331E+02  0.54367085332E+02  0.40000002630E+02 0.  0.
        -12    1    3    3    0    0  0.22410384839E+02 -0.23933870058E+02 -0.16754828331E+02  0.36820914668E+02  0.00000000000E+00 0.  1.
         11    1    4    4    0    0 -0.34998055991E+01  0.94944784268E+01 -0.39394206492E+01  0.10858765820E+02  0.51100000000E-03 0. -1.
        -11    1    4    4    0    0  0.32458743904E+01 -0.68245927842E+01  0.43726492340E+01  0.87310267903E+01  0.51100000000E-03 0.  1.
        -12    1    4    4    0    0 -0.22156453631E+02  0.21263984416E+02  0.16321599746E+02  0.34777292721E+02  0.00000000000E+00 0.  1.
</event>
<event>
 8    1  0.1247338E-006  0.9118800E+02  0.7816164E-02  0.1184000E+00
        -11   -1    0    0    0    0  0.00000000000E+00  0.00000000000E+00  0.45593999997E+02  0.45594000000E+02  0.51100000000E-03 0.  1.
         11   -1    0    0    0    0 -0.00000000000E+00 -0.00000000000E+00 -0.45593999997E+02  0.45594000000E+02  0.51100000000E-03 0. -1.
         23    2    1    2    0    0  0.00000000000E+00  0.00000000000E+00  0.88817841970E-15  0.91188000000E+02  0.91188000000E+02 0.  0.
    9900012    2    3    3    0    0  0.35094351015E+02 -0.10851286745E+02  0.25327400475E+01  0.54367100101E+02  0.40000036301E+02 0.  0.
        -12    1    3    3    0    0 -0.35094351015E+02  0.10851286745E+02 -0.25327400475E+01  0.36820899899E+02  0.00000000000E+00 0.  1.
         11    1    4    4    0    0  0.17491368898E+02  0.86286978740E+01  0.31605060596E+01  0.19758320064E+02  0.51100000000E-03 0. -1.
        -11    1    4    4    0    0  0.66853484139E+01 -0.14155504223E+02 -0.10589101972E+02  0.18899768889E+02  0.51100000000E-03 0.  1.
        -12    1    4    4    0    0  0.10917633704E+02 -0.53244803958E+01  0.99613359596E+01  0.15709011149E+02  0.00000000000E+00 0.  1.
</event>
<event>
 8    1  0.1247338E-006  0.9118800E+02  0.7816164E-02  0.1184000E+00
        -11   -1    0    0    0    0  0.00000000000E+00  0.00000000000E+00  0.45593999997E+02  0.45594000000E+02  0.51100000000E-03 0.  1.
         11   -1    0    0    0    0 -0.00000000000E+00 -0.00000000000E+00 -0.45593999997E+02  0.45594000000E+02  0.51100000000E-03 0. -1.
         23    2    1    2    0    0  0.00000000000E+00 -0.17763568394E-14  0.00000000000E+00  0.91188000000E+02  0.91188000000E+02 0.  0.
    9900012    2    3    3    0    0 -0.33510721712E+02  0.95172398915E+01 -0.11925625483E+02  0.54367260355E+02  0.40000401630E+02 0.  0.
        -12    1    3    3    0    0  0.33510721712E+02 -0.95172398915E+01  0.11925625483E+02  0.36820739645E+02  0.00000000000E+00 0.  1.
         11    1    4    4    0    0 -0.29415333503E+02  0.14219629259E+02 -0.15388955962E+02  0.36114812296E+02  0.51100000000E-03 0. -1.
        -11    1    4    4    0    0 -0.81198413308E+01 -0.88863842514E+01  0.31291462019E+01  0.12437491890E+02  0.51100000000E-03 0.  1.
        -12    1    4    4    0    0  0.40244531214E+01  0.41839948843E+01  0.33418427710E+00  0.58149561692E+01  0.00000000000E+00 0.  1.
</event>
<event>
 8    1  0.1247338E-006  0.9118800E+02  0.7816164E-02  0.1184000E+00
        -11   -1    0    0    0    0  0.00000000000E+00  0.00000000000E+00  0.45593999997E+02  0.45594000000E+02  0.51100000000E-03 0.  1.
         11   -1    0    0    0    0 -0.00000000000E+00 -0.00000000000E+00 -0.45593999997E+02  0.45594000000E+02  0.51100000000E-03 0. -1.
         23    2    1    2    0    0  0.17763568394E-14  0.00000000000E+00  0.00000000000E+00  0.91188000000E+02  0.91188000000E+02 0.  0.
    9900012    2    3    3    0    0 -0.10592366058E+02  0.28345999654E+02  0.20978225245E+02  0.54367084075E+02  0.39999999767E+02 0.  0.
         12    1    3    3    0    0  0.10592366058E+02 -0.28345999654E+02 -0.20978225245E+02  0.36820915925E+02  0.00000000000E+00 0. -1.
         11    1    4    4    0    0 -0.91006131202E+01  0.16085105318E+02 -0.38400975182E+01  0.18875860814E+02  0.51100000000E-03 0. -1.
        -11    1    4    4    0    0  0.58990711228E+01  0.84192932793E+01  0.25134528788E+02  0.27155626988E+02  0.51100000000E-03 0.  1.
        -12    1    4    4    0    0 -0.73908240611E+01  0.38416010568E+01 -0.31620602557E+00  0.83355962733E+01  0.00000000000E+00 0.  1.
</event>
<event>
 8    1  0.1247338E-006  0.9118800E+02  0.7816164E-02  0.1184000E+00
        -11   -1    0    0    0    0  0.00000000000E+00  0.00000000000E+00  0.45593999997E+02  0.45594000000E+02  0.51100000000E-03 0.  1.
         11   -1    0    0    0    0 -0.00000000000E+00 -0.00000000000E+00 -0.45593999997E+02  0.45594000000E+02  0.51100000000E-03 0. -1.
         23    2    1    2    0    0  0.00000000000E+00  0.00000000000E+00  0.17763568394E-14  0.91188000000E+02  0.91188000000E+02 0.  0.
    9900012    2    3    3    0    0 -0.23026327234E+02 -0.27122569748E+02 -0.94835632475E+01  0.54367034403E+02  0.39999886528E+02 0.  0.
        -12    1    3    3    0    0  0.23026327234E+02  0.27122569748E+02  0.94835632475E+01  0.36820965597E+02  0.00000000000E+00 0.  1.
         11    1    4    4    0    0 -0.11977440932E+02 -0.50969967680E+01 -0.40545125900E+01  0.13633691354E+02  0.51100000000E-03 0. -1.
        -11    1    4    4    0    0  0.23031257932E+01 -0.22289708342E+02 -0.12461462190E+02  0.25640271577E+02  0.51100000000E-03 0.  1.
         12    1    4    4    0    0 -0.13352012096E+02  0.26413536174E+00  0.70324115329E+01  0.15093071472E+02  0.00000000000E+00 0. -1.
</event>
<event>
 8    1  0.1247338E-006  0.9118800E+02  0.7816164E-02  0.1184000E+00
        -11   -1    0    0    0    0  0.00000000000E+00  0.00000000000E+00  0.45593999997E+02  0.45594000000E+02  0.51100000000E-03 0. -1.
         11   -1    0    0    0    0 -0.00000000000E+00 -0.00000000000E+00 -0.45593999997E+02  0.45594000000E+02  0.51100000000E-03 0.  1.
         23    2    1    2    0    0  0.35527136788E-14 -0.35527136788E-14  0.00000000000E+00  0.91188000000E+02  0.91188000000E+02 0.  0.
    9900012    2    3    3    0    0 -0.28788511125E+02 -0.20595482685E+02 -0.10140416120E+02  0.54367077701E+02  0.39999985235E+02 0.  0.
         12    1    3    3    0    0  0.28788511125E+02  0.20595482685E+02  0.10140416120E+02  0.36820922299E+02  0.00000000000E+00 0. -1.
         11    1    4    4    0    0 -0.64053666821E+01 -0.17885253763E+02 -0.68178560385E+01  0.20184008168E+02  0.51100000000E-03 0. -1.
        -11    1    4    4    0    0 -0.17839334550E+02 -0.57404824465E+01 -0.13181988470E+02  0.22912001576E+02  0.51100000000E-03 0.  1.
        -12    1    4    4    0    0 -0.45438098924E+01  0.30302535245E+01  0.98594283880E+01  0.11271067957E+02  0.00000000000E+00 0.  1.
</event>
<event>
 8    1  0.1247338E-006  0.9118800E+02  0.7816164E-02  0.1184000E+00
        -11   -1    0    0    0    0  0.00000000000E+00  0.00000000000E+00  0.45593999997E+02  0.45594000000E+02  0.51100000000E-03 0.  1.
         11   -1    0    0    0    0 -0.00000000000E+00 -0.00000000000E+00 -0.45593999997E+02  0.45594000000E+02  0.51100000000E-03 0. -1.
         23    2    1    2    0    0  0.00000000000E+00  0.44408920985E-15  0.00000000000E+00  0.91188000000E+02  0.91188000000E+02 0.  0.
    9900012    2    3    3    0    0  0.36317507031E+02  0.32317693757E+01 -0.51355904826E+01  0.54367082849E+02  0.39999996970E+02 0.  0.
         12    1    3    3    0    0 -0.36317507031E+02 -0.32317693757E+01  0.51355904826E+01  0.36820917151E+02  0.00000000000E+00 0. -1.
         11    1    4    4    0    0  0.21691814644E+01  0.80174311677E+00 -0.11125199033E+02  0.11363018703E+02  0.51100000000E-03 0. -1.
        -11    1    4    4    0    0  0.83892853067E+01 -0.90034294477E+01  0.81159976439E+01  0.14741481194E+02  0.51100000000E-03 0.  1.
        -12    1    4    4    0    0  0.25759040260E+02  0.11433455707E+02 -0.21263890931E+01  0.28262582952E+02  0.00000000000E+00 0.  1.
</event>
<event>
 8    1  0.1247338E-006  0.9118800E+02  0.7816164E-02  0.1184000E+00
        -11   -1    0    0    0    0  0.00000000000E+00  0.00000000000E+00  0.45593999997E+02  0.45594000000E+02  0.51100000000E-03 0. -1.
         11   -1    0    0    0    0 -0.00000000000E+00 -0.00000000000E+00 -0.45593999997E+02  0.45594000000E+02  0.51100000000E-03 0.  1.
         23    2    1    2    0    0  0.71054273576E-14  0.00000000000E+00 -0.88817841970E-15  0.91188000000E+02  0.91188000000E+02 0.  0.
    9900012    2    3    3    0    0 -0.31729961854E+02  0.17941084656E+02  0.52060250175E+01  0.54367140499E+02  0.40000128396E+02 0.  0.
        -12    1    3    3    0    0  0.31729961854E+02 -0.17941084656E+02 -0.52060250175E+01  0.36820859501E+02  0.00000000000E+00 0.  1.
         11    1    4    4    0    0  0.46040956034E+01 -0.17407204036E+01  0.10466009072E+01  0.50322139828E+01  0.51100000000E-03 0. -1.
        -11    1    4    4    0    0 -0.25063196024E+02  0.25085713363E+02 -0.17609430892E+01  0.35504333970E+02  0.51100000000E-03 0.  1.
        -12    1    4    4    0    0 -0.11270861434E+02 -0.54039083032E+01  0.59203671994E+01  0.13830592546E+02  0.00000000000E+00 0.  1.
</event>
<event>
 8    1  0.1247338E-006  0.9118800E+02  0.7816164E-02  0.1184000E+00
        -11   -1    0    0    0    0  0.00000000000E+00  0.00000000000E+00  0.45593999997E+02  0.45594000000E+02  0.51100000000E-03 0.  1.
         11   -1    0    0    0    0 -0.00000000000E+00 -0.00000000000E+00 -0.45593999997E+02  0.45594000000E+02  0.51100000000E-03 0. -1.
         23    2    1    2    0    0  0.00000000000E+00  0.35527136788E-14 -0.88817841970E-15  0.91188000000E+02  0.91188000000E+02 0.  0.
    9900012    2    3    3    0    0 -0.26050256570E+02  0.25275758256E+02  0.61887352009E+01  0.54367078417E+02  0.39999986868E+02 0.  0.
         12    1    3    3    0    0  0.26050256570E+02 -0.25275758256E+02 -0.61887352009E+01  0.36820921583E+02  0.00000000000E+00 0. -1.
         11    1    4    4    0    0 -0.20772732114E+01  0.80607506279E+01  0.15910527771E+02  0.17956493502E+02  0.51100000000E-03 0. -1.
        -11    1    4    4    0    0  0.29012456097E+01  0.12421600579E+01  0.10780532789E+01  0.33350242624E+01  0.51100000000E-03 0.  1.
         12    1    4    4    0    0 -0.26874228969E+02  0.15972847570E+02 -0.10799845849E+02  0.33075560653E+02  0.00000000000E+00 0. -1.
</event>
<event>
 8    1  0.1247338E-006  0.9118800E+02  0.7816164E-02  0.1184000E+00
        -11   -1    0    0    0    0  0.00000000000E+00  0.00000000000E+00  0.45593999997E+02  0.45594000000E+02  0.51100000000E-03 0.  1.
         11   -1    0    0    0    0 -0.00000000000E+00 -0.00000000000E+00 -0.45593999997E+02  0.45594000000E+02  0.51100000000E-03 0. -1.
         23    2    1    2    0    0  0.17763568394E-14  0.00000000000E+00 -0.17763568394E-14  0.91188000000E+02  0.91188000000E+02 0.  0.
    9900012    2    3    3    0    0  0.10039539357E+02 -0.33344482593E+02 -0.11963859814E+02  0.54367071012E+02  0.39999969985E+02 0.  0.
        -12    1    3    3    0    0 -0.10039539357E+02  0.33344482593E+02  0.11963859814E+02  0.36820928988E+02  0.00000000000E+00 0.  1.
         11    1    4    4    0    0 -0.28394093545E+01 -0.92729527098E+01 -0.99615834278E+01  0.13902627165E+02  0.51100000000E-03 0. -1.
        -11    1    4    4    0    0  0.22313529322E+02 -0.13412762718E+02 -0.29350156474E+01  0.26199429605E+02  0.51100000000E-03 0.  1.
         12    1    4    4    0    0 -0.94345806102E+01 -0.10658767166E+02  0.93273926107E+00  0.14265014242E+02  0.00000000000E+00 0. -1.
</event>
<event>
 8    1  0.1247338E-006  0.9118800E+02  0.7816164E-02  0.1184000E+00
        -11   -1    0    0    0    0  0.00000000000E+00  0.00000000000E+00  0.45593999997E+02  0.45594000000E+02  0.51100000000E-03 0.  1.
         11   -1    0    0    0    0 -0.00000000000E+00 -0.00000000000E+00 -0.45593999997E+02  0.45594000000E+02  0.51100000000E-03 0. -1.
         23    2    1    2    0    0  0.00000000000E+00 -0.88817841970E-15 -0.35527136788E-14  0.91188000000E+02  0.91188000000E+02 0.  0.
    9900012    2    3    3    0    0 -0.26132067517E+02 -0.40739812088E+01  0.25618304413E+02  0.54367084794E+02  0.40000001405E+02 0.  0.
         12    1    3    3    0    0  0.26132067517E+02  0.40739812088E+01 -0.25618304413E+02  0.36820915206E+02  0.00000000000E+00 0. -1.
         11    1    4    4    0    0  0.57137937191E+01 -0.86495655218E+01  0.17067917181E+01  0.10505977375E+02  0.51100000000E-03 0. -1.
        -11    1    4    4    0    0 -0.33976319896E+02  0.33579533178E+01  0.23292210523E+02  0.41330294403E+02  0.51100000000E-03 0.  1.
        -12    1    4    4    0    0  0.21304586599E+01  0.12176309951E+01  0.61930217232E+00  0.25308130161E+01  0.00000000000E+00 0.  1.
</event>
<event>
 8    1  0.1247338E-006  0.9118800E+02  0.7816164E-02  0.1184000E+00
        -11   -1    0    0    0    0  0.00000000000E+00  0.00000000000E+00  0.45593999997E+02  0.45594000000E+02  0.51100000000E-03 0.  1.
         11   -1    0    0    0    0 -0.00000000000E+00 -0.00000000000E+00 -0.45593999997E+02  0.45594000000E+02  0.51100000000E-03 0. -1.
         23    2    1    2    0    0  0.00000000000E+00  0.00000000000E+00  0.00000000000E+00  0.91188000000E+02  0.91188000000E+02 0.  0.
    9900012    2    3    3    0    0 -0.26367163503E+02  0.16473885855E+02 -0.19727213725E+02  0.54367093063E+02  0.40000020255E+02 0.  0.
         12    1    3    3    0    0  0.26367163503E+02 -0.16473885855E+02  0.19727213725E+02  0.36820906937E+02  0.00000000000E+00 0. -1.
         11    1    4    4    0    0  0.34565286704E+01 -0.26703645858E+01 -0.85791142982E+01  0.96270265333E+01  0.51100000000E-03 0. -1.
        -11    1    4    4    0    0 -0.25262743354E+02  0.16960580658E+02  0.21589931485E+01  0.30504569325E+02  0.51100000000E-03 0.  1.
        -12    1    4    4    0    0 -0.45609488194E+01  0.21836697827E+01 -0.13307092575E+02  0.14235497205E+02  0.00000000000E+00 0.  1.
</event>
<event>
 8    1  0.1247338E-006  0.9118800E+02  0.7816164E-02  0.1184000E+00
        -11   -1    0    0    0    0  0.00000000000E+00  0.00000000000E+00  0.45593999997E+02  0.45594000000E+02  0.51100000000E-03 0.  1.
         11   -1    0    0    0    0 -0.00000000000E+00 -0.00000000000E+00 -0.45593999997E+02  0.45594000000E+02  0.51100000000E-03 0. -1.
         23    2    1    2    0    0  0.35527136788E-14  0.00000000000E+00  0.35527136788E-14  0.91188000000E+02  0.91188000000E+02 0.  0.
    9900012    2    3    3    0    0  0.24316394870E+02 -0.36034354089E+01 -0.27413698864E+02  0.54367045482E+02  0.39999911785E+02 0.  0.
        -12    1    3    3    0    0 -0.24316394870E+02  0.36034354089E+01  0.27413698864E+02  0.36820954518E+02  0.00000000000E+00 0.  1.
         11    1    4    4    0    0  0.17639706699E+02  0.33476047677E+00 -0.32224555278E+02  0.36738171976E+02  0.51100000000E-03 0. -1.
        -11    1    4    4    0    0 -0.38635831592E+00  0.49383628022E+01 -0.72537595239E+00  0.50062830970E+01  0.51100000000E-03 0.  1.
         12    1    4    4    0    0  0.70630464869E+01 -0.88765586878E+01  0.55362323663E+01  0.12622590409E+02  0.00000000000E+00 0. -1.
</event>
<event>
 8    1  0.1247338E-006  0.9118800E+02  0.7816164E-02  0.1184000E+00
        -11   -1    0    0    0    0  0.00000000000E+00  0.00000000000E+00  0.45593999997E+02  0.45594000000E+02  0.51100000000E-03 0.  1.
         11   -1    0    0    0    0 -0.00000000000E+00 -0.00000000000E+00 -0.45593999997E+02  0.45594000000E+02  0.51100000000E-03 0. -1.
         23    2    1    2    0    0  0.00000000000E+00  0.17763568394E-14  0.00000000000E+00  0.91188000000E+02  0.91188000000E+02 0.  0.
    9900012    2    3    3    0    0  0.33187945745E+02 -0.14270814073E+02  0.71192723333E+01  0.54367083178E+02  0.39999997721E+02 0.  0.
        -12    1    3    3    0    0 -0.33187945745E+02  0.14270814073E+02 -0.71192723333E+01  0.36820916822E+02  0.00000000000E+00 0.  1.
         11    1    4    4    0    0  0.10191660894E+02  0.37353984316E+01 -0.90958840631E+01  0.14161859355E+02  0.51100000000E-03 0. -1.
        -11    1    4    4    0    0  0.19622212037E+01  0.45692272239E+01  0.57979793869E+01  0.76383712078E+01  0.51100000000E-03 0.  1.
         12    1    4    4    0    0  0.21034063647E+02 -0.22575439729E+02  0.10417177009E+02  0.32566852615E+02  0.00000000000E+00 0. -1.
</event>
<event>
 8    1  0.1247338E-006  0.9118800E+02  0.7816164E-02  0.1184000E+00
        -11   -1    0    0    0    0  0.00000000000E+00  0.00000000000E+00  0.45593999997E+02  0.45594000000E+02  0.51100000000E-03 0.  1.
         11   -1    0    0    0    0 -0.00000000000E+00 -0.00000000000E+00 -0.45593999997E+02  0.45594000000E+02  0.51100000000E-03 0. -1.
         23    2    1    2    0    0 -0.35527136788E-14  0.00000000000E+00 -0.88817841970E-15  0.91188000000E+02  0.91188000000E+02 0.  0.
    9900012    2    3    3    0    0  0.18906861612E+02  0.31273008183E+02  0.45063192783E+01  0.54367117742E+02  0.40000076516E+02 0.  0.
        -12    1    3    3    0    0 -0.18906861612E+02 -0.31273008183E+02 -0.45063192783E+01  0.36820882258E+02  0.00000000000E+00 0.  1.
         11    1    4    4    0    0  0.59508436555E+01  0.18818590695E+01 -0.73937131942E+00  0.62849505948E+01  0.51100000000E-03 0. -1.
        -11    1    4    4    0    0 -0.27847373566E+01 -0.35729158592E+01  0.10254898505E+02  0.11210862299E+02  0.51100000000E-03 0.  1.
        -12    1    4    4    0    0  0.15740755313E+02  0.32964064973E+02 -0.50092079068E+01  0.36871304848E+02  0.00000000000E+00 0.  1.
</event>
<event>
 8    1  0.1247338E-006  0.9118800E+02  0.7816164E-02  0.1184000E+00
        -11   -1    0    0    0    0  0.00000000000E+00  0.00000000000E+00  0.45593999997E+02  0.45594000000E+02  0.51100000000E-03 0.  1.
         11   -1    0    0    0    0 -0.00000000000E+00 -0.00000000000E+00 -0.45593999997E+02  0.45594000000E+02  0.51100000000E-03 0. -1.
         23    2    1    2    0    0  0.00000000000E+00  0.00000000000E+00  0.00000000000E+00  0.91188000000E+02  0.91188000000E+02 0.  0.
    9900012    2    3    3    0    0 -0.31549046585E+02 -0.11418770588E+02 -0.15167392434E+02  0.54367075848E+02  0.39999981010E+02 0.  0.
        -12    1    3    3    0    0  0.31549046585E+02  0.11418770588E+02  0.15167392434E+02  0.36820924152E+02  0.00000000000E+00 0.  1.
         11    1    4    4    0    0 -0.17864527537E+02 -0.63940853793E+01  0.79412784926E+01  0.20569141361E+02  0.51100000000E-03 0. -1.
        -11    1    4    4    0    0  0.76701788185E+00  0.51766903499E+01 -0.74817870878E+00  0.52864176009E+01  0.51100000000E-03 0.  1.
         12    1    4    4    0    0 -0.14451536930E+02 -0.10201375558E+02 -0.22360492218E+02  0.28511516886E+02  0.00000000000E+00 0. -1.
</event>
<event>
 8    1  0.1247338E-006  0.9118800E+02  0.7816164E-02  0.1184000E+00
        -11   -1    0    0    0    0  0.00000000000E+00  0.00000000000E+00  0.45593999997E+02  0.45594000000E+02  0.51100000000E-03 0.  1.
         11   -1    0    0    0    0 -0.00000000000E+00 -0.00000000000E+00 -0.45593999997E+02  0.45594000000E+02  0.51100000000E-03 0. -1.
         23    2    1    2    0    0  0.00000000000E+00 -0.71054273576E-14  0.00000000000E+00  0.91188000000E+02  0.91188000000E+02 0.  0.
    9900012    2    3    3    0    0  0.74242245472E+01 -0.34286762572E+02  0.11183752869E+02  0.54367115627E+02  0.40000071695E+02 0.  0.
         12    1    3    3    0    0 -0.74242245472E+01  0.34286762572E+02 -0.11183752869E+02  0.36820884373E+02  0.00000000000E+00 0. -1.
         11    1    4    4    0    0  0.20038589940E+00  0.85738886888E-01 -0.94056667733E+01  0.94081918229E+01  0.51100000000E-03 0. -1.
        -11    1    4    4    0    0  0.29104253966E+01 -0.33702235872E+02  0.13071001387E+02  0.36265167258E+02  0.51100000000E-03 0.  1.
        -12    1    4    4    0    0  0.43134132513E+01 -0.67026558701E+00  0.75184182547E+01  0.86937565463E+01  0.00000000000E+00 0.  1.
</event>
<event>
 8    1  0.1247338E-006  0.9118800E+02  0.7816164E-02  0.1184000E+00
        -11   -1    0    0    0    0  0.00000000000E+00  0.00000000000E+00  0.45593999997E+02  0.45594000000E+02  0.51100000000E-03 0.  1.
         11   -1    0    0    0    0 -0.00000000000E+00 -0.00000000000E+00 -0.45593999997E+02  0.45594000000E+02  0.51100000000E-03 0. -1.
         23    2    1    2    0    0  0.00000000000E+00  0.00000000000E+00  0.17763568394E-14  0.91188000000E+02  0.91188000000E+02 0.  0.
    9900012    2    3    3    0    0  0.11645727904E+02  0.34724967856E+02  0.37858148285E+01  0.54367098803E+02  0.40000033342E+02 0.  0.
         12    1    3    3    0    0 -0.11645727904E+02 -0.34724967856E+02 -0.37858148285E+01  0.36820901197E+02  0.00000000000E+00 0. -1.
         11    1    4    4    0    0 -0.37025581933E+01  0.45838659230E+01 -0.11842639151E+02  0.13227579759E+02  0.51100000000E-03 0. -1.
        -11    1    4    4    0    0  0.84810589706E+01  0.17304889146E+02 -0.67404343234E+00  0.19283202131E+02  0.51100000000E-03 0.  1.
         12    1    4    4    0    0  0.68672271270E+01  0.12836212787E+02  0.16302497412E+02  0.21856316913E+02  0.00000000000E+00 0. -1.
</event>
<event>
 8    1  0.1247338E-006  0.9118800E+02  0.7816164E-02  0.1184000E+00
        -11   -1    0    0    0    0  0.00000000000E+00  0.00000000000E+00  0.45593999997E+02  0.45594000000E+02  0.51100000000E-03 0. -1.
         11   -1    0    0    0    0 -0.00000000000E+00 -0.00000000000E+00 -0.45593999997E+02  0.45594000000E+02  0.51100000000E-03 0.  1.
         23    2    1    2    0    0 -0.17763568394E-14  0.00000000000E+00  0.00000000000E+00  0.91188000000E+02  0.91188000000E+02 0.  0.
    9900012    2    3    3    0    0 -0.14795923564E+02 -0.17883717760E+02 -0.28583792987E+02  0.54367082894E+02  0.39999997073E+02 0.  0.
         12    1    3    3    0    0  0.14795923564E+02  0.17883717760E+02  0.28583792987E+02  0.36820917106E+02  0.00000000000E+00 0. -1.
         11    1    4    4    0    0  0.11303334064E+01  0.14296314323E+01 -0.14285281946E+01  0.23156408845E+01  0.51100000000E-03 0. -1.
        -11    1    4    4    0    0 -0.39327568874E+01  0.35575727282E+01  0.72809830136E+01  0.90075309801E+01  0.51100000000E-03 0.  1.
         12    1    4    4    0    0 -0.11993500083E+02 -0.22870921920E+02 -0.34436247806E+02  0.43043911029E+02  0.00000000000E+00 0. -1.
</event>
<event>
 8    1  0.1247338E-006  0.9118800E+02  0.7816164E-02  0.1184000E+00
        -11   -1    0    0    0    0  0.00000000000E+00  0.00000000000E+00  0.45593999997E+02  0.45594000000E+02  0.51100000000E-03 0.  1.
         11   -1    0    0    0    0 -0.00000000000E+00 -0.00000000000E+00 -0.45593999997E+02  0.45594000000E+02  0.51100000000E-03 0. -1.
         23    2    1    2    0    0 -0.35527136788E-14 -0.17763568394E-14  0.00000000000E+00  0.91188000000E+02  0.91188000000E+02 0.  0.
    9900012    2    3    3    0    0  0.31618797773E+02 -0.88512844544E+01  0.16663938287E+02  0.54367075944E+02  0.39999981228E+02 0.  0.
         12    1    3    3    0    0 -0.31618797773E+02  0.88512844544E+01 -0.16663938287E+02  0.36820924056E+02  0.00000000000E+00 0. -1.
         11    1    4    4    0    0 -0.28182280144E+01 -0.10666855178E+02  0.13970637025E+02  0.17801766982E+02  0.51100000000E-03 0. -1.
        -11    1    4    4    0    0  0.32123779478E+02  0.50127865063E+01  0.21764687662E+01  0.32585307319E+02  0.51100000000E-03 0.  1.
        -12    1    4    4    0    0  0.23132463101E+01 -0.31972157828E+01  0.51683249642E+00  0.39800016434E+01  0.00000000000E+00 0.  1.
</event>
<event>
 8    1  0.1247338E-006  0.9118800E+02  0.7816164E-02  0.1184000E+00
        -11   -1    0    0    0    0  0.00000000000E+00  0.00000000000E+00  0.45593999997E+02  0.45594000000E+02  0.51100000000E-03 0.  1.
         11   -1    0    0    0    0 -0.00000000000E+00 -0.00000000000E+00 -0.45593999997E+02  0.45594000000E+02  0.51100000000E-03 0. -1.
         23    2    1    2    0    0 -0.71054273576E-14  0.17763568394E-14 -0.35527136788E-14  0.91188000000E+02  0.91188000000E+02 0.  0.
    9900012    2    3    3    0    0 -0.30931887698E+02  0.61661037462E+01 -0.18999382328E+02  0.54367095057E+02  0.40000024802E+02 0.  0.
        -12    1    3    3    0    0  0.30931887698E+02 -0.61661037462E+01  0.18999382328E+02  0.36820904943E+02  0.00000000000E+00 0.  1.
         11    1    4    4    0    0  0.23427275652E+01 -0.83241195699E+01 -0.12899880145E+02  0.15530172152E+02  0.51100000000E-03 0. -1.
        -11    1    4    4    0    0 -0.15183634931E+02  0.15560579279E+01  0.14965770690E+01  0.15336356451E+02  0.51100000000E-03 0.  1.
         12    1    4    4    0    0 -0.18090980332E+02  0.12934165388E+02 -0.75960792517E+01  0.23500566454E+02  0.00000000000E+00 0. -1.
</event>
<event>
 8    1  0.1247338E-006  0.9118800E+02  0.7816164E-02  0.1184000E+00
        -11   -1    0    0    0    0  0.00000000000E+00  0.00000000000E+00  0.45593999997E+02  0.45594000000E+02  0.51100000000E-03 0.  1.
         11   -1    0    0    0    0 -0.00000000000E+00 -0.00000000000E+00 -0.45593999997E+02  0.45594000000E+02  0.51100000000E-03 0. -1.
         23    2    1    2    0    0 -0.71054273576E-14 -0.17763568394E-14 -0.35527136788E-14  0.91188000000E+02  0.91188000000E+02 0.  0.
    9900012    2    3    3    0    0  0.25375109136E+02  0.11699409107E+02  0.23979332063E+02  0.54367072482E+02  0.39999973337E+02 0.  0.
         12    1    3    3    0    0 -0.25375109136E+02 -0.11699409107E+02 -0.23979332063E+02  0.36820927518E+02  0.00000000000E+00 0. -1.
         11    1    4    4    0    0 -0.79723926487E+01  0.71756033966E+01  0.11364162104E+01  0.10786091540E+02  0.51100000000E-03 0. -1.
        -11    1    4    4    0    0  0.56884904157E+01 -0.75206562998E+00 -0.19535034329E+01  0.60614108791E+01  0.51100000000E-03 0.  1.
        -12    1    4    4    0    0  0.27659011369E+02  0.52758713405E+01  0.24796419286E+02  0.37519570063E+02  0.00000000000E+00 0.  1.
</event>
<event>
 8    1  0.1247338E-006  0.9118800E+02  0.7816164E-02  0.1184000E+00
        -11   -1    0    0    0    0  0.00000000000E+00  0.00000000000E+00  0.45593999997E+02  0.45594000000E+02  0.51100000000E-03 0. -1.
         11   -1    0    0    0    0 -0.00000000000E+00 -0.00000000000E+00 -0.45593999997E+02  0.45594000000E+02  0.51100000000E-03 0.  1.
         23    2    1    2    0    0  0.44408920985E-15  0.35527136788E-14  0.00000000000E+00  0.91188000000E+02  0.91188000000E+02 0.  0.
    9900012    2    3    3    0    0 -0.11531452002E+01 -0.31611605936E+02 -0.18845545324E+02  0.54367109839E+02  0.40000058500E+02 0.  0.
        -12    1    3    3    0    0  0.11531452002E+01  0.31611605936E+02  0.18845545324E+02  0.36820890161E+02  0.00000000000E+00 0.  1.
         11    1    4    4    0    0  0.98274105866E+01  0.43258665893E+01 -0.13378025923E+01  0.10820389855E+02  0.51100000000E-03 0. -1.
        -11    1    4    4    0    0  0.70425676941E+00 -0.90890020719E+01  0.57128500450E+00  0.91341284794E+01  0.51100000000E-03 0.  1.
        -12    1    4    4    0    0 -0.11684812556E+02 -0.26848470453E+02 -0.18079027736E+02  0.34412591504E+02  0.00000000000E+00 0.  1.
</event>
<event>
 8    1  0.1247338E-006  0.9118800E+02  0.7816164E-02  0.1184000E+00
        -11   -1    0    0    0    0  0.00000000000E+00  0.00000000000E+00  0.45593999997E+02  0.45594000000E+02  0.51100000000E-03 0.  1.
         11   -1    0    0    0    0 -0.00000000000E+00 -0.00000000000E+00 -0.45593999997E+02  0.45594000000E+02  0.51100000000E-03 0. -1.
         23    2    1    2    0    0  0.00000000000E+00  0.00000000000E+00  0.00000000000E+00  0.91188000000E+02  0.91188000000E+02 0.  0.
    9900012    2    3    3    0    0  0.80273223013E+01 -0.24092859716E+02  0.26662267644E+02  0.54367077842E+02  0.39999985556E+02 0.  0.
         12    1    3    3    0    0 -0.80273223013E+01  0.24092859716E+02 -0.26662267644E+02  0.36820922158E+02  0.00000000000E+00 0. -1.
         11    1    4    4    0    0  0.69241929086E+00  0.23470462274E+00  0.50469024326E+01  0.50995838222E+01  0.51100000000E-03 0. -1.
        -11    1    4    4    0    0  0.12822940861E+02 -0.39893714840E+01 -0.58548295390E+01  0.14649980422E+02  0.51100000000E-03 0.  1.
        -12    1    4    4    0    0 -0.54880378507E+01 -0.20338192855E+02  0.27470194751E+02  0.34617513598E+02  0.00000000000E+00 0.  1.
</event>
<event>
 8    1  0.1247338E-006  0.9118800E+02  0.7816164E-02  0.1184000E+00
        -11   -1    0    0    0    0  0.00000000000E+00  0.00000000000E+00  0.45593999997E+02  0.45594000000E+02  0.51100000000E-03 0. -1.
         11   -1    0    0    0    0 -0.00000000000E+00 -0.00000000000E+00 -0.45593999997E+02  0.45594000000E+02  0.51100000000E-03 0.  1.
         23    2    1    2    0    0 -0.35527136788E-14 -0.35527136788E-14  0.00000000000E+00  0.91188000000E+02  0.91188000000E+02 0.  0.
    9900012    2    3    3    0    0 -0.16404501724E+02 -0.90589934080E+01 -0.31695530924E+02  0.54367085849E+02  0.40000003810E+02 0.  0.
         12    1    3    3    0    0  0.16404501724E+02  0.90589934080E+01  0.31695530924E+02  0.36820914151E+02  0.00000000000E+00 0. -1.
         11    1    4    4    0    0 -0.19011539944E+02 -0.97856941817E+01 -0.32990511611E+01  0.21635207429E+02  0.51100000000E-03 0.  1.
        -11    1    4    4    0    0 -0.55271660768E+01  0.26069646247E+01 -0.50177823720E+01  0.79072099750E+01  0.51100000000E-03 0. -1.
        -12    1    4    4    0    0  0.81342042972E+01 -0.18802638510E+01 -0.23378697391E+02  0.24824668445E+02  0.00000000000E+00 0.  1.
</event>
<event>
 8    1  0.1247338E-006  0.9118800E+02  0.7816164E-02  0.1184000E+00
        -11   -1    0    0    0    0  0.00000000000E+00  0.00000000000E+00  0.45593999997E+02  0.45594000000E+02  0.51100000000E-03 0.  1.
         11   -1    0    0    0    0 -0.00000000000E+00 -0.00000000000E+00 -0.45593999997E+02  0.45594000000E+02  0.51100000000E-03 0. -1.
         23    2    1    2    0    0  0.00000000000E+00  0.35527136788E-14  0.35527136788E-14  0.91188000000E+02  0.91188000000E+02 0.  0.
    9900012    2    3    3    0    0 -0.15024298547E+02 -0.20243700912E+02  0.26837306192E+02  0.54367109502E+02  0.40000057731E+02 0.  0.
         12    1    3    3    0    0  0.15024298547E+02  0.20243700912E+02 -0.26837306192E+02  0.36820890498E+02  0.00000000000E+00 0. -1.
         11    1    4    4    0    0 -0.43448044186E+01  0.23076572805E+01 -0.89292589401E+01  0.10194815989E+02  0.51100000000E-03 0. -1.
        -11    1    4    4    0    0 -0.96419017581E+01 -0.12426105735E+02  0.22455078421E+02  0.27415413920E+02  0.51100000000E-03 0.  1.
         12    1    4    4    0    0 -0.10375923704E+01 -0.10125252457E+02  0.13311486711E+02  0.16756879594E+02  0.00000000000E+00 0. -1.
</event>
<event>
 8    1  0.1247338E-006  0.9118800E+02  0.7816164E-02  0.1184000E+00
        -11   -1    0    0    0    0  0.00000000000E+00  0.00000000000E+00  0.45593999997E+02  0.45594000000E+02  0.51100000000E-03 0.  1.
         11   -1    0    0    0    0 -0.00000000000E+00 -0.00000000000E+00 -0.45593999997E+02  0.45594000000E+02  0.51100000000E-03 0. -1.
         23    2    1    2    0    0  0.00000000000E+00  0.35527136788E-14  0.00000000000E+00  0.91188000000E+02  0.91188000000E+02 0.  0.
    9900012    2    3    3    0    0 -0.67963684429E+01  0.25625593537E+02 -0.25552246611E+02  0.54367095951E+02  0.40000026839E+02 0.  0.
        -12    1    3    3    0    0  0.67963684429E+01 -0.25625593537E+02  0.25552246611E+02  0.36820904049E+02  0.00000000000E+00 0.  1.
         11    1    4    4    0    0 -0.44515858578E+01 -0.18706699571E+01 -0.11811329186E+02  0.12760231978E+02  0.51100000000E-03 0. -1.
        -11    1    4    4    0    0 -0.12120608130E+02  0.12605519925E+02  0.22972720049E+01  0.17637622656E+02  0.51100000000E-03 0.  1.
         12    1    4    4    0    0  0.97758255451E+01  0.14890743569E+02 -0.16038189430E+02  0.23969241317E+02  0.00000000000E+00 0. -1.
</event>
<event>
 8    1  0.1247338E-006  0.9118800E+02  0.7816164E-02  0.1184000E+00
        -11   -1    0    0    0    0  0.00000000000E+00  0.00000000000E+00  0.45593999997E+02  0.45594000000E+02  0.51100000000E-03 0.  1.
         11   -1    0    0    0    0 -0.00000000000E+00 -0.00000000000E+00 -0.45593999997E+02  0.45594000000E+02  0.51100000000E-03 0. -1.
         23    2    1    2    0    0  0.33306690739E-15 -0.35527136788E-14  0.00000000000E+00  0.91188000000E+02  0.91188000000E+02 0.  0.
    9900012    2    3    3    0    0  0.91628105135E+00  0.63230283519E+01  0.36262366037E+02  0.54367089513E+02  0.40000012163E+02 0.  0.
         12    1    3    3    0    0 -0.91628105135E+00 -0.63230283519E+01 -0.36262366037E+02  0.36820910487E+02  0.00000000000E+00 0. -1.
         11    1    4    4    0    0  0.49480414428E+01 -0.77339769539E+00  0.48195484038E+01  0.69504895650E+01  0.51100000000E-03 0. -1.
        -11    1    4    4    0    0 -0.38780691092E+01 -0.12545303717E+02  0.22003776824E+02  0.25624017253E+02  0.51100000000E-03 0.  1.
        -12    1    4    4    0    0 -0.15369128222E+00  0.19641729765E+02  0.94390408088E+01  0.21792582696E+02  0.00000000000E+00 0.  1.
</event>
<event>
 8    1  0.1247338E-006  0.9118800E+02  0.7816164E-02  0.1184000E+00
        -11   -1    0    0    0    0  0.00000000000E+00  0.00000000000E+00  0.45593999997E+02  0.45594000000E+02  0.51100000000E-03 0.  1.
         11   -1    0    0    0    0 -0.00000000000E+00 -0.00000000000E+00 -0.45593999997E+02  0.45594000000E+02  0.51100000000E-03 0. -1.
         23    2    1    2    0    0  0.00000000000E+00  0.00000000000E+00  0.00000000000E+00  0.91188000000E+02  0.91188000000E+02 0.  0.
    9900012    2    3    3    0    0 -0.30572682904E+02  0.55619966857E+01 -0.19752367936E+02  0.54367071357E+02  0.39999970772E+02 0.  0.
        -12    1    3    3    0    0  0.30572682904E+02 -0.55619966857E+01  0.19752367936E+02  0.36820928643E+02  0.00000000000E+00 0.  1.
         11    1    4    4    0    0 -0.20648480998E+02  0.27879257496E+01 -0.91204806182E+01  0.22744570000E+02  0.51100000000E-03 0. -1.
        -11    1    4    4    0    0 -0.16963366595E+02  0.48890021882E+01  0.11988521675E+01  0.17694501842E+02  0.51100000000E-03 0.  1.
         12    1    4    4    0    0  0.70391646897E+01 -0.21149312522E+01 -0.11830739485E+02  0.13927999515E+02  0.00000000000E+00 0. -1.
</event>
<event>
 8    1  0.1247338E-006  0.9118800E+02  0.7816164E-02  0.1184000E+00
        -11   -1    0    0    0    0  0.00000000000E+00  0.00000000000E+00  0.45593999997E+02  0.45594000000E+02  0.51100000000E-03 0.  1.
         11   -1    0    0    0    0 -0.00000000000E+00 -0.00000000000E+00 -0.45593999997E+02  0.45594000000E+02  0.51100000000E-03 0. -1.
         23    2    1    2    0    0  0.35527136788E-14 -0.88817841970E-15  0.00000000000E+00  0.91188000000E+02  0.91188000000E+02 0.  0.
    9900012    2    3    3    0    0  0.18568807894E+02  0.54696731969E+01 -0.31321902551E+02  0.54367088403E+02  0.40000009631E+02 0.  0.
        -12    1    3    3    0    0 -0.18568807894E+02 -0.54696731969E+01  0.31321902551E+02  0.36820911597E+02  0.00000000000E+00 0.  1.
         11    1    4    4    0    0  0.34794039402E+01 -0.11834343105E+01 -0.11971628023E+02  0.12523044611E+02  0.51100000000E-03 0. -1.
        -11    1    4    4    0    0 -0.76089451459E+01  0.72337878462E+01 -0.15640154373E+02  0.18837148455E+02  0.51100000000E-03 0.  1.
        -12    1    4    4    0    0  0.22698349099E+02 -0.58068033882E+00 -0.37101201552E+01  0.23006895337E+02  0.00000000000E+00 0.  1.
</event>
<event>
 8    1  0.1247338E-006  0.9118800E+02  0.7816164E-02  0.1184000E+00
        -11   -1    0    0    0    0  0.00000000000E+00  0.00000000000E+00  0.45593999997E+02  0.45594000000E+02  0.51100000000E-03 0. -1.
         11   -1    0    0    0    0 -0.00000000000E+00 -0.00000000000E+00 -0.45593999997E+02  0.45594000000E+02  0.51100000000E-03 0.  1.
         23    2    1    2    0    0  0.44408920985E-15  0.00000000000E+00  0.00000000000E+00  0.91188000000E+02  0.91188000000E+02 0.  0.
    9900012    2    3    3    0    0  0.21479843484E+01 -0.24010513860E+01 -0.36679720189E+02  0.54367071744E+02  0.39999971654E+02 0.  0.
         12    1    3    3    0    0 -0.21479843484E+01  0.24010513860E+01  0.36679720189E+02  0.36820928256E+02  0.00000000000E+00 0. -1.
         11    1    4    4    0    0 -0.11412651419E+01 -0.48722731908E+01  0.32552538642E+01  0.59697747153E+01  0.51100000000E-03 0. -1.
        -11    1    4    4    0    0  0.58601418696E+01  0.56223189627E+01  0.13429528363E+00  0.81221775857E+01  0.51100000000E-03 0.  1.
        -12    1    4    4    0    0 -0.25708923793E+01 -0.31510971578E+01 -0.40069269337E+02  0.40275119443E+02  0.00000000000E+00 0.  1.
</event>
<event>
 8    1  0.1247338E-006  0.9118800E+02  0.7816164E-02  0.1184000E+00
        -11   -1    0    0    0    0  0.00000000000E+00  0.00000000000E+00  0.45593999997E+02  0.45594000000E+02  0.51100000000E-03 0. -1.
         11   -1    0    0    0    0 -0.00000000000E+00 -0.00000000000E+00 -0.45593999997E+02  0.45594000000E+02  0.51100000000E-03 0.  1.
         23    2    1    2    0    0  0.35527136788E-14  0.00000000000E+00  0.00000000000E+00  0.91188000000E+02  0.91188000000E+02 0.  0.
    9900012    2    3    3    0    0  0.24198476380E+02 -0.27749941443E+02  0.39224968123E+00  0.54367090600E+02  0.40000014641E+02 0.  0.
        -12    1    3    3    0    0 -0.24198476380E+02  0.27749941443E+02 -0.39224968123E+00  0.36820909400E+02  0.00000000000E+00 0.  1.
         11    1    4    4    0    0  0.31275429582E+02 -0.31540640436E+02  0.31828223867E+01  0.44531953171E+02  0.51100000000E-03 0. -1.
        -11    1    4    4    0    0 -0.24511193201E+01  0.38762733156E+01 -0.24408623125E+01  0.51953142184E+01  0.51100000000E-03 0.  1.
         12    1    4    4    0    0 -0.46258338818E+01 -0.85574323009E-01 -0.34971039306E+00  0.46398232106E+01  0.00000000000E+00 0. -1.
</event>
<event>
 8    1  0.1247338E-006  0.9118800E+02  0.7816164E-02  0.1184000E+00
        -11   -1    0    0    0    0  0.00000000000E+00  0.00000000000E+00  0.45593999997E+02  0.45594000000E+02  0.51100000000E-03 0. -1.
         11   -1    0    0    0    0 -0.00000000000E+00 -0.00000000000E+00 -0.45593999997E+02  0.45594000000E+02  0.51100000000E-03 0.  1.
         23    2    1    2    0    0 -0.35527136788E-14  0.00000000000E+00  0.22204460493E-15  0.91188000000E+02  0.91188000000E+02 0.  0.
    9900012    2    3    3    0    0 -0.30672272851E+02  0.20274011599E+02 -0.19888383553E+01  0.54367090910E+02  0.40000015348E+02 0.  0.
         12    1    3    3    0    0  0.30672272851E+02 -0.20274011599E+02  0.19888383553E+01  0.36820909090E+02  0.00000000000E+00 0. -1.
         11    1    4    4    0    0 -0.56820212844E+01 -0.63644361100E+00  0.12476701584E+01  0.58521028214E+01  0.51100000000E-03 0. -1.
        -11    1    4    4    0    0 -0.12239182777E+02 -0.87031604272E+01 -0.59611890183E+01  0.16157919769E+02  0.51100000000E-03 0.  1.
         12    1    4    4    0    0 -0.12751068790E+02  0.29613615638E+02  0.27246805047E+01  0.32357068320E+02  0.00000000000E+00 0. -1.
</event>
<event>
 8    1  0.1247338E-006  0.9118800E+02  0.7816164E-02  0.1184000E+00
        -11   -1    0    0    0    0  0.00000000000E+00  0.00000000000E+00  0.45593999997E+02  0.45594000000E+02  0.51100000000E-03 0.  1.
         11   -1    0    0    0    0 -0.00000000000E+00 -0.00000000000E+00 -0.45593999997E+02  0.45594000000E+02  0.51100000000E-03 0. -1.
         23    2    1    2    0    0 -0.35527136788E-14  0.00000000000E+00 -0.88817841970E-15  0.91188000000E+02  0.91188000000E+02 0.  0.
    9900012    2    3    3    0    0  0.76885446194E+01 -0.35419872070E+02  0.64882856702E+01  0.54367096877E+02  0.40000028951E+02 0.  0.
         12    1    3    3    0    0 -0.76885446194E+01  0.35419872070E+02 -0.64882856702E+01  0.36820903123E+02  0.00000000000E+00 0. -1.
         11    1    4    4    0    0 -0.10871867322E+02 -0.70948607285E+01 -0.88733934404E+00  0.13012375617E+02  0.51100000000E-03 0. -1.
        -11    1    4    4    0    0  0.17903271194E+02 -0.28945053702E+02  0.12420193804E+02  0.36229883627E+02  0.51100000000E-03 0.  1.
        -12    1    4    4    0    0  0.65714074769E+00  0.62004236025E+00 -0.50445687896E+01  0.51248376329E+01  0.00000000000E+00 0.  1.
</event>
<event>
 8    1  0.1247338E-006  0.9118800E+02  0.7816164E-02  0.1184000E+00
        -11   -1    0    0    0    0  0.00000000000E+00  0.00000000000E+00  0.45593999997E+02  0.45594000000E+02  0.51100000000E-03 0.  1.
         11   -1    0    0    0    0 -0.00000000000E+00 -0.00000000000E+00 -0.45593999997E+02  0.45594000000E+02  0.51100000000E-03 0. -1.
         23    2    1    2    0    0  0.88817841970E-15  0.00000000000E+00  0.00000000000E+00  0.91188000000E+02  0.91188000000E+02 0.  0.
    9900012    2    3    3    0    0  0.61139903715E+01  0.22463163834E+02 -0.28527273523E+02  0.54367082814E+02  0.39999996892E+02 0.  0.
        -12    1    3    3    0    0 -0.61139903715E+01 -0.22463163834E+02  0.28527273523E+02  0.36820917186E+02  0.00000000000E+00 0.  1.
         11    1    4    4    0    0 -0.42640396062E+00  0.68057361453E+00  0.20386761275E+01  0.21911643929E+01  0.51100000000E-03 0. -1.
        -11    1    4    4    0    0 -0.35135151113E+01 -0.16241141219E+01  0.62823957172E+01  0.73790942078E+01  0.51100000000E-03 0.  1.
         12    1    4    4    0    0  0.10053909443E+02  0.23406704342E+02 -0.36848345368E+02  0.44796824214E+02  0.00000000000E+00 0. -1.
</event>
<event>
 8    1  0.1247338E-006  0.9118800E+02  0.7816164E-02  0.1184000E+00
        -11   -1    0    0    0    0  0.00000000000E+00  0.00000000000E+00  0.45593999997E+02  0.45594000000E+02  0.51100000000E-03 0.  1.
         11   -1    0    0    0    0 -0.00000000000E+00 -0.00000000000E+00 -0.45593999997E+02  0.45594000000E+02  0.51100000000E-03 0. -1.
         23    2    1    2    0    0  0.00000000000E+00 -0.44408920985E-15  0.00000000000E+00  0.91188000000E+02  0.91188000000E+02 0.  0.
    9900012    2    3    3    0    0  0.34589655087E+02  0.21457325796E+01 -0.12439135654E+02  0.54367075200E+02  0.39999979533E+02 0.  0.
        -12    1    3    3    0    0 -0.34589655087E+02 -0.21457325796E+01  0.12439135654E+02  0.36820924800E+02  0.00000000000E+00 0.  1.
         11    1    4    4    0    0  0.24638167824E+02  0.38064303252E+01 -0.20693827524E+02  0.32400042028E+02  0.51100000000E-03 0. -1.
        -11    1    4    4    0    0 -0.47345050657E+01  0.12781556218E+01  0.41845573032E+01  0.64466844265E+01  0.51100000000E-03 0.  1.
         12    1    4    4    0    0  0.14685992328E+02 -0.29388533673E+01  0.40701345671E+01  0.15520348745E+02  0.00000000000E+00 0. -1.
</event>
<event>
 8    1  0.1247338E-006  0.9118800E+02  0.7816164E-02  0.1184000E+00
        -11   -1    0    0    0    0  0.00000000000E+00  0.00000000000E+00  0.45593999997E+02  0.45594000000E+02  0.51100000000E-03 0. -1.
         11   -1    0    0    0    0 -0.00000000000E+00 -0.00000000000E+00 -0.45593999997E+02  0.45594000000E+02  0.51100000000E-03 0.  1.
         23    2    1    2    0    0  0.00000000000E+00  0.00000000000E+00  0.00000000000E+00  0.91188000000E+02  0.91188000000E+02 0.  0.
    9900012    2    3    3    0    0  0.15395323763E+02 -0.28832906288E+02 -0.16953700338E+02  0.54367076140E+02  0.39999981676E+02 0.  0.
         12    1    3    3    0    0 -0.15395323763E+02  0.28832906288E+02  0.16953700338E+02  0.36820923860E+02  0.00000000000E+00 0. -1.
         11    1    4    4    0    0  0.33883694329E+01  0.37056385208E+01 -0.96596655233E+00  0.51133057704E+01  0.51100000000E-03 0. -1.
        -11    1    4    4    0    0  0.12959319767E+02 -0.33504252065E+02 -0.22641537137E+02  0.42463137890E+02  0.51100000000E-03 0.  1.
        -12    1    4    4    0    0 -0.95236543713E+00  0.96570725576E+00  0.66538033517E+01  0.67906324796E+01  0.00000000000E+00 0.  1.
</event>
<event>
 8    1  0.1247338E-006  0.9118800E+02  0.7816164E-02  0.1184000E+00
        -11   -1    0    0    0    0  0.00000000000E+00  0.00000000000E+00  0.45593999997E+02  0.45594000000E+02  0.51100000000E-03 0.  1.
         11   -1    0    0    0    0 -0.00000000000E+00 -0.00000000000E+00 -0.45593999997E+02  0.45594000000E+02  0.51100000000E-03 0. -1.
         23    2    1    2    0    0  0.15543122345E-14  0.00000000000E+00  0.71054273576E-14  0.91188000000E+02  0.91188000000E+02 0.  0.
    9900012    2    3    3    0    0  0.19015240218E+01  0.10084015413E+02 -0.35362076005E+02  0.54367087738E+02  0.40000008116E+02 0.  0.
        -12    1    3    3    0    0 -0.19015240218E+01 -0.10084015413E+02  0.35362076005E+02  0.36820912262E+02  0.00000000000E+00 0.  1.
         11    1    4    4    0    0  0.30667602559E+01  0.34026211008E+01 -0.77570369329E+01  0.90085776381E+01  0.51100000000E-03 0. -1.
        -11    1    4    4    0    0  0.16314619960E+02  0.54424442314E+01 -0.77134999977E+01  0.18849008094E+02  0.51100000000E-03 0.  1.
        -12    1    4    4    0    0 -0.17479856194E+02  0.12389500807E+01 -0.19891539074E+02  0.26509502006E+02  0.00000000000E+00 0.  1.
</event>
<event>
 8    1  0.1247338E-006  0.9118800E+02  0.7816164E-02  0.1184000E+00
        -11   -1    0    0    0    0  0.00000000000E+00  0.00000000000E+00  0.45593999997E+02  0.45594000000E+02  0.51100000000E-03 0.  1.
         11   -1    0    0    0    0 -0.00000000000E+00 -0.00000000000E+00 -0.45593999997E+02  0.45594000000E+02  0.51100000000E-03 0. -1.
         23    2    1    2    0    0  0.00000000000E+00  0.00000000000E+00  0.00000000000E+00  0.91188000000E+02  0.91188000000E+02 0.  0.
    9900012    2    3    3    0    0  0.49913135215E+01 -0.54504517668E+00 -0.36477029342E+02  0.54367028333E+02  0.39999872690E+02 0.  0.
        -12    1    3    3    0    0 -0.49913135215E+01  0.54504517668E+00  0.36477029342E+02  0.36820971667E+02  0.00000000000E+00 0.  1.
         11    1    4    4    0    0  0.19889547953E+02  0.42258509131E+00 -0.98850268369E+01  0.22214554953E+02  0.51100000000E-03 0. -1.
        -11    1    4    4    0    0 -0.29147126961E+01 -0.46927120598E+01 -0.81379629936E+01  0.98358293256E+01  0.51100000000E-03 0.  1.
        -12    1    4    4    0    0 -0.11983521735E+02  0.37250817918E+01 -0.18454039512E+02  0.22316644054E+02  0.00000000000E+00 0.  1.
</event>
<event>
 8    1  0.1247338E-006  0.9118800E+02  0.7816164E-02  0.1184000E+00
        -11   -1    0    0    0    0  0.00000000000E+00  0.00000000000E+00  0.45593999997E+02  0.45594000000E+02  0.51100000000E-03 0. -1.
         11   -1    0    0    0    0 -0.00000000000E+00 -0.00000000000E+00 -0.45593999997E+02  0.45594000000E+02  0.51100000000E-03 0.  1.
         23    2    1    2    0    0  0.35527136788E-14 -0.35527136788E-14  0.00000000000E+00  0.91188000000E+02  0.91188000000E+02 0.  0.
    9900012    2    3    3    0    0  0.26166772186E+02 -0.25327469491E+02 -0.54406602927E+01  0.54367062181E+02  0.39999949855E+02 0.  0.
         12    1    3    3    0    0 -0.26166772186E+02  0.25327469491E+02  0.54406602927E+01  0.36820937819E+02  0.00000000000E+00 0. -1.
         11    1    4    4    0    0  0.14070665365E+01 -0.17041400459E+02  0.10462442961E+01  0.17131368691E+02  0.51100000000E-03 0. -1.
        -11    1    4    4    0    0  0.17253182069E+01 -0.70711246663E+01  0.73445318411E+01  0.10340197057E+02  0.51100000000E-03 0.  1.
        -12    1    4    4    0    0  0.23034387442E+02 -0.12149443651E+01 -0.13831436430E+02  0.26895496433E+02  0.00000000000E+00 0.  1.
</event>
<event>
 8    1  0.1247338E-006  0.9118800E+02  0.7816164E-02  0.1184000E+00
        -11   -1    0    0    0    0  0.00000000000E+00  0.00000000000E+00  0.45593999997E+02  0.45594000000E+02  0.51100000000E-03 0. -1.
         11   -1    0    0    0    0 -0.00000000000E+00 -0.00000000000E+00 -0.45593999997E+02  0.45594000000E+02  0.51100000000E-03 0.  1.
         23    2    1    2    0    0  0.00000000000E+00  0.00000000000E+00  0.35527136788E-14  0.91188000000E+02  0.91188000000E+02 0.  0.
    9900012    2    3    3    0    0  0.57100540009E+01  0.32397450987E+02  0.16540280544E+02  0.54367076225E+02  0.39999981869E+02 0.  0.
        -12    1    3    3    0    0 -0.57100540009E+01 -0.32397450987E+02 -0.16540280544E+02  0.36820923775E+02  0.00000000000E+00 0.  1.
         11    1    4    4    0    0  0.35870600286E+01  0.17046339314E+02  0.33493671797E+00  0.17422883415E+02  0.51100000000E-03 0. -1.
        -11    1    4    4    0    0  0.43084511224E+01  0.77603349285E+01 -0.77106099683E+01  0.11757510605E+02  0.51100000000E-03 0.  1.
         12    1    4    4    0    0 -0.21854571501E+01  0.75907767455E+01  0.23915953795E+02  0.25186682204E+02  0.00000000000E+00 0. -1.
</event>
<event>
 8    1  0.1247338E-006  0.9118800E+02  0.7816164E-02  0.1184000E+00
        -11   -1    0    0    0    0  0.00000000000E+00  0.00000000000E+00  0.45593999997E+02  0.45594000000E+02  0.51100000000E-03 0.  1.
         11   -1    0    0    0    0 -0.00000000000E+00 -0.00000000000E+00 -0.45593999997E+02  0.45594000000E+02  0.51100000000E-03 0. -1.
         23    2    1    2    0    0  0.00000000000E+00  0.00000000000E+00  0.00000000000E+00  0.91188000000E+02  0.91188000000E+02 0.  0.
    9900012    2    3    3    0    0 -0.11535162582E+02  0.34904981585E+02  0.20888911912E+01  0.54367065986E+02  0.39999958528E+02 0.  0.
         12    1    3    3    0    0  0.11535162582E+02 -0.34904981585E+02 -0.20888911912E+01  0.36820934014E+02  0.00000000000E+00 0. -1.
         11    1    4    4    0    0  0.67037844202E+01  0.58002796119E+01 -0.77955546659E+01  0.11804856710E+02  0.51100000000E-03 0. -1.
        -11    1    4    4    0    0 -0.15457078721E+02  0.41639116087E+01  0.13909920350E+01  0.16068425610E+02  0.51100000000E-03 0.  1.
         12    1    4    4    0    0 -0.27818682813E+01  0.24940790365E+02  0.84934538221E+01  0.26493783667E+02  0.00000000000E+00 0. -1.
</event>
<event>
 8    1  0.1247338E-006  0.9118800E+02  0.7816164E-02  0.1184000E+00
        -11   -1    0    0    0    0  0.00000000000E+00  0.00000000000E+00  0.45593999997E+02  0.45594000000E+02  0.51100000000E-03 0. -1.
         11   -1    0    0    0    0 -0.00000000000E+00 -0.00000000000E+00 -0.45593999997E+02  0.45594000000E+02  0.51100000000E-03 0.  1.
         23    2    1    2    0    0  0.00000000000E+00  0.00000000000E+00 -0.35527136788E-14  0.91188000000E+02  0.91188000000E+02 0.  0.
    9900012    2    3    3    0    0  0.81164275448E+01 -0.17312980179E+02 -0.31466880756E+02  0.54367078457E+02  0.39999986958E+02 0.  0.
         12    1    3    3    0    0 -0.81164275448E+01  0.17312980179E+02  0.31466880756E+02  0.36820921543E+02  0.00000000000E+00 0. -1.
         11    1    4    4    0    0  0.23308127186E+01  0.51440121468E+01  0.10295858662E+01  0.57405222945E+01  0.51100000000E-03 0. -1.
        -11    1    4    4    0    0  0.32013923212E+01  0.62313017512E+01 -0.92987125191E+01  0.11642340361E+02  0.51100000000E-03 0.  1.
        -12    1    4    4    0    0  0.25842225050E+01 -0.28688294077E+02 -0.23197754104E+02  0.36984215801E+02  0.00000000000E+00 0.  1.
</event>
<event>
 8    1  0.1247338E-006  0.9118800E+02  0.7816164E-02  0.1184000E+00
        -11   -1    0    0    0    0  0.00000000000E+00  0.00000000000E+00  0.45593999997E+02  0.45594000000E+02  0.51100000000E-03 0. -1.
         11   -1    0    0    0    0 -0.00000000000E+00 -0.00000000000E+00 -0.45593999997E+02  0.45594000000E+02  0.51100000000E-03 0.  1.
         23    2    1    2    0    0  0.17763568394E-14  0.00000000000E+00 -0.17763568394E-14  0.91188000000E+02  0.91188000000E+02 0.  0.
    9900012    2    3    3    0    0  0.35873665335E+01 -0.34201791088E+02 -0.13158533283E+02  0.54367099543E+02  0.40000035029E+02 0.  0.
         12    1    3    3    0    0 -0.35873665335E+01  0.34201791088E+02  0.13158533283E+02  0.36820900457E+02  0.00000000000E+00 0. -1.
         11    1    4    4    0    0 -0.88841240223E+01 -0.63775296058E+00 -0.15726012558E+02  0.18073236006E+02  0.51100000000E-03 0. -1.
        -11    1    4    4    0    0  0.27532983814E+01 -0.14592959821E+02  0.18632931296E+01  0.14966863060E+02  0.51100000000E-03 0.  1.
         12    1    4    4    0    0  0.97181921744E+01 -0.18971078307E+02  0.70418614511E+00  0.21327000478E+02  0.00000000000E+00 0. -1.
</event>
<event>
 8    1  0.1247338E-006  0.9118800E+02  0.7816164E-02  0.1184000E+00
        -11   -1    0    0    0    0  0.00000000000E+00  0.00000000000E+00  0.45593999997E+02  0.45594000000E+02  0.51100000000E-03 0. -1.
         11   -1    0    0    0    0 -0.00000000000E+00 -0.00000000000E+00 -0.45593999997E+02  0.45594000000E+02  0.51100000000E-03 0.  1.
         23    2    1    2    0    0  0.00000000000E+00 -0.44408920985E-15  0.88817841970E-15  0.91188000000E+02  0.91188000000E+02 0.  0.
    9900012    2    3    3    0    0  0.36050201203E+02 -0.25353301678E+01 -0.70523308411E+01  0.54367078282E+02  0.39999986560E+02 0.  0.
         12    1    3    3    0    0 -0.36050201203E+02  0.25353301678E+01  0.70523308411E+01  0.36820921718E+02  0.00000000000E+00 0. -1.
         11    1    4    4    0    0  0.29152148727E+02 -0.49753468088E+01 -0.55761878450E+01  0.30094778990E+02  0.51100000000E-03 0. -1.
        -11    1    4    4    0    0  0.85904060160E+01  0.60138797941E+01 -0.10240569277E+02  0.14657117216E+02  0.51100000000E-03 0.  1.
        -12    1    4    4    0    0 -0.16923535399E+01 -0.35738631530E+01  0.87644262808E+01  0.96151820769E+01  0.00000000000E+00 0.  1.
</event>
<event>
 8    1  0.1247338E-006  0.9118800E+02  0.7816164E-02  0.1184000E+00
        -11   -1    0    0    0    0  0.00000000000E+00  0.00000000000E+00  0.45593999997E+02  0.45594000000E+02  0.51100000000E-03 0. -1.
         11   -1    0    0    0    0 -0.00000000000E+00 -0.00000000000E+00 -0.45593999997E+02  0.45594000000E+02  0.51100000000E-03 0.  1.
         23    2    1    2    0    0 -0.35527136788E-14 -0.17763568394E-14  0.00000000000E+00  0.91188000000E+02  0.91188000000E+02 0.  0.
    9900012    2    3    3    0    0 -0.31749935181E+02 -0.10830711759E+02 -0.15179501450E+02  0.54367082501E+02  0.39999996178E+02 0.  0.
         12    1    3    3    0    0  0.31749935181E+02  0.10830711759E+02  0.15179501450E+02  0.36820917499E+02  0.00000000000E+00 0. -1.
         11    1    4    4    0    0  0.37191524893E+01 -0.41554492441E+01  0.39548128733E+01  0.68366950191E+01  0.51100000000E-03 0. -1.
        -11    1    4    4    0    0  0.29272756322E+01 -0.37845970335E+01 -0.68409182261E+00  0.48332286534E+01  0.51100000000E-03 0.  1.
         12    1    4    4    0    0 -0.38396363302E+02 -0.28906654813E+01 -0.18450222500E+02  0.42697158829E+02  0.00000000000E+00 0. -1.
</event>
<event>
 8    1  0.1247338E-006  0.9118800E+02  0.7816164E-02  0.1184000E+00
        -11   -1    0    0    0    0  0.00000000000E+00  0.00000000000E+00  0.45593999997E+02  0.45594000000E+02  0.51100000000E-03 0.  1.
         11   -1    0    0    0    0 -0.00000000000E+00 -0.00000000000E+00 -0.45593999997E+02  0.45594000000E+02  0.51100000000E-03 0. -1.
         23    2    1    2    0    0 -0.35527136788E-14  0.00000000000E+00 -0.17763568394E-14  0.91188000000E+02  0.91188000000E+02 0.  0.
    9900012    2    3    3    0    0  0.22811218195E+02  0.27712954028E+02  0.82110468255E+01  0.54367071352E+02  0.39999970762E+02 0.  0.
         12    1    3    3    0    0 -0.22811218195E+02 -0.27712954028E+02 -0.82110468255E+01  0.36820928648E+02  0.00000000000E+00 0. -1.
         11    1    4    4    0    0  0.16268688441E+02 -0.71322599777E+01  0.57811543629E+01  0.18680500582E+02  0.51100000000E-03 0. -1.
        -11    1    4    4    0    0  0.31176851661E+01  0.13472850381E+02 -0.53616257948E+00  0.13839260412E+02  0.51100000000E-03 0.  1.
         12    1    4    4    0    0  0.34248445885E+01  0.21372363625E+02  0.29660550421E+01  0.21847310358E+02  0.00000000000E+00 0. -1.
</event>
<event>
 8    1  0.1247338E-006  0.9118800E+02  0.7816164E-02  0.1184000E+00
        -11   -1    0    0    0    0  0.00000000000E+00  0.00000000000E+00  0.45593999997E+02  0.45594000000E+02  0.51100000000E-03 0.  1.
         11   -1    0    0    0    0 -0.00000000000E+00 -0.00000000000E+00 -0.45593999997E+02  0.45594000000E+02  0.51100000000E-03 0. -1.
         23    2    1    2    0    0  0.35527136788E-14  0.00000000000E+00  0.00000000000E+00  0.91188000000E+02  0.91188000000E+02 0.  0.
    9900012    2    3    3    0    0 -0.31700577614E+02  0.14917336010E+02 -0.11328114177E+02  0.54367086031E+02  0.40000004225E+02 0.  0.
        -12    1    3    3    0    0  0.31700577614E+02 -0.14917336010E+02  0.11328114177E+02  0.36820913969E+02  0.00000000000E+00 0.  1.
         11    1    4    4    0    0 -0.68841289548E+01  0.21286027038E+02 -0.92970484652E+01  0.24226458449E+02  0.51100000000E-03 0. -1.
        -11    1    4    4    0    0 -0.15742090649E+02 -0.81539730394E+01 -0.76615214910E+01  0.19313197719E+02  0.51100000000E-03 0.  1.
         12    1    4    4    0    0 -0.90743580101E+01  0.17852820113E+01  0.56304557790E+01  0.10827429863E+02  0.00000000000E+00 0. -1.
</event>
<event>
 8    1  0.1247338E-006  0.9118800E+02  0.7816164E-02  0.1184000E+00
        -11   -1    0    0    0    0  0.00000000000E+00  0.00000000000E+00  0.45593999997E+02  0.45594000000E+02  0.51100000000E-03 0.  1.
         11   -1    0    0    0    0 -0.00000000000E+00 -0.00000000000E+00 -0.45593999997E+02  0.45594000000E+02  0.51100000000E-03 0. -1.
         23    2    1    2    0    0 -0.88817841970E-15  0.00000000000E+00  0.35527136788E-14  0.91188000000E+02  0.91188000000E+02 0.  0.
    9900012    2    3    3    0    0 -0.49003079259E+01 -0.23187493336E+02  0.28179914222E+02  0.54367076186E+02  0.39999981781E+02 0.  0.
         12    1    3    3    0    0  0.49003079259E+01  0.23187493336E+02 -0.28179914222E+02  0.36820923814E+02  0.00000000000E+00 0. -1.
         11    1    4    4    0    0  0.10476466417E+02 -0.18102386112E+02  0.25837902131E+02  0.33242291111E+02  0.51100000000E-03 0. -1.
        -11    1    4    4    0    0  0.10602642605E+01  0.25939559360E+01 -0.17970753597E+00  0.28080353914E+01  0.51100000000E-03 0.  1.
        -12    1    4    4    0    0 -0.16437038604E+02 -0.76790631598E+01  0.25217196268E+01  0.18316749683E+02  0.00000000000E+00 0.  1.
</event>
<event>
 8    1  0.1247338E-006  0.9118800E+02  0.7816164E-02  0.1184000E+00
        -11   -1    0    0    0    0  0.00000000000E+00  0.00000000000E+00  0.45593999997E+02  0.45594000000E+02  0.51100000000E-03 0. -1.
         11   -1    0    0    0    0 -0.00000000000E+00 -0.00000000000E+00 -0.45593999997E+02  0.45594000000E+02  0.51100000000E-03 0.  1.
         23    2    1    2    0    0  0.35527136788E-14  0.00000000000E+00 -0.35527136788E-14  0.91188000000E+02  0.91188000000E+02 0.  0.
    9900012    2    3    3    0    0  0.18857047463E+02  0.14023145256E+02 -0.28346848297E+02  0.54367073202E+02  0.39999974979E+02 0.  0.
         12    1    3    3    0    0 -0.18857047463E+02 -0.14023145256E+02  0.28346848297E+02  0.36820926798E+02  0.00000000000E+00 0. -1.
         11    1    4    4    0    0  0.55416085481E+01 -0.35261047716E+01 -0.33494966351E+01  0.73730569054E+01  0.51100000000E-03 0. -1.
        -11    1    4    4    0    0 -0.47038079440E+01  0.42120570491E+01 -0.23712855078E+02  0.24539085761E+02  0.51100000000E-03 0.  1.
         12    1    4    4    0    0  0.18019246859E+02  0.13337192978E+02 -0.12844965836E+01  0.22454930536E+02  0.00000000000E+00 0. -1.
</event>
<event>
 8    1  0.1247338E-006  0.9118800E+02  0.7816164E-02  0.1184000E+00
        -11   -1    0    0    0    0  0.00000000000E+00  0.00000000000E+00  0.45593999997E+02  0.45594000000E+02  0.51100000000E-03 0. -1.
         11   -1    0    0    0    0 -0.00000000000E+00 -0.00000000000E+00 -0.45593999997E+02  0.45594000000E+02  0.51100000000E-03 0.  1.
         23    2    1    2    0    0  0.35527136788E-14  0.00000000000E+00  0.00000000000E+00  0.91188000000E+02  0.91188000000E+02 0.  0.
    9900012    2    3    3    0    0 -0.14571521264E+02  0.14675061735E+02  0.30464626425E+02  0.54367080239E+02  0.39999991020E+02 0.  0.
        -12    1    3    3    0    0  0.14571521264E+02 -0.14675061735E+02 -0.30464626425E+02  0.36820919761E+02  0.00000000000E+00 0.  1.
         11    1    4    4    0    0 -0.56823354579E+01  0.73365898198E+01  0.30809148751E+02  0.32176359854E+02  0.51100000000E-03 0. -1.
        -11    1    4    4    0    0 -0.16281555496E+01  0.12703374389E+02 -0.21429642940E+01  0.12985334327E+02  0.51100000000E-03 0.  1.
        -12    1    4    4    0    0 -0.72610302569E+01 -0.53649024740E+01  0.17984419674E+01  0.92053860569E+01  0.00000000000E+00 0.  1.
</event>
<event>
 8    1  0.1247338E-006  0.9118800E+02  0.7816164E-02  0.1184000E+00
        -11   -1    0    0    0    0  0.00000000000E+00  0.00000000000E+00  0.45593999997E+02  0.45594000000E+02  0.51100000000E-03 0. -1.
         11   -1    0    0    0    0 -0.00000000000E+00 -0.00000000000E+00 -0.45593999997E+02  0.45594000000E+02  0.51100000000E-03 0.  1.
         23    2    1    2    0    0  0.35527136788E-14 -0.17763568394E-14  0.00000000000E+00  0.91188000000E+02  0.91188000000E+02 0.  0.
    9900012    2    3    3    0    0  0.25557180418E+02 -0.92495218027E+01  0.24840646030E+02  0.54367070901E+02  0.39999969733E+02 0.  0.
         12    1    3    3    0    0 -0.25557180418E+02  0.92495218027E+01 -0.24840646030E+02  0.36820929099E+02  0.00000000000E+00 0. -1.
         11    1    4    4    0    0 -0.38517883534E+01 -0.17402616618E+01 -0.33060273092E+01  0.53660601004E+01  0.51100000000E-03 0. -1.
        -11    1    4    4    0    0  0.33873564810E+02 -0.95592681953E+01  0.24567684876E+02  0.42922827747E+02  0.51100000000E-03 0.  1.
         12    1    4    4    0    0 -0.44645960385E+01  0.20500080544E+01  0.35789884635E+01  0.60781830536E+01  0.00000000000E+00 0. -1.
</event>
<event>
 8    1  0.1247338E-006  0.9118800E+02  0.7816164E-02  0.1184000E+00
        -11   -1    0    0    0    0  0.00000000000E+00  0.00000000000E+00  0.45593999997E+02  0.45594000000E+02  0.51100000000E-03 0. -1.
         11   -1    0    0    0    0 -0.00000000000E+00 -0.00000000000E+00 -0.45593999997E+02  0.45594000000E+02  0.51100000000E-03 0.  1.
         23    2    1    2    0    0 -0.35527136788E-14 -0.17763568394E-14  0.35527136788E-14  0.91188000000E+02  0.91188000000E+02 0.  0.
    9900012    2    3    3    0    0  0.30408634545E+02  0.69443620451E+01 -0.19567072857E+02  0.54367088017E+02  0.40000008752E+02 0.  0.
         12    1    3    3    0    0 -0.30408634545E+02 -0.69443620451E+01  0.19567072857E+02  0.36820911983E+02  0.00000000000E+00 0. -1.
         11    1    4    4    0    0  0.60404901765E+01  0.13031604723E+02  0.27520537907E+01  0.14624774992E+02  0.51100000000E-03 0. -1.
        -11    1    4    4    0    0 -0.34522115960E+01 -0.99766563968E+00  0.18668926095E+00  0.35983266630E+01  0.51100000000E-03 0.  1.
        -12    1    4    4    0    0  0.27820355964E+02 -0.50895770386E+01 -0.22505815908E+02  0.36143986362E+02  0.00000000000E+00 0.  1.
</event>
<event>
 8    1  0.1247338E-006  0.9118800E+02  0.7816164E-02  0.1184000E+00
        -11   -1    0    0    0    0  0.00000000000E+00  0.00000000000E+00  0.45593999997E+02  0.45594000000E+02  0.51100000000E-03 0.  1.
         11   -1    0    0    0    0 -0.00000000000E+00 -0.00000000000E+00 -0.45593999997E+02  0.45594000000E+02  0.51100000000E-03 0. -1.
         23    2    1    2    0    0  0.00000000000E+00  0.00000000000E+00  0.00000000000E+00  0.91188000000E+02  0.91188000000E+02 0.  0.
    9900012    2    3    3    0    0 -0.29948295894E+02  0.14182631947E+02 -0.16054067927E+02  0.54367074253E+02  0.39999977374E+02 0.  0.
         12    1    3    3    0    0  0.29948295894E+02 -0.14182631947E+02  0.16054067927E+02  0.36820925747E+02  0.00000000000E+00 0. -1.
         11    1    4    4    0    0 -0.44364550858E+01 -0.34417158901E+01 -0.94151936837E+01  0.10962363539E+02  0.51100000000E-03 0. -1.
        -11    1    4    4    0    0 -0.15965787912E+02 -0.13857772868E+01 -0.13603803182E+02  0.21021185114E+02  0.51100000000E-03 0.  1.
        -12    1    4    4    0    0 -0.95460528961E+01  0.19010125124E+02  0.69649289393E+01  0.22383525599E+02  0.00000000000E+00 0.  1.
</event>
<event>
 8    1  0.1247338E-006  0.9118800E+02  0.7816164E-02  0.1184000E+00
        -11   -1    0    0    0    0  0.00000000000E+00  0.00000000000E+00  0.45593999997E+02  0.45594000000E+02  0.51100000000E-03 0.  1.
         11   -1    0    0    0    0 -0.00000000000E+00 -0.00000000000E+00 -0.45593999997E+02  0.45594000000E+02  0.51100000000E-03 0. -1.
         23    2    1    2    0    0 -0.53290705182E-14  0.35527136788E-14 -0.35527136788E-14  0.91188000000E+02  0.91188000000E+02 0.  0.
    9900012    2    3    3    0    0 -0.95976461398E+01  0.20497280559E+02 -0.29043539228E+02  0.54367075343E+02  0.39999979859E+02 0.  0.
        -12    1    3    3    0    0  0.95976461398E+01 -0.20497280559E+02  0.29043539228E+02  0.36820924657E+02  0.00000000000E+00 0.  1.
         11    1    4    4    0    0  0.45979150977E+01  0.74797216969E+00  0.29355556510E+00  0.46675968917E+01  0.51100000000E-03 0. -1.
        -11    1    4    4    0    0  0.91675109696E+01 -0.14678266259E+00 -0.92419436002E+01  0.13018384089E+02  0.51100000000E-03 0.  1.
         12    1    4    4    0    0 -0.23363072207E+02  0.19896091052E+02 -0.20095151193E+02  0.36681094362E+02  0.00000000000E+00 0. -1.
</event>
<event>
 8    1  0.1247338E-006  0.9118800E+02  0.7816164E-02  0.1184000E+00
        -11   -1    0    0    0    0  0.00000000000E+00  0.00000000000E+00  0.45593999997E+02  0.45594000000E+02  0.51100000000E-03 0.  1.
         11   -1    0    0    0    0 -0.00000000000E+00 -0.00000000000E+00 -0.45593999997E+02  0.45594000000E+02  0.51100000000E-03 0. -1.
         23    2    1    2    0    0  0.00000000000E+00  0.00000000000E+00  0.00000000000E+00  0.91188000000E+02  0.91188000000E+02 0.  0.
    9900012    2    3    3    0    0  0.25319728880E+02 -0.23157692308E+02 -0.13357215073E+02  0.54367047024E+02  0.39999915301E+02 0.  0.
        -12    1    3    3    0    0 -0.25319728880E+02  0.23157692308E+02  0.13357215073E+02  0.36820952976E+02  0.00000000000E+00 0.  1.
         11    1    4    4    0    0  0.40441610946E+01  0.86116982008E+01 -0.89108315866E+01  0.13035317591E+02  0.51100000000E-03 0. -1.
        -11    1    4    4    0    0  0.36663051425E+01 -0.11540972325E+01 -0.46240915900E+01  0.60129823810E+01  0.51100000000E-03 0.  1.
        -12    1    4    4    0    0  0.17609262642E+02 -0.30615293276E+02  0.17770810402E+00  0.35318747053E+02  0.00000000000E+00 0.  1.
</event>
<event>
 8    1  0.1247338E-006  0.9118800E+02  0.7816164E-02  0.1184000E+00
        -11   -1    0    0    0    0  0.00000000000E+00  0.00000000000E+00  0.45593999997E+02  0.45594000000E+02  0.51100000000E-03 0. -1.
         11   -1    0    0    0    0 -0.00000000000E+00 -0.00000000000E+00 -0.45593999997E+02  0.45594000000E+02  0.51100000000E-03 0.  1.
         23    2    1    2    0    0  0.00000000000E+00  0.00000000000E+00  0.00000000000E+00  0.91188000000E+02  0.91188000000E+02 0.  0.
    9900012    2    3    3    0    0  0.14053024995E+02  0.19516669796E+02 -0.27881732963E+02  0.54367096365E+02  0.40000027784E+02 0.  0.
         12    1    3    3    0    0 -0.14053024995E+02 -0.19516669796E+02  0.27881732963E+02  0.36820903635E+02  0.00000000000E+00 0. -1.
         11    1    4    4    0    0  0.11764350641E+02 -0.70292558544E+01 -0.90412159967E+01  0.16418098880E+02  0.51100000000E-03 0. -1.
        -11    1    4    4    0    0  0.18915946550E+01  0.13949084741E+02 -0.20880019804E+02  0.25181944380E+02  0.51100000000E-03 0.  1.
         12    1    4    4    0    0  0.39707969926E+00  0.12596840909E+02  0.20395028377E+01  0.12767053105E+02  0.00000000000E+00 0. -1.
</event>
<event>
 8    1  0.1247338E-006  0.9118800E+02  0.7816164E-02  0.1184000E+00
        -11   -1    0    0    0    0  0.00000000000E+00  0.00000000000E+00  0.45593999997E+02  0.45594000000E+02  0.51100000000E-03 0. -1.
         11   -1    0    0    0    0 -0.00000000000E+00 -0.00000000000E+00 -0.45593999997E+02  0.45594000000E+02  0.51100000000E-03 0.  1.
         23    2    1    2    0    0  0.00000000000E+00  0.00000000000E+00  0.00000000000E+00  0.91188000000E+02  0.91188000000E+02 0.  0.
    9900012    2    3    3    0    0  0.32829666890E+02  0.82131874479E+01 -0.14509895459E+02  0.54367074667E+02  0.39999978319E+02 0.  0.
         12    1    3    3    0    0 -0.32829666890E+02 -0.82131874479E+01  0.14509895459E+02  0.36820925333E+02  0.00000000000E+00 0. -1.
         11    1    4    4    0    0  0.55611630934E+01 -0.81381902863E+01 -0.10842754581E+02  0.14653395622E+02  0.51100000000E-03 0. -1.
        -11    1    4    4    0    0  0.28736146018E+02  0.19139690167E+02 -0.68888354466E+01  0.35207241893E+02  0.51100000000E-03 0.  1.
        -12    1    4    4    0    0 -0.14676422215E+01 -0.27883124324E+01  0.32216945690E+01  0.45064371522E+01  0.00000000000E+00 0.  1.
</event>
<event>
 8    1  0.1247338E-006  0.9118800E+02  0.7816164E-02  0.1184000E+00
        -11   -1    0    0    0    0  0.00000000000E+00  0.00000000000E+00  0.45593999997E+02  0.45594000000E+02  0.51100000000E-03 0.  1.
         11   -1    0    0    0    0 -0.00000000000E+00 -0.00000000000E+00 -0.45593999997E+02  0.45594000000E+02  0.51100000000E-03 0. -1.
         23    2    1    2    0    0  0.71054273576E-14  0.17763568394E-14 -0.71054273576E-14  0.91188000000E+02  0.91188000000E+02 0.  0.
    9900012    2    3    3    0    0  0.28046468743E+02  0.14272076859E+02 -0.19117696113E+02  0.54367042768E+02  0.39999905597E+02 0.  0.
        -12    1    3    3    0    0 -0.28046468743E+02 -0.14272076859E+02  0.19117696113E+02  0.36820957232E+02  0.00000000000E+00 0.  1.
         11    1    4    4    0    0 -0.16287032210E+01 -0.83484644184E+00  0.13751527873E+01  0.22892549471E+01  0.51100000000E-03 0. -1.
        -11    1    4    4    0    0 -0.54437251586E+01 -0.46633639408E+01 -0.77036056620E+00  0.72093385625E+01  0.51100000000E-03 0.  1.
         12    1    4    4    0    0  0.35118897123E+02  0.19770287242E+02 -0.19722488334E+02  0.44868449258E+02  0.00000000000E+00 0. -1.
</event>
<event>
 8    1  0.1247338E-006  0.9118800E+02  0.7816164E-02  0.1184000E+00
        -11   -1    0    0    0    0  0.00000000000E+00  0.00000000000E+00  0.45593999997E+02  0.45594000000E+02  0.51100000000E-03 0.  1.
         11   -1    0    0    0    0 -0.00000000000E+00 -0.00000000000E+00 -0.45593999997E+02  0.45594000000E+02  0.51100000000E-03 0. -1.
         23    2    1    2    0    0  0.00000000000E+00 -0.44408920985E-15  0.00000000000E+00  0.91188000000E+02  0.91188000000E+02 0.  0.
    9900012    2    3    3    0    0 -0.34151406216E+02 -0.35114771738E+01  0.13308973626E+02  0.54367111941E+02  0.40000063293E+02 0.  0.
         12    1    3    3    0    0  0.34151406216E+02  0.35114771738E+01 -0.13308973626E+02  0.36820888059E+02  0.00000000000E+00 0. -1.
         11    1    4    4    0    0 -0.15209699151E+01 -0.42921252681E+01  0.12715085847E+02  0.13505891202E+02  0.51100000000E-03 0. -1.
        -11    1    4    4    0    0 -0.19334394947E+02 -0.78747945283E+01  0.91981565788E+01  0.22813094957E+02  0.51100000000E-03 0.  1.
         12    1    4    4    0    0 -0.13296041354E+02  0.86554426226E+01 -0.86042688000E+01  0.18048125783E+02  0.00000000000E+00 0. -1.
</event>
<event>
 8    1  0.1247338E-006  0.9118800E+02  0.7816164E-02  0.1184000E+00
        -11   -1    0    0    0    0  0.00000000000E+00  0.00000000000E+00  0.45593999997E+02  0.45594000000E+02  0.51100000000E-03 0. -1.
         11   -1    0    0    0    0 -0.00000000000E+00 -0.00000000000E+00 -0.45593999997E+02  0.45594000000E+02  0.51100000000E-03 0.  1.
         23    2    1    2    0    0  0.00000000000E+00  0.00000000000E+00  0.35527136788E-14  0.91188000000E+02  0.91188000000E+02 0.  0.
    9900012    2    3    3    0    0  0.13895411702E+02  0.27995971823E+02  0.19465982600E+02  0.54367063249E+02  0.39999952288E+02 0.  0.
        -12    1    3    3    0    0 -0.13895411702E+02 -0.27995971823E+02 -0.19465982600E+02  0.36820936751E+02  0.00000000000E+00 0.  1.
         11    1    4    4    0    0  0.14777111358E+01  0.10625437636E+01  0.52239703583E+01  0.55319522789E+01  0.51100000000E-03 0. -1.
        -11    1    4    4    0    0 -0.83844749317E+01  0.24236394695E+02  0.93409410044E+01  0.27293871598E+02  0.51100000000E-03 0.  1.
        -12    1    4    4    0    0  0.20802175498E+02  0.26970333636E+01  0.49010712373E+01  0.21541239372E+02  0.00000000000E+00 0.  1.
</event>
<event>
 8    1  0.1247338E-006  0.9118800E+02  0.7816164E-02  0.1184000E+00
        -11   -1    0    0    0    0  0.00000000000E+00  0.00000000000E+00  0.45593999997E+02  0.45594000000E+02  0.51100000000E-03 0.  1.
         11   -1    0    0    0    0 -0.00000000000E+00 -0.00000000000E+00 -0.45593999997E+02  0.45594000000E+02  0.51100000000E-03 0. -1.
         23    2    1    2    0    0  0.00000000000E+00  0.00000000000E+00  0.35527136788E-14  0.91188000000E+02  0.91188000000E+02 0.  0.
    9900012    2    3    3    0    0 -0.18435283801E+02  0.17155363641E+02  0.26862919254E+02  0.54367046436E+02  0.39999913960E+02 0.  0.
         12    1    3    3    0    0  0.18435283801E+02 -0.17155363641E+02 -0.26862919254E+02  0.36820953564E+02  0.00000000000E+00 0. -1.
         11    1    4    4    0    0 -0.66682438286E+01  0.11007127748E+02 -0.23056070996E+01  0.13074332158E+02  0.51100000000E-03 0. -1.
        -11    1    4    4    0    0 -0.94175875306E+01  0.10173635552E+02  0.23365336371E+01  0.14058919053E+02  0.51100000000E-03 0.  1.
         12    1    4    4    0    0 -0.23494524423E+01 -0.40253996590E+01  0.26831992717E+02  0.27233795225E+02  0.00000000000E+00 0. -1.
</event>
<event>
 8    1  0.1247338E-006  0.9118800E+02  0.7816164E-02  0.1184000E+00
        -11   -1    0    0    0    0  0.00000000000E+00  0.00000000000E+00  0.45593999997E+02  0.45594000000E+02  0.51100000000E-03 0. -1.
         11   -1    0    0    0    0 -0.00000000000E+00 -0.00000000000E+00 -0.45593999997E+02  0.45594000000E+02  0.51100000000E-03 0.  1.
         23    2    1    2    0    0 -0.35527136788E-14  0.35527136788E-14 -0.17763568394E-14  0.91188000000E+02  0.91188000000E+02 0.  0.
    9900012    2    3    3    0    0 -0.31304061971E+02  0.18634587799E+02  0.53466891631E+01  0.54367092307E+02  0.40000018533E+02 0.  0.
        -12    1    3    3    0    0  0.31304061971E+02 -0.18634587799E+02 -0.53466891631E+01  0.36820907693E+02  0.00000000000E+00 0.  1.
         11    1    4    4    0    0 -0.16826687789E+02  0.13184856995E+01  0.12126478434E+02  0.20782860870E+02  0.51100000000E-03 0. -1.
        -11    1    4    4    0    0 -0.18840658931E+02  0.10353361513E+02 -0.11214224001E+02  0.24247089388E+02  0.51100000000E-03 0.  1.
        -12    1    4    4    0    0  0.43632847490E+01  0.69627405863E+01  0.44344347299E+01  0.93371420492E+01  0.00000000000E+00 0.  1.
</event>
<event>
 8    1  0.1247338E-006  0.9118800E+02  0.7816164E-02  0.1184000E+00
        -11   -1    0    0    0    0  0.00000000000E+00  0.00000000000E+00  0.45593999997E+02  0.45594000000E+02  0.51100000000E-03 0.  1.
         11   -1    0    0    0    0 -0.00000000000E+00 -0.00000000000E+00 -0.45593999997E+02  0.45594000000E+02  0.51100000000E-03 0. -1.
         23    2    1    2    0    0  0.00000000000E+00 -0.35527136788E-14  0.00000000000E+00  0.91188000000E+02  0.91188000000E+02 0.  0.
    9900012    2    3    3    0    0  0.60235414028E+01 -0.29441883533E+02  0.21276105401E+02  0.54367079071E+02  0.39999988359E+02 0.  0.
         12    1    3    3    0    0 -0.60235414028E+01  0.29441883533E+02 -0.21276105401E+02  0.36820920929E+02  0.00000000000E+00 0. -1.
         11    1    4    4    0    0  0.46129266209E+01 -0.13630261587E+02  0.35319030529E+00  0.14394021905E+02  0.51100000000E-03 0. -1.
        -11    1    4    4    0    0  0.10710995970E+02 -0.20839273950E+02  0.13335953838E+02  0.26960126826E+02  0.51100000000E-03 0.  1.
         12    1    4    4    0    0 -0.93003811876E+01  0.50276520051E+01  0.75869612577E+01  0.13012930340E+02  0.00000000000E+00 0. -1.
</event>
<event>
 8    1  0.1247338E-006  0.9118800E+02  0.7816164E-02  0.1184000E+00
        -11   -1    0    0    0    0  0.00000000000E+00  0.00000000000E+00  0.45593999997E+02  0.45594000000E+02  0.51100000000E-03 0. -1.
         11   -1    0    0    0    0 -0.00000000000E+00 -0.00000000000E+00 -0.45593999997E+02  0.45594000000E+02  0.51100000000E-03 0.  1.
         23    2    1    2    0    0  0.00000000000E+00 -0.35527136788E-14  0.35527136788E-14  0.91188000000E+02  0.91188000000E+02 0.  0.
    9900012    2    3    3    0    0  0.41010606832E+01 -0.29974615636E+02  0.20987695979E+02  0.54367086598E+02  0.40000005518E+02 0.  0.
        -12    1    3    3    0    0 -0.41010606832E+01  0.29974615636E+02 -0.20987695979E+02  0.36820913402E+02  0.00000000000E+00 0.  1.
         11    1    4    4    0    0  0.12702002893E+02 -0.15414442126E+02  0.99187128804E+01  0.22300824402E+02  0.51100000000E-03 0. -1.
        -11    1    4    4    0    0 -0.34118649197E+01 -0.36645530929E+01 -0.80363964482E+01  0.94685500334E+01  0.51100000000E-03 0.  1.
        -12    1    4    4    0    0 -0.51890772896E+01 -0.10895620417E+02  0.19105379546E+02  0.22597712163E+02  0.00000000000E+00 0.  1.
</event>
<event>
 8    1  0.1247338E-006  0.9118800E+02  0.7816164E-02  0.1184000E+00
        -11   -1    0    0    0    0  0.00000000000E+00  0.00000000000E+00  0.45593999997E+02  0.45594000000E+02  0.51100000000E-03 0.  1.
         11   -1    0    0    0    0 -0.00000000000E+00 -0.00000000000E+00 -0.45593999997E+02  0.45594000000E+02  0.51100000000E-03 0. -1.
         23    2    1    2    0    0  0.00000000000E+00 -0.88817841970E-15  0.00000000000E+00  0.91188000000E+02  0.91188000000E+02 0.  0.
    9900012    2    3    3    0    0  0.12269109155E+02  0.45034256118E+01 -0.34423230832E+02  0.54367208284E+02  0.40000282924E+02 0.  0.
        -12    1    3    3    0    0 -0.12269109155E+02 -0.45034256118E+01  0.34423230832E+02  0.36820791716E+02  0.00000000000E+00 0.  1.
         11    1    4    4    0    0 -0.47252439823E+01  0.15501681703E+02 -0.21876082719E+02  0.27224861096E+02  0.51100000000E-03 0. -1.
        -11    1    4    4    0    0 -0.70728315944E+00 -0.54774395615E+01 -0.27106372099E+01  0.61522473912E+01  0.51100000000E-03 0.  1.
        -12    1    4    4    0    0  0.17701636296E+02 -0.55208165296E+01 -0.98365109033E+01  0.20990099797E+02  0.00000000000E+00 0.  1.
</event>
<event>
 8    1  0.1247338E-006  0.9118800E+02  0.7816164E-02  0.1184000E+00
        -11   -1    0    0    0    0  0.00000000000E+00  0.00000000000E+00  0.45593999997E+02  0.45594000000E+02  0.51100000000E-03 0.  1.
         11   -1    0    0    0    0 -0.00000000000E+00 -0.00000000000E+00 -0.45593999997E+02  0.45594000000E+02  0.51100000000E-03 0. -1.
         23    2    1    2    0    0  0.00000000000E+00  0.66613381478E-15  0.00000000000E+00  0.91188000000E+02  0.91188000000E+02 0.  0.
    9900012    2    3    3    0    0 -0.16860424507E+02  0.19724192443E+01  0.32674377332E+02  0.54367091724E+02  0.40000017203E+02 0.  0.
         12    1    3    3    0    0  0.16860424507E+02 -0.19724192443E+01 -0.32674377332E+02  0.36820908276E+02  0.00000000000E+00 0. -1.
         11    1    4    4    0    0 -0.82856784001E+01 -0.70206838355E+01  0.15925605680E+02  0.19276083228E+02  0.51100000000E-03 0. -1.
        -11    1    4    4    0    0 -0.97611589786E+01 -0.12296413210E+01  0.21583912576E+02  0.23720403132E+02  0.51100000000E-03 0.  1.
         12    1    4    4    0    0  0.11864128720E+01  0.10222744401E+02 -0.48351409239E+01  0.11370605364E+02  0.00000000000E+00 0. -1.
</event>
<event>
 8    1  0.1247338E-006  0.9118800E+02  0.7816164E-02  0.1184000E+00
        -11   -1    0    0    0    0  0.00000000000E+00  0.00000000000E+00  0.45593999997E+02  0.45594000000E+02  0.51100000000E-03 0.  1.
         11   -1    0    0    0    0 -0.00000000000E+00 -0.00000000000E+00 -0.45593999997E+02  0.45594000000E+02  0.51100000000E-03 0. -1.
         23    2    1    2    0    0  0.00000000000E+00  0.00000000000E+00 -0.17763568394E-14  0.91188000000E+02  0.91188000000E+02 0.  0.
    9900012    2    3    3    0    0 -0.84401434264E+01  0.34086705403E+02 -0.11074269244E+02  0.54367096350E+02  0.40000027750E+02 0.  0.
        -12    1    3    3    0    0  0.84401434264E+01 -0.34086705403E+02  0.11074269244E+02  0.36820903650E+02  0.00000000000E+00 0.  1.
         11    1    4    4    0    0  0.33295998595E+01  0.95919462018E+01 -0.22179578666E+02  0.24393142012E+02  0.51100000000E-03 0. -1.
        -11    1    4    4    0    0 -0.74351293282E+01  0.16489251952E+02  0.42575412660E+01  0.18582336666E+02  0.51100000000E-03 0.  1.
         12    1    4    4    0    0 -0.43346139578E+01  0.80055072491E+01  0.68477681560E+01  0.11391617673E+02  0.00000000000E+00 0. -1.
</event>
<event>
 8    1  0.1247338E-006  0.9118800E+02  0.7816164E-02  0.1184000E+00
        -11   -1    0    0    0    0  0.00000000000E+00  0.00000000000E+00  0.45593999997E+02  0.45594000000E+02  0.51100000000E-03 0. -1.
         11   -1    0    0    0    0 -0.00000000000E+00 -0.00000000000E+00 -0.45593999997E+02  0.45594000000E+02  0.51100000000E-03 0.  1.
         23    2    1    2    0    0  0.17763568394E-14  0.00000000000E+00  0.00000000000E+00  0.91188000000E+02  0.91188000000E+02 0.  0.
    9900012    2    3    3    0    0 -0.11441505320E+02  0.20966858740E+02  0.28022400199E+02  0.54367189005E+02  0.40000238975E+02 0.  0.
        -12    1    3    3    0    0  0.11441505320E+02 -0.20966858740E+02 -0.28022400199E+02  0.36820810995E+02  0.00000000000E+00 0.  1.
         11    1    4    4    0    0  0.78278756457E+01  0.24859617996E+02  0.21027404309E+02  0.33487728742E+02  0.51100000000E-03 0. -1.
        -11    1    4    4    0    0 -0.14651034293E+02 -0.26467774180E+01  0.51945025943E+01  0.15768357365E+02  0.51100000000E-03 0.  1.
         12    1    4    4    0    0 -0.46183466728E+01 -0.12459818379E+01  0.18004932954E+01  0.51111028983E+01  0.00000000000E+00 0. -1.
</event>
<event>
 8    1  0.1247338E-006  0.9118800E+02  0.7816164E-02  0.1184000E+00
        -11   -1    0    0    0    0  0.00000000000E+00  0.00000000000E+00  0.45593999997E+02  0.45594000000E+02  0.51100000000E-03 0. -1.
         11   -1    0    0    0    0 -0.00000000000E+00 -0.00000000000E+00 -0.45593999997E+02  0.45594000000E+02  0.51100000000E-03 0.  1.
         23    2    1    2    0    0  0.35527136788E-14  0.00000000000E+00  0.00000000000E+00  0.91188000000E+02  0.91188000000E+02 0.  0.
    9900012    2    3    3    0    0  0.26772514262E+02 -0.10470108584E+02  0.23008483239E+02  0.54367068526E+02  0.39999964319E+02 0.  0.
        -12    1    3    3    0    0 -0.26772514262E+02  0.10470108584E+02 -0.23008483239E+02  0.36820931474E+02  0.00000000000E+00 0.  1.
         11    1    4    4    0    0  0.27022380679E+02 -0.20553985401E+02  0.10362372582E+02  0.35497241290E+02  0.51100000000E-03 0. -1.
        -11    1    4    4    0    0 -0.15376982947E+01 -0.13245416674E+01  0.40411542130E+01  0.45221515132E+01  0.51100000000E-03 0.  1.
        -12    1    4    4    0    0  0.12878318778E+01  0.11408418484E+02  0.86049564437E+01  0.14347675723E+02  0.00000000000E+00 0.  1.
</event>
<event>
 8    1  0.1247338E-006  0.9118800E+02  0.7816164E-02  0.1184000E+00
        -11   -1    0    0    0    0  0.00000000000E+00  0.00000000000E+00  0.45593999997E+02  0.45594000000E+02  0.51100000000E-03 0.  1.
         11   -1    0    0    0    0 -0.00000000000E+00 -0.00000000000E+00 -0.45593999997E+02  0.45594000000E+02  0.51100000000E-03 0. -1.
         23    2    1    2    0    0  0.88817841970E-15  0.00000000000E+00 -0.71054273576E-14  0.91188000000E+02  0.91188000000E+02 0.  0.
    9900012    2    3    3    0    0 -0.53712563716E+01  0.23226293389E+02 -0.28061997855E+02  0.54366989378E+02  0.39999783885E+02 0.  0.
        -12    1    3    3    0    0  0.53712563716E+01 -0.23226293389E+02  0.28061997855E+02  0.36821010622E+02  0.00000000000E+00 0.  1.
         11    1    4    4    0    0  0.19365298043E+01  0.21609486052E+02 -0.20599904215E+02  0.29917822265E+02  0.51100000000E-03 0. -1.
        -11    1    4    4    0    0 -0.11559863515E+02  0.72547121914E+01 -0.10028024353E+02  0.16935836742E+02  0.51100000000E-03 0.  1.
        -12    1    4    4    0    0  0.42520773390E+01 -0.56379048548E+01  0.25659307133E+01  0.75133303717E+01  0.00000000000E+00 0.  1.
</event>
<event>
 8    1  0.1247338E-006  0.9118800E+02  0.7816164E-02  0.1184000E+00
        -11   -1    0    0    0    0  0.00000000000E+00  0.00000000000E+00  0.45593999997E+02  0.45594000000E+02  0.51100000000E-03 0. -1.
         11   -1    0    0    0    0 -0.00000000000E+00 -0.00000000000E+00 -0.45593999997E+02  0.45594000000E+02  0.51100000000E-03 0.  1.
         23    2    1    2    0    0  0.00000000000E+00 -0.71054273576E-14  0.00000000000E+00  0.91188000000E+02  0.91188000000E+02 0.  0.
    9900012    2    3    3    0    0 -0.64202265209E+01  0.36012926261E+02  0.41987615468E+01  0.54367085223E+02  0.40000002383E+02 0.  0.
        -12    1    3    3    0    0  0.64202265209E+01 -0.36012926261E+02 -0.41987615468E+01  0.36820914777E+02  0.00000000000E+00 0.  1.
         11    1    4    4    0    0 -0.66472540133E+01  0.28495433331E+02  0.73216321426E+00  0.29269639046E+02  0.51100000000E-03 0. -1.
        -11    1    4    4    0    0  0.10918216759E+02  0.88829976643E+01  0.21720345163E+01  0.14241939436E+02  0.51100000000E-03 0.  1.
        -12    1    4    4    0    0 -0.10691189267E+02 -0.13655047341E+01  0.12945638162E+01  0.10855506741E+02  0.00000000000E+00 0.  1.
</event>
<event>
 8    1  0.1247338E-006  0.9118800E+02  0.7816164E-02  0.1184000E+00
        -11   -1    0    0    0    0  0.00000000000E+00  0.00000000000E+00  0.45593999997E+02  0.45594000000E+02  0.51100000000E-03 0. -1.
         11   -1    0    0    0    0 -0.00000000000E+00 -0.00000000000E+00 -0.45593999997E+02  0.45594000000E+02  0.51100000000E-03 0.  1.
         23    2    1    2    0    0  0.00000000000E+00  0.00000000000E+00  0.00000000000E+00  0.91188000000E+02  0.91188000000E+02 0.  0.
    9900012    2    3    3    0    0 -0.21064459952E+02  0.26279820371E+02  0.14880848281E+02  0.54367080981E+02  0.39999992714E+02 0.  0.
        -12    1    3    3    0    0  0.21064459952E+02 -0.26279820371E+02 -0.14880848281E+02  0.36820919019E+02  0.00000000000E+00 0.  1.
         11    1    4    4    0    0  0.14503092078E+01 -0.50572287903E+01 -0.76784359521E+01  0.93079180684E+01  0.51100000000E-03 0.  1.
        -11    1    4    4    0    0 -0.90011311059E+01  0.80325225791E+01  0.67690825821E+01  0.13833374839E+02  0.51100000000E-03 0. -1.
        -12    1    4    4    0    0 -0.13513638054E+02  0.23304526582E+02  0.15790201651E+02  0.31225788074E+02  0.00000000000E+00 0.  1.
</event>
<event>
 8    1  0.1247338E-006  0.9118800E+02  0.7816164E-02  0.1184000E+00
        -11   -1    0    0    0    0  0.00000000000E+00  0.00000000000E+00  0.45593999997E+02  0.45594000000E+02  0.51100000000E-03 0.  1.
         11   -1    0    0    0    0 -0.00000000000E+00 -0.00000000000E+00 -0.45593999997E+02  0.45594000000E+02  0.51100000000E-03 0. -1.
         23    2    1    2    0    0  0.00000000000E+00  0.00000000000E+00  0.00000000000E+00  0.91188000000E+02  0.91188000000E+02 0.  0.
    9900012    2    3    3    0    0  0.32837248668E+02 -0.12199704279E+02  0.11342877075E+02  0.54367101791E+02  0.40000040153E+02 0.  0.
         12    1    3    3    0    0 -0.32837248668E+02  0.12199704279E+02 -0.11342877075E+02  0.36820898209E+02  0.00000000000E+00 0. -1.
         11    1    4    4    0    0  0.96105525862E+01  0.11227679006E+01 -0.74949337905E+00  0.97048992450E+01  0.51100000000E-03 0. -1.
        -11    1    4    4    0    0  0.19052271267E+02  0.81822170633E+01  0.30282297935E+01  0.20954901394E+02  0.51100000000E-03 0.  1.
         12    1    4    4    0    0  0.41744248145E+01 -0.21504689243E+02  0.90641406607E+01  0.23707301152E+02  0.00000000000E+00 0. -1.
</event>
<event>
 8    1  0.1247338E-006  0.9118800E+02  0.7816164E-02  0.1184000E+00
        -11   -1    0    0    0    0  0.00000000000E+00  0.00000000000E+00  0.45593999997E+02  0.45594000000E+02  0.51100000000E-03 0. -1.
         11   -1    0    0    0    0 -0.00000000000E+00 -0.00000000000E+00 -0.45593999997E+02  0.45594000000E+02  0.51100000000E-03 0.  1.
         23    2    1    2    0    0  0.00000000000E+00 -0.88817841970E-15 -0.71054273576E-14  0.91188000000E+02  0.91188000000E+02 0.  0.
    9900012    2    3    3    0    0  0.13136641541E+02  0.57707265795E+01  0.33910248254E+02  0.54367114991E+02  0.40000070244E+02 0.  0.
        -12    1    3    3    0    0 -0.13136641541E+02 -0.57707265795E+01 -0.33910248254E+02  0.36820885009E+02  0.00000000000E+00 0.  1.
         11    1    4    4    0    0 -0.57462813676E+01 -0.53033415299E+01  0.72541128976E+01  0.10666177156E+02  0.51100000000E-03 0. -1.
        -11    1    4    4    0    0 -0.45972676162E+01  0.79438843969E+01  0.17773120164E+01  0.93487436114E+01  0.51100000000E-03 0.  1.
        -12    1    4    4    0    0  0.23480190524E+02  0.31301837125E+01  0.24878823340E+02  0.34352194223E+02  0.00000000000E+00 0.  1.
</event>
<event>
 8    1  0.1247338E-006  0.9118800E+02  0.7816164E-02  0.1184000E+00
        -11   -1    0    0    0    0  0.00000000000E+00  0.00000000000E+00  0.45593999997E+02  0.45594000000E+02  0.51100000000E-03 0. -1.
         11   -1    0    0    0    0 -0.00000000000E+00 -0.00000000000E+00 -0.45593999997E+02  0.45594000000E+02  0.51100000000E-03 0.  1.
         23    2    1    2    0    0  0.00000000000E+00  0.17763568394E-14  0.00000000000E+00  0.91188000000E+02  0.91188000000E+02 0.  0.
    9900012    2    3    3    0    0  0.26266859888E+02 -0.42679153158E+01 -0.25448321414E+02  0.54367080778E+02  0.39999992251E+02 0.  0.
         12    1    3    3    0    0 -0.26266859888E+02  0.42679153158E+01  0.25448321414E+02  0.36820919222E+02  0.00000000000E+00 0. -1.
         11    1    4    4    0    0  0.12855648169E+02  0.81113629786E+01 -0.87852795719E+01  0.17556851558E+02  0.51100000000E-03 0. -1.
        -11    1    4    4    0    0  0.11442279698E+02 -0.20222339671E+02 -0.71193019136E+01  0.24301301333E+02  0.51100000000E-03 0.  1.
        -12    1    4    4    0    0  0.19689320206E+01  0.78430613770E+01 -0.95437399283E+01  0.12508927887E+02  0.00000000000E+00 0.  1.
</event>
<event>
 8    1  0.1247338E-006  0.9118800E+02  0.7816164E-02  0.1184000E+00
        -11   -1    0    0    0    0  0.00000000000E+00  0.00000000000E+00  0.45593999997E+02  0.45594000000E+02  0.51100000000E-03 0.  1.
         11   -1    0    0    0    0 -0.00000000000E+00 -0.00000000000E+00 -0.45593999997E+02  0.45594000000E+02  0.51100000000E-03 0. -1.
         23    2    1    2    0    0  0.27755575616E-14 -0.71054273576E-14  0.00000000000E+00  0.91188000000E+02  0.91188000000E+02 0.  0.
    9900012    2    3    3    0    0  0.61401195570E+00  0.35644128914E+02  0.92142008191E+01  0.54367048987E+02  0.39999919777E+02 0.  0.
         12    1    3    3    0    0 -0.61401195570E+00 -0.35644128914E+02 -0.92142008191E+01  0.36820951013E+02  0.00000000000E+00 0. -1.
         11    1    4    4    0    0  0.14488609765E+02  0.11658417270E+02 -0.40708217586E+01  0.19037071629E+02  0.51100000000E-03 0. -1.
        -11    1    4    4    0    0 -0.87629109032E+01  0.24862529878E+02  0.14380989767E+02  0.30029100325E+02  0.51100000000E-03 0.  1.
         12    1    4    4    0    0 -0.51116869057E+01 -0.87681823381E+00 -0.10959671892E+01  0.53008770328E+01  0.00000000000E+00 0. -1.
</event>
<event>
 8    1  0.1247338E-006  0.9118800E+02  0.7816164E-02  0.1184000E+00
        -11   -1    0    0    0    0  0.00000000000E+00  0.00000000000E+00  0.45593999997E+02  0.45594000000E+02  0.51100000000E-03 0.  1.
         11   -1    0    0    0    0 -0.00000000000E+00 -0.00000000000E+00 -0.45593999997E+02  0.45594000000E+02  0.51100000000E-03 0. -1.
         23    2    1    2    0    0  0.71054273576E-14  0.44408920985E-15  0.00000000000E+00  0.91188000000E+02  0.91188000000E+02 0.  0.
    9900012    2    3    3    0    0 -0.34256366344E+02  0.26137351516E+01  0.13245742311E+02  0.54367082902E+02  0.39999997092E+02 0.  0.
         12    1    3    3    0    0  0.34256366344E+02 -0.26137351516E+01 -0.13245742311E+02  0.36820917098E+02  0.00000000000E+00 0. -1.
         11    1    4    4    0    0 -0.48485487061E+01  0.44591813695E+01  0.52739162651E+01  0.84384190506E+01  0.51100000000E-03 0. -1.
        -11    1    4    4    0    0  0.42777753470E+01 -0.69010861136E+01  0.86438197138E+01  0.11859172440E+02  0.51100000000E-03 0.  1.
         12    1    4    4    0    0 -0.33685592985E+02  0.50556398957E+01 -0.67199366806E+00  0.34069491411E+02  0.00000000000E+00 0. -1.
</event>
<event>
 8    1  0.1247338E-006  0.9118800E+02  0.7816164E-02  0.1184000E+00
        -11   -1    0    0    0    0  0.00000000000E+00  0.00000000000E+00  0.45593999997E+02  0.45594000000E+02  0.51100000000E-03 0. -1.
         11   -1    0    0    0    0 -0.00000000000E+00 -0.00000000000E+00 -0.45593999997E+02  0.45594000000E+02  0.51100000000E-03 0.  1.
         23    2    1    2    0    0  0.35527136788E-14  0.00000000000E+00  0.00000000000E+00  0.91188000000E+02  0.91188000000E+02 0.  0.
    9900012    2    3    3    0    0  0.30264042122E+02 -0.11878209962E+02 -0.17285182967E+02  0.54367059387E+02  0.39999943484E+02 0.  0.
         12    1    3    3    0    0 -0.30264042122E+02  0.11878209962E+02  0.17285182967E+02  0.36820940613E+02  0.00000000000E+00 0. -1.
         11    1    4    4    0    0  0.21334083168E+02  0.33693293823E+01 -0.12785155012E+01  0.21636314087E+02  0.51100000000E-03 0. -1.
        -11    1    4    4    0    0 -0.65730035796E-02 -0.15929854841E+02 -0.17477959118E+02  0.23648242507E+02  0.51100000000E-03 0.  1.
        -12    1    4    4    0    0  0.89365319571E+01  0.68231549722E+00  0.14712916529E+01  0.90825027930E+01  0.00000000000E+00 0.  1.
</event>
<event>
 8    1  0.1247338E-006  0.9118800E+02  0.7816164E-02  0.1184000E+00
        -11   -1    0    0    0    0  0.00000000000E+00  0.00000000000E+00  0.45593999997E+02  0.45594000000E+02  0.51100000000E-03 0.  1.
         11   -1    0    0    0    0 -0.00000000000E+00 -0.00000000000E+00 -0.45593999997E+02  0.45594000000E+02  0.51100000000E-03 0. -1.
         23    2    1    2    0    0  0.35527136788E-14 -0.35527136788E-14 -0.35527136788E-14  0.91188000000E+02  0.91188000000E+02 0.  0.
    9900012    2    3    3    0    0 -0.19654574729E+02  0.27380031142E+02  0.14826051638E+02  0.54367079041E+02  0.39999988289E+02 0.  0.
         12    1    3    3    0    0  0.19654574729E+02 -0.27380031142E+02 -0.14826051638E+02  0.36820920959E+02  0.00000000000E+00 0. -1.
         11    1    4    4    0    0  0.87312891220E+01  0.69427325272E+01  0.86212569361E+01  0.14098333806E+02  0.51100000000E-03 0. -1.
        -11    1    4    4    0    0 -0.17377402765E+02  0.21386522712E+02  0.87836453376E+01  0.28922480983E+02  0.51100000000E-03 0.  1.
         12    1    4    4    0    0 -0.11008461086E+02 -0.94922409700E+00 -0.25788506357E+01  0.11346264252E+02  0.00000000000E+00 0. -1.
</event>
<event>
 8    1  0.1247338E-006  0.9118800E+02  0.7816164E-02  0.1184000E+00
        -11   -1    0    0    0    0  0.00000000000E+00  0.00000000000E+00  0.45593999997E+02  0.45594000000E+02  0.51100000000E-03 0. -1.
         11   -1    0    0    0    0 -0.00000000000E+00 -0.00000000000E+00 -0.45593999997E+02  0.45594000000E+02  0.51100000000E-03 0.  1.
         23    2    1    2    0    0  0.00000000000E+00  0.00000000000E+00  0.00000000000E+00  0.91188000000E+02  0.91188000000E+02 0.  0.
    9900012    2    3    3    0    0  0.27763931513E+02 -0.43125699452E+01  0.23798022516E+02  0.54367081649E+02  0.39999994235E+02 0.  0.
         12    1    3    3    0    0 -0.27763931513E+02  0.43125699452E+01 -0.23798022516E+02  0.36820918351E+02  0.00000000000E+00 0. -1.
         11    1    4    4    0    0  0.69240126286E+00  0.10556113963E+02 -0.70192708665E+00  0.10602059395E+02  0.51100000000E-03 0. -1.
        -11    1    4    4    0    0  0.19497230321E+02 -0.42132450642E+01  0.54815641478E+01  0.20686734153E+02  0.51100000000E-03 0.  1.
        -12    1    4    4    0    0  0.75742999286E+01 -0.10655438844E+02  0.19018385454E+02  0.23078288101E+02  0.00000000000E+00 0.  1.
</event>
<event>
 8    1  0.1247338E-006  0.9118800E+02  0.7816164E-02  0.1184000E+00
        -11   -1    0    0    0    0  0.00000000000E+00  0.00000000000E+00  0.45593999997E+02  0.45594000000E+02  0.51100000000E-03 0.  1.
         11   -1    0    0    0    0 -0.00000000000E+00 -0.00000000000E+00 -0.45593999997E+02  0.45594000000E+02  0.51100000000E-03 0. -1.
         23    2    1    2    0    0  0.00000000000E+00  0.00000000000E+00  0.00000000000E+00  0.91188000000E+02  0.91188000000E+02 0.  0.
    9900012    2    3    3    0    0 -0.12815765134E+02  0.33910305449E+02 -0.64518986644E+01  0.54367086813E+02  0.40000006006E+02 0.  0.
         12    1    3    3    0    0  0.12815765134E+02 -0.33910305449E+02  0.64518986644E+01  0.36820913187E+02  0.00000000000E+00 0. -1.
         11    1    4    4    0    0 -0.60507241056E+00 -0.29676074375E+01  0.25192258192E+01  0.39394549768E+01  0.51100000000E-03 0. -1.
        -11    1    4    4    0    0 -0.54306275064E+01  0.35927793451E+02  0.31859790379E+01  0.36475313845E+02  0.51100000000E-03 0.  1.
        -12    1    4    4    0    0 -0.67800652169E+01  0.95011943497E+00 -0.12157103522E+02  0.13952317991E+02  0.00000000000E+00 0.  1.
</event>
<event>
 8    1  0.1247338E-006  0.9118800E+02  0.7816164E-02  0.1184000E+00
        -11   -1    0    0    0    0  0.00000000000E+00  0.00000000000E+00  0.45593999997E+02  0.45594000000E+02  0.51100000000E-03 0.  1.
         11   -1    0    0    0    0 -0.00000000000E+00 -0.00000000000E+00 -0.45593999997E+02  0.45594000000E+02  0.51100000000E-03 0. -1.
         23    2    1    2    0    0  0.00000000000E+00  0.00000000000E+00  0.00000000000E+00  0.91188000000E+02  0.91188000000E+02 0.  0.
    9900012    2    3    3    0    0 -0.81580991097E+01  0.34042164036E+02 -0.11417291558E+02  0.54367108378E+02  0.40000055169E+02 0.  0.
        -12    1    3    3    0    0  0.81580991097E+01 -0.34042164036E+02  0.11417291558E+02  0.36820891622E+02  0.00000000000E+00 0.  1.
         11    1    4    4    0    0  0.50359966197E+01  0.25264257020E+02 -0.10720281134E+02  0.27902838074E+02  0.51100000000E-03 0. -1.
        -11    1    4    4    0    0  0.95058785801E+00 -0.20131321863E+01  0.68022818614E+01  0.71573289192E+01  0.51100000000E-03 0.  1.
         12    1    4    4    0    0 -0.14144683587E+02  0.10791039202E+02 -0.74992922855E+01  0.19306941384E+02  0.00000000000E+00 0. -1.
</event>
<event>
 8    1  0.1247338E-006  0.9118800E+02  0.7816164E-02  0.1184000E+00
        -11   -1    0    0    0    0  0.00000000000E+00  0.00000000000E+00  0.45593999997E+02  0.45594000000E+02  0.51100000000E-03 0.  1.
         11   -1    0    0    0    0 -0.00000000000E+00 -0.00000000000E+00 -0.45593999997E+02  0.45594000000E+02  0.51100000000E-03 0. -1.
         23    2    1    2    0    0  0.17763568394E-14  0.00000000000E+00  0.00000000000E+00  0.91188000000E+02  0.91188000000E+02 0.  0.
    9900012    2    3    3    0    0 -0.13787894679E+02 -0.34067025899E+02 -0.22616904276E+01  0.54367034004E+02  0.39999885619E+02 0.  0.
        -12    1    3    3    0    0  0.13787894679E+02  0.34067025899E+02  0.22616904276E+01  0.36820965996E+02  0.00000000000E+00 0.  1.
         11    1    4    4    0    0  0.28237620094E+01  0.50406752559E+01 -0.88785188198E+01  0.10592928567E+02  0.51100000000E-03 0. -1.
        -11    1    4    4    0    0 -0.12138677968E+02 -0.18132791578E+02  0.30465034951E+01  0.22032403796E+02  0.51100000000E-03 0.  1.
         12    1    4    4    0    0 -0.44729787202E+01 -0.20974909577E+02  0.35703248971E+01  0.21741701641E+02  0.00000000000E+00 0. -1.
</event>
<event>
 8    1  0.1247338E-006  0.9118800E+02  0.7816164E-02  0.1184000E+00
        -11   -1    0    0    0    0  0.00000000000E+00  0.00000000000E+00  0.45593999997E+02  0.45594000000E+02  0.51100000000E-03 0. -1.
         11   -1    0    0    0    0 -0.00000000000E+00 -0.00000000000E+00 -0.45593999997E+02  0.45594000000E+02  0.51100000000E-03 0.  1.
         23    2    1    2    0    0  0.00000000000E+00  0.88817841970E-15  0.17763568394E-14  0.91188000000E+02  0.91188000000E+02 0.  0.
    9900012    2    3    3    0    0 -0.33943090853E+02 -0.50672254559E+01 -0.13340540991E+02  0.54367078984E+02  0.39999988161E+02 0.  0.
         12    1    3    3    0    0  0.33943090853E+02  0.50672254559E+01  0.13340540991E+02  0.36820921016E+02  0.00000000000E+00 0. -1.
         11    1    4    4    0    0 -0.56446213828E+01 -0.25268636974E+00 -0.21987167814E+02  0.22701567120E+02  0.51100000000E-03 0. -1.
        -11    1    4    4    0    0 -0.18691863203E+02  0.70659007936E+00  0.21683132014E+01  0.18830470040E+02  0.51100000000E-03 0.  1.
         12    1    4    4    0    0 -0.96066062675E+01 -0.55211291655E+01  0.64783136217E+01  0.12835041824E+02  0.00000000000E+00 0. -1.
</event>
<event>
 8    1  0.1247338E-006  0.9118800E+02  0.7816164E-02  0.1184000E+00
        -11   -1    0    0    0    0  0.00000000000E+00  0.00000000000E+00  0.45593999997E+02  0.45594000000E+02  0.51100000000E-03 0. -1.
         11   -1    0    0    0    0 -0.00000000000E+00 -0.00000000000E+00 -0.45593999997E+02  0.45594000000E+02  0.51100000000E-03 0.  1.
         23    2    1    2    0    0  0.35527136788E-14 -0.35527136788E-14 -0.17763568394E-14  0.91188000000E+02  0.91188000000E+02 0.  0.
    9900012    2    3    3    0    0 -0.21165224808E+02  0.25766055097E+02  0.15618033724E+02  0.54367091350E+02  0.40000016350E+02 0.  0.
        -12    1    3    3    0    0  0.21165224808E+02 -0.25766055097E+02 -0.15618033724E+02  0.36820908650E+02  0.00000000000E+00 0.  1.
         11    1    4    4    0    0 -0.21858342824E+00  0.88617676058E+01  0.55541205658E+01  0.10460734168E+02  0.51100000000E-03 0. -1.
        -11    1    4    4    0    0 -0.26210860847E+01  0.22935198788E-01 -0.10982558456E+02  0.11291023372E+02  0.51100000000E-03 0.  1.
        -12    1    4    4    0    0 -0.18325555295E+02  0.16881352292E+02  0.21046471614E+02  0.32615333809E+02  0.00000000000E+00 0.  1.
</event>
<event>
 8    1  0.1247338E-006  0.9118800E+02  0.7816164E-02  0.1184000E+00
        -11   -1    0    0    0    0  0.00000000000E+00  0.00000000000E+00  0.45593999997E+02  0.45594000000E+02  0.51100000000E-03 0.  1.
         11   -1    0    0    0    0 -0.00000000000E+00 -0.00000000000E+00 -0.45593999997E+02  0.45594000000E+02  0.51100000000E-03 0. -1.
         23    2    1    2    0    0  0.00000000000E+00  0.17763568394E-14  0.00000000000E+00  0.91188000000E+02  0.91188000000E+02 0.  0.
    9900012    2    3    3    0    0 -0.16018551910E+02  0.13958247446E+02  0.30072450053E+02  0.54367096572E+02  0.40000028254E+02 0.  0.
         12    1    3    3    0    0  0.16018551910E+02 -0.13958247446E+02 -0.30072450053E+02  0.36820903428E+02  0.00000000000E+00 0. -1.
         11    1    4    4    0    0 -0.57458401920E+00  0.11292291694E+02  0.10617016259E+01  0.11356637227E+02  0.51100000000E-03 0. -1.
        -11    1    4    4    0    0 -0.44762893301E+01  0.30059562818E+01 -0.49509020775E+01  0.73201346283E+01  0.51100000000E-03 0.  1.
        -12    1    4    4    0    0 -0.10967678561E+02 -0.34000052910E+00  0.33961650505E+02  0.35690324717E+02  0.00000000000E+00 0.  1.
</event>
<event>
 8    1  0.1247338E-006  0.9118800E+02  0.7816164E-02  0.1184000E+00
        -11   -1    0    0    0    0  0.00000000000E+00  0.00000000000E+00  0.45593999997E+02  0.45594000000E+02  0.51100000000E-03 0.  1.
         11   -1    0    0    0    0 -0.00000000000E+00 -0.00000000000E+00 -0.45593999997E+02  0.45594000000E+02  0.51100000000E-03 0. -1.
         23    2    1    2    0    0  0.00000000000E+00  0.00000000000E+00  0.17763568394E-14  0.91188000000E+02  0.91188000000E+02 0.  0.
    9900012    2    3    3    0    0 -0.14974245120E+02  0.32265140823E+02  0.95130924627E+01  0.54367268646E+02  0.40000420529E+02 0.  0.
         12    1    3    3    0    0  0.14974245120E+02 -0.32265140823E+02 -0.95130924627E+01  0.36820731354E+02  0.00000000000E+00 0. -1.
         11    1    4    4    0    0 -0.11975839433E+02  0.80977787946E+01 -0.11696424148E+02  0.18595727725E+02  0.51100000000E-03 0. -1.
        -11    1    4    4    0    0  0.59696881075E+01  0.12918198407E+02  0.12589187818E+02  0.19000123062E+02  0.51100000000E-03 0.  1.
         12    1    4    4    0    0 -0.89680937948E+01  0.11249163621E+02  0.86203287925E+01  0.16771417858E+02  0.00000000000E+00 0. -1.
</event>
<event>
 8    1  0.1247338E-006  0.9118800E+02  0.7816164E-02  0.1184000E+00
        -11   -1    0    0    0    0  0.00000000000E+00  0.00000000000E+00  0.45593999997E+02  0.45594000000E+02  0.51100000000E-03 0.  1.
         11   -1    0    0    0    0 -0.00000000000E+00 -0.00000000000E+00 -0.45593999997E+02  0.45594000000E+02  0.51100000000E-03 0. -1.
         23    2    1    2    0    0  0.71054273576E-14  0.00000000000E+00  0.11102230246E-15  0.91188000000E+02  0.91188000000E+02 0.  0.
    9900012    2    3    3    0    0 -0.33474160483E+02  0.15325633996E+02 -0.62066681972E+00  0.54367086042E+02  0.40000004250E+02 0.  0.
        -12    1    3    3    0    0  0.33474160483E+02 -0.15325633996E+02  0.62066681972E+00  0.36820913958E+02  0.00000000000E+00 0.  1.
         11    1    4    4    0    0 -0.12863539787E+02  0.13957435798E+02 -0.44832805396E+01  0.19503345215E+02  0.51100000000E-03 0. -1.
        -11    1    4    4    0    0 -0.18746166550E+01 -0.10841466174E+02  0.57623100556E+01  0.12419975598E+02  0.51100000000E-03 0.  1.
         12    1    4    4    0    0 -0.18736004040E+02  0.12209664373E+02 -0.18996963357E+01  0.22443765229E+02  0.00000000000E+00 0. -1.
</event>
<event>
 8    1  0.1247338E-006  0.9118800E+02  0.7816164E-02  0.1184000E+00
        -11   -1    0    0    0    0  0.00000000000E+00  0.00000000000E+00  0.45593999997E+02  0.45594000000E+02  0.51100000000E-03 0.  1.
         11   -1    0    0    0    0 -0.00000000000E+00 -0.00000000000E+00 -0.45593999997E+02  0.45594000000E+02  0.51100000000E-03 0. -1.
         23    2    1    2    0    0 -0.35527136788E-14  0.00000000000E+00  0.00000000000E+00  0.91188000000E+02  0.91188000000E+02 0.  0.
    9900012    2    3    3    0    0 -0.21307725095E+02 -0.28765853523E+02 -0.86188575856E+01  0.54367106696E+02  0.40000051335E+02 0.  0.
        -12    1    3    3    0    0  0.21307725095E+02  0.28765853523E+02  0.86188575856E+01  0.36820893304E+02  0.00000000000E+00 0.  1.
         11    1    4    4    0    0  0.39483710516E+01 -0.10811747657E+01 -0.21922048843E+00  0.40995890915E+01  0.51100000000E-03 0.  1.
        -11    1    4    4    0    0 -0.31494748293E+02 -0.23343883430E+02 -0.36042022896E+00  0.39204412592E+02  0.51100000000E-03 0. -1.
         12    1    4    4    0    0  0.62386521462E+01 -0.43407953269E+01 -0.80392168682E+01  0.11063105013E+02  0.00000000000E+00 0. -1.
</event>
<event>
 8    1  0.1247338E-006  0.9118800E+02  0.7816164E-02  0.1184000E+00
        -11   -1    0    0    0    0  0.00000000000E+00  0.00000000000E+00  0.45593999997E+02  0.45594000000E+02  0.51100000000E-03 0.  1.
         11   -1    0    0    0    0 -0.00000000000E+00 -0.00000000000E+00 -0.45593999997E+02  0.45594000000E+02  0.51100000000E-03 0. -1.
         23    2    1    2    0    0  0.00000000000E+00 -0.17763568394E-14  0.00000000000E+00  0.91188000000E+02  0.91188000000E+02 0.  0.
    9900012    2    3    3    0    0  0.34034826800E+02 -0.13135838476E+02  0.49860134889E+01  0.54367081783E+02  0.39999994542E+02 0.  0.
         12    1    3    3    0    0 -0.34034826800E+02  0.13135838476E+02 -0.49860134889E+01  0.36820918217E+02  0.00000000000E+00 0. -1.
         11    1    4    4    0    0  0.25197216395E+02  0.80864351622E+01  0.20004153760E+01  0.26538496747E+02  0.51100000000E-03 0. -1.
        -11    1    4    4    0    0  0.14419607107E+01  0.60787122744E+00 -0.35427795118E+01  0.38729891622E+01  0.51100000000E-03 0.  1.
        -12    1    4    4    0    0  0.73956496951E+01 -0.21830144865E+02  0.65283776247E+01  0.23955595874E+02  0.00000000000E+00 0.  1.
</event>
<event>
 8    1  0.1247338E-006  0.9118800E+02  0.7816164E-02  0.1184000E+00
        -11   -1    0    0    0    0  0.00000000000E+00  0.00000000000E+00  0.45593999997E+02  0.45594000000E+02  0.51100000000E-03 0.  1.
         11   -1    0    0    0    0 -0.00000000000E+00 -0.00000000000E+00 -0.45593999997E+02  0.45594000000E+02  0.51100000000E-03 0. -1.
         23    2    1    2    0    0 -0.17763568394E-14  0.00000000000E+00  0.00000000000E+00  0.91188000000E+02  0.91188000000E+02 0.  0.
    9900012    2    3    3    0    0  0.15238271920E+02  0.89706147287E+01 -0.32297094195E+02  0.54367093532E+02  0.40000021324E+02 0.  0.
        -12    1    3    3    0    0 -0.15238271920E+02 -0.89706147287E+01  0.32297094195E+02  0.36820906468E+02  0.00000000000E+00 0.  1.
         11    1    4    4    0    0  0.25056923819E+01 -0.80997747948E+01 -0.13380361861E+01  0.85834251401E+01  0.51100000000E-03 0. -1.
        -11    1    4    4    0    0  0.40078817804E+01 -0.50157503385E+00  0.40071621033E+01  0.56896434214E+01  0.51100000000E-03 0.  1.
         12    1    4    4    0    0  0.87246977577E+01  0.17571964557E+02 -0.34966220112E+02  0.40094024970E+02  0.00000000000E+00 0. -1.
</event>
<event>
 8    1  0.1247338E-006  0.9118800E+02  0.7816164E-02  0.1184000E+00
        -11   -1    0    0    0    0  0.00000000000E+00  0.00000000000E+00  0.45593999997E+02  0.45594000000E+02  0.51100000000E-03 0. -1.
         11   -1    0    0    0    0 -0.00000000000E+00 -0.00000000000E+00 -0.45593999997E+02  0.45594000000E+02  0.51100000000E-03 0.  1.
         23    2    1    2    0    0  0.00000000000E+00  0.10658141036E-13  0.11102230246E-14  0.91188000000E+02  0.91188000000E+02 0.  0.
    9900012    2    3    3    0    0 -0.21494291120E+02 -0.29885511207E+02 -0.79415897419E+00  0.54367095349E+02  0.40000025467E+02 0.  0.
        -12    1    3    3    0    0  0.21494291120E+02  0.29885511207E+02  0.79415897419E+00  0.36820904651E+02  0.00000000000E+00 0.  1.
         11    1    4    4    0    0 -0.11229578587E+02 -0.25033177371E+01  0.78121572591E+01  0.13906826965E+02  0.51100000000E-03 0. -1.
        -11    1    4    4    0    0 -0.44419508890E+00  0.23045737115E+01 -0.88853382639E+01  0.91900819144E+01  0.51100000000E-03 0.  1.
         12    1    4    4    0    0 -0.98205174433E+01 -0.29686767181E+02  0.27902203064E+00  0.31270186469E+02  0.00000000000E+00 0. -1.
</event>
<event>
 8    1  0.1247338E-006  0.9118800E+02  0.7816164E-02  0.1184000E+00
        -11   -1    0    0    0    0  0.00000000000E+00  0.00000000000E+00  0.45593999997E+02  0.45594000000E+02  0.51100000000E-03 0. -1.
         11   -1    0    0    0    0 -0.00000000000E+00 -0.00000000000E+00 -0.45593999997E+02  0.45594000000E+02  0.51100000000E-03 0.  1.
         23    2    1    2    0    0  0.71054273576E-14  0.35527136788E-14 -0.71054273576E-14  0.91188000000E+02  0.91188000000E+02 0.  0.
    9900012    2    3    3    0    0 -0.24621900509E+02 -0.14108647016E+02  0.23462483303E+02  0.54367081652E+02  0.39999994241E+02 0.  0.
        -12    1    3    3    0    0  0.24621900509E+02  0.14108647016E+02 -0.23462483303E+02  0.36820918348E+02  0.00000000000E+00 0.  1.
         11    1    4    4    0    0 -0.47699708323E+01  0.72748850383E+01  0.26778406789E+01  0.91020549891E+01  0.51100000000E-03 0. -1.
        -11    1    4    4    0    0 -0.12107636391E+02 -0.69265650847E+01 -0.49053385509E+01  0.14786294648E+02  0.51100000000E-03 0.  1.
         12    1    4    4    0    0 -0.77442932850E+01 -0.14456966969E+02  0.25689981175E+02  0.30478732015E+02  0.00000000000E+00 0. -1.
</event>
<event>
 8    1  0.1247338E-006  0.9118800E+02  0.7816164E-02  0.1184000E+00
        -11   -1    0    0    0    0  0.00000000000E+00  0.00000000000E+00  0.45593999997E+02  0.45594000000E+02  0.51100000000E-03 0.  1.
         11   -1    0    0    0    0 -0.00000000000E+00 -0.00000000000E+00 -0.45593999997E+02  0.45594000000E+02  0.51100000000E-03 0. -1.
         23    2    1    2    0    0 -0.88817841970E-15  0.88817841970E-15  0.00000000000E+00  0.91188000000E+02  0.91188000000E+02 0.  0.
    9900012    2    3    3    0    0 -0.48257230494E+01 -0.23903501211E+01 -0.36424969821E+02  0.54367084706E+02  0.40000001204E+02 0.  0.
        -12    1    3    3    0    0  0.48257230494E+01  0.23903501211E+01  0.36424969821E+02  0.36820915294E+02  0.00000000000E+00 0.  1.
         11    1    4    4    0    0 -0.13756445841E+02  0.70659383930E+01 -0.16393134104E+02  0.22536684174E+02  0.51100000000E-03 0. -1.
        -11    1    4    4    0    0  0.43261098749E+01  0.40169314189E+01  0.14307543542E+01  0.60743742853E+01  0.51100000000E-03 0.  1.
         12    1    4    4    0    0  0.46046129166E+01 -0.13473219933E+02 -0.21462590071E+02  0.25756026247E+02  0.00000000000E+00 0. -1.
</event>
<event>
 8    1  0.1247338E-006  0.9118800E+02  0.7816164E-02  0.1184000E+00
        -11   -1    0    0    0    0  0.00000000000E+00  0.00000000000E+00  0.45593999997E+02  0.45594000000E+02  0.51100000000E-03 0.  1.
         11   -1    0    0    0    0 -0.00000000000E+00 -0.00000000000E+00 -0.45593999997E+02  0.45594000000E+02  0.51100000000E-03 0. -1.
         23    2    1    2    0    0  0.35527136788E-14 -0.13322676296E-14 -0.71054273576E-14  0.91188000000E+02  0.91188000000E+02 0.  0.
    9900012    2    3    3    0    0  0.16873256452E+02  0.49931019623E+00 -0.32723441000E+02  0.54367086312E+02  0.40000004865E+02 0.  0.
        -12    1    3    3    0    0 -0.16873256452E+02 -0.49931019623E+00  0.32723441000E+02  0.36820913688E+02  0.00000000000E+00 0.  1.
         11    1    4    4    0    0 -0.17532331252E+01 -0.10821710062E+02 -0.19612412989E+01  0.11136862339E+02  0.51100000000E-03 0. -1.
        -11    1    4    4    0    0 -0.93549474972E+00 -0.74260291195E+00 -0.15713983781E+02  0.15759311407E+02  0.51100000000E-03 0.  1.
         12    1    4    4    0    0  0.19561984327E+02  0.12063623171E+02 -0.15048215920E+02  0.27470912565E+02  0.00000000000E+00 0. -1.
</event>
<event>
 8    1  0.1247338E-006  0.9118800E+02  0.7816164E-02  0.1184000E+00
        -11   -1    0    0    0    0  0.00000000000E+00  0.00000000000E+00  0.45593999997E+02  0.45594000000E+02  0.51100000000E-03 0.  1.
         11   -1    0    0    0    0 -0.00000000000E+00 -0.00000000000E+00 -0.45593999997E+02  0.45594000000E+02  0.51100000000E-03 0. -1.
         23    2    1    2    0    0 -0.33306690739E-15  0.00000000000E+00  0.00000000000E+00  0.91188000000E+02  0.91188000000E+02 0.  0.
    9900012    2    3    3    0    0 -0.78232333975E+00 -0.36652067636E+02 -0.34341381483E+01  0.54367090226E+02  0.40000013788E+02 0.  0.
        -12    1    3    3    0    0  0.78232333975E+00  0.36652067636E+02  0.34341381483E+01  0.36820909774E+02  0.00000000000E+00 0.  1.
         11    1    4    4    0    0 -0.38283778891E+01 -0.73370842051E+01  0.21498315189E+01  0.85505004366E+01  0.51100000000E-03 0. -1.
        -11    1    4    4    0    0  0.12025455936E+02 -0.71310504453E+01  0.10060686142E+02  0.17224426749E+02  0.51100000000E-03 0.  1.
        -12    1    4    4    0    0 -0.89794013868E+01 -0.22183932985E+02 -0.15644655809E+02  0.28592163040E+02  0.00000000000E+00 0.  1.
</event>
<event>
 8    1  0.1247338E-006  0.9118800E+02  0.7816164E-02  0.1184000E+00
        -11   -1    0    0    0    0  0.00000000000E+00  0.00000000000E+00  0.45593999997E+02  0.45594000000E+02  0.51100000000E-03 0. -1.
         11   -1    0    0    0    0 -0.00000000000E+00 -0.00000000000E+00 -0.45593999997E+02  0.45594000000E+02  0.51100000000E-03 0.  1.
         23    2    1    2    0    0  0.35527136788E-14  0.00000000000E+00  0.00000000000E+00  0.91188000000E+02  0.91188000000E+02 0.  0.
    9900012    2    3    3    0    0 -0.24838772319E+02 -0.26882701926E+02  0.40168747090E+01  0.54367088067E+02  0.40000008866E+02 0.  0.
        -12    1    3    3    0    0  0.24838772319E+02  0.26882701926E+02 -0.40168747090E+01  0.36820911933E+02  0.00000000000E+00 0.  1.
         11    1    4    4    0    0 -0.15567307806E+02 -0.30166697271E+02  0.45727732344E+01  0.34253188930E+02  0.51100000000E-03 0. -1.
        -11    1    4    4    0    0 -0.24748737469E+01 -0.66555025389E+01  0.27700482890E+01  0.76219342619E+01  0.51100000000E-03 0.  1.
        -12    1    4    4    0    0 -0.67965907655E+01  0.99394978837E+01 -0.33259468145E+01  0.12491964874E+02  0.00000000000E+00 0.  1.
</event>
<event>
 8    1  0.1247338E-006  0.9118800E+02  0.7816164E-02  0.1184000E+00
        -11   -1    0    0    0    0  0.00000000000E+00  0.00000000000E+00  0.45593999997E+02  0.45594000000E+02  0.51100000000E-03 0.  1.
         11   -1    0    0    0    0 -0.00000000000E+00 -0.00000000000E+00 -0.45593999997E+02  0.45594000000E+02  0.51100000000E-03 0. -1.
         23    2    1    2    0    0  0.88817841970E-15  0.17763568394E-14  0.00000000000E+00  0.91188000000E+02  0.91188000000E+02 0.  0.
    9900012    2    3    3    0    0 -0.36574814073E+01  0.15694394092E+02  0.33107216734E+02  0.54367095937E+02  0.40000026808E+02 0.  0.
         12    1    3    3    0    0  0.36574814073E+01 -0.15694394092E+02 -0.33107216734E+02  0.36820904063E+02  0.00000000000E+00 0. -1.
         11    1    4    4    0    0  0.48259858383E+01 -0.56298497726E+00 -0.41533216968E+01  0.63919615748E+01  0.51100000000E-03 0. -1.
        -11    1    4    4    0    0  0.77733622992E+01  0.76647324871E+01  0.84857415394E+01  0.13826825206E+02  0.51100000000E-03 0.  1.
        -12    1    4    4    0    0 -0.16256829545E+02  0.85926465821E+01  0.28774796891E+02  0.34148309157E+02  0.00000000000E+00 0.  1.
</event>
<event>
 8    1  0.1247338E-006  0.9118800E+02  0.7816164E-02  0.1184000E+00
        -11   -1    0    0    0    0  0.00000000000E+00  0.00000000000E+00  0.45593999997E+02  0.45594000000E+02  0.51100000000E-03 0.  1.
         11   -1    0    0    0    0 -0.00000000000E+00 -0.00000000000E+00 -0.45593999997E+02  0.45594000000E+02  0.51100000000E-03 0. -1.
         23    2    1    2    0    0  0.17763568394E-14  0.00000000000E+00  0.00000000000E+00  0.91188000000E+02  0.91188000000E+02 0.  0.
    9900012    2    3    3    0    0 -0.82659077040E+01 -0.25779582310E+02 -0.24957531330E+02  0.54366939935E+02  0.39999671168E+02 0.  0.
        -12    1    3    3    0    0  0.82659077040E+01  0.25779582310E+02  0.24957531330E+02  0.36821060065E+02  0.00000000000E+00 0.  1.
         11    1    4    4    0    0 -0.28849613874E+01 -0.15774211820E+02 -0.26984296566E+02  0.31389504968E+02  0.51100000000E-03 0. -1.
        -11    1    4    4    0    0 -0.11522837539E+02 -0.45657111241E+01 -0.37430858663E+01  0.12947285239E+02  0.51100000000E-03 0.  1.
        -12    1    4    4    0    0  0.61418912220E+01 -0.54396593659E+01  0.57698511021E+01  0.10030149727E+02  0.00000000000E+00 0.  1.
</event>
<event>
 8    1  0.1247338E-006  0.9118800E+02  0.7816164E-02  0.1184000E+00
        -11   -1    0    0    0    0  0.00000000000E+00  0.00000000000E+00  0.45593999997E+02  0.45594000000E+02  0.51100000000E-03 0. -1.
         11   -1    0    0    0    0 -0.00000000000E+00 -0.00000000000E+00 -0.45593999997E+02  0.45594000000E+02  0.51100000000E-03 0.  1.
         23    2    1    2    0    0 -0.35527136788E-14  0.00000000000E+00  0.17763568394E-14  0.91188000000E+02  0.91188000000E+02 0.  0.
    9900012    2    3    3    0    0  0.24441393203E+02 -0.23569169951E+02 -0.14243890347E+02  0.54367137895E+02  0.40000122459E+02 0.  0.
        -12    1    3    3    0    0 -0.24441393203E+02  0.23569169951E+02  0.14243890347E+02  0.36820862105E+02  0.00000000000E+00 0.  1.
         11    1    4    4    0    0 -0.87677861956E+01 -0.22121083625E+01 -0.88792904996E+00  0.90860286395E+01  0.51100000000E-03 0. -1.
        -11    1    4    4    0    0  0.10962090875E+02  0.18414846741E+01 -0.30311987404E+01  0.11521574034E+02  0.51100000000E-03 0.  1.
         12    1    4    4    0    0  0.22247088524E+02 -0.23198546263E+02 -0.10324762557E+02  0.33759535221E+02  0.00000000000E+00 0. -1.
</event>
<event>
 8    1  0.1247338E-006  0.9118800E+02  0.7816164E-02  0.1184000E+00
        -11   -1    0    0    0    0  0.00000000000E+00  0.00000000000E+00  0.45593999997E+02  0.45594000000E+02  0.51100000000E-03 0.  1.
         11   -1    0    0    0    0 -0.00000000000E+00 -0.00000000000E+00 -0.45593999997E+02  0.45594000000E+02  0.51100000000E-03 0. -1.
         23    2    1    2    0    0  0.00000000000E+00  0.35527136788E-14  0.35527136788E-14  0.91188000000E+02  0.91188000000E+02 0.  0.
    9900012    2    3    3    0    0 -0.27431177143E+01 -0.28309020963E+02 -0.23384916647E+02  0.54367086252E+02  0.40000004728E+02 0.  0.
        -12    1    3    3    0    0  0.27431177143E+01  0.28309020963E+02  0.23384916647E+02  0.36820913748E+02  0.00000000000E+00 0.  1.
         11    1    4    4    0    0  0.19040019776E+01 -0.76194150108E+00 -0.42914136973E+01  0.47562601027E+01  0.51100000000E-03 0. -1.
        -11    1    4    4    0    0 -0.19827454541E+01 -0.27444592673E+02  0.27060061680E+01  0.27648859219E+02  0.51100000000E-03 0.  1.
        -12    1    4    4    0    0 -0.26643742379E+01 -0.10248678909E+00 -0.21799509118E+02  0.21961966929E+02  0.00000000000E+00 0.  1.
</event>
<event>
 8    1  0.1247338E-006  0.9118800E+02  0.7816164E-02  0.1184000E+00
        -11   -1    0    0    0    0  0.00000000000E+00  0.00000000000E+00  0.45593999997E+02  0.45594000000E+02  0.51100000000E-03 0. -1.
         11   -1    0    0    0    0 -0.00000000000E+00 -0.00000000000E+00 -0.45593999997E+02  0.45594000000E+02  0.51100000000E-03 0.  1.
         23    2    1    2    0    0  0.00000000000E+00  0.00000000000E+00  0.00000000000E+00  0.91188000000E+02  0.91188000000E+02 0.  0.
    9900012    2    3    3    0    0 -0.64531065489E+01  0.25905631807E+02  0.25358141792E+02  0.54367086125E+02  0.40000004440E+02 0.  0.
        -12    1    3    3    0    0  0.64531065489E+01 -0.25905631807E+02 -0.25358141792E+02  0.36820913875E+02  0.00000000000E+00 0.  1.
         11    1    4    4    0    0  0.15474142927E+02  0.11074388998E+02  0.12339656640E+02  0.22679469069E+02  0.51100000000E-03 0. -1.
        -11    1    4    4    0    0 -0.34114757937E+01 -0.19004205415E+01  0.22584936459E+01  0.45111594003E+01  0.51100000000E-03 0.  1.
        -12    1    4    4    0    0 -0.18515773682E+02  0.16731663350E+02  0.10759991506E+02  0.27176457656E+02  0.00000000000E+00 0.  1.
</event>
<event>
 8    1  0.1247338E-006  0.9118800E+02  0.7816164E-02  0.1184000E+00
        -11   -1    0    0    0    0  0.00000000000E+00  0.00000000000E+00  0.45593999997E+02  0.45594000000E+02  0.51100000000E-03 0.  1.
         11   -1    0    0    0    0 -0.00000000000E+00 -0.00000000000E+00 -0.45593999997E+02  0.45594000000E+02  0.51100000000E-03 0. -1.
         23    2    1    2    0    0  0.00000000000E+00  0.00000000000E+00  0.35527136788E-14  0.91188000000E+02  0.91188000000E+02 0.  0.
    9900012    2    3    3    0    0  0.27283942577E+02 -0.17178064717E+02  0.17784289431E+02  0.54367076864E+02  0.39999983328E+02 0.  0.
        -12    1    3    3    0    0 -0.27283942577E+02  0.17178064717E+02 -0.17784289431E+02  0.36820923136E+02  0.00000000000E+00 0.  1.
         11    1    4    4    0    0  0.17145735118E+02 -0.18263152799E+02 -0.52202557356E+01  0.25588475006E+02  0.51100000000E-03 0. -1.
        -11    1    4    4    0    0  0.98037528155E+01  0.19287278094E+01  0.58059180762E+01  0.11556047992E+02  0.51100000000E-03 0.  1.
        -12    1    4    4    0    0  0.33445464381E+00 -0.84363972752E+00  0.17198627090E+02  0.17222553867E+02  0.00000000000E+00 0.  1.
</event>
<event>
 8    1  0.1247338E-006  0.9118800E+02  0.7816164E-02  0.1184000E+00
        -11   -1    0    0    0    0  0.00000000000E+00  0.00000000000E+00  0.45593999997E+02  0.45594000000E+02  0.51100000000E-03 0.  1.
         11   -1    0    0    0    0 -0.00000000000E+00 -0.00000000000E+00 -0.45593999997E+02  0.45594000000E+02  0.51100000000E-03 0. -1.
         23    2    1    2    0    0  0.17763568394E-14  0.00000000000E+00  0.35527136788E-14  0.91188000000E+02  0.91188000000E+02 0.  0.
    9900012    2    3    3    0    0 -0.13553911039E+02 -0.28583348630E+02 -0.18843114007E+02  0.54367091961E+02  0.40000017744E+02 0.  0.
        -12    1    3    3    0    0  0.13553911039E+02  0.28583348630E+02  0.18843114007E+02  0.36820908039E+02  0.00000000000E+00 0.  1.
         11    1    4    4    0    0 -0.65196227271E+01 -0.12820836341E+02 -0.17178031424E+02  0.22404555092E+02  0.51100000000E-03 0. -1.
        -11    1    4    4    0    0  0.32090061237E+01  0.63444673356E+01  0.18471706398E+01  0.73458849506E+01  0.51100000000E-03 0.  1.
         12    1    4    4    0    0 -0.10243294436E+02 -0.22106979624E+02 -0.35122532227E+01  0.24616651919E+02  0.00000000000E+00 0. -1.
</event>
<event>
 8    1  0.1247338E-006  0.9118800E+02  0.7816164E-02  0.1184000E+00
        -11   -1    0    0    0    0  0.00000000000E+00  0.00000000000E+00  0.45593999997E+02  0.45594000000E+02  0.51100000000E-03 0.  1.
         11   -1    0    0    0    0 -0.00000000000E+00 -0.00000000000E+00 -0.45593999997E+02  0.45594000000E+02  0.51100000000E-03 0. -1.
         23    2    1    2    0    0  0.71054273576E-14  0.00000000000E+00 -0.88817841970E-15  0.91188000000E+02  0.91188000000E+02 0.  0.
    9900012    2    3    3    0    0 -0.36456355709E+02  0.27708999951E+01  0.43630277601E+01  0.54367085161E+02  0.40000002241E+02 0.  0.
         12    1    3    3    0    0  0.36456355709E+02 -0.27708999951E+01 -0.43630277601E+01  0.36820914839E+02  0.00000000000E+00 0. -1.
         11    1    4    4    0    0 -0.79188091932E+01 -0.95014199073E+01  0.74974394405E+01  0.14463613578E+02  0.51100000000E-03 0. -1.
        -11    1    4    4    0    0 -0.32022170902E+02  0.12755946285E+02  0.98865822230E+00  0.34483489386E+02  0.51100000000E-03 0.  1.
        -12    1    4    4    0    0  0.34846243864E+01 -0.48362638262E+00 -0.41230699027E+01  0.54199821969E+01  0.00000000000E+00 0.  1.
</event>
<event>
 8    1  0.1247338E-006  0.9118800E+02  0.7816164E-02  0.1184000E+00
        -11   -1    0    0    0    0  0.00000000000E+00  0.00000000000E+00  0.45593999997E+02  0.45594000000E+02  0.51100000000E-03 0.  1.
         11   -1    0    0    0    0 -0.00000000000E+00 -0.00000000000E+00 -0.45593999997E+02  0.45594000000E+02  0.51100000000E-03 0. -1.
         23    2    1    2    0    0  0.00000000000E+00  0.00000000000E+00  0.35527136788E-14  0.91188000000E+02  0.91188000000E+02 0.  0.
    9900012    2    3    3    0    0 -0.18025567908E+02  0.14848853758E+02  0.28466984023E+02  0.54367099200E+02  0.40000034246E+02 0.  0.
         12    1    3    3    0    0  0.18025567908E+02 -0.14848853758E+02 -0.28466984023E+02  0.36820900800E+02  0.00000000000E+00 0. -1.
         11    1    4    4    0    0 -0.24971371714E+01  0.24442609457E+01 -0.77409557066E+01  0.84930854897E+01  0.51100000000E-03 0. -1.
        -11    1    4    4    0    0 -0.64617500825E+01  0.16645618144E+02  0.19874858337E+02  0.26717799530E+02  0.51100000000E-03 0.  1.
         12    1    4    4    0    0 -0.90666806543E+01 -0.42410253314E+01  0.16333081393E+02  0.19156214181E+02  0.00000000000E+00 0. -1.
</event>
<event>
 8    1  0.1247338E-006  0.9118800E+02  0.7816164E-02  0.1184000E+00
        -11   -1    0    0    0    0  0.00000000000E+00  0.00000000000E+00  0.45593999997E+02  0.45594000000E+02  0.51100000000E-03 0.  1.
         11   -1    0    0    0    0 -0.00000000000E+00 -0.00000000000E+00 -0.45593999997E+02  0.45594000000E+02  0.51100000000E-03 0. -1.
         23    2    1    2    0    0 -0.35527136788E-14 -0.71054273576E-14  0.00000000000E+00  0.91188000000E+02  0.91188000000E+02 0.  0.
    9900012    2    3    3    0    0 -0.18206561466E+02 -0.31803199058E+02  0.35848469457E+01  0.54367170591E+02  0.40000196995E+02 0.  0.
        -12    1    3    3    0    0  0.18206561466E+02  0.31803199058E+02 -0.35848469457E+01  0.36820829409E+02  0.00000000000E+00 0.  1.
         11    1    4    4    0    0  0.61447481042E+01 -0.73763894274E+01 -0.56736657844E+01  0.11151660591E+02  0.51100000000E-03 0. -1.
        -11    1    4    4    0    0  0.13572627427E+01 -0.12768979494E+02  0.76378616920E+01  0.14940747336E+02  0.51100000000E-03 0.  1.
         12    1    4    4    0    0 -0.25708572313E+02 -0.11657830137E+02  0.16206510382E+01  0.28274762664E+02  0.00000000000E+00 0. -1.
</event>
<event>
 8    1  0.1247338E-006  0.9118800E+02  0.7816164E-02  0.1184000E+00
        -11   -1    0    0    0    0  0.00000000000E+00  0.00000000000E+00  0.45593999997E+02  0.45594000000E+02  0.51100000000E-03 0.  1.
         11   -1    0    0    0    0 -0.00000000000E+00 -0.00000000000E+00 -0.45593999997E+02  0.45594000000E+02  0.51100000000E-03 0. -1.
         23    2    1    2    0    0  0.00000000000E+00  0.00000000000E+00  0.00000000000E+00  0.91188000000E+02  0.91188000000E+02 0.  0.
    9900012    2    3    3    0    0  0.34085631647E+02 -0.50816261509E+01 -0.12966526689E+02  0.54367027396E+02  0.39999870555E+02 0.  0.
        -12    1    3    3    0    0 -0.34085631647E+02  0.50816261509E+01  0.12966526689E+02  0.36820972604E+02  0.00000000000E+00 0.  1.
         11    1    4    4    0    0  0.10382920611E+02 -0.31204867842E+01  0.40724906013E+01  0.11581349582E+02  0.51100000000E-03 0. -1.
        -11    1    4    4    0    0  0.59109623797E+01 -0.31567843524E+01  0.90033068326E+01  0.11223381749E+02  0.51100000000E-03 0.  1.
        -12    1    4    4    0    0  0.17791748656E+02  0.11956449857E+01 -0.26042324123E+02  0.31562296065E+02  0.00000000000E+00 0.  1.
</event>
<event>
 8    1  0.1247338E-006  0.9118800E+02  0.7816164E-02  0.1184000E+00
        -11   -1    0    0    0    0  0.00000000000E+00  0.00000000000E+00  0.45593999997E+02  0.45594000000E+02  0.51100000000E-03 0. -1.
         11   -1    0    0    0    0 -0.00000000000E+00 -0.00000000000E+00 -0.45593999997E+02  0.45594000000E+02  0.51100000000E-03 0.  1.
         23    2    1    2    0    0  0.44408920985E-15  0.35527136788E-14 -0.71054273576E-14  0.91188000000E+02  0.91188000000E+02 0.  0.
    9900012    2    3    3    0    0  0.21587442190E+01 -0.27036441281E+02  0.24902839509E+02  0.54367071857E+02  0.39999971912E+02 0.  0.
        -12    1    3    3    0    0 -0.21587442190E+01  0.27036441281E+02 -0.24902839509E+02  0.36820928143E+02  0.00000000000E+00 0.  1.
         11    1    4    4    0    0  0.10288798500E+02 -0.20043285531E+02  0.25477511195E+02  0.34010237376E+02  0.51100000000E-03 0. -1.
        -11    1    4    4    0    0  0.39890644351E+01 -0.34615887853E+01 -0.47067885925E+01  0.70745382253E+01  0.51100000000E-03 0.  1.
        -12    1    4    4    0    0 -0.12119118716E+02 -0.35315669647E+01  0.41321169064E+01  0.13282296255E+02  0.00000000000E+00 0.  1.
</event>
<event>
 8    1  0.1247338E-006  0.9118800E+02  0.7816164E-02  0.1184000E+00
        -11   -1    0    0    0    0  0.00000000000E+00  0.00000000000E+00  0.45593999997E+02  0.45594000000E+02  0.51100000000E-03 0. -1.
         11   -1    0    0    0    0 -0.00000000000E+00 -0.00000000000E+00 -0.45593999997E+02  0.45594000000E+02  0.51100000000E-03 0.  1.
         23    2    1    2    0    0 -0.35527136788E-14  0.00000000000E+00  0.00000000000E+00  0.91188000000E+02  0.91188000000E+02 0.  0.
    9900012    2    3    3    0    0 -0.25458823718E+02 -0.18800304143E+02 -0.18819548479E+02  0.54367101777E+02  0.40000040122E+02 0.  0.
         12    1    3    3    0    0  0.25458823718E+02  0.18800304143E+02  0.18819548479E+02  0.36820898223E+02  0.00000000000E+00 0. -1.
         11    1    4    4    0    0 -0.13989563247E+02 -0.14926709980E+02 -0.23715040908E+02  0.31319605939E+02  0.51100000000E-03 0. -1.
        -11    1    4    4    0    0  0.27051472891E+01  0.35164435296E+01 -0.28617907387E+01  0.52794927262E+01  0.51100000000E-03 0.  1.
         12    1    4    4    0    0 -0.14174407760E+02 -0.73900376920E+01  0.77572831677E+01  0.17768003112E+02  0.00000000000E+00 0. -1.
</event>
<event>
 8    1  0.1247338E-006  0.9118800E+02  0.7816164E-02  0.1184000E+00
        -11   -1    0    0    0    0  0.00000000000E+00  0.00000000000E+00  0.45593999997E+02  0.45594000000E+02  0.51100000000E-03 0. -1.
         11   -1    0    0    0    0 -0.00000000000E+00 -0.00000000000E+00 -0.45593999997E+02  0.45594000000E+02  0.51100000000E-03 0.  1.
         23    2    1    2    0    0  0.14210854715E-13  0.41633363423E-16  0.77715611724E-15  0.91188000000E+02  0.91188000000E+02 0.  0.
    9900012    2    3    3    0    0  0.36819132773E+02 -0.99212290729E-01  0.34896944085E+00  0.54367079847E+02  0.39999990128E+02 0.  0.
        -12    1    3    3    0    0 -0.36819132773E+02  0.99212290729E-01 -0.34896944085E+00  0.36820920153E+02  0.00000000000E+00 0.  1.
         11    1    4    4    0    0  0.79242418767E+00  0.72561958012E+01  0.92807521679E+01  0.11807314456E+02  0.51100000000E-03 0. -1.
        -11    1    4    4    0    0 -0.38934394469E+00 -0.39662448951E+01 -0.40153710902E+01  0.56573750563E+01  0.51100000000E-03 0.  1.
         12    1    4    4    0    0  0.36416052530E+02 -0.33891631968E+01 -0.49164116369E+01  0.36902390335E+02  0.00000000000E+00 0. -1.
</event>
<event>
 8    1  0.1247338E-006  0.9118800E+02  0.7816164E-02  0.1184000E+00
        -11   -1    0    0    0    0  0.00000000000E+00  0.00000000000E+00  0.45593999997E+02  0.45594000000E+02  0.51100000000E-03 0.  1.
         11   -1    0    0    0    0 -0.00000000000E+00 -0.00000000000E+00 -0.45593999997E+02  0.45594000000E+02  0.51100000000E-03 0. -1.
         23    2    1    2    0    0  0.00000000000E+00  0.00000000000E+00  0.26645352591E-14  0.91188000000E+02  0.91188000000E+02 0.  0.
    9900012    2    3    3    0    0 -0.16174874204E+02  0.32875220027E+02 -0.36569187625E+01  0.54367086077E+02  0.40000004329E+02 0.  0.
         12    1    3    3    0    0  0.16174874204E+02 -0.32875220027E+02  0.36569187625E+01  0.36820913923E+02  0.00000000000E+00 0. -1.
         11    1    4    4    0    0 -0.54318356924E+01  0.13706554920E+02 -0.10312213850E+02  0.17992116094E+02  0.51100000000E-03 0. -1.
        -11    1    4    4    0    0 -0.15539231539E+02  0.20563194932E+02  0.12534459020E+02  0.28660519287E+02  0.51100000000E-03 0.  1.
         12    1    4    4    0    0  0.47961930278E+01 -0.13945298257E+01 -0.58791639320E+01  0.77144506955E+01  0.00000000000E+00 0. -1.
</event>
<event>
 8    1  0.1247338E-006  0.9118800E+02  0.7816164E-02  0.1184000E+00
        -11   -1    0    0    0    0  0.00000000000E+00  0.00000000000E+00  0.45593999997E+02  0.45594000000E+02  0.51100000000E-03 0.  1.
         11   -1    0    0    0    0 -0.00000000000E+00 -0.00000000000E+00 -0.45593999997E+02  0.45594000000E+02  0.51100000000E-03 0. -1.
         23    2    1    2    0    0  0.00000000000E+00  0.35527136788E-14  0.88817841970E-15  0.91188000000E+02  0.91188000000E+02 0.  0.
    9900012    2    3    3    0    0  0.25028726558E+02 -0.26067858824E+02  0.70577748586E+01  0.54367046688E+02  0.39999914535E+02 0.  0.
        -12    1    3    3    0    0 -0.25028726558E+02  0.26067858824E+02 -0.70577748586E+01  0.36820953312E+02  0.00000000000E+00 0.  1.
         11    1    4    4    0    0  0.20435289004E+01 -0.12351330473E+02 -0.27918814764E+01  0.12826767997E+02  0.51100000000E-03 0. -1.
        -11    1    4    4    0    0  0.76600380771E+01 -0.18389671385E+02  0.14748131248E+02  0.24786358598E+02  0.51100000000E-03 0.  1.
         12    1    4    4    0    0  0.15325159581E+02  0.46731430339E+01 -0.48984749129E+01  0.16753920093E+02  0.00000000000E+00 0. -1.
</event>
<event>
 8    1  0.1247338E-006  0.9118800E+02  0.7816164E-02  0.1184000E+00
        -11   -1    0    0    0    0  0.00000000000E+00  0.00000000000E+00  0.45593999997E+02  0.45594000000E+02  0.51100000000E-03 0.  1.
         11   -1    0    0    0    0 -0.00000000000E+00 -0.00000000000E+00 -0.45593999997E+02  0.45594000000E+02  0.51100000000E-03 0. -1.
         23    2    1    2    0    0  0.17763568394E-14  0.00000000000E+00  0.00000000000E+00  0.91188000000E+02  0.91188000000E+02 0.  0.
    9900012    2    3    3    0    0 -0.10380890155E+02  0.22389935075E+01  0.35256159502E+02  0.54367180412E+02  0.40000219384E+02 0.  0.
         12    1    3    3    0    0  0.10380890155E+02 -0.22389935075E+01 -0.35256159502E+02  0.36820819588E+02  0.00000000000E+00 0. -1.
         11    1    4    4    0    0  0.55974713998E+01  0.80370895199E+01  0.25157187111E+01  0.10112137999E+02  0.51100000000E-03 0. -1.
        -11    1    4    4    0    0  0.65095547265E+01 -0.39981893040E+00  0.89728799925E+01  0.11092643217E+02  0.51100000000E-03 0.  1.
         12    1    4    4    0    0 -0.22487916281E+02 -0.53982770820E+01  0.23767560798E+02  0.33162399196E+02  0.00000000000E+00 0. -1.
</event>
<event>
 8    1  0.1247338E-006  0.9118800E+02  0.7816164E-02  0.1184000E+00
        -11   -1    0    0    0    0  0.00000000000E+00  0.00000000000E+00  0.45593999997E+02  0.45594000000E+02  0.51100000000E-03 0.  1.
         11   -1    0    0    0    0 -0.00000000000E+00 -0.00000000000E+00 -0.45593999997E+02  0.45594000000E+02  0.51100000000E-03 0. -1.
         23    2    1    2    0    0 -0.71054273576E-14  0.00000000000E+00  0.17763568394E-14  0.91188000000E+02  0.91188000000E+02 0.  0.
    9900012    2    3    3    0    0  0.31885574398E+02 -0.16208222183E+02 -0.87390875691E+01  0.54367245356E+02  0.40000367436E+02 0.  0.
        -12    1    3    3    0    0 -0.31885574398E+02  0.16208222183E+02  0.87390875691E+01  0.36820754644E+02  0.00000000000E+00 0.  1.
         11    1    4    4    0    0  0.11346132931E+02 -0.22894872289E+01 -0.16257938446E+02  0.19957380766E+02  0.51100000000E-03 0. -1.
        -11    1    4    4    0    0  0.27538672511E+01  0.61066866358E-01 -0.70047242131E+01  0.75268635940E+01  0.51100000000E-03 0.  1.
        -12    1    4    4    0    0  0.17785574215E+02 -0.13979801821E+02  0.14523575091E+02  0.26883000996E+02  0.00000000000E+00 0.  1.
</event>
<event>
 8    1  0.1247338E-006  0.9118800E+02  0.7816164E-02  0.1184000E+00
        -11   -1    0    0    0    0  0.00000000000E+00  0.00000000000E+00  0.45593999997E+02  0.45594000000E+02  0.51100000000E-03 0. -1.
         11   -1    0    0    0    0 -0.00000000000E+00 -0.00000000000E+00 -0.45593999997E+02  0.45594000000E+02  0.51100000000E-03 0.  1.
         23    2    1    2    0    0  0.00000000000E+00  0.00000000000E+00 -0.13322676296E-14  0.91188000000E+02  0.91188000000E+02 0.  0.
    9900012    2    3    3    0    0  0.22321895757E+02  0.29048448371E+02  0.37017190397E+01  0.54367053423E+02  0.39999929888E+02 0.  0.
         12    1    3    3    0    0 -0.22321895757E+02 -0.29048448371E+02 -0.37017190397E+01  0.36820946577E+02  0.00000000000E+00 0. -1.
         11    1    4    4    0    0  0.66786356638E+01  0.21259071806E+02  0.16630526404E+02  0.27805156305E+02  0.51100000000E-03 0. -1.
        -11    1    4    4    0    0  0.55853827256E+01  0.64183344423E+01  0.17779565218E+01  0.86921025569E+01  0.51100000000E-03 0.  1.
         12    1    4    4    0    0  0.10057877368E+02  0.13710421230E+01 -0.14706763887E+02  0.17869794561E+02  0.00000000000E+00 0. -1.
</event>
<event>
 8    1  0.1247338E-006  0.9118800E+02  0.7816164E-02  0.1184000E+00
        -11   -1    0    0    0    0  0.00000000000E+00  0.00000000000E+00  0.45593999997E+02  0.45594000000E+02  0.51100000000E-03 0. -1.
         11   -1    0    0    0    0 -0.00000000000E+00 -0.00000000000E+00 -0.45593999997E+02  0.45594000000E+02  0.51100000000E-03 0.  1.
         23    2    1    2    0    0  0.00000000000E+00  0.17763568394E-14  0.00000000000E+00  0.91188000000E+02  0.91188000000E+02 0.  0.
    9900012    2    3    3    0    0 -0.30563681728E+02 -0.10179573682E+02 -0.17833013014E+02  0.54367099491E+02  0.40000034911E+02 0.  0.
         12    1    3    3    0    0  0.30563681728E+02  0.10179573682E+02  0.17833013014E+02  0.36820900509E+02  0.00000000000E+00 0. -1.
         11    1    4    4    0    0 -0.30651760715E+02 -0.23775926061E+01  0.15416193083E+01  0.30782462083E+02  0.51100000000E-03 0. -1.
        -11    1    4    4    0    0  0.23330589685E+01 -0.18274250815E+01 -0.16176604173E+02  0.16445825288E+02  0.51100000000E-03 0.  1.
         12    1    4    4    0    0 -0.22449799811E+01 -0.59745559945E+01 -0.31980281496E+01  0.71388121205E+01  0.00000000000E+00 0. -1.
</event>
<event>
 8    1  0.1247338E-006  0.9118800E+02  0.7816164E-02  0.1184000E+00
        -11   -1    0    0    0    0  0.00000000000E+00  0.00000000000E+00  0.45593999997E+02  0.45594000000E+02  0.51100000000E-03 0.  1.
         11   -1    0    0    0    0 -0.00000000000E+00 -0.00000000000E+00 -0.45593999997E+02  0.45594000000E+02  0.51100000000E-03 0. -1.
         23    2    1    2    0    0  0.88817841970E-15  0.00000000000E+00  0.71054273576E-14  0.91188000000E+02  0.91188000000E+02 0.  0.
    9900012    2    3    3    0    0  0.69110947999E+01 -0.22520120688E+02  0.28299488494E+02  0.54367080455E+02  0.39999991513E+02 0.  0.
         12    1    3    3    0    0 -0.69110947999E+01  0.22520120688E+02 -0.28299488494E+02  0.36820919545E+02  0.00000000000E+00 0. -1.
         11    1    4    4    0    0 -0.41573255159E+01 -0.18368060903E+02  0.14377166395E+02  0.23693288724E+02  0.51100000000E-03 0. -1.
        -11    1    4    4    0    0  0.18463345959E+02 -0.42859015411E+01  0.61075247197E+01  0.19913963806E+02  0.51100000000E-03 0.  1.
        -12    1    4    4    0    0 -0.73949256429E+01  0.13384175620E+00  0.78147973794E+01  0.10759827924E+02  0.00000000000E+00 0.  1.
</event>
<event>
 8    1  0.1247338E-006  0.9118800E+02  0.7816164E-02  0.1184000E+00
        -11   -1    0    0    0    0  0.00000000000E+00  0.00000000000E+00  0.45593999997E+02  0.45594000000E+02  0.51100000000E-03 0.  1.
         11   -1    0    0    0    0 -0.00000000000E+00 -0.00000000000E+00 -0.45593999997E+02  0.45594000000E+02  0.51100000000E-03 0. -1.
         23    2    1    2    0    0  0.71054273576E-14  0.22204460493E-15  0.00000000000E+00  0.91188000000E+02  0.91188000000E+02 0.  0.
    9900012    2    3    3    0    0  0.31458550386E+02 -0.94341229496E+00  0.19111501733E+02  0.54367083150E+02  0.39999997658E+02 0.  0.
         12    1    3    3    0    0 -0.31458550386E+02  0.94341229496E+00 -0.19111501733E+02  0.36820916850E+02  0.00000000000E+00 0. -1.
         11    1    4    4    0    0 -0.36929547502E+01  0.13932547239E+01  0.10782193461E+02  0.11481932312E+02  0.51100000000E-03 0. -1.
        -11    1    4    4    0    0  0.76083634518E+01 -0.31195859996E+01  0.12555517336E+02  0.15008665066E+02  0.51100000000E-03 0.  1.
        -12    1    4    4    0    0  0.27543141685E+02  0.78291898073E+00 -0.42262090643E+01  0.27876485773E+02  0.00000000000E+00 0.  1.
</event>
<event>
 8    1  0.1247338E-006  0.9118800E+02  0.7816164E-02  0.1184000E+00
        -11   -1    0    0    0    0  0.00000000000E+00  0.00000000000E+00  0.45593999997E+02  0.45594000000E+02  0.51100000000E-03 0. -1.
         11   -1    0    0    0    0 -0.00000000000E+00 -0.00000000000E+00 -0.45593999997E+02  0.45594000000E+02  0.51100000000E-03 0.  1.
         23    2    1    2    0    0 -0.35527136788E-14  0.71054273576E-14 -0.35527136788E-14  0.91188000000E+02  0.91188000000E+02 0.  0.
    9900012    2    3    3    0    0 -0.18493885999E+02 -0.26997703957E+02  0.16878387539E+02  0.54367084691E+02  0.40000001169E+02 0.  0.
        -12    1    3    3    0    0  0.18493885999E+02  0.26997703957E+02 -0.16878387539E+02  0.36820915309E+02  0.00000000000E+00 0.  1.
         11    1    4    4    0    0 -0.22053858931E+02 -0.14081937518E+02  0.22091477080E+02  0.34244810086E+02  0.51100000000E-03 0. -1.
        -11    1    4    4    0    0 -0.15521027474E+01  0.19698860366E+01  0.15969274404E+01  0.29731551333E+01  0.51100000000E-03 0.  1.
        -12    1    4    4    0    0  0.51120756784E+01 -0.14885652476E+02 -0.68100169810E+01  0.17149119471E+02  0.00000000000E+00 0.  1.
</event>
<event>
 8    1  0.1247338E-006  0.9118800E+02  0.7816164E-02  0.1184000E+00
        -11   -1    0    0    0    0  0.00000000000E+00  0.00000000000E+00  0.45593999997E+02  0.45594000000E+02  0.51100000000E-03 0.  1.
         11   -1    0    0    0    0 -0.00000000000E+00 -0.00000000000E+00 -0.45593999997E+02  0.45594000000E+02  0.51100000000E-03 0. -1.
         23    2    1    2    0    0 -0.66613381478E-15  0.00000000000E+00  0.00000000000E+00  0.91188000000E+02  0.91188000000E+02 0.  0.
    9900012    2    3    3    0    0 -0.12855272179E+01 -0.23964692713E+02  0.27925259458E+02  0.54367092993E+02  0.40000020095E+02 0.  0.
         12    1    3    3    0    0  0.12855272179E+01  0.23964692713E+02 -0.27925259458E+02  0.36820907007E+02  0.00000000000E+00 0. -1.
         11    1    4    4    0    0  0.10717102953E+01 -0.14378628066E+02  0.71017472053E+01  0.16072595362E+02  0.51100000000E-03 0. -1.
        -11    1    4    4    0    0  0.91030807310E+01 -0.49032842582E+01  0.23459365284E+02  0.25636889341E+02  0.51100000000E-03 0.  1.
        -12    1    4    4    0    0 -0.11460318244E+02 -0.46827803883E+01 -0.26358530308E+01  0.12657608290E+02  0.00000000000E+00 0.  1.
</event>
<event>
 8    1  0.1247338E-006  0.9118800E+02  0.7816164E-02  0.1184000E+00
        -11   -1    0    0    0    0  0.00000000000E+00  0.00000000000E+00  0.45593999997E+02  0.45594000000E+02  0.51100000000E-03 0.  1.
         11   -1    0    0    0    0 -0.00000000000E+00 -0.00000000000E+00 -0.45593999997E+02  0.45594000000E+02  0.51100000000E-03 0. -1.
         23    2    1    2    0    0 -0.88817841970E-15  0.35527136788E-14 -0.71054273576E-14  0.91188000000E+02  0.91188000000E+02 0.  0.
    9900012    2    3    3    0    0  0.43486484686E+01 -0.16312830886E+02  0.32722487897E+02  0.54367076476E+02  0.39999982442E+02 0.  0.
         12    1    3    3    0    0 -0.43486484686E+01  0.16312830886E+02 -0.32722487897E+02  0.36820923524E+02  0.00000000000E+00 0. -1.
         11    1    4    4    0    0 -0.88750891767E+01  0.14335752565E+01  0.15173936427E+01  0.91172819216E+01  0.51100000000E-03 0. -1.
        -11    1    4    4    0    0  0.79309158408E+01 -0.23058526572E+02  0.18947999460E+02  0.30880766790E+02  0.51100000000E-03 0.  1.
         12    1    4    4    0    0  0.52928218045E+01  0.53121204294E+01  0.12257094794E+02  0.14369027765E+02  0.00000000000E+00 0. -1.
</event>
<event>
 8    1  0.1247338E-006  0.9118800E+02  0.7816164E-02  0.1184000E+00
        -11   -1    0    0    0    0  0.00000000000E+00  0.00000000000E+00  0.45593999997E+02  0.45594000000E+02  0.51100000000E-03 0.  1.
         11   -1    0    0    0    0 -0.00000000000E+00 -0.00000000000E+00 -0.45593999997E+02  0.45594000000E+02  0.51100000000E-03 0. -1.
         23    2    1    2    0    0  0.00000000000E+00 -0.17763568394E-14  0.00000000000E+00  0.91188000000E+02  0.91188000000E+02 0.  0.
    9900012    2    3    3    0    0  0.96589579011E+01  0.94576948317E+01 -0.34249615520E+02  0.54367087158E+02  0.40000006793E+02 0.  0.
        -12    1    3    3    0    0 -0.96589579011E+01 -0.94576948317E+01  0.34249615520E+02  0.36820912842E+02  0.00000000000E+00 0.  1.
         11    1    4    4    0    0 -0.11024413581E+01  0.12827294256E+02 -0.15137297407E+02  0.19871905493E+02  0.51100000000E-03 0. -1.
        -11    1    4    4    0    0  0.10091548135E+02 -0.12475056487E+02 -0.19626254198E+02  0.25350665321E+02  0.51100000000E-03 0.  1.
        -12    1    4    4    0    0  0.66985112438E+00  0.91054570628E+01  0.51393608486E+00  0.91445163432E+01  0.00000000000E+00 0.  1.
</event>
<event>
 8    1  0.1247338E-006  0.9118800E+02  0.7816164E-02  0.1184000E+00
        -11   -1    0    0    0    0  0.00000000000E+00  0.00000000000E+00  0.45593999997E+02  0.45594000000E+02  0.51100000000E-03 0.  1.
         11   -1    0    0    0    0 -0.00000000000E+00 -0.00000000000E+00 -0.45593999997E+02  0.45594000000E+02  0.51100000000E-03 0. -1.
         23    2    1    2    0    0 -0.27755575616E-15  0.00000000000E+00  0.71054273576E-14  0.91188000000E+02  0.91188000000E+02 0.  0.
    9900012    2    3    3    0    0  0.48860520311E+00  0.19741091793E+02 -0.31077803323E+02  0.54367091543E+02  0.40000016790E+02 0.  0.
        -12    1    3    3    0    0 -0.48860520311E+00 -0.19741091793E+02  0.31077803323E+02  0.36820908457E+02  0.00000000000E+00 0.  1.
         11    1    4    4    0    0 -0.47835221726E+01  0.23009114684E+02 -0.32386808244E+02  0.40015082049E+02  0.51100000000E-03 0. -1.
        -11    1    4    4    0    0 -0.41837488901E+01 -0.20595652211E+01 -0.34842635403E+00  0.46762126621E+01  0.51100000000E-03 0.  1.
         12    1    4    4    0    0  0.94558762658E+01 -0.12084576698E+01  0.16574312746E+01  0.96757968315E+01  0.00000000000E+00 0. -1.
</event>
<event>
 8    1  0.1247338E-006  0.9118800E+02  0.7816164E-02  0.1184000E+00
        -11   -1    0    0    0    0  0.00000000000E+00  0.00000000000E+00  0.45593999997E+02  0.45594000000E+02  0.51100000000E-03 0. -1.
         11   -1    0    0    0    0 -0.00000000000E+00 -0.00000000000E+00 -0.45593999997E+02  0.45594000000E+02  0.51100000000E-03 0.  1.
         23    2    1    2    0    0  0.00000000000E+00 -0.17763568394E-14  0.35527136788E-14  0.91188000000E+02  0.91188000000E+02 0.  0.
    9900012    2    3    3    0    0 -0.21932998180E+02  0.15164506993E+02 -0.25392140264E+02  0.54367089247E+02  0.40000011556E+02 0.  0.
         12    1    3    3    0    0  0.21932998180E+02 -0.15164506993E+02  0.25392140264E+02  0.36820910753E+02  0.00000000000E+00 0. -1.
         11    1    4    4    0    0 -0.89928955768E+01  0.16131050091E+02 -0.20349754132E+02  0.27480819518E+02  0.51100000000E-03 0.  1.
        -11    1    4    4    0    0 -0.13062389778E+02 -0.10382041283E+02 -0.12416060823E+01  0.16731837730E+02  0.51100000000E-03 0. -1.
         12    1    4    4    0    0  0.12228717446E+00  0.94154981851E+01 -0.38007800495E+01  0.10154431998E+02  0.00000000000E+00 0. -1.
</event>
<event>
 8    1  0.1247338E-006  0.9118800E+02  0.7816164E-02  0.1184000E+00
        -11   -1    0    0    0    0  0.00000000000E+00  0.00000000000E+00  0.45593999997E+02  0.45594000000E+02  0.51100000000E-03 0.  1.
         11   -1    0    0    0    0 -0.00000000000E+00 -0.00000000000E+00 -0.45593999997E+02  0.45594000000E+02  0.51100000000E-03 0. -1.
         23    2    1    2    0    0  0.00000000000E+00 -0.35527136788E-14 -0.35527136788E-14  0.91188000000E+02  0.91188000000E+02 0.  0.
    9900012    2    3    3    0    0 -0.17177657536E+02 -0.19136075433E+02 -0.26353675334E+02  0.54367115913E+02  0.40000072346E+02 0.  0.
        -12    1    3    3    0    0  0.17177657536E+02  0.19136075433E+02  0.26353675334E+02  0.36820884087E+02  0.00000000000E+00 0.  1.
         11    1    4    4    0    0  0.29894427422E+01 -0.81989729324E+01 -0.79201639613E+01  0.11785114445E+02  0.51100000000E-03 0. -1.
        -11    1    4    4    0    0 -0.21407033366E+02  0.20119164937E+01 -0.19582409784E+01  0.21590358809E+02  0.51100000000E-03 0.  1.
        -12    1    4    4    0    0  0.12399330878E+01 -0.12949018994E+02 -0.16475270394E+02  0.20991642659E+02  0.00000000000E+00 0.  1.
</event>
<event>
 8    1  0.1247338E-006  0.9118800E+02  0.7816164E-02  0.1184000E+00
        -11   -1    0    0    0    0  0.00000000000E+00  0.00000000000E+00  0.45593999997E+02  0.45594000000E+02  0.51100000000E-03 0.  1.
         11   -1    0    0    0    0 -0.00000000000E+00 -0.00000000000E+00 -0.45593999997E+02  0.45594000000E+02  0.51100000000E-03 0. -1.
         23    2    1    2    0    0 -0.35527136788E-14 -0.88817841970E-15 -0.35527136788E-14  0.91188000000E+02  0.91188000000E+02 0.  0.
    9900012    2    3    3    0    0  0.25526161759E+02  0.61531783946E+01 -0.25813431818E+02  0.54367084738E+02  0.40000001278E+02 0.  0.
        -12    1    3    3    0    0 -0.25526161759E+02 -0.61531783946E+01  0.25813431818E+02  0.36820915262E+02  0.00000000000E+00 0.  1.
         11    1    4    4    0    0 -0.30101865797E+01 -0.64688092840E+01 -0.79057346184E+01  0.10649289033E+02  0.51100000000E-03 0. -1.
        -11    1    4    4    0    0 -0.54859889883E+00 -0.11823549262E+01  0.43743813766E+01  0.45644426398E+01  0.51100000000E-03 0.  1.
         12    1    4    4    0    0  0.29084947237E+02  0.13804342605E+02 -0.22282078576E+02  0.39153353065E+02  0.00000000000E+00 0. -1.
</event>
<event>
 8    1  0.1247338E-006  0.9118800E+02  0.7816164E-02  0.1184000E+00
        -11   -1    0    0    0    0  0.00000000000E+00  0.00000000000E+00  0.45593999997E+02  0.45594000000E+02  0.51100000000E-03 0. -1.
         11   -1    0    0    0    0 -0.00000000000E+00 -0.00000000000E+00 -0.45593999997E+02  0.45594000000E+02  0.51100000000E-03 0.  1.
         23    2    1    2    0    0  0.00000000000E+00  0.00000000000E+00 -0.35527136788E-14  0.91188000000E+02  0.91188000000E+02 0.  0.
    9900012    2    3    3    0    0 -0.25244756698E+02  0.17124429272E+02 -0.20621265627E+02  0.54367076400E+02  0.39999982270E+02 0.  0.
         12    1    3    3    0    0  0.25244756698E+02 -0.17124429272E+02  0.20621265627E+02  0.36820923600E+02  0.00000000000E+00 0. -1.
         11    1    4    4    0    0 -0.15597472003E+01 -0.28848194666E+01  0.34325103091E+01  0.47473278765E+01  0.51100000000E-03 0. -1.
        -11    1    4    4    0    0 -0.65134523709E+01 -0.28881203752E+01 -0.19343376548E+02  0.20613891376E+02  0.51100000000E-03 0.  1.
         12    1    4    4    0    0 -0.17171557127E+02  0.22897369114E+02 -0.47103993876E+01  0.29005857148E+02  0.00000000000E+00 0. -1.
</event>
<event>
 8    1  0.1247338E-006  0.9118800E+02  0.7816164E-02  0.1184000E+00
        -11   -1    0    0    0    0  0.00000000000E+00  0.00000000000E+00  0.45593999997E+02  0.45594000000E+02  0.51100000000E-03 0. -1.
         11   -1    0    0    0    0 -0.00000000000E+00 -0.00000000000E+00 -0.45593999997E+02  0.45594000000E+02  0.51100000000E-03 0.  1.
         23    2    1    2    0    0  0.00000000000E+00  0.00000000000E+00 -0.22204460493E-15  0.91188000000E+02  0.91188000000E+02 0.  0.
    9900012    2    3    3    0    0 -0.12059005216E+02 -0.34750442919E+02  0.16641638194E+01  0.54367050377E+02  0.39999922945E+02 0.  0.
         12    1    3    3    0    0  0.12059005216E+02  0.34750442919E+02 -0.16641638194E+01  0.36820949623E+02  0.00000000000E+00 0. -1.
         11    1    4    4    0    0 -0.86406472368E+01 -0.19491456243E+02  0.19933305937E+01  0.21413804385E+02  0.51100000000E-03 0. -1.
        -11    1    4    4    0    0 -0.15981473559E+02 -0.11088196701E+02 -0.22352348349E+01  0.19579373795E+02  0.51100000000E-03 0.  1.
        -12    1    4    4    0    0  0.12563115580E+02 -0.41707899756E+01  0.19060680606E+01  0.13373872197E+02  0.00000000000E+00 0.  1.
</event>
<event>
 8    1  0.1247338E-006  0.9118800E+02  0.7816164E-02  0.1184000E+00
        -11   -1    0    0    0    0  0.00000000000E+00  0.00000000000E+00  0.45593999997E+02  0.45594000000E+02  0.51100000000E-03 0.  1.
         11   -1    0    0    0    0 -0.00000000000E+00 -0.00000000000E+00 -0.45593999997E+02  0.45594000000E+02  0.51100000000E-03 0. -1.
         23    2    1    2    0    0 -0.71054273576E-14 -0.18873791419E-14 -0.35527136788E-14  0.91188000000E+02  0.91188000000E+02 0.  0.
    9900012    2    3    3    0    0 -0.33886030769E+02 -0.79282649114E+00 -0.14383579634E+02  0.54367095364E+02  0.40000025501E+02 0.  0.
        -12    1    3    3    0    0  0.33886030769E+02  0.79282649114E+00  0.14383579634E+02  0.36820904636E+02  0.00000000000E+00 0.  1.
         11    1    4    4    0    0 -0.19224621319E+02 -0.17332571998E+02 -0.84649566983E+01  0.27233428155E+02  0.51100000000E-03 0. -1.
        -11    1    4    4    0    0 -0.14141804043E+02  0.19153602944E+02 -0.55046988279E+01  0.24436710842E+02  0.51100000000E-03 0.  1.
        -12    1    4    4    0    0 -0.51960540718E+00 -0.26138574369E+01 -0.41392410814E+00  0.26969563673E+01  0.00000000000E+00 0.  1.
</event>
<event>
 8    1  0.1247338E-006  0.9118800E+02  0.7816164E-02  0.1184000E+00
        -11   -1    0    0    0    0  0.00000000000E+00  0.00000000000E+00  0.45593999997E+02  0.45594000000E+02  0.51100000000E-03 0.  1.
         11   -1    0    0    0    0 -0.00000000000E+00 -0.00000000000E+00 -0.45593999997E+02  0.45594000000E+02  0.51100000000E-03 0. -1.
         23    2    1    2    0    0  0.00000000000E+00  0.88817841970E-15  0.00000000000E+00  0.91188000000E+02  0.91188000000E+02 0.  0.
    9900012    2    3    3    0    0 -0.35833410026E+02 -0.74616669338E+01 -0.40085379623E+01  0.54367107505E+02  0.40000053179E+02 0.  0.
        -12    1    3    3    0    0  0.35833410026E+02  0.74616669338E+01  0.40085379623E+01  0.36820892495E+02  0.00000000000E+00 0.  1.
         11    1    4    4    0    0 -0.18016692615E+02 -0.99731643930E+01 -0.17446619572E+02  0.26989808364E+02  0.51100000000E-03 0. -1.
        -11    1    4    4    0    0 -0.15279065902E+01 -0.41575986875E+01 -0.10821989315E+01  0.45597456270E+01  0.51100000000E-03 0.  1.
        -12    1    4    4    0    0 -0.16288810821E+02  0.66690961467E+01  0.14520280541E+02  0.22817553514E+02  0.00000000000E+00 0.  1.
</event>
<event>
 8    1  0.1247338E-006  0.9118800E+02  0.7816164E-02  0.1184000E+00
        -11   -1    0    0    0    0  0.00000000000E+00  0.00000000000E+00  0.45593999997E+02  0.45594000000E+02  0.51100000000E-03 0. -1.
         11   -1    0    0    0    0 -0.00000000000E+00 -0.00000000000E+00 -0.45593999997E+02  0.45594000000E+02  0.51100000000E-03 0.  1.
         23    2    1    2    0    0 -0.17763568394E-14  0.17763568394E-14  0.00000000000E+00  0.91188000000E+02  0.91188000000E+02 0.  0.
    9900012    2    3    3    0    0  0.15445029196E+02 -0.14321442852E+02 -0.30201426009E+02  0.54367098529E+02  0.40000032716E+02 0.  0.
         12    1    3    3    0    0 -0.15445029196E+02  0.14321442852E+02  0.30201426009E+02  0.36820901471E+02  0.00000000000E+00 0. -1.
         11    1    4    4    0    0  0.21218963480E+02 -0.16788739396E+02 -0.25931890187E+02  0.37477581440E+02  0.51100000000E-03 0. -1.
        -11    1    4    4    0    0 -0.96813745180E+01  0.34745444159E+01 -0.66080379048E+01  0.12225695754E+02  0.51100000000E-03 0.  1.
         12    1    4    4    0    0  0.39074402331E+01 -0.10072478712E+01  0.23385020829E+01  0.46638213345E+01  0.00000000000E+00 0. -1.
</event>
<event>
 8    1  0.1247338E-006  0.9118800E+02  0.7816164E-02  0.1184000E+00
        -11   -1    0    0    0    0  0.00000000000E+00  0.00000000000E+00  0.45593999997E+02  0.45594000000E+02  0.51100000000E-03 0.  1.
         11   -1    0    0    0    0 -0.00000000000E+00 -0.00000000000E+00 -0.45593999997E+02  0.45594000000E+02  0.51100000000E-03 0. -1.
         23    2    1    2    0    0  0.00000000000E+00  0.44408920985E-15  0.00000000000E+00  0.91188000000E+02  0.91188000000E+02 0.  0.
    9900012    2    3    3    0    0 -0.36633821232E+02 -0.28644450707E+01  0.23533184638E+01  0.54367081878E+02  0.39999994756E+02 0.  0.
         12    1    3    3    0    0  0.36633821232E+02  0.28644450707E+01 -0.23533184638E+01  0.36820918122E+02  0.00000000000E+00 0. -1.
         11    1    4    4    0    0 -0.23617713996E+02  0.36478591173E+00  0.41022899849E+00  0.23624093024E+02  0.51100000000E-03 0. -1.
        -11    1    4    4    0    0 -0.14034421313E+02 -0.12919735680E+02 -0.37743290765E+01  0.19445567924E+02  0.51100000000E-03 0.  1.
         12    1    4    4    0    0  0.10183140775E+01  0.96905046980E+01  0.57174185418E+01  0.11297420929E+02  0.00000000000E+00 0. -1.
</event>
<event>
 8    1  0.1247338E-006  0.9118800E+02  0.7816164E-02  0.1184000E+00
        -11   -1    0    0    0    0  0.00000000000E+00  0.00000000000E+00  0.45593999997E+02  0.45594000000E+02  0.51100000000E-03 0.  1.
         11   -1    0    0    0    0 -0.00000000000E+00 -0.00000000000E+00 -0.45593999997E+02  0.45594000000E+02  0.51100000000E-03 0. -1.
         23    2    1    2    0    0  0.35527136788E-14 -0.35527136788E-14  0.13322676296E-14  0.91188000000E+02  0.91188000000E+02 0.  0.
    9900012    2    3    3    0    0 -0.24971635010E+02 -0.26877273466E+02 -0.31319828085E+01  0.54367086101E+02  0.40000004384E+02 0.  0.
        -12    1    3    3    0    0  0.24971635010E+02  0.26877273466E+02  0.31319828085E+01  0.36820913899E+02  0.00000000000E+00 0.  1.
         11    1    4    4    0    0 -0.32456788491E+02 -0.23722044318E+02  0.67373629015E+01  0.40762367018E+02  0.51100000000E-03 0. -1.
        -11    1    4    4    0    0 -0.45089533775E-01 -0.28573004593E-01  0.44987585278E+00  0.45303203715E+00  0.51100000000E-03 0.  1.
         12    1    4    4    0    0  0.75302430145E+01 -0.31266561434E+01 -0.10319221563E+02  0.13151687046E+02  0.00000000000E+00 0. -1.
</event>
<event>
 8    1  0.1247338E-006  0.9118800E+02  0.7816164E-02  0.1184000E+00
        -11   -1    0    0    0    0  0.00000000000E+00  0.00000000000E+00  0.45593999997E+02  0.45594000000E+02  0.51100000000E-03 0. -1.
         11   -1    0    0    0    0 -0.00000000000E+00 -0.00000000000E+00 -0.45593999997E+02  0.45594000000E+02  0.51100000000E-03 0.  1.
         23    2    1    2    0    0 -0.35527136788E-14 -0.88817841970E-15  0.00000000000E+00  0.91188000000E+02  0.91188000000E+02 0.  0.
    9900012    2    3    3    0    0  0.31874864626E+02  0.70696344439E+01 -0.17023019583E+02  0.54367218886E+02  0.40000307094E+02 0.  0.
        -12    1    3    3    0    0 -0.31874864626E+02 -0.70696344439E+01  0.17023019583E+02  0.36820781114E+02  0.00000000000E+00 0.  1.
         11    1    4    4    0    0  0.10440086097E+02  0.27313398098E+01  0.60004121963E+01  0.12347492120E+02  0.51100000000E-03 0. -1.
        -11    1    4    4    0    0  0.20560953320E+01  0.12834479280E+02 -0.13738299363E+02  0.18912753794E+02  0.51100000000E-03 0.  1.
         12    1    4    4    0    0  0.19378683197E+02 -0.84961846458E+01 -0.92851324154E+01  0.23106972973E+02  0.00000000000E+00 0. -1.
</event>
<event>
 8    1  0.1247338E-006  0.9118800E+02  0.7816164E-02  0.1184000E+00
        -11   -1    0    0    0    0  0.00000000000E+00  0.00000000000E+00  0.45593999997E+02  0.45594000000E+02  0.51100000000E-03 0.  1.
         11   -1    0    0    0    0 -0.00000000000E+00 -0.00000000000E+00 -0.45593999997E+02  0.45594000000E+02  0.51100000000E-03 0. -1.
         23    2    1    2    0    0  0.00000000000E+00  0.00000000000E+00  0.00000000000E+00  0.91188000000E+02  0.91188000000E+02 0.  0.
    9900012    2    3    3    0    0 -0.12709703554E+02 -0.29020539813E+02  0.18763057269E+02  0.54367073700E+02  0.39999976115E+02 0.  0.
         12    1    3    3    0    0  0.12709703554E+02  0.29020539813E+02 -0.18763057269E+02  0.36820926300E+02  0.00000000000E+00 0. -1.
         11    1    4    4    0    0 -0.65072056650E+01 -0.19162758928E+02  0.11516455199E+02  0.23284840474E+02  0.51100000000E-03 0. -1.
        -11    1    4    4    0    0 -0.75623460647E+01 -0.19111587625E+02  0.70437158821E+01  0.21726844991E+02  0.51100000000E-03 0.  1.
        -12    1    4    4    0    0  0.13598481752E+01  0.92538067400E+01  0.20288618821E+00  0.93553882360E+01  0.00000000000E+00 0.  1.
</event>
<event>
 8    1  0.1247338E-006  0.9118800E+02  0.7816164E-02  0.1184000E+00
        -11   -1    0    0    0    0  0.00000000000E+00  0.00000000000E+00  0.45593999997E+02  0.45594000000E+02  0.51100000000E-03 0.  1.
         11   -1    0    0    0    0 -0.00000000000E+00 -0.00000000000E+00 -0.45593999997E+02  0.45594000000E+02  0.51100000000E-03 0. -1.
         23    2    1    2    0    0  0.17763568394E-14  0.35527136788E-14 -0.35527136788E-14  0.91188000000E+02  0.91188000000E+02 0.  0.
    9900012    2    3    3    0    0  0.90100722891E+01  0.21746558487E+02 -0.28314056328E+02  0.54367082108E+02  0.39999995281E+02 0.  0.
        -12    1    3    3    0    0 -0.90100722891E+01 -0.21746558487E+02  0.28314056328E+02  0.36820917892E+02  0.00000000000E+00 0.  1.
         11    1    4    4    0    0 -0.12329603689E+02  0.19791233456E+02 -0.19576454984E+02  0.30445847645E+02  0.51100000000E-03 0. -1.
        -11    1    4    4    0    0  0.13563518374E+02  0.30279631025E+01 -0.80033469598E+01  0.16037180364E+02  0.51100000000E-03 0.  1.
         12    1    4    4    0    0  0.77761576045E+01 -0.10726380714E+01 -0.73425438383E+00  0.78840540981E+01  0.00000000000E+00 0. -1.
</event>
<event>
 8    1  0.1247338E-006  0.9118800E+02  0.7816164E-02  0.1184000E+00
        -11   -1    0    0    0    0  0.00000000000E+00  0.00000000000E+00  0.45593999997E+02  0.45594000000E+02  0.51100000000E-03 0. -1.
         11   -1    0    0    0    0 -0.00000000000E+00 -0.00000000000E+00 -0.45593999997E+02  0.45594000000E+02  0.51100000000E-03 0.  1.
         23    2    1    2    0    0 -0.88817841970E-15 -0.35527136788E-14  0.00000000000E+00  0.91188000000E+02  0.91188000000E+02 0.  0.
    9900012    2    3    3    0    0  0.79215919990E+01  0.25244025954E+02 -0.25607939041E+02  0.54367095501E+02  0.40000025815E+02 0.  0.
         12    1    3    3    0    0 -0.79215919990E+01 -0.25244025954E+02  0.25607939041E+02  0.36820904499E+02  0.00000000000E+00 0. -1.
         11    1    4    4    0    0 -0.88474397273E+01 -0.41736534454E+01  0.37900200640E+00  0.97898016115E+01  0.51100000000E-03 0. -1.
        -11    1    4    4    0    0  0.12959710641E+01  0.72771181165E+01 -0.44996552878E+00  0.74052993402E+01  0.51100000000E-03 0.  1.
        -12    1    4    4    0    0  0.15473060662E+02  0.22140561283E+02 -0.25536975518E+02  0.37171994550E+02  0.00000000000E+00 0.  1.
</event>
<event>
 8    1  0.1247338E-006  0.9118800E+02  0.7816164E-02  0.1184000E+00
        -11   -1    0    0    0    0  0.00000000000E+00  0.00000000000E+00  0.45593999997E+02  0.45594000000E+02  0.51100000000E-03 0.  1.
         11   -1    0    0    0    0 -0.00000000000E+00 -0.00000000000E+00 -0.45593999997E+02  0.45594000000E+02  0.51100000000E-03 0. -1.
         23    2    1    2    0    0  0.00000000000E+00  0.00000000000E+00  0.00000000000E+00  0.91188000000E+02  0.91188000000E+02 0.  0.
    9900012    2    3    3    0    0 -0.18092533465E+02 -0.84814632614E+01  0.30927419343E+02  0.54367078590E+02  0.39999987263E+02 0.  0.
         12    1    3    3    0    0  0.18092533465E+02  0.84814632614E+01 -0.30927419343E+02  0.36820921410E+02  0.00000000000E+00 0. -1.
         11    1    4    4    0    0  0.96819968330E+01 -0.12193397269E+02  0.97928261238E+01  0.18393461974E+02  0.51100000000E-03 0. -1.
        -11    1    4    4    0    0 -0.58647817199E+01  0.39610833898E+01  0.66225502343E+01  0.96924722393E+01  0.51100000000E-03 0.  1.
         12    1    4    4    0    0 -0.21909748578E+02 -0.24914938182E+00  0.14512042985E+02  0.26281144377E+02  0.00000000000E+00 0. -1.
</event>
<event>
 8    1  0.1247338E-006  0.9118800E+02  0.7816164E-02  0.1184000E+00
        -11   -1    0    0    0    0  0.00000000000E+00  0.00000000000E+00  0.45593999997E+02  0.45594000000E+02  0.51100000000E-03 0.  1.
         11   -1    0    0    0    0 -0.00000000000E+00 -0.00000000000E+00 -0.45593999997E+02  0.45594000000E+02  0.51100000000E-03 0. -1.
         23    2    1    2    0    0  0.00000000000E+00  0.00000000000E+00  0.35527136788E-14  0.91188000000E+02  0.91188000000E+02 0.  0.
    9900012    2    3    3    0    0  0.17814700241E+02  0.48451394744E+01  0.31858133999E+02  0.54367087150E+02  0.40000006775E+02 0.  0.
         12    1    3    3    0    0 -0.17814700241E+02 -0.48451394744E+01 -0.31858133999E+02  0.36820912850E+02  0.00000000000E+00 0. -1.
         11    1    4    4    0    0  0.80994440856E+01  0.58618537609E+01  0.57664864517E+01  0.11541866845E+02  0.51100000000E-03 0.  1.
        -11    1    4    4    0    0 -0.10312338453E+02 -0.53191106699E+00  0.18905830589E+02  0.21541998149E+02  0.51100000000E-03 0. -1.
         12    1    4    4    0    0  0.20027594608E+02 -0.48480321943E+00  0.71858169590E+01  0.21283222156E+02  0.00000000000E+00 0. -1.
</event>
<event>
 8    1  0.1247338E-006  0.9118800E+02  0.7816164E-02  0.1184000E+00
        -11   -1    0    0    0    0  0.00000000000E+00  0.00000000000E+00  0.45593999997E+02  0.45594000000E+02  0.51100000000E-03 0. -1.
         11   -1    0    0    0    0 -0.00000000000E+00 -0.00000000000E+00 -0.45593999997E+02  0.45594000000E+02  0.51100000000E-03 0.  1.
         23    2    1    2    0    0  0.00000000000E+00  0.00000000000E+00 -0.71054273576E-14  0.91188000000E+02  0.91188000000E+02 0.  0.
    9900012    2    3    3    0    0  0.67671716070E+01  0.11108734383E+02  0.34446798564E+02  0.54367074938E+02  0.39999978935E+02 0.  0.
        -12    1    3    3    0    0 -0.67671716070E+01 -0.11108734383E+02 -0.34446798564E+02  0.36820925062E+02  0.00000000000E+00 0.  1.
         11    1    4    4    0    0  0.11365268673E+02  0.10944224946E+02  0.32481695256E+02  0.36111022121E+02  0.51100000000E-03 0. -1.
        -11    1    4    4    0    0  0.37276340201E+01  0.15970546805E+01  0.72385795314E+01  0.82971605345E+01  0.51100000000E-03 0.  1.
        -12    1    4    4    0    0 -0.83257310863E+01 -0.14325452440E+01 -0.52734762236E+01  0.99588922817E+01  0.00000000000E+00 0.  1.
</event>
<event>
 8    1  0.1247338E-006  0.9118800E+02  0.7816164E-02  0.1184000E+00
        -11   -1    0    0    0    0  0.00000000000E+00  0.00000000000E+00  0.45593999997E+02  0.45594000000E+02  0.51100000000E-03 0. -1.
         11   -1    0    0    0    0 -0.00000000000E+00 -0.00000000000E+00 -0.45593999997E+02  0.45594000000E+02  0.51100000000E-03 0.  1.
         23    2    1    2    0    0  0.35527136788E-14  0.00000000000E+00 -0.88817841970E-15  0.91188000000E+02  0.91188000000E+02 0.  0.
    9900012    2    3    3    0    0  0.19096130465E+02  0.30950415492E+02  0.57611107166E+01  0.54367070971E+02  0.39999969892E+02 0.  0.
         12    1    3    3    0    0 -0.19096130465E+02 -0.30950415492E+02 -0.57611107166E+01  0.36820929029E+02  0.00000000000E+00 0. -1.
         11    1    4    4    0    0 -0.37814269459E+01 -0.16401877929E+01 -0.50076375712E+01  0.64858183792E+01  0.51100000000E-03 0. -1.
        -11    1    4    4    0    0  0.14313580054E+02  0.28987630557E+02 -0.16506991575E+01  0.32371068985E+02  0.51100000000E-03 0.  1.
         12    1    4    4    0    0  0.85639773575E+01  0.36029727278E+01  0.12419447445E+02  0.15510183606E+02  0.00000000000E+00 0. -1.
</event>
<event>
 8    1  0.1247338E-006  0.9118800E+02  0.7816164E-02  0.1184000E+00
        -11   -1    0    0    0    0  0.00000000000E+00  0.00000000000E+00  0.45593999997E+02  0.45594000000E+02  0.51100000000E-03 0. -1.
         11   -1    0    0    0    0 -0.00000000000E+00 -0.00000000000E+00 -0.45593999997E+02  0.45594000000E+02  0.51100000000E-03 0.  1.
         23    2    1    2    0    0  0.00000000000E+00  0.00000000000E+00  0.00000000000E+00  0.91188000000E+02  0.91188000000E+02 0.  0.
    9900012    2    3    3    0    0  0.25678055621E+02  0.75696770989E+01  0.25280704218E+02  0.54367128777E+02  0.40000101673E+02 0.  0.
        -12    1    3    3    0    0 -0.25678055621E+02 -0.75696770989E+01 -0.25280704218E+02  0.36820871223E+02  0.00000000000E+00 0.  1.
         11    1    4    4    0    0  0.27863785728E+02  0.50881436528E+01  0.22702254984E+02  0.36299754029E+02  0.51100000000E-03 0. -1.
        -11    1    4    4    0    0 -0.42131208280E+01  0.95639662247E+01  0.75442195764E+00  0.10478024137E+02  0.51100000000E-03 0.  1.
         12    1    4    4    0    0  0.20273907210E+01 -0.70824327786E+01  0.18240272760E+01  0.75893506114E+01  0.00000000000E+00 0. -1.
</event>
<event>
 8    1  0.1247338E-006  0.9118800E+02  0.7816164E-02  0.1184000E+00
        -11   -1    0    0    0    0  0.00000000000E+00  0.00000000000E+00  0.45593999997E+02  0.45594000000E+02  0.51100000000E-03 0. -1.
         11   -1    0    0    0    0 -0.00000000000E+00 -0.00000000000E+00 -0.45593999997E+02  0.45594000000E+02  0.51100000000E-03 0.  1.
         23    2    1    2    0    0  0.00000000000E+00  0.35527136788E-14 -0.88817841970E-15  0.91188000000E+02  0.91188000000E+02 0.  0.
    9900012    2    3    3    0    0 -0.22853803730E+02 -0.28153981873E+02 -0.63903839585E+01  0.54367081389E+02  0.39999993641E+02 0.  0.
         12    1    3    3    0    0  0.22853803730E+02  0.28153981873E+02  0.63903839585E+01  0.36820918611E+02  0.00000000000E+00 0. -1.
         11    1    4    4    0    0 -0.18465953077E+02 -0.90692853799E+01 -0.89186161708E+01  0.22422869464E+02  0.51100000000E-03 0. -1.
        -11    1    4    4    0    0 -0.27300761848E+01 -0.25273454676E+02  0.16050996869E+01  0.25471104658E+02  0.51100000000E-03 0.  1.
         12    1    4    4    0    0 -0.16577744679E+01  0.61887581822E+01  0.92313252544E+00  0.64731072665E+01  0.00000000000E+00 0. -1.
</event>
<event>
 8    1  0.1247338E-006  0.9118800E+02  0.7816164E-02  0.1184000E+00
        -11   -1    0    0    0    0  0.00000000000E+00  0.00000000000E+00  0.45593999997E+02  0.45594000000E+02  0.51100000000E-03 0.  1.
         11   -1    0    0    0    0 -0.00000000000E+00 -0.00000000000E+00 -0.45593999997E+02  0.45594000000E+02  0.51100000000E-03 0. -1.
         23    2    1    2    0    0  0.17763568394E-14  0.88817841970E-15  0.00000000000E+00  0.91188000000E+02  0.91188000000E+02 0.  0.
    9900012    2    3    3    0    0  0.13146915468E+02  0.78845965218E+01 -0.33477935822E+02  0.54367076118E+02  0.39999981625E+02 0.  0.
        -12    1    3    3    0    0 -0.13146915468E+02 -0.78845965218E+01  0.33477935822E+02  0.36820923882E+02  0.00000000000E+00 0.  1.
         11    1    4    4    0    0  0.35514290359E+01  0.11314722734E+02  0.34286710067E+01  0.12344690513E+02  0.51100000000E-03 0. -1.
        -11    1    4    4    0    0  0.21917460506E+01  0.69418474362E+01 -0.11750957741E+02  0.13823096783E+02  0.51100000000E-03 0.  1.
         12    1    4    4    0    0  0.74037403812E+01 -0.10371973648E+02 -0.25155649088E+02  0.28199288821E+02  0.00000000000E+00 0. -1.
</event>
<event>
 8    1  0.1247338E-006  0.9118800E+02  0.7816164E-02  0.1184000E+00
        -11   -1    0    0    0    0  0.00000000000E+00  0.00000000000E+00  0.45593999997E+02  0.45594000000E+02  0.51100000000E-03 0.  1.
         11   -1    0    0    0    0 -0.00000000000E+00 -0.00000000000E+00 -0.45593999997E+02  0.45594000000E+02  0.51100000000E-03 0. -1.
         23    2    1    2    0    0  0.00000000000E+00  0.00000000000E+00  0.00000000000E+00  0.91188000000E+02  0.91188000000E+02 0.  0.
    9900012    2    3    3    0    0 -0.26273034545E+02 -0.81676029481E+01 -0.24470349327E+02  0.54367080969E+02  0.39999992684E+02 0.  0.
        -12    1    3    3    0    0  0.26273034545E+02  0.81676029481E+01  0.24470349327E+02  0.36820919031E+02  0.00000000000E+00 0.  1.
         11    1    4    4    0    0 -0.37722315418E+01 -0.85079050291E+00 -0.21920071086E+02  0.22258550985E+02  0.51100000000E-03 0. -1.
        -11    1    4    4    0    0 -0.22036498295E+02 -0.10630815001E+02 -0.79758754475E+01  0.25733947892E+02  0.51100000000E-03 0.  1.
        -12    1    4    4    0    0 -0.46430470793E+00  0.33140025559E+01  0.54255972059E+01  0.63745820916E+01  0.00000000000E+00 0.  1.
</event>
<event>
 8    1  0.1247338E-006  0.9118800E+02  0.7816164E-02  0.1184000E+00
        -11   -1    0    0    0    0  0.00000000000E+00  0.00000000000E+00  0.45593999997E+02  0.45594000000E+02  0.51100000000E-03 0.  1.
         11   -1    0    0    0    0 -0.00000000000E+00 -0.00000000000E+00 -0.45593999997E+02  0.45594000000E+02  0.51100000000E-03 0. -1.
         23    2    1    2    0    0 -0.35527136788E-14  0.35527136788E-14  0.00000000000E+00  0.91188000000E+02  0.91188000000E+02 0.  0.
    9900012    2    3    3    0    0  0.31526086684E+02 -0.13364166782E+02 -0.13538233745E+02  0.54367097400E+02  0.40000030142E+02 0.  0.
         12    1    3    3    0    0 -0.31526086684E+02  0.13364166782E+02  0.13538233745E+02  0.36820902600E+02  0.00000000000E+00 0. -1.
         11    1    4    4    0    0  0.16444171611E+02  0.12731168489E+02 -0.78348171869E+01  0.22223361395E+02  0.51100000000E-03 0. -1.
        -11    1    4    4    0    0  0.44638697095E+00 -0.45134465067E+01  0.19948280435E+01  0.49547754622E+01  0.51100000000E-03 0.  1.
         12    1    4    4    0    0  0.14635528101E+02 -0.21581888764E+02 -0.76982446016E+01  0.27188960543E+02  0.00000000000E+00 0. -1.
</event>
<event>
 8    1  0.1247338E-006  0.9118800E+02  0.7816164E-02  0.1184000E+00
        -11   -1    0    0    0    0  0.00000000000E+00  0.00000000000E+00  0.45593999997E+02  0.45594000000E+02  0.51100000000E-03 0. -1.
         11   -1    0    0    0    0 -0.00000000000E+00 -0.00000000000E+00 -0.45593999997E+02  0.45594000000E+02  0.51100000000E-03 0.  1.
         23    2    1    2    0    0  0.17763568394E-14  0.00000000000E+00  0.88817841970E-15  0.91188000000E+02  0.91188000000E+02 0.  0.
    9900012    2    3    3    0    0  0.72988231828E+01  0.35588995905E+02  0.59941694744E+01  0.54367088590E+02  0.40000010058E+02 0.  0.
         12    1    3    3    0    0 -0.72988231828E+01 -0.35588995905E+02 -0.59941694744E+01  0.36820911410E+02  0.00000000000E+00 0. -1.
         11    1    4    4    0    0 -0.82276057708E+01  0.86986976919E+01  0.31790927159E+00  0.11977558383E+02  0.51100000000E-03 0. -1.
        -11    1    4    4    0    0  0.14621382172E+01  0.48776235317E+01 -0.10496370339E+02  0.11666312615E+02  0.51100000000E-03 0.  1.
        -12    1    4    4    0    0  0.14064290736E+02  0.22012674682E+02  0.16172630541E+02  0.30723217592E+02  0.00000000000E+00 0.  1.
</event>
<event>
 8    1  0.1247338E-006  0.9118800E+02  0.7816164E-02  0.1184000E+00
        -11   -1    0    0    0    0  0.00000000000E+00  0.00000000000E+00  0.45593999997E+02  0.45594000000E+02  0.51100000000E-03 0.  1.
         11   -1    0    0    0    0 -0.00000000000E+00 -0.00000000000E+00 -0.45593999997E+02  0.45594000000E+02  0.51100000000E-03 0. -1.
         23    2    1    2    0    0  0.44408920985E-15  0.55511151231E-15  0.00000000000E+00  0.91188000000E+02  0.91188000000E+02 0.  0.
    9900012    2    3    3    0    0 -0.35627777656E+01  0.35976575857E+00 -0.36646417421E+02  0.54367045007E+02  0.39999910702E+02 0.  0.
        -12    1    3    3    0    0  0.35627777656E+01 -0.35976575857E+00  0.36646417421E+02  0.36820954993E+02  0.00000000000E+00 0.  1.
         11    1    4    4    0    0 -0.25503917675E+01  0.12130775967E+02 -0.11541114628E+02  0.16936869570E+02  0.51100000000E-03 0. -1.
        -11    1    4    4    0    0  0.30321047115E+01  0.74576255041E+01 -0.61806458713E+01  0.10149395095E+02  0.51100000000E-03 0.  1.
        -12    1    4    4    0    0 -0.40444907097E+01 -0.19228635712E+02 -0.18924656922E+02  0.27280780342E+02  0.00000000000E+00 0.  1.
</event>
<event>
 8    1  0.1247338E-006  0.9118800E+02  0.7816164E-02  0.1184000E+00
        -11   -1    0    0    0    0  0.00000000000E+00  0.00000000000E+00  0.45593999997E+02  0.45594000000E+02  0.51100000000E-03 0. -1.
         11   -1    0    0    0    0 -0.00000000000E+00 -0.00000000000E+00 -0.45593999997E+02  0.45594000000E+02  0.51100000000E-03 0.  1.
         23    2    1    2    0    0  0.00000000000E+00  0.00000000000E+00 -0.88817841970E-15  0.91188000000E+02  0.91188000000E+02 0.  0.
    9900012    2    3    3    0    0 -0.23595767440E+02 -0.27534431608E+02 -0.63933504799E+01  0.54367080736E+02  0.39999992155E+02 0.  0.
         12    1    3    3    0    0  0.23595767440E+02  0.27534431608E+02  0.63933504799E+01  0.36820919264E+02  0.00000000000E+00 0. -1.
         11    1    4    4    0    0  0.28627573176E+01 -0.69225476518E+00 -0.17801960196E+01  0.34414668746E+01  0.51100000000E-03 0. -1.
        -11    1    4    4    0    0 -0.14775001199E+02 -0.19822517045E+02 -0.18945093107E+02  0.31147221313E+02  0.51100000000E-03 0.  1.
         12    1    4    4    0    0 -0.11683523558E+02 -0.70196597977E+01  0.14331938647E+02  0.19778392548E+02  0.00000000000E+00 0. -1.
</event>
<event>
 8    1  0.1247338E-006  0.9118800E+02  0.7816164E-02  0.1184000E+00
        -11   -1    0    0    0    0  0.00000000000E+00  0.00000000000E+00  0.45593999997E+02  0.45594000000E+02  0.51100000000E-03 0. -1.
         11   -1    0    0    0    0 -0.00000000000E+00 -0.00000000000E+00 -0.45593999997E+02  0.45594000000E+02  0.51100000000E-03 0.  1.
         23    2    1    2    0    0  0.00000000000E+00  0.00000000000E+00  0.35527136788E-14  0.91188000000E+02  0.91188000000E+02 0.  0.
    9900012    2    3    3    0    0 -0.29557685446E+02  0.17669796022E+02  0.13034577408E+02  0.54367100111E+02  0.40000036323E+02 0.  0.
        -12    1    3    3    0    0  0.29557685446E+02 -0.17669796022E+02 -0.13034577408E+02  0.36820899889E+02  0.00000000000E+00 0.  1.
         11    1    4    4    0    0 -0.19638401973E+02  0.43344927710E+01  0.74355338826E+00  0.20124798919E+02  0.51100000000E-03 0. -1.
        -11    1    4    4    0    0  0.39545942059E+01 -0.19476219348E+00 -0.62653743439E+01  0.74115898143E+01  0.51100000000E-03 0.  1.
         12    1    4    4    0    0 -0.13873877680E+02  0.13530065445E+02  0.18556398364E+02  0.26830711378E+02  0.00000000000E+00 0. -1.
</event>
<event>
 8    1  0.1247338E-006  0.9118800E+02  0.7816164E-02  0.1184000E+00
        -11   -1    0    0    0    0  0.00000000000E+00  0.00000000000E+00  0.45593999997E+02  0.45594000000E+02  0.51100000000E-03 0.  1.
         11   -1    0    0    0    0 -0.00000000000E+00 -0.00000000000E+00 -0.45593999997E+02  0.45594000000E+02  0.51100000000E-03 0. -1.
         23    2    1    2    0    0  0.00000000000E+00  0.00000000000E+00 -0.35527136788E-14  0.91188000000E+02  0.91188000000E+02 0.  0.
    9900012    2    3    3    0    0 -0.91828777008E+01  0.18773791885E+02 -0.30315015837E+02  0.54367072665E+02  0.39999973755E+02 0.  0.
        -12    1    3    3    0    0  0.91828777008E+01 -0.18773791885E+02  0.30315015837E+02  0.36820927335E+02  0.00000000000E+00 0.  1.
         11    1    4    4    0    0 -0.48022735605E+01  0.12649903231E+01 -0.73305767094E+00  0.50199009629E+01  0.51100000000E-03 0. -1.
        -11    1    4    4    0    0 -0.17520171776E+02  0.63079620274E+00 -0.17546885349E+02  0.24804183289E+02  0.51100000000E-03 0.  1.
        -12    1    4    4    0    0  0.13139567636E+02  0.16878005359E+02 -0.12035072817E+02  0.24542988414E+02  0.00000000000E+00 0.  1.
</event>
<event>
 8    1  0.1247338E-006  0.9118800E+02  0.7816164E-02  0.1184000E+00
        -11   -1    0    0    0    0  0.00000000000E+00  0.00000000000E+00  0.45593999997E+02  0.45594000000E+02  0.51100000000E-03 0.  1.
         11   -1    0    0    0    0 -0.00000000000E+00 -0.00000000000E+00 -0.45593999997E+02  0.45594000000E+02  0.51100000000E-03 0. -1.
         23    2    1    2    0    0 -0.71054273576E-14  0.00000000000E+00  0.12351231149E-14  0.91188000000E+02  0.91188000000E+02 0.  0.
    9900012    2    3    3    0    0  0.35364084045E+02 -0.10254653684E+02  0.67183592636E-01  0.54367070135E+02  0.39999967987E+02 0.  0.
        -12    1    3    3    0    0 -0.35364084045E+02  0.10254653684E+02 -0.67183592636E-01  0.36820929865E+02  0.00000000000E+00 0.  1.
         11    1    4    4    0    0 -0.57679558659E+01 -0.34952342162E+01  0.73374178127E+01  0.99661265051E+01  0.51100000000E-03 0. -1.
        -11    1    4    4    0    0  0.14024170995E+02 -0.66167743953E+01  0.22509327389E+01  0.15669262074E+02  0.51100000000E-03 0.  1.
         12    1    4    4    0    0  0.27107868916E+02 -0.14264507212E+00 -0.95211669590E+01  0.28731681556E+02  0.00000000000E+00 0. -1.
</event>
<event>
 8    1  0.1247338E-006  0.9118800E+02  0.7816164E-02  0.1184000E+00
        -11   -1    0    0    0    0  0.00000000000E+00  0.00000000000E+00  0.45593999997E+02  0.45594000000E+02  0.51100000000E-03 0. -1.
         11   -1    0    0    0    0 -0.00000000000E+00 -0.00000000000E+00 -0.45593999997E+02  0.45594000000E+02  0.51100000000E-03 0.  1.
         23    2    1    2    0    0  0.00000000000E+00  0.00000000000E+00 -0.35527136788E-14  0.91188000000E+02  0.91188000000E+02 0.  0.
    9900012    2    3    3    0    0 -0.25569510250E+02  0.11003134397E+02 -0.24102113481E+02  0.54367072591E+02  0.39999973586E+02 0.  0.
         12    1    3    3    0    0  0.25569510250E+02 -0.11003134397E+02  0.24102113481E+02  0.36820927409E+02  0.00000000000E+00 0. -1.
         11    1    4    4    0    0  0.19528691069E+01 -0.94958716345E+00 -0.14258703032E+00  0.21761766592E+01  0.51100000000E-03 0. -1.
        -11    1    4    4    0    0 -0.10234641293E+02  0.14032375730E+02  0.52855307382E+01  0.18154676711E+02  0.51100000000E-03 0.  1.
        -12    1    4    4    0    0 -0.17287738064E+02 -0.20796541701E+01 -0.29245057189E+02  0.34036219221E+02  0.00000000000E+00 0.  1.
</event>
<event>
 8    1  0.1247338E-006  0.9118800E+02  0.7816164E-02  0.1184000E+00
        -11   -1    0    0    0    0  0.00000000000E+00  0.00000000000E+00  0.45593999997E+02  0.45594000000E+02  0.51100000000E-03 0.  1.
         11   -1    0    0    0    0 -0.00000000000E+00 -0.00000000000E+00 -0.45593999997E+02  0.45594000000E+02  0.51100000000E-03 0. -1.
         23    2    1    2    0    0  0.00000000000E+00  0.17763568394E-14 -0.17763568394E-14  0.91188000000E+02  0.91188000000E+02 0.  0.
    9900012    2    3    3    0    0  0.32849345120E+02  0.85545355548E+01  0.14266017842E+02  0.54367098077E+02  0.40000031686E+02 0.  0.
         12    1    3    3    0    0 -0.32849345120E+02 -0.85545355548E+01 -0.14266017842E+02  0.36820901923E+02  0.00000000000E+00 0. -1.
         11    1    4    4    0    0  0.41337122202E+01 -0.25518304248E+01 -0.74215888454E+01  0.88701407253E+01  0.51100000000E-03 0. -1.
        -11    1    4    4    0    0  0.15041229443E+01  0.89926605442E+01 -0.20269299851E+01  0.93401699620E+01  0.51100000000E-03 0.  1.
         12    1    4    4    0    0  0.27211509955E+02  0.21137054355E+01  0.23714536673E+02  0.36156787389E+02  0.00000000000E+00 0. -1.
</event>
<event>
 8    1  0.1247338E-006  0.9118800E+02  0.7816164E-02  0.1184000E+00
        -11   -1    0    0    0    0  0.00000000000E+00  0.00000000000E+00  0.45593999997E+02  0.45594000000E+02  0.51100000000E-03 0.  1.
         11   -1    0    0    0    0 -0.00000000000E+00 -0.00000000000E+00 -0.45593999997E+02  0.45594000000E+02  0.51100000000E-03 0. -1.
         23    2    1    2    0    0  0.00000000000E+00 -0.35527136788E-14  0.53290705182E-14  0.91188000000E+02  0.91188000000E+02 0.  0.
    9900012    2    3    3    0    0  0.28625776522E+02  0.17005185012E+02 -0.15721810128E+02  0.54366990881E+02  0.39999787312E+02 0.  0.
        -12    1    3    3    0    0 -0.28625776522E+02 -0.17005185012E+02  0.15721810128E+02  0.36821009119E+02  0.00000000000E+00 0.  1.
         11    1    4    4    0    0  0.48723774997E+01  0.14262359197E+02  0.25002100272E+01  0.15277630798E+02  0.51100000000E-03 0. -1.
        -11    1    4    4    0    0 -0.15751500091E+01 -0.56589937567E+01 -0.92085168609E+01  0.10922549653E+02  0.51100000000E-03 0.  1.
         12    1    4    4    0    0  0.25328549032E+02  0.84018195720E+01 -0.90135032946E+01  0.28166810430E+02  0.00000000000E+00 0. -1.
</event>
<event>
 8    1  0.1247338E-006  0.9118800E+02  0.7816164E-02  0.1184000E+00
        -11   -1    0    0    0    0  0.00000000000E+00  0.00000000000E+00  0.45593999997E+02  0.45594000000E+02  0.51100000000E-03 0. -1.
         11   -1    0    0    0    0 -0.00000000000E+00 -0.00000000000E+00 -0.45593999997E+02  0.45594000000E+02  0.51100000000E-03 0.  1.
         23    2    1    2    0    0  0.00000000000E+00  0.00000000000E+00 -0.17763568394E-14  0.91188000000E+02  0.91188000000E+02 0.  0.
    9900012    2    3    3    0    0 -0.33215111019E+02 -0.10819317134E+02  0.11639601927E+02  0.54367060899E+02  0.39999946931E+02 0.  0.
        -12    1    3    3    0    0  0.33215111019E+02  0.10819317134E+02 -0.11639601927E+02  0.36820939101E+02  0.00000000000E+00 0.  1.
         11    1    4    4    0    0 -0.28571364743E+02  0.28844203762E+01  0.15560882261E+02  0.32661656743E+02  0.51100000000E-03 0. -1.
        -11    1    4    4    0    0 -0.20638817096E+01 -0.86369377344E+01  0.56839948868E+01  0.10543438684E+02  0.51100000000E-03 0.  1.
        -12    1    4    4    0    0 -0.25798645661E+01 -0.50667997760E+01 -0.96052752204E+01  0.11161965472E+02  0.00000000000E+00 0.  1.
</event>
<event>
 8    1  0.1247338E-006  0.9118800E+02  0.7816164E-02  0.1184000E+00
        -11   -1    0    0    0    0  0.00000000000E+00  0.00000000000E+00  0.45593999997E+02  0.45594000000E+02  0.51100000000E-03 0. -1.
         11   -1    0    0    0    0 -0.00000000000E+00 -0.00000000000E+00 -0.45593999997E+02  0.45594000000E+02  0.51100000000E-03 0.  1.
         23    2    1    2    0    0  0.88817841970E-15  0.00000000000E+00  0.00000000000E+00  0.91188000000E+02  0.91188000000E+02 0.  0.
    9900012    2    3    3    0    0  0.78978688698E+01  0.35097576101E+02  0.78463035781E+01  0.54367073061E+02  0.39999974656E+02 0.  0.
        -12    1    3    3    0    0 -0.78978688698E+01 -0.35097576101E+02 -0.78463035781E+01  0.36820926939E+02  0.00000000000E+00 0.  1.
         11    1    4    4    0    0 -0.32849781232E+01  0.21278211262E+01  0.66873163047E+01  0.77484775043E+01  0.51100000000E-03 0. -1.
        -11    1    4    4    0    0  0.13415981704E+01 -0.58427842471E+01  0.26401216939E+01  0.65504393920E+01  0.51100000000E-03 0.  1.
         12    1    4    4    0    0  0.98412488227E+01  0.38812539222E+02 -0.14811344205E+01  0.40068156164E+02  0.00000000000E+00 0. -1.
</event>
<event>
 8    1  0.1247338E-006  0.9118800E+02  0.7816164E-02  0.1184000E+00
        -11   -1    0    0    0    0  0.00000000000E+00  0.00000000000E+00  0.45593999997E+02  0.45594000000E+02  0.51100000000E-03 0.  1.
         11   -1    0    0    0    0 -0.00000000000E+00 -0.00000000000E+00 -0.45593999997E+02  0.45594000000E+02  0.51100000000E-03 0. -1.
         23    2    1    2    0    0  0.44408920985E-15  0.00000000000E+00 -0.71054273576E-14  0.91188000000E+02  0.91188000000E+02 0.  0.
    9900012    2    3    3    0    0 -0.33235869566E+01  0.10448276277E+02 -0.35150633065E+02  0.54367085939E+02  0.40000004015E+02 0.  0.
        -12    1    3    3    0    0  0.33235869566E+01 -0.10448276277E+02  0.35150633065E+02  0.36820914061E+02  0.00000000000E+00 0.  1.
         11    1    4    4    0    0 -0.10752797532E+02  0.14947967478E+02 -0.35906501080E+01  0.18760521180E+02  0.51100000000E-03 0. -1.
        -11    1    4    4    0    0  0.19875043006E+01  0.38718511133E+01 -0.28309315600E+01  0.51918761683E+01  0.51100000000E-03 0.  1.
         12    1    4    4    0    0  0.54417062748E+01 -0.83715423143E+01 -0.28729051397E+02  0.30414688591E+02  0.00000000000E+00 0. -1.
</event>
<event>
 8    1  0.1247338E-006  0.9118800E+02  0.7816164E-02  0.1184000E+00
        -11   -1    0    0    0    0  0.00000000000E+00  0.00000000000E+00  0.45593999997E+02  0.45594000000E+02  0.51100000000E-03 0.  1.
         11   -1    0    0    0    0 -0.00000000000E+00 -0.00000000000E+00 -0.45593999997E+02  0.45594000000E+02  0.51100000000E-03 0. -1.
         23    2    1    2    0    0  0.35527136788E-14  0.00000000000E+00  0.00000000000E+00  0.91188000000E+02  0.91188000000E+02 0.  0.
    9900012    2    3    3    0    0  0.19609319252E+02  0.24715712857E+02 -0.18983895011E+02  0.54367080222E+02  0.39999990981E+02 0.  0.
        -12    1    3    3    0    0 -0.19609319252E+02 -0.24715712857E+02  0.18983895011E+02  0.36820919778E+02  0.00000000000E+00 0.  1.
         11    1    4    4    0    0 -0.36269807757E+01  0.14763905422E+02 -0.22575318270E+02  0.27217143276E+02  0.51100000000E-03 0. -1.
        -11    1    4    4    0    0  0.95684215635E+01 -0.63914549081E+00  0.19024328388E+01  0.97766276979E+01  0.51100000000E-03 0.  1.
         12    1    4    4    0    0  0.13667878464E+02  0.10590952926E+02  0.16889904200E+01  0.17373309248E+02  0.00000000000E+00 0. -1.
</event>
<event>
 8    1  0.1247338E-006  0.9118800E+02  0.7816164E-02  0.1184000E+00
        -11   -1    0    0    0    0  0.00000000000E+00  0.00000000000E+00  0.45593999997E+02  0.45594000000E+02  0.51100000000E-03 0.  1.
         11   -1    0    0    0    0 -0.00000000000E+00 -0.00000000000E+00 -0.45593999997E+02  0.45594000000E+02  0.51100000000E-03 0. -1.
         23    2    1    2    0    0  0.00000000000E+00  0.00000000000E+00  0.00000000000E+00  0.91188000000E+02  0.91188000000E+02 0.  0.
    9900012    2    3    3    0    0 -0.97297098167E+00  0.36470192578E+02 -0.49763546264E+01  0.54367004297E+02  0.39999817896E+02 0.  0.
         12    1    3    3    0    0  0.97297098167E+00 -0.36470192578E+02  0.49763546264E+01  0.36820995703E+02  0.00000000000E+00 0. -1.
         11    1    4    4    0    0  0.49071580898E+01 -0.57966491924E+01 -0.18386420762E+01  0.78142144406E+01  0.51100000000E-03 0. -1.
        -11    1    4    4    0    0 -0.51979203573E+01  0.83732418152E+01 -0.74838366422E+01  0.12374868310E+02  0.51100000000E-03 0.  1.
        -12    1    4    4    0    0 -0.68220871418E+00  0.33893599955E+02  0.43461240921E+01  0.34177921547E+02  0.00000000000E+00 0.  1.
</event>
<event>
 8    1  0.1247338E-006  0.9118800E+02  0.7816164E-02  0.1184000E+00
        -11   -1    0    0    0    0  0.00000000000E+00  0.00000000000E+00  0.45593999997E+02  0.45594000000E+02  0.51100000000E-03 0.  1.
         11   -1    0    0    0    0 -0.00000000000E+00 -0.00000000000E+00 -0.45593999997E+02  0.45594000000E+02  0.51100000000E-03 0. -1.
         23    2    1    2    0    0  0.00000000000E+00  0.00000000000E+00 -0.71054273576E-14  0.91188000000E+02  0.91188000000E+02 0.  0.
    9900012    2    3    3    0    0 -0.54914974162E+01  0.46690970444E+01 -0.36108519018E+02  0.54367052745E+02  0.39999928343E+02 0.  0.
        -12    1    3    3    0    0  0.54914974162E+01 -0.46690970444E+01  0.36108519018E+02  0.36820947255E+02  0.00000000000E+00 0.  1.
         11    1    4    4    0    0 -0.68158891475E+01  0.59818148715E+01 -0.34140490111E+01  0.96899011831E+01  0.51100000000E-03 0. -1.
        -11    1    4    4    0    0  0.85071185543E+01  0.10980509105E+02 -0.76221146844E+01  0.15844219098E+02  0.51100000000E-03 0.  1.
        -12    1    4    4    0    0 -0.71827268230E+01 -0.12293226933E+02 -0.25072355323E+02  0.28832932464E+02  0.00000000000E+00 0.  1.
</event>
<event>
 8    1  0.1247338E-006  0.9118800E+02  0.7816164E-02  0.1184000E+00
        -11   -1    0    0    0    0  0.00000000000E+00  0.00000000000E+00  0.45593999997E+02  0.45594000000E+02  0.51100000000E-03 0.  1.
         11   -1    0    0    0    0 -0.00000000000E+00 -0.00000000000E+00 -0.45593999997E+02  0.45594000000E+02  0.51100000000E-03 0. -1.
         23    2    1    2    0    0  0.00000000000E+00 -0.35527136788E-14  0.53290705182E-14  0.91188000000E+02  0.91188000000E+02 0.  0.
    9900012    2    3    3    0    0 -0.27142742297E+02  0.23285150022E+02 -0.87666406801E+01  0.54367073074E+02  0.39999974686E+02 0.  0.
        -12    1    3    3    0    0  0.27142742297E+02 -0.23285150022E+02  0.87666406801E+01  0.36820926926E+02  0.00000000000E+00 0.  1.
         11    1    4    4    0    0 -0.19072811717E+01  0.66842465274E+01 -0.64470312336E+01  0.94805635431E+01  0.51100000000E-03 0. -1.
        -11    1    4    4    0    0 -0.99261971877E+01 -0.76377604457E+01  0.74813747342E+01  0.14588891096E+02  0.51100000000E-03 0.  1.
        -12    1    4    4    0    0 -0.15309263937E+02  0.24238663940E+02 -0.98009841807E+01  0.30297618435E+02  0.00000000000E+00 0.  1.
</event>
<event>
 8    1  0.1247338E-006  0.9118800E+02  0.7816164E-02  0.1184000E+00
        -11   -1    0    0    0    0  0.00000000000E+00  0.00000000000E+00  0.45593999997E+02  0.45594000000E+02  0.51100000000E-03 0.  1.
         11   -1    0    0    0    0 -0.00000000000E+00 -0.00000000000E+00 -0.45593999997E+02  0.45594000000E+02  0.51100000000E-03 0. -1.
         23    2    1    2    0    0 -0.17763568394E-14 -0.22204460493E-14  0.00000000000E+00  0.91188000000E+02  0.91188000000E+02 0.  0.
    9900012    2    3    3    0    0  0.15401554711E+02  0.16178318812E+01 -0.33405900284E+02  0.54367089619E+02  0.40000012404E+02 0.  0.
        -12    1    3    3    0    0 -0.15401554711E+02 -0.16178318812E+01  0.33405900284E+02  0.36820910381E+02  0.00000000000E+00 0.  1.
         11    1    4    4    0    0  0.82725805813E+01  0.12945172916E+02  0.91345389713E+00  0.15389850213E+02  0.51100000000E-03 0.  1.
        -11    1    4    4    0    0 -0.23371381694E+00 -0.11083881663E+02 -0.19633917884E+02  0.22547678076E+02  0.51100000000E-03 0. -1.
         12    1    4    4    0    0  0.73626879471E+01 -0.24345937179E+00 -0.14685436297E+02  0.16429561330E+02  0.00000000000E+00 0. -1.
</event>
<event>
 8    1  0.1247338E-006  0.9118800E+02  0.7816164E-02  0.1184000E+00
        -11   -1    0    0    0    0  0.00000000000E+00  0.00000000000E+00  0.45593999997E+02  0.45594000000E+02  0.51100000000E-03 0.  1.
         11   -1    0    0    0    0 -0.00000000000E+00 -0.00000000000E+00 -0.45593999997E+02  0.45594000000E+02  0.51100000000E-03 0. -1.
         23    2    1    2    0    0 -0.35527136788E-14 -0.77715611724E-15  0.35527136788E-14  0.91188000000E+02  0.91188000000E+02 0.  0.
    9900012    2    3    3    0    0  0.18503612882E+02 -0.33082930965E+00 -0.31832150775E+02  0.54367096145E+02  0.40000027282E+02 0.  0.
        -12    1    3    3    0    0 -0.18503612882E+02  0.33082930965E+00  0.31832150775E+02  0.36820903855E+02  0.00000000000E+00 0.  1.
         11    1    4    4    0    0  0.84468945107E+01 -0.51857267313E+01  0.10368263202E+01  0.99657813385E+01  0.51100000000E-03 0. -1.
        -11    1    4    4    0    0 -0.89894017147E+01 -0.96079887398E-01 -0.50065487180E+01  0.10290000236E+02  0.51100000000E-03 0.  1.
         12    1    4    4    0    0  0.19046120087E+02  0.49509773090E+01 -0.27862428377E+02  0.34111314571E+02  0.00000000000E+00 0. -1.
</event>
<event>
 8    1  0.1247338E-006  0.9118800E+02  0.7816164E-02  0.1184000E+00
        -11   -1    0    0    0    0  0.00000000000E+00  0.00000000000E+00  0.45593999997E+02  0.45594000000E+02  0.51100000000E-03 0. -1.
         11   -1    0    0    0    0 -0.00000000000E+00 -0.00000000000E+00 -0.45593999997E+02  0.45594000000E+02  0.51100000000E-03 0.  1.
         23    2    1    2    0    0  0.35527136788E-14  0.35527136788E-14 -0.35527136788E-14  0.91188000000E+02  0.91188000000E+02 0.  0.
    9900012    2    3    3    0    0 -0.90559370586E+01 -0.17909245569E+02  0.30871159491E+02  0.54367087991E+02  0.40000008694E+02 0.  0.
        -12    1    3    3    0    0  0.90559370586E+01  0.17909245569E+02 -0.30871159491E+02  0.36820912009E+02  0.00000000000E+00 0.  1.
         11    1    4    4    0    0 -0.11774792748E-01 -0.34665053945E+01  0.86997190033E+01  0.93649297538E+01  0.51100000000E-03 0. -1.
        -11    1    4    4    0    0 -0.16396849219E+02  0.88733007246E+00  0.22670391944E+02  0.27992689940E+02  0.51100000000E-03 0.  1.
        -12    1    4    4    0    0  0.73526869527E+01 -0.15330070247E+02 -0.49895145672E+00  0.17009468297E+02  0.00000000000E+00 0.  1.
</event>
<event>
 8    1  0.1247338E-006  0.9118800E+02  0.7816164E-02  0.1184000E+00
        -11   -1    0    0    0    0  0.00000000000E+00  0.00000000000E+00  0.45593999997E+02  0.45594000000E+02  0.51100000000E-03 0.  1.
         11   -1    0    0    0    0 -0.00000000000E+00 -0.00000000000E+00 -0.45593999997E+02  0.45594000000E+02  0.51100000000E-03 0. -1.
         23    2    1    2    0    0  0.35527136788E-14  0.35527136788E-14  0.00000000000E+00  0.91188000000E+02  0.91188000000E+02 0.  0.
    9900012    2    3    3    0    0  0.94203925910E+01 -0.30146442636E+02  0.18926915565E+02  0.54367082942E+02  0.39999997183E+02 0.  0.
         12    1    3    3    0    0 -0.94203925910E+01  0.30146442636E+02 -0.18926915565E+02  0.36820917058E+02  0.00000000000E+00 0. -1.
         11    1    4    4    0    0  0.33628905314E+01  0.41909111901E+01  0.42059706936E+01  0.68237056697E+01  0.51100000000E-03 0. -1.
        -11    1    4    4    0    0 -0.10254503081E+02 -0.74116612006E+01  0.90483134356E+01  0.15555048424E+02  0.51100000000E-03 0.  1.
        -12    1    4    4    0    0  0.16312005141E+02 -0.26925692626E+02  0.56726314355E+01  0.31988328848E+02  0.00000000000E+00 0.  1.
</event>
<event>
 8    1  0.1247338E-006  0.9118800E+02  0.7816164E-02  0.1184000E+00
        -11   -1    0    0    0    0  0.00000000000E+00  0.00000000000E+00  0.45593999997E+02  0.45594000000E+02  0.51100000000E-03 0.  1.
         11   -1    0    0    0    0 -0.00000000000E+00 -0.00000000000E+00 -0.45593999997E+02  0.45594000000E+02  0.51100000000E-03 0. -1.
         23    2    1    2    0    0  0.00000000000E+00  0.00000000000E+00  0.17763568394E-14  0.91188000000E+02  0.91188000000E+02 0.  0.
    9900012    2    3    3    0    0 -0.30890320168E+02  0.16073110653E+02  0.11967511043E+02  0.54367108013E+02  0.40000054337E+02 0.  0.
         12    1    3    3    0    0  0.30890320168E+02 -0.16073110653E+02 -0.11967511043E+02  0.36820891987E+02  0.00000000000E+00 0. -1.
         11    1    4    4    0    0  0.20085568041E+01  0.87724286313E+01 -0.31340986783E+01  0.95295529440E+01  0.51100000000E-03 0. -1.
        -11    1    4    4    0    0 -0.30087322259E+01  0.10530201789E+02  0.89661381661E+01  0.14153771695E+02  0.51100000000E-03 0.  1.
        -12    1    4    4    0    0 -0.29890144746E+02 -0.32295197676E+01  0.61354715556E+01  0.30683783373E+02  0.00000000000E+00 0.  1.
</event>
<event>
 8    1  0.1247338E-006  0.9118800E+02  0.7816164E-02  0.1184000E+00
        -11   -1    0    0    0    0  0.00000000000E+00  0.00000000000E+00  0.45593999997E+02  0.45594000000E+02  0.51100000000E-03 0.  1.
         11   -1    0    0    0    0 -0.00000000000E+00 -0.00000000000E+00 -0.45593999997E+02  0.45594000000E+02  0.51100000000E-03 0. -1.
         23    2    1    2    0    0  0.00000000000E+00  0.00000000000E+00 -0.35527136788E-14  0.91188000000E+02  0.91188000000E+02 0.  0.
    9900012    2    3    3    0    0 -0.31550059616E+02 -0.55786259767E+01  0.18145301874E+02  0.54367091406E+02  0.40000016479E+02 0.  0.
         12    1    3    3    0    0  0.31550059616E+02  0.55786259767E+01 -0.18145301874E+02  0.36820908594E+02  0.00000000000E+00 0. -1.
         11    1    4    4    0    0 -0.12250713981E+02 -0.96998819292E+01  0.41383544227E+01  0.16164581036E+02  0.51100000000E-03 0.  1.
        -11    1    4    4    0    0 -0.21330220704E+02  0.77898820771E+01 -0.89105095365E+00  0.22725636408E+02  0.51100000000E-03 0. -1.
        -12    1    4    4    0    0  0.20308750694E+01 -0.36686261247E+01  0.14897998405E+02  0.15476873963E+02  0.00000000000E+00 0.  1.
</event>
<event>
 8    1  0.1247338E-006  0.9118800E+02  0.7816164E-02  0.1184000E+00
        -11   -1    0    0    0    0  0.00000000000E+00  0.00000000000E+00  0.45593999997E+02  0.45594000000E+02  0.51100000000E-03 0.  1.
         11   -1    0    0    0    0 -0.00000000000E+00 -0.00000000000E+00 -0.45593999997E+02  0.45594000000E+02  0.51100000000E-03 0. -1.
         23    2    1    2    0    0  0.00000000000E+00  0.00000000000E+00  0.00000000000E+00  0.91188000000E+02  0.91188000000E+02 0.  0.
    9900012    2    3    3    0    0 -0.84065408090E+01 -0.12015612298E+02 -0.33774701809E+02  0.54367145182E+02  0.40000139071E+02 0.  0.
        -12    1    3    3    0    0  0.84065408090E+01  0.12015612298E+02  0.33774701809E+02  0.36820854818E+02  0.00000000000E+00 0.  1.
         11    1    4    4    0    0 -0.88332673379E+01 -0.13353452735E+02 -0.53187033968E+01  0.16870978570E+02  0.51100000000E-03 0. -1.
        -11    1    4    4    0    0 -0.39887098241E+01 -0.43880069195E+01  0.19499380093E+01  0.62423288353E+01  0.51100000000E-03 0.  1.
         12    1    4    4    0    0  0.44154363530E+01  0.57258473568E+01 -0.30405936421E+02  0.31253837777E+02  0.00000000000E+00 0. -1.
</event>
<event>
 8    1  0.1247338E-006  0.9118800E+02  0.7816164E-02  0.1184000E+00
        -11   -1    0    0    0    0  0.00000000000E+00  0.00000000000E+00  0.45593999997E+02  0.45594000000E+02  0.51100000000E-03 0.  1.
         11   -1    0    0    0    0 -0.00000000000E+00 -0.00000000000E+00 -0.45593999997E+02  0.45594000000E+02  0.51100000000E-03 0. -1.
         23    2    1    2    0    0  0.00000000000E+00  0.00000000000E+00  0.00000000000E+00  0.91188000000E+02  0.91188000000E+02 0.  0.
    9900012    2    3    3    0    0  0.10836939788E+02 -0.20405768621E+02  0.28669595159E+02  0.54367077367E+02  0.39999984473E+02 0.  0.
         12    1    3    3    0    0 -0.10836939788E+02  0.20405768621E+02 -0.28669595159E+02  0.36820922633E+02  0.00000000000E+00 0. -1.
         11    1    4    4    0    0 -0.72656388079E+01 -0.96832256574E+01  0.96249794304E+01  0.15465917228E+02  0.51100000000E-03 0. -1.
        -11    1    4    4    0    0  0.21187518855E+02 -0.16221850912E+02  0.11469044790E+02  0.29044765293E+02  0.51100000000E-03 0.  1.
        -12    1    4    4    0    0 -0.30849402594E+01  0.54993079480E+01  0.75755709384E+01  0.98563948456E+01  0.00000000000E+00 0.  1.
</event>
<event>
 8    1  0.1247338E-006  0.9118800E+02  0.7816164E-02  0.1184000E+00
        -11   -1    0    0    0    0  0.00000000000E+00  0.00000000000E+00  0.45593999997E+02  0.45594000000E+02  0.51100000000E-03 0. -1.
         11   -1    0    0    0    0 -0.00000000000E+00 -0.00000000000E+00 -0.45593999997E+02  0.45594000000E+02  0.51100000000E-03 0.  1.
         23    2    1    2    0    0  0.16653345369E-14  0.71054273576E-14  0.00000000000E+00  0.91188000000E+02  0.91188000000E+02 0.  0.
    9900012    2    3    3    0    0  0.18635937315E+00  0.36437124486E+02  0.52990959968E+01  0.54367093045E+02  0.40000020215E+02 0.  0.
        -12    1    3    3    0    0 -0.18635937315E+00 -0.36437124486E+02 -0.52990959968E+01  0.36820906955E+02  0.00000000000E+00 0.  1.
         11    1    4    4    0    0 -0.97407336711E+01  0.79396439515E+01  0.55919451502E+01  0.13754624290E+02  0.51100000000E-03 0. -1.
        -11    1    4    4    0    0 -0.53115722837E+01  0.14333924385E+02 -0.93531228137E+01  0.17920800624E+02  0.51100000000E-03 0.  1.
        -12    1    4    4    0    0  0.15238665328E+02  0.14163556149E+02  0.90602736603E+01  0.22691668131E+02  0.00000000000E+00 0.  1.
</event>
<event>
 8    1  0.1247338E-006  0.9118800E+02  0.7816164E-02  0.1184000E+00
        -11   -1    0    0    0    0  0.00000000000E+00  0.00000000000E+00  0.45593999997E+02  0.45594000000E+02  0.51100000000E-03 0.  1.
         11   -1    0    0    0    0 -0.00000000000E+00 -0.00000000000E+00 -0.45593999997E+02  0.45594000000E+02  0.51100000000E-03 0. -1.
         23    2    1    2    0    0  0.44408920985E-15  0.35527136788E-14 -0.35527136788E-14  0.91188000000E+02  0.91188000000E+02 0.  0.
    9900012    2    3    3    0    0 -0.32473228067E+01  0.30319654324E+02 -0.20638646437E+02  0.54367078359E+02  0.39999986735E+02 0.  0.
        -12    1    3    3    0    0  0.32473228067E+01 -0.30319654324E+02  0.20638646437E+02  0.36820921641E+02  0.00000000000E+00 0.  1.
         11    1    4    4    0    0  0.52668520493E+01  0.25237684778E+02 -0.14819730742E+02  0.29737264215E+02  0.51100000000E-03 0. -1.
        -11    1    4    4    0    0 -0.76623881959E+01  0.13462312401E+02 -0.42348723783E+01  0.16058648523E+02  0.51100000000E-03 0.  1.
        -12    1    4    4    0    0 -0.85178666022E+00 -0.83803428548E+01 -0.15840433160E+01  0.85711656212E+01  0.00000000000E+00 0.  1.
</event>
<event>
 8    1  0.1247338E-006  0.9118800E+02  0.7816164E-02  0.1184000E+00
        -11   -1    0    0    0    0  0.00000000000E+00  0.00000000000E+00  0.45593999997E+02  0.45594000000E+02  0.51100000000E-03 0.  1.
         11   -1    0    0    0    0 -0.00000000000E+00 -0.00000000000E+00 -0.45593999997E+02  0.45594000000E+02  0.51100000000E-03 0. -1.
         23    2    1    2    0    0  0.00000000000E+00  0.00000000000E+00 -0.17763568394E-14  0.91188000000E+02  0.91188000000E+02 0.  0.
    9900012    2    3    3    0    0 -0.34666359536E+02  0.10348846566E+02 -0.68502255115E+01  0.54367072550E+02  0.39999973492E+02 0.  0.
        -12    1    3    3    0    0  0.34666359536E+02 -0.10348846566E+02  0.68502255115E+01  0.36820927450E+02  0.00000000000E+00 0.  1.
         11    1    4    4    0    0 -0.99834517526E+01  0.14849250777E+02 -0.42208615965E+01  0.18384374626E+02  0.51100000000E-03 0. -1.
        -11    1    4    4    0    0  0.37611557789E+01  0.14369973435E+01  0.45257930643E+01  0.60575619914E+01  0.51100000000E-03 0.  1.
        -12    1    4    4    0    0 -0.28444063562E+02 -0.59374015541E+01 -0.71551569793E+01  0.29925135932E+02  0.00000000000E+00 0.  1.
</event>
<event>
 8    1  0.1247338E-006  0.9118800E+02  0.7816164E-02  0.1184000E+00
        -11   -1    0    0    0    0  0.00000000000E+00  0.00000000000E+00  0.45593999997E+02  0.45594000000E+02  0.51100000000E-03 0.  1.
         11   -1    0    0    0    0 -0.00000000000E+00 -0.00000000000E+00 -0.45593999997E+02  0.45594000000E+02  0.51100000000E-03 0. -1.
         23    2    1    2    0    0  0.00000000000E+00  0.35527136788E-14  0.00000000000E+00  0.91188000000E+02  0.91188000000E+02 0.  0.
    9900012    2    3    3    0    0  0.35915042811E+02  0.59443946988E+01 -0.55273942416E+01  0.54367106263E+02  0.40000050348E+02 0.  0.
         12    1    3    3    0    0 -0.35915042811E+02 -0.59443946988E+01  0.55273942416E+01  0.36820893737E+02  0.00000000000E+00 0. -1.
         11    1    4    4    0    0  0.16428499027E+02 -0.14261683184E+02 -0.25784528940E+01  0.21907523985E+02  0.51100000000E-03 0. -1.
        -11    1    4    4    0    0  0.14754599674E+02  0.12921391763E+02  0.54713943289E+01  0.20361648577E+02  0.51100000000E-03 0.  1.
         12    1    4    4    0    0  0.47319441104E+01  0.72846861201E+01 -0.84203356765E+01  0.12097933701E+02  0.00000000000E+00 0. -1.
</event>
<event>
 8    1  0.1247338E-006  0.9118800E+02  0.7816164E-02  0.1184000E+00
        -11   -1    0    0    0    0  0.00000000000E+00  0.00000000000E+00  0.45593999997E+02  0.45594000000E+02  0.51100000000E-03 0.  1.
         11   -1    0    0    0    0 -0.00000000000E+00 -0.00000000000E+00 -0.45593999997E+02  0.45594000000E+02  0.51100000000E-03 0. -1.
         23    2    1    2    0    0  0.00000000000E+00  0.00000000000E+00  0.00000000000E+00  0.91188000000E+02  0.91188000000E+02 0.  0.
    9900012    2    3    3    0    0 -0.19774590773E+02 -0.26662352522E+02  0.15933122153E+02  0.54367083882E+02  0.39999999326E+02 0.  0.
         12    1    3    3    0    0  0.19774590773E+02  0.26662352522E+02 -0.15933122153E+02  0.36820916118E+02  0.00000000000E+00 0. -1.
         11    1    4    4    0    0  0.43234644860E+01  0.51246278873E+01 -0.99640013643E+00  0.67784194056E+01  0.51100000000E-03 0. -1.
        -11    1    4    4    0    0 -0.22771330080E+02 -0.14941543858E+02  0.75518058995E+01  0.28263279694E+02  0.51100000000E-03 0.  1.
        -12    1    4    4    0    0 -0.13267251792E+01 -0.16845436551E+02  0.93777163899E+01  0.19325384782E+02  0.00000000000E+00 0.  1.
</event>
<event>
 8    1  0.1247338E-006  0.9118800E+02  0.7816164E-02  0.1184000E+00
        -11   -1    0    0    0    0  0.00000000000E+00  0.00000000000E+00  0.45593999997E+02  0.45594000000E+02  0.51100000000E-03 0. -1.
         11   -1    0    0    0    0 -0.00000000000E+00 -0.00000000000E+00 -0.45593999997E+02  0.45594000000E+02  0.51100000000E-03 0.  1.
         23    2    1    2    0    0  0.00000000000E+00  0.35527136788E-14  0.17763568394E-14  0.91188000000E+02  0.91188000000E+02 0.  0.
    9900012    2    3    3    0    0  0.31662728250E+02 -0.14081052439E+02  0.12449028403E+02  0.54367045284E+02  0.39999911335E+02 0.  0.
        -12    1    3    3    0    0 -0.31662728250E+02  0.14081052439E+02 -0.12449028403E+02  0.36820954716E+02  0.00000000000E+00 0.  1.
         11    1    4    4    0    0  0.25540949882E+01 -0.23487446253E+01  0.11315574127E+02  0.11835633511E+02  0.51100000000E-03 0. -1.
        -11    1    4    4    0    0  0.10786062535E+02 -0.19090756769E+02  0.48065896451E+01  0.22447704633E+02  0.51100000000E-03 0.  1.
        -12    1    4    4    0    0  0.18322570726E+02  0.73584489550E+01 -0.36731353697E+01  0.20083707140E+02  0.00000000000E+00 0.  1.
</event>
<event>
 8    1  0.1247338E-006  0.9118800E+02  0.7816164E-02  0.1184000E+00
        -11   -1    0    0    0    0  0.00000000000E+00  0.00000000000E+00  0.45593999997E+02  0.45594000000E+02  0.51100000000E-03 0. -1.
         11   -1    0    0    0    0 -0.00000000000E+00 -0.00000000000E+00 -0.45593999997E+02  0.45594000000E+02  0.51100000000E-03 0.  1.
         23    2    1    2    0    0 -0.22204460493E-15  0.71054273576E-14  0.00000000000E+00  0.91188000000E+02  0.91188000000E+02 0.  0.
    9900012    2    3    3    0    0 -0.10723208981E+01  0.35877630453E+02  0.82112679139E+01  0.54367093441E+02  0.40000021118E+02 0.  0.
        -12    1    3    3    0    0  0.10723208981E+01 -0.35877630453E+02 -0.82112679139E+01  0.36820906559E+02  0.00000000000E+00 0.  1.
         11    1    4    4    0    0 -0.77407792499E+01  0.22520541523E+02  0.17383830978E+02  0.29483758810E+02  0.51100000000E-03 0. -1.
        -11    1    4    4    0    0  0.21132845431E+01 -0.42305870509E+01 -0.51192206461E+00  0.47566692987E+01  0.51100000000E-03 0.  1.
        -12    1    4    4    0    0  0.45551738087E+01  0.17587675982E+02 -0.86606409994E+01  0.20126665332E+02  0.00000000000E+00 0.  1.
</event>
<event>
 8    1  0.1247338E-006  0.9118800E+02  0.7816164E-02  0.1184000E+00
        -11   -1    0    0    0    0  0.00000000000E+00  0.00000000000E+00  0.45593999997E+02  0.45594000000E+02  0.51100000000E-03 0. -1.
         11   -1    0    0    0    0 -0.00000000000E+00 -0.00000000000E+00 -0.45593999997E+02  0.45594000000E+02  0.51100000000E-03 0.  1.
         23    2    1    2    0    0 -0.44408920985E-15  0.71054273576E-14  0.35527136788E-14  0.91188000000E+02  0.91188000000E+02 0.  0.
    9900012    2    3    3    0    0  0.33815854207E+01 -0.33917504630E+02 -0.13926502236E+02  0.54367086041E+02  0.40000004247E+02 0.  0.
         12    1    3    3    0    0 -0.33815854207E+01  0.33917504630E+02  0.13926502236E+02  0.36820913959E+02  0.00000000000E+00 0. -1.
         11    1    4    4    0    0 -0.30797675711E+01  0.85267830582E+00  0.87392653840E+01  0.93052022169E+01  0.51100000000E-03 0. -1.
        -11    1    4    4    0    0  0.40082412109E+01 -0.78517790598E+01  0.13325387729E+01  0.89158337721E+01  0.51100000000E-03 0.  1.
        -12    1    4    4    0    0  0.24531117808E+01 -0.26918403876E+02 -0.23998306393E+02  0.36146050052E+02  0.00000000000E+00 0.  1.
</event>
<event>
 8    1  0.1247338E-006  0.9118800E+02  0.7816164E-02  0.1184000E+00
        -11   -1    0    0    0    0  0.00000000000E+00  0.00000000000E+00  0.45593999997E+02  0.45594000000E+02  0.51100000000E-03 0.  1.
         11   -1    0    0    0    0 -0.00000000000E+00 -0.00000000000E+00 -0.45593999997E+02  0.45594000000E+02  0.51100000000E-03 0. -1.
         23    2    1    2    0    0  0.44408920985E-15  0.00000000000E+00  0.17763568394E-14  0.91188000000E+02  0.91188000000E+02 0.  0.
    9900012    2    3    3    0    0  0.16186346695E+01  0.33698292062E+02  0.14750739700E+02  0.54367093062E+02  0.40000020252E+02 0.  0.
         12    1    3    3    0    0 -0.16186346695E+01 -0.33698292062E+02 -0.14750739700E+02  0.36820906938E+02  0.00000000000E+00 0. -1.
         11    1    4    4    0    0 -0.68995935742E+01  0.33123633571E+02 -0.36118522037E+01  0.34026827196E+02  0.51100000000E-03 0. -1.
        -11    1    4    4    0    0  0.32606022994E+01 -0.64543040374E+00  0.62279796001E+01  0.70594502563E+01  0.51100000000E-03 0.  1.
         12    1    4    4    0    0  0.52576259444E+01  0.12200888944E+01  0.12134612304E+02  0.13280815609E+02  0.00000000000E+00 0. -1.
</event>
<event>
 8    1  0.1247338E-006  0.9118800E+02  0.7816164E-02  0.1184000E+00
        -11   -1    0    0    0    0  0.00000000000E+00  0.00000000000E+00  0.45593999997E+02  0.45594000000E+02  0.51100000000E-03 0. -1.
         11   -1    0    0    0    0 -0.00000000000E+00 -0.00000000000E+00 -0.45593999997E+02  0.45594000000E+02  0.51100000000E-03 0.  1.
         23    2    1    2    0    0  0.00000000000E+00 -0.17763568394E-14 -0.35527136788E-14  0.91188000000E+02  0.91188000000E+02 0.  0.
    9900012    2    3    3    0    0  0.23040755998E+02 -0.14393475881E+02  0.24854164850E+02  0.54367107897E+02  0.40000054073E+02 0.  0.
        -12    1    3    3    0    0 -0.23040755998E+02  0.14393475881E+02 -0.24854164850E+02  0.36820892103E+02  0.00000000000E+00 0.  1.
         11    1    4    4    0    0  0.13844633175E+02  0.48361773215E+01  0.66477592756E+01  0.16101403122E+02  0.51100000000E-03 0.  1.
        -11    1    4    4    0    0  0.65152865468E+01 -0.36214790388E+01 -0.58423339538E+01  0.94708466097E+01  0.51100000000E-03 0. -1.
         12    1    4    4    0    0  0.26808362754E+01 -0.15608174163E+02  0.24048739528E+02  0.28794858165E+02  0.00000000000E+00 0. -1.
</event>
<event>
 8    1  0.1247338E-006  0.9118800E+02  0.7816164E-02  0.1184000E+00
        -11   -1    0    0    0    0  0.00000000000E+00  0.00000000000E+00  0.45593999997E+02  0.45594000000E+02  0.51100000000E-03 0. -1.
         11   -1    0    0    0    0 -0.00000000000E+00 -0.00000000000E+00 -0.45593999997E+02  0.45594000000E+02  0.51100000000E-03 0.  1.
         23    2    1    2    0    0 -0.17763568394E-14  0.00000000000E+00  0.00000000000E+00  0.91188000000E+02  0.91188000000E+02 0.  0.
    9900012    2    3    3    0    0  0.14749702302E+02  0.22540821120E+02 -0.25102538720E+02  0.54367084953E+02  0.40000001767E+02 0.  0.
         12    1    3    3    0    0 -0.14749702302E+02 -0.22540821120E+02  0.25102538720E+02  0.36820915047E+02  0.00000000000E+00 0. -1.
         11    1    4    4    0    0  0.22154438396E-02 -0.42742344423E+01  0.17368500524E+01  0.46136464257E+01  0.51100000000E-03 0. -1.
        -11    1    4    4    0    0 -0.52109742937E+01  0.43576355662E+01 -0.16725381992E+02  0.18052192218E+02  0.51100000000E-03 0.  1.
        -12    1    4    4    0    0  0.19958461152E+02  0.22457419996E+02 -0.10114006779E+02  0.31701246309E+02  0.00000000000E+00 0.  1.
</event>
<event>
 8    1  0.1247338E-006  0.9118800E+02  0.7816164E-02  0.1184000E+00
        -11   -1    0    0    0    0  0.00000000000E+00  0.00000000000E+00  0.45593999997E+02  0.45594000000E+02  0.51100000000E-03 0.  1.
         11   -1    0    0    0    0 -0.00000000000E+00 -0.00000000000E+00 -0.45593999997E+02  0.45594000000E+02  0.51100000000E-03 0. -1.
         23    2    1    2    0    0  0.44408920985E-15  0.71054273576E-14 -0.17763568394E-14  0.91188000000E+02  0.91188000000E+02 0.  0.
    9900012    2    3    3    0    0  0.20883405216E+00 -0.36146356877E+02  0.70127727810E+01  0.54367058822E+02  0.39999942196E+02 0.  0.
         12    1    3    3    0    0 -0.20883405216E+00  0.36146356877E+02 -0.70127727810E+01  0.36820941178E+02  0.00000000000E+00 0. -1.
         11    1    4    4    0    0 -0.51353344663E+00 -0.19023180308E+01 -0.44406667265E+01  0.48581942868E+01  0.51100000000E-03 0. -1.
        -11    1    4    4    0    0 -0.11681013736E+02 -0.69679595165E+01 -0.59629709790E+01  0.14851113254E+02  0.51100000000E-03 0.  1.
        -12    1    4    4    0    0  0.12403381234E+02 -0.27276079330E+02  0.17416410486E+02  0.34657751282E+02  0.00000000000E+00 0.  1.
</event>
<event>
 8    1  0.1247338E-006  0.9118800E+02  0.7816164E-02  0.1184000E+00
        -11   -1    0    0    0    0  0.00000000000E+00  0.00000000000E+00  0.45593999997E+02  0.45594000000E+02  0.51100000000E-03 0.  1.
         11   -1    0    0    0    0 -0.00000000000E+00 -0.00000000000E+00 -0.45593999997E+02  0.45594000000E+02  0.51100000000E-03 0. -1.
         23    2    1    2    0    0  0.00000000000E+00  0.00000000000E+00  0.00000000000E+00  0.91188000000E+02  0.91188000000E+02 0.  0.
    9900012    2    3    3    0    0 -0.13775623538E+00  0.36496641070E+02  0.48741192294E+01  0.54367070837E+02  0.39999969588E+02 0.  0.
        -12    1    3    3    0    0  0.13775623538E+00 -0.36496641070E+02 -0.48741192294E+01  0.36820929163E+02  0.00000000000E+00 0.  1.
         11    1    4    4    0    0  0.70065747889E+00  0.30942474188E+02 -0.79409520589E+01  0.31952877017E+02  0.51100000000E-03 0. -1.
        -11    1    4    4    0    0 -0.18349141272E+01 -0.60259679838E+01  0.70026518667E+01  0.94189348349E+01  0.51100000000E-03 0.  1.
         12    1    4    4    0    0  0.99650041293E+00  0.11580134865E+02  0.58124194216E+01  0.12995258986E+02  0.00000000000E+00 0. -1.
</event>
<event>
 8    1  0.1247338E-006  0.9118800E+02  0.7816164E-02  0.1184000E+00
        -11   -1    0    0    0    0  0.00000000000E+00  0.00000000000E+00  0.45593999997E+02  0.45594000000E+02  0.51100000000E-03 0. -1.
         11   -1    0    0    0    0 -0.00000000000E+00 -0.00000000000E+00 -0.45593999997E+02  0.45594000000E+02  0.51100000000E-03 0.  1.
         23    2    1    2    0    0 -0.35527136788E-14  0.17763568394E-14  0.00000000000E+00  0.91188000000E+02  0.91188000000E+02 0.  0.
    9900012    2    3    3    0    0  0.19948276066E+02 -0.12408755274E+02 -0.28352584107E+02  0.54367082697E+02  0.39999996625E+02 0.  0.
         12    1    3    3    0    0 -0.19948276066E+02  0.12408755274E+02  0.28352584107E+02  0.36820917303E+02  0.00000000000E+00 0. -1.
         11    1    4    4    0    0  0.99551662307E+01 -0.12097328248E+02 -0.14333788581E+01  0.15732299916E+02  0.51100000000E-03 0. -1.
        -11    1    4    4    0    0  0.36835445092E+01 -0.12863035345E+02 -0.10378135733E+02  0.16933159185E+02  0.51100000000E-03 0.  1.
        -12    1    4    4    0    0  0.63095653265E+01  0.12551608319E+02 -0.16541069516E+02  0.21701623597E+02  0.00000000000E+00 0.  1.
</event>
<event>
 8    1  0.1247338E-006  0.9118800E+02  0.7816164E-02  0.1184000E+00
        -11   -1    0    0    0    0  0.00000000000E+00  0.00000000000E+00  0.45593999997E+02  0.45594000000E+02  0.51100000000E-03 0. -1.
         11   -1    0    0    0    0 -0.00000000000E+00 -0.00000000000E+00 -0.45593999997E+02  0.45594000000E+02  0.51100000000E-03 0.  1.
         23    2    1    2    0    0 -0.88817841970E-15  0.00000000000E+00  0.00000000000E+00  0.91188000000E+02  0.91188000000E+02 0.  0.
    9900012    2    3    3    0    0 -0.47733691030E+01 -0.21482799795E+02  0.29520921568E+02  0.54367074566E+02  0.39999978087E+02 0.  0.
        -12    1    3    3    0    0  0.47733691030E+01  0.21482799795E+02 -0.29520921568E+02  0.36820925434E+02  0.00000000000E+00 0.  1.
         11    1    4    4    0    0 -0.68265570012E+01 -0.47324150574E+01 -0.43744542633E+00  0.83179920371E+01  0.51100000000E-03 0. -1.
        -11    1    4    4    0    0 -0.11744286048E+02 -0.14479205574E+02  0.86259663330E+01  0.20542223450E+02  0.51100000000E-03 0.  1.
         12    1    4    4    0    0  0.13797473946E+02 -0.22711791639E+01  0.21332400661E+02  0.25506859079E+02  0.00000000000E+00 0. -1.
</event>
<event>
 8    1  0.1247338E-006  0.9118800E+02  0.7816164E-02  0.1184000E+00
        -11   -1    0    0    0    0  0.00000000000E+00  0.00000000000E+00  0.45593999997E+02  0.45594000000E+02  0.51100000000E-03 0.  1.
         11   -1    0    0    0    0 -0.00000000000E+00 -0.00000000000E+00 -0.45593999997E+02  0.45594000000E+02  0.51100000000E-03 0. -1.
         23    2    1    2    0    0  0.00000000000E+00 -0.35527136788E-14  0.17763568394E-14  0.91188000000E+02  0.91188000000E+02 0.  0.
    9900012    2    3    3    0    0 -0.13257948051E+02  0.31836007301E+02 -0.12902461411E+02  0.54367108405E+02  0.40000055230E+02 0.  0.
        -12    1    3    3    0    0  0.13257948051E+02 -0.31836007301E+02  0.12902461411E+02  0.36820891595E+02  0.00000000000E+00 0.  1.
         11    1    4    4    0    0 -0.14154136822E+02  0.16918299631E+02 -0.19887636740E+01  0.22147768122E+02  0.51100000000E-03 0. -1.
        -11    1    4    4    0    0  0.12784568661E+02  0.76347359230E+01 -0.64631457519E+00  0.14904768071E+02  0.51100000000E-03 0.  1.
        -12    1    4    4    0    0 -0.11888379890E+02  0.72829717472E+01 -0.10267383162E+02  0.17314572211E+02  0.00000000000E+00 0.  1.
</event>
<event>
 8    1  0.1247338E-006  0.9118800E+02  0.7816164E-02  0.1184000E+00
        -11   -1    0    0    0    0  0.00000000000E+00  0.00000000000E+00  0.45593999997E+02  0.45594000000E+02  0.51100000000E-03 0.  1.
         11   -1    0    0    0    0 -0.00000000000E+00 -0.00000000000E+00 -0.45593999997E+02  0.45594000000E+02  0.51100000000E-03 0. -1.
         23    2    1    2    0    0  0.00000000000E+00  0.00000000000E+00  0.00000000000E+00  0.91188000000E+02  0.91188000000E+02 0.  0.
    9900012    2    3    3    0    0  0.94856814736E+01  0.21740867813E+02 -0.28162666510E+02  0.54367091928E+02  0.40000017669E+02 0.  0.
        -12    1    3    3    0    0 -0.94856814736E+01 -0.21740867813E+02  0.28162666510E+02  0.36820908072E+02  0.00000000000E+00 0.  1.
         11    1    4    4    0    0  0.63670769394E+01  0.16293721150E+02 -0.16823393342E+02  0.24270384865E+02  0.51100000000E-03 0. -1.
        -11    1    4    4    0    0 -0.26053721840E+01  0.98390692779E+01 -0.17739642136E+02  0.20452142965E+02  0.51100000000E-03 0.  1.
        -12    1    4    4    0    0  0.57239767182E+01 -0.43919226148E+01  0.64003689686E+01  0.96445640989E+01  0.00000000000E+00 0.  1.
</event>
<event>
 8    1  0.1247338E-006  0.9118800E+02  0.7816164E-02  0.1184000E+00
        -11   -1    0    0    0    0  0.00000000000E+00  0.00000000000E+00  0.45593999997E+02  0.45594000000E+02  0.51100000000E-03 0. -1.
         11   -1    0    0    0    0 -0.00000000000E+00 -0.00000000000E+00 -0.45593999997E+02  0.45594000000E+02  0.51100000000E-03 0.  1.
         23    2    1    2    0    0  0.35527136788E-14 -0.88817841970E-15  0.00000000000E+00  0.91188000000E+02  0.91188000000E+02 0.  0.
    9900012    2    3    3    0    0 -0.27510197354E+02  0.47320543291E+01 -0.24012006570E+02  0.54367085343E+02  0.40000002657E+02 0.  0.
         12    1    3    3    0    0  0.27510197354E+02 -0.47320543291E+01  0.24012006570E+02  0.36820914657E+02  0.00000000000E+00 0. -1.
         11    1    4    4    0    0  0.12316964346E+01 -0.18644808778E+00  0.14783606520E+01  0.19332329076E+01  0.51100000000E-03 0. -1.
        -11    1    4    4    0    0 -0.44461248737E+01  0.16216631400E+02 -0.17956734598E+02  0.24600639790E+02  0.51100000000E-03 0.  1.
        -12    1    4    4    0    0 -0.24295768915E+02 -0.11298128983E+02 -0.75336326234E+01  0.27833212646E+02  0.00000000000E+00 0.  1.
</event>
<event>
 8    1  0.1247338E-006  0.9118800E+02  0.7816164E-02  0.1184000E+00
        -11   -1    0    0    0    0  0.00000000000E+00  0.00000000000E+00  0.45593999997E+02  0.45594000000E+02  0.51100000000E-03 0. -1.
         11   -1    0    0    0    0 -0.00000000000E+00 -0.00000000000E+00 -0.45593999997E+02  0.45594000000E+02  0.51100000000E-03 0.  1.
         23    2    1    2    0    0  0.00000000000E+00  0.88817841970E-15  0.35527136788E-14  0.91188000000E+02  0.91188000000E+02 0.  0.
    9900012    2    3    3    0    0  0.29802099996E+02 -0.51781264158E+01 -0.20995309981E+02  0.54367065757E+02  0.39999958006E+02 0.  0.
         12    1    3    3    0    0 -0.29802099996E+02  0.51781264158E+01  0.20995309981E+02  0.36820934243E+02  0.00000000000E+00 0. -1.
         11    1    4    4    0    0  0.17047202252E+02  0.12724821551E+01 -0.54412454402E+01  0.17939717602E+02  0.51100000000E-03 0. -1.
        -11    1    4    4    0    0  0.18607832317E+02 -0.82684846440E+00  0.28636493861E+00  0.18628395182E+02  0.51100000000E-03 0.  1.
        -12    1    4    4    0    0 -0.58529345729E+01 -0.56237601065E+01 -0.15840429479E+02  0.17798952973E+02  0.00000000000E+00 0.  1.
</event>
<event>
 8    1  0.1247338E-006  0.9118800E+02  0.7816164E-02  0.1184000E+00
        -11   -1    0    0    0    0  0.00000000000E+00  0.00000000000E+00  0.45593999997E+02  0.45594000000E+02  0.51100000000E-03 0.  1.
         11   -1    0    0    0    0 -0.00000000000E+00 -0.00000000000E+00 -0.45593999997E+02  0.45594000000E+02  0.51100000000E-03 0. -1.
         23    2    1    2    0    0  0.00000000000E+00  0.00000000000E+00 -0.35527136788E-14  0.91188000000E+02  0.91188000000E+02 0.  0.
    9900012    2    3    3    0    0  0.88682754281E+01  0.26487357821E+02  0.23990659524E+02  0.54367106776E+02  0.40000051517E+02 0.  0.
         12    1    3    3    0    0 -0.88682754281E+01 -0.26487357821E+02 -0.23990659524E+02  0.36820893224E+02  0.00000000000E+00 0. -1.
         11    1    4    4    0    0 -0.11930212354E+02  0.46533478270E+01 -0.95551953262E+00  0.12841208302E+02  0.51100000000E-03 0. -1.
        -11    1    4    4    0    0  0.10139765207E+02  0.18411035155E+02  0.11261035651E+02  0.23845166766E+02  0.51100000000E-03 0.  1.
        -12    1    4    4    0    0  0.10658722575E+02  0.34229748392E+01  0.13685143406E+02  0.17680731708E+02  0.00000000000E+00 0.  1.
</event>
<event>
 8    1  0.1247338E-006  0.9118800E+02  0.7816164E-02  0.1184000E+00
        -11   -1    0    0    0    0  0.00000000000E+00  0.00000000000E+00  0.45593999997E+02  0.45594000000E+02  0.51100000000E-03 0.  1.
         11   -1    0    0    0    0 -0.00000000000E+00 -0.00000000000E+00 -0.45593999997E+02  0.45594000000E+02  0.51100000000E-03 0. -1.
         23    2    1    2    0    0  0.00000000000E+00  0.00000000000E+00  0.00000000000E+00  0.91188000000E+02  0.91188000000E+02 0.  0.
    9900012    2    3    3    0    0 -0.28533386844E+02  0.18214778384E+02 -0.14486111430E+02  0.54367085553E+02  0.40000003134E+02 0.  0.
        -12    1    3    3    0    0  0.28533386844E+02 -0.18214778384E+02  0.14486111430E+02  0.36820914447E+02  0.00000000000E+00 0.  1.
         11    1    4    4    0    0 -0.15648563833E+02  0.22937076586E+02 -0.19867790508E+02  0.34142585319E+02  0.51100000000E-03 0. -1.
        -11    1    4    4    0    0 -0.96959353968E+01  0.23417378071E+01 -0.12128556088E+01  0.10048179843E+02  0.51100000000E-03 0.  1.
         12    1    4    4    0    0 -0.31888876142E+01 -0.70640360090E+01  0.65945346867E+01  0.10176320390E+02  0.00000000000E+00 0. -1.
</event>
<event>
 8    1  0.1247338E-006  0.9118800E+02  0.7816164E-02  0.1184000E+00
        -11   -1    0    0    0    0  0.00000000000E+00  0.00000000000E+00  0.45593999997E+02  0.45594000000E+02  0.51100000000E-03 0.  1.
         11   -1    0    0    0    0 -0.00000000000E+00 -0.00000000000E+00 -0.45593999997E+02  0.45594000000E+02  0.51100000000E-03 0. -1.
         23    2    1    2    0    0 -0.33306690739E-15 -0.44408920985E-15  0.00000000000E+00  0.91188000000E+02  0.91188000000E+02 0.  0.
    9900012    2    3    3    0    0  0.94036027579E+00 -0.32510796943E+01  0.36665047040E+02  0.54367089214E+02  0.40000011481E+02 0.  0.
         12    1    3    3    0    0 -0.94036027579E+00  0.32510796943E+01 -0.36665047040E+02  0.36820910786E+02  0.00000000000E+00 0. -1.
         11    1    4    4    0    0 -0.66893232816E+01  0.10941125505E-01  0.45106572220E+01  0.80680353563E+01  0.51100000000E-03 0. -1.
        -11    1    4    4    0    0  0.44744473586E+01 -0.33387347598E+00  0.38428877121E+02  0.38689930831E+02  0.51100000000E-03 0.  1.
        -12    1    4    4    0    0  0.31552361988E+01 -0.29281473438E+01 -0.62744873022E+01  0.76091230272E+01  0.00000000000E+00 0.  1.
</event>
<event>
 8    1  0.1247338E-006  0.9118800E+02  0.7816164E-02  0.1184000E+00
        -11   -1    0    0    0    0  0.00000000000E+00  0.00000000000E+00  0.45593999997E+02  0.45594000000E+02  0.51100000000E-03 0.  1.
         11   -1    0    0    0    0 -0.00000000000E+00 -0.00000000000E+00 -0.45593999997E+02  0.45594000000E+02  0.51100000000E-03 0. -1.
         23    2    1    2    0    0  0.00000000000E+00  0.71054273576E-14 -0.88817841970E-15  0.91188000000E+02  0.91188000000E+02 0.  0.
    9900012    2    3    3    0    0  0.64793498058E+01  0.35934971852E+02  0.47408133335E+01  0.54367088998E+02  0.40000010989E+02 0.  0.
         12    1    3    3    0    0 -0.64793498058E+01 -0.35934971852E+02 -0.47408133335E+01  0.36820911002E+02  0.00000000000E+00 0. -1.
         11    1    4    4    0    0 -0.45511372312E+01 -0.47708264759E+01  0.58244158694E+01  0.87975823861E+01  0.51100000000E-03 0. -1.
        -11    1    4    4    0    0  0.56001612093E+01  0.13294796560E+01 -0.86124858439E+00  0.58198858332E+01  0.51100000000E-03 0.  1.
        -12    1    4    4    0    0  0.54303258277E+01  0.39376318672E+02 -0.22235395155E+00  0.39749620779E+02  0.00000000000E+00 0.  1.
</event>
<event>
 8    1  0.1247338E-006  0.9118800E+02  0.7816164E-02  0.1184000E+00
        -11   -1    0    0    0    0  0.00000000000E+00  0.00000000000E+00  0.45593999997E+02  0.45594000000E+02  0.51100000000E-03 0.  1.
         11   -1    0    0    0    0 -0.00000000000E+00 -0.00000000000E+00 -0.45593999997E+02  0.45594000000E+02  0.51100000000E-03 0. -1.
         23    2    1    2    0    0 -0.35527136788E-14  0.00000000000E+00  0.35527136788E-14  0.91188000000E+02  0.91188000000E+02 0.  0.
    9900012    2    3    3    0    0  0.27249151474E+02 -0.19600708909E+02 -0.15135276510E+02  0.54367073331E+02  0.39999975272E+02 0.  0.
        -12    1    3    3    0    0 -0.27249151474E+02  0.19600708909E+02  0.15135276510E+02  0.36820926669E+02  0.00000000000E+00 0.  1.
         11    1    4    4    0    0  0.35392459331E+01 -0.12569579636E+02 -0.94416760215E+01  0.16114150314E+02  0.51100000000E-03 0. -1.
        -11    1    4    4    0    0  0.99165162059E+01  0.10783372400E+02 -0.57081138502E+01  0.15722626306E+02  0.51100000000E-03 0.  1.
        -12    1    4    4    0    0  0.13793389335E+02 -0.17814501673E+02  0.14513362130E-01  0.22530296710E+02  0.00000000000E+00 0.  1.
</event>
<event>
 8    1  0.1247338E-006  0.9118800E+02  0.7816164E-02  0.1184000E+00
        -11   -1    0    0    0    0  0.00000000000E+00  0.00000000000E+00  0.45593999997E+02  0.45594000000E+02  0.51100000000E-03 0.  1.
         11   -1    0    0    0    0 -0.00000000000E+00 -0.00000000000E+00 -0.45593999997E+02  0.45594000000E+02  0.51100000000E-03 0. -1.
         23    2    1    2    0    0  0.71054273576E-14  0.71054273576E-14  0.88817841970E-15  0.91188000000E+02  0.91188000000E+02 0.  0.
    9900012    2    3    3    0    0 -0.10958095093E+02 -0.35021936459E+02 -0.30274938821E+01  0.54367060297E+02  0.39999945558E+02 0.  0.
        -12    1    3    3    0    0  0.10958095093E+02  0.35021936459E+02  0.30274938821E+01  0.36820939703E+02  0.00000000000E+00 0.  1.
         11    1    4    4    0    0  0.20043037995E+01 -0.10159007539E+02 -0.13652520029E+02  0.17135167677E+02  0.51100000000E-03 0. -1.
        -11    1    4    4    0    0  0.51557806639E+01 -0.33426859358E+01 -0.19090485238E+01  0.64342901743E+01  0.51100000000E-03 0.  1.
        -12    1    4    4    0    0 -0.18118179557E+02 -0.21520242984E+02  0.12534074671E+02  0.30797602446E+02  0.00000000000E+00 0.  1.
</event>
<event>
 8    1  0.1247338E-006  0.9118800E+02  0.7816164E-02  0.1184000E+00
        -11   -1    0    0    0    0  0.00000000000E+00  0.00000000000E+00  0.45593999997E+02  0.45594000000E+02  0.51100000000E-03 0.  1.
         11   -1    0    0    0    0 -0.00000000000E+00 -0.00000000000E+00 -0.45593999997E+02  0.45594000000E+02  0.51100000000E-03 0. -1.
         23    2    1    2    0    0  0.00000000000E+00  0.00000000000E+00  0.35527136788E-14  0.91188000000E+02  0.91188000000E+02 0.  0.
    9900012    2    3    3    0    0  0.20673167576E+02  0.10146420356E+02 -0.28730644668E+02  0.54367086830E+02  0.40000006045E+02 0.  0.
        -12    1    3    3    0    0 -0.20673167576E+02 -0.10146420356E+02  0.28730644668E+02  0.36820913170E+02  0.00000000000E+00 0.  1.
         11    1    4    4    0    0  0.47128358656E+00  0.11489005476E+02 -0.23601561269E+02  0.26253629266E+02  0.51100000000E-03 0.  1.
        -11    1    4    4    0    0  0.76922418301E+01 -0.44675749642E+01 -0.10830327509E+02  0.14015199058E+02  0.51100000000E-03 0. -1.
        -12    1    4    4    0    0  0.12509642160E+02  0.31249898439E+01  0.57012441097E+01  0.14098258505E+02  0.00000000000E+00 0.  1.
</event>
<event>
 8    1  0.1247338E-006  0.9118800E+02  0.7816164E-02  0.1184000E+00
        -11   -1    0    0    0    0  0.00000000000E+00  0.00000000000E+00  0.45593999997E+02  0.45594000000E+02  0.51100000000E-03 0. -1.
         11   -1    0    0    0    0 -0.00000000000E+00 -0.00000000000E+00 -0.45593999997E+02  0.45594000000E+02  0.51100000000E-03 0.  1.
         23    2    1    2    0    0  0.00000000000E+00  0.35527136788E-14 -0.22204460493E-14  0.91188000000E+02  0.91188000000E+02 0.  0.
    9900012    2    3    3    0    0 -0.32732349256E+02 -0.16617284688E+02 -0.28701819611E+01  0.54367098562E+02  0.40000032791E+02 0.  0.
         12    1    3    3    0    0  0.32732349256E+02  0.16617284688E+02  0.28701819611E+01  0.36820901438E+02  0.00000000000E+00 0. -1.
         11    1    4    4    0    0 -0.12667938000E+02 -0.95869343846E+01 -0.97551782058E+01  0.18642678621E+02  0.51100000000E-03 0. -1.
        -11    1    4    4    0    0 -0.54022414462E+01 -0.77743914564E+01 -0.97142528994E+01  0.13564368206E+02  0.51100000000E-03 0.  1.
         12    1    4    4    0    0 -0.14662169809E+02  0.74404115276E+00  0.16599249144E+02  0.22160051735E+02  0.00000000000E+00 0. -1.
</event>
<event>
 8    1  0.1247338E-006  0.9118800E+02  0.7816164E-02  0.1184000E+00
        -11   -1    0    0    0    0  0.00000000000E+00  0.00000000000E+00  0.45593999997E+02  0.45594000000E+02  0.51100000000E-03 0. -1.
         11   -1    0    0    0    0 -0.00000000000E+00 -0.00000000000E+00 -0.45593999997E+02  0.45594000000E+02  0.51100000000E-03 0.  1.
         23    2    1    2    0    0  0.19984014443E-14  0.00000000000E+00  0.00000000000E+00  0.91188000000E+02  0.91188000000E+02 0.  0.
    9900012    2    3    3    0    0 -0.18394658668E+01  0.34040715346E+02 -0.13914940437E+02  0.54367088777E+02  0.40000010486E+02 0.  0.
        -12    1    3    3    0    0  0.18394658668E+01 -0.34040715346E+02  0.13914940437E+02  0.36820911223E+02  0.00000000000E+00 0.  1.
         11    1    4    4    0    0  0.15791064039E+02  0.21181697258E+02 -0.84869142982E+01  0.27749769671E+02  0.51100000000E-03 0. -1.
        -11    1    4    4    0    0  0.22544330979E+01  0.22594950468E+01 -0.21455449935E+01  0.38459264215E+01  0.51100000000E-03 0.  1.
        -12    1    4    4    0    0 -0.19884963004E+02  0.10599523041E+02 -0.32824811449E+01  0.22771392685E+02  0.00000000000E+00 0.  1.
</event>
<event>
 8    1  0.1247338E-006  0.9118800E+02  0.7816164E-02  0.1184000E+00
        -11   -1    0    0    0    0  0.00000000000E+00  0.00000000000E+00  0.45593999997E+02  0.45594000000E+02  0.51100000000E-03 0. -1.
         11   -1    0    0    0    0 -0.00000000000E+00 -0.00000000000E+00 -0.45593999997E+02  0.45594000000E+02  0.51100000000E-03 0.  1.
         23    2    1    2    0    0  0.00000000000E+00 -0.17763568394E-14 -0.17763568394E-14  0.91188000000E+02  0.91188000000E+02 0.  0.
    9900012    2    3    3    0    0 -0.33657355393E+02  0.10985507950E+02 -0.10113419479E+02  0.54367079173E+02  0.39999988591E+02 0.  0.
         12    1    3    3    0    0  0.33657355393E+02 -0.10985507950E+02  0.10113419479E+02  0.36820920827E+02  0.00000000000E+00 0. -1.
         11    1    4    4    0    0 -0.75569541139E+01 -0.10416992506E+02 -0.76461455465E+00  0.12892087652E+02  0.51100000000E-03 0. -1.
        -11    1    4    4    0    0 -0.23264745490E+00  0.18049332959E+01 -0.88322136857E+01  0.90177551470E+01  0.51100000000E-03 0.  1.
        -12    1    4    4    0    0 -0.25867753824E+02  0.19597567160E+02 -0.51659123892E+00  0.32457236374E+02  0.00000000000E+00 0.  1.
</event>
<event>
 8    1  0.1247338E-006  0.9118800E+02  0.7816164E-02  0.1184000E+00
        -11   -1    0    0    0    0  0.00000000000E+00  0.00000000000E+00  0.45593999997E+02  0.45594000000E+02  0.51100000000E-03 0. -1.
         11   -1    0    0    0    0 -0.00000000000E+00 -0.00000000000E+00 -0.45593999997E+02  0.45594000000E+02  0.51100000000E-03 0.  1.
         23    2    1    2    0    0  0.00000000000E+00 -0.35527136788E-14  0.35527136788E-14  0.91188000000E+02  0.91188000000E+02 0.  0.
    9900012    2    3    3    0    0 -0.14565330223E+02  0.20481812606E+02 -0.26909592710E+02  0.54367086487E+02  0.40000005264E+02 0.  0.
         12    1    3    3    0    0  0.14565330223E+02 -0.20481812606E+02  0.26909592710E+02  0.36820913513E+02  0.00000000000E+00 0. -1.
         11    1    4    4    0    0 -0.13208083340E+02  0.11777118638E+02  0.32360292522E+01  0.17989604623E+02  0.51100000000E-03 0.  1.
        -11    1    4    4    0    0 -0.51961960566E+00  0.12450710627E+02 -0.10309318632E+02  0.16173195435E+02  0.51100000000E-03 0. -1.
         12    1    4    4    0    0 -0.83762727756E+00 -0.37460166595E+01 -0.19836303331E+02  0.20204286429E+02  0.00000000000E+00 0. -1.
</event>
<event>
 8    1  0.1247338E-006  0.9118800E+02  0.7816164E-02  0.1184000E+00
        -11   -1    0    0    0    0  0.00000000000E+00  0.00000000000E+00  0.45593999997E+02  0.45594000000E+02  0.51100000000E-03 0.  1.
         11   -1    0    0    0    0 -0.00000000000E+00 -0.00000000000E+00 -0.45593999997E+02  0.45594000000E+02  0.51100000000E-03 0. -1.
         23    2    1    2    0    0  0.00000000000E+00  0.00000000000E+00  0.00000000000E+00  0.91188000000E+02  0.91188000000E+02 0.  0.
    9900012    2    3    3    0    0  0.15957185952E+02 -0.42582436082E+01 -0.32909257056E+02  0.54367032847E+02  0.39999882980E+02 0.  0.
        -12    1    3    3    0    0 -0.15957185952E+02  0.42582436082E+01  0.32909257056E+02  0.36820967153E+02  0.00000000000E+00 0.  1.
         11    1    4    4    0    0  0.59683608976E+01  0.61137454191E+01 -0.15587861307E+01  0.86849887344E+01  0.51100000000E-03 0.  1.
        -11    1    4    4    0    0  0.15665447082E+02 -0.10637341397E+02 -0.62411598656E+01  0.19937686451E+02  0.51100000000E-03 0. -1.
        -12    1    4    4    0    0 -0.56766220274E+01  0.26535236963E+00 -0.25109311060E+02  0.25744357662E+02  0.00000000000E+00 0.  1.
</event>
<event>
 8    1  0.1247338E-006  0.9118800E+02  0.7816164E-02  0.1184000E+00
        -11   -1    0    0    0    0  0.00000000000E+00  0.00000000000E+00  0.45593999997E+02  0.45594000000E+02  0.51100000000E-03 0. -1.
         11   -1    0    0    0    0 -0.00000000000E+00 -0.00000000000E+00 -0.45593999997E+02  0.45594000000E+02  0.51100000000E-03 0.  1.
         23    2    1    2    0    0  0.00000000000E+00  0.00000000000E+00  0.00000000000E+00  0.91188000000E+02  0.91188000000E+02 0.  0.
    9900012    2    3    3    0    0  0.33932144846E+02  0.14098245914E+02 -0.23721236483E+01  0.54367109703E+02  0.40000058189E+02 0.  0.
         12    1    3    3    0    0 -0.33932144846E+02 -0.14098245914E+02  0.23721236483E+01  0.36820890297E+02  0.00000000000E+00 0. -1.
         11    1    4    4    0    0 -0.85912050263E-01  0.10993628211E+02 -0.58029765524E+01  0.12431483389E+02  0.51100000000E-03 0. -1.
        -11    1    4    4    0    0  0.68569419016E+01 -0.72340677287E+01 -0.56882011256E+01  0.11476280776E+02  0.51100000000E-03 0.  1.
        -12    1    4    4    0    0  0.27161114994E+02  0.10338685432E+02  0.91190540298E+01  0.30459345538E+02  0.00000000000E+00 0.  1.
</event>
<event>
 8    1  0.1247338E-006  0.9118800E+02  0.7816164E-02  0.1184000E+00
        -11   -1    0    0    0    0  0.00000000000E+00  0.00000000000E+00  0.45593999997E+02  0.45594000000E+02  0.51100000000E-03 0.  1.
         11   -1    0    0    0    0 -0.00000000000E+00 -0.00000000000E+00 -0.45593999997E+02  0.45594000000E+02  0.51100000000E-03 0. -1.
         23    2    1    2    0    0  0.00000000000E+00  0.00000000000E+00  0.35527136788E-14  0.91188000000E+02  0.91188000000E+02 0.  0.
    9900012    2    3    3    0    0 -0.25359625077E+02  0.15364729070E+02  0.21831048124E+02  0.54367080055E+02  0.39999990601E+02 0.  0.
         12    1    3    3    0    0  0.25359625077E+02 -0.15364729070E+02 -0.21831048124E+02  0.36820919945E+02  0.00000000000E+00 0. -1.
         11    1    4    4    0    0  0.63243781571E+00 -0.22173551047E+01 -0.64277985424E+01  0.68288531697E+01  0.51100000000E-03 0. -1.
        -11    1    4    4    0    0 -0.98640590861E+01  0.17406712016E+02  0.77711634856E+01  0.21463556719E+02  0.51100000000E-03 0.  1.
        -12    1    4    4    0    0 -0.16128003806E+02  0.17537215959E+00  0.20487683180E+02  0.26074670166E+02  0.00000000000E+00 0.  1.
</event>
<event>
 8    1  0.1247338E-006  0.9118800E+02  0.7816164E-02  0.1184000E+00
        -11   -1    0    0    0    0  0.00000000000E+00  0.00000000000E+00  0.45593999997E+02  0.45594000000E+02  0.51100000000E-03 0.  1.
         11   -1    0    0    0    0 -0.00000000000E+00 -0.00000000000E+00 -0.45593999997E+02  0.45594000000E+02  0.51100000000E-03 0. -1.
         23    2    1    2    0    0  0.00000000000E+00  0.00000000000E+00  0.00000000000E+00  0.91188000000E+02  0.91188000000E+02 0.  0.
    9900012    2    3    3    0    0 -0.16231039626E+02 -0.25448030019E+02 -0.21088664099E+02  0.54367073441E+02  0.39999975524E+02 0.  0.
         12    1    3    3    0    0  0.16231039626E+02  0.25448030019E+02  0.21088664099E+02  0.36820926559E+02  0.00000000000E+00 0. -1.
         11    1    4    4    0    0 -0.18459009661E+01  0.45983622497E+01  0.49506775803E+01  0.70043910885E+01  0.51100000000E-03 0. -1.
        -11    1    4    4    0    0 -0.11919493848E+02 -0.15218385686E+02 -0.25818997554E+01  0.19502302507E+02  0.51100000000E-03 0.  1.
        -12    1    4    4    0    0 -0.24656448117E+01 -0.14828006583E+02 -0.23457441924E+02  0.27860379846E+02  0.00000000000E+00 0.  1.
</event>
<event>
 8    1  0.1247338E-006  0.9118800E+02  0.7816164E-02  0.1184000E+00
        -11   -1    0    0    0    0  0.00000000000E+00  0.00000000000E+00  0.45593999997E+02  0.45594000000E+02  0.51100000000E-03 0.  1.
         11   -1    0    0    0    0 -0.00000000000E+00 -0.00000000000E+00 -0.45593999997E+02  0.45594000000E+02  0.51100000000E-03 0. -1.
         23    2    1    2    0    0  0.00000000000E+00 -0.17763568394E-14  0.00000000000E+00  0.91188000000E+02  0.91188000000E+02 0.  0.
    9900012    2    3    3    0    0  0.34765053342E+02 -0.59415440035E+01  0.10576857092E+02  0.54367071372E+02  0.39999970808E+02 0.  0.
         12    1    3    3    0    0 -0.34765053342E+02  0.59415440035E+01 -0.10576857092E+02  0.36820928628E+02  0.00000000000E+00 0. -1.
         11    1    4    4    0    0  0.16092735194E+02  0.13718278383E+02 -0.34686828763E+00  0.21149175059E+02  0.51100000000E-03 0. -1.
        -11    1    4    4    0    0  0.13865477908E+02 -0.21042230379E+02  0.54106547656E+01  0.25774059094E+02  0.51100000000E-03 0.  1.
        -12    1    4    4    0    0  0.48068402405E+01  0.13824079924E+01  0.55130706144E+01  0.74438372197E+01  0.00000000000E+00 0.  1.
</event>
<event>
 8    1  0.1247338E-006  0.9118800E+02  0.7816164E-02  0.1184000E+00
        -11   -1    0    0    0    0  0.00000000000E+00  0.00000000000E+00  0.45593999997E+02  0.45594000000E+02  0.51100000000E-03 0.  1.
         11   -1    0    0    0    0 -0.00000000000E+00 -0.00000000000E+00 -0.45593999997E+02  0.45594000000E+02  0.51100000000E-03 0. -1.
         23    2    1    2    0    0  0.00000000000E+00 -0.35527136788E-14  0.00000000000E+00  0.91188000000E+02  0.91188000000E+02 0.  0.
    9900012    2    3    3    0    0 -0.87873774296E+01  0.26032331527E+02 -0.24512865091E+02  0.54367070601E+02  0.39999969049E+02 0.  0.
        -12    1    3    3    0    0  0.87873774296E+01 -0.26032331527E+02  0.24512865091E+02  0.36820929399E+02  0.00000000000E+00 0.  1.
         11    1    4    4    0    0  0.64099565200E+01  0.14880266509E+02 -0.24061524271E+02  0.29008047581E+02  0.51100000000E-03 0. -1.
        -11    1    4    4    0    0 -0.35612519667E+01  0.12304039587E+02  0.30227330615E+01  0.13160882233E+02  0.51100000000E-03 0.  1.
        -12    1    4    4    0    0 -0.11636081983E+02 -0.11519745689E+01 -0.34740738815E+01  0.12198140787E+02  0.00000000000E+00 0.  1.
</event>
<event>
 8    1  0.1247338E-006  0.9118800E+02  0.7816164E-02  0.1184000E+00
        -11   -1    0    0    0    0  0.00000000000E+00  0.00000000000E+00  0.45593999997E+02  0.45594000000E+02  0.51100000000E-03 0.  1.
         11   -1    0    0    0    0 -0.00000000000E+00 -0.00000000000E+00 -0.45593999997E+02  0.45594000000E+02  0.51100000000E-03 0. -1.
         23    2    1    2    0    0  0.17763568394E-14 -0.35527136788E-14  0.00000000000E+00  0.91188000000E+02  0.91188000000E+02 0.  0.
    9900012    2    3    3    0    0 -0.56110612254E+01  0.23158555217E+02  0.28070921261E+02  0.54367091425E+02  0.40000016522E+02 0.  0.
         12    1    3    3    0    0  0.56110612254E+01 -0.23158555217E+02 -0.28070921261E+02  0.36820908575E+02  0.00000000000E+00 0. -1.
         11    1    4    4    0    0  0.75822939907E+01  0.79618757174E+00 -0.25681607674E+01  0.80449081286E+01  0.51100000000E-03 0. -1.
        -11    1    4    4    0    0 -0.12526777843E+02  0.27133958148E+02  0.27109935576E+02  0.40349974660E+02  0.51100000000E-03 0.  1.
        -12    1    4    4    0    0 -0.66657737311E+00 -0.47715905022E+01  0.35291464526E+01  0.59722086366E+01  0.00000000000E+00 0.  1.
</event>
<event>
 8    1  0.1247338E-006  0.9118800E+02  0.7816164E-02  0.1184000E+00
        -11   -1    0    0    0    0  0.00000000000E+00  0.00000000000E+00  0.45593999997E+02  0.45594000000E+02  0.51100000000E-03 0. -1.
         11   -1    0    0    0    0 -0.00000000000E+00 -0.00000000000E+00 -0.45593999997E+02  0.45594000000E+02  0.51100000000E-03 0.  1.
         23    2    1    2    0    0  0.35527136788E-14  0.00000000000E+00 -0.35527136788E-14  0.91188000000E+02  0.91188000000E+02 0.  0.
    9900012    2    3    3    0    0 -0.19702158562E+02 -0.12834055693E+02 -0.28335322184E+02  0.54367102118E+02  0.40000040899E+02 0.  0.
         12    1    3    3    0    0  0.19702158562E+02  0.12834055693E+02  0.28335322184E+02  0.36820897882E+02  0.00000000000E+00 0. -1.
         11    1    4    4    0    0  0.55452612622E+01  0.67477899205E+01 -0.11639238082E+01  0.88112036731E+01  0.51100000000E-03 0. -1.
        -11    1    4    4    0    0 -0.23704301054E+02 -0.19731380607E+02 -0.29552208131E+02  0.42714801589E+02  0.51100000000E-03 0.  1.
         12    1    4    4    0    0 -0.15431187705E+01  0.14953499376E+00  0.23808097552E+01  0.28410968559E+01  0.00000000000E+00 0. -1.
</event>
<event>
 8    1  0.1247338E-006  0.9118800E+02  0.7816164E-02  0.1184000E+00
        -11   -1    0    0    0    0  0.00000000000E+00  0.00000000000E+00  0.45593999997E+02  0.45594000000E+02  0.51100000000E-03 0. -1.
         11   -1    0    0    0    0 -0.00000000000E+00 -0.00000000000E+00 -0.45593999997E+02  0.45594000000E+02  0.51100000000E-03 0.  1.
         23    2    1    2    0    0  0.00000000000E+00  0.00000000000E+00  0.66613381478E-15  0.91188000000E+02  0.91188000000E+02 0.  0.
    9900012    2    3    3    0    0 -0.15692283799E+02 -0.33294076187E+02 -0.10184452410E+01  0.54367075098E+02  0.39999979301E+02 0.  0.
        -12    1    3    3    0    0  0.15692283799E+02  0.33294076187E+02  0.10184452410E+01  0.36820924902E+02  0.00000000000E+00 0.  1.
         11    1    4    4    0    0 -0.12382326208E+01 -0.21793258146E+02  0.14459348791E+02  0.26183049638E+02  0.51100000000E-03 0. -1.
        -11    1    4    4    0    0 -0.92351040195E+01 -0.11719443272E+02 -0.17118877997E+02  0.22708775418E+02  0.51100000000E-03 0.  1.
        -12    1    4    4    0    0 -0.52189471586E+01  0.21862523093E+00  0.16410839654E+01  0.54752500415E+01  0.00000000000E+00 0.  1.
</event>
<event>
 8    1  0.1247338E-006  0.9118800E+02  0.7816164E-02  0.1184000E+00
        -11   -1    0    0    0    0  0.00000000000E+00  0.00000000000E+00  0.45593999997E+02  0.45594000000E+02  0.51100000000E-03 0.  1.
         11   -1    0    0    0    0 -0.00000000000E+00 -0.00000000000E+00 -0.45593999997E+02  0.45594000000E+02  0.51100000000E-03 0. -1.
         23    2    1    2    0    0  0.00000000000E+00  0.00000000000E+00 -0.35527136788E-14  0.91188000000E+02  0.91188000000E+02 0.  0.
    9900012    2    3    3    0    0 -0.21680393666E+02  0.19847397997E+02 -0.22177001212E+02  0.54367108383E+02  0.40000055180E+02 0.  0.
        -12    1    3    3    0    0  0.21680393666E+02 -0.19847397997E+02  0.22177001212E+02  0.36820891617E+02  0.00000000000E+00 0.  1.
         11    1    4    4    0    0 -0.85389616103E+00  0.11621021155E+02 -0.40771355325E+01  0.12345051873E+02  0.51100000000E-03 0. -1.
        -11    1    4    4    0    0 -0.16132212595E+02  0.19699270262E+02 -0.13327410294E+02  0.28738987412E+02  0.51100000000E-03 0.  1.
         12    1    4    4    0    0 -0.46942849092E+01 -0.11472893420E+02 -0.47724553858E+01  0.13283069097E+02  0.00000000000E+00 0. -1.
</event>
<event>
 8    1  0.1247338E-006  0.9118800E+02  0.7816164E-02  0.1184000E+00
        -11   -1    0    0    0    0  0.00000000000E+00  0.00000000000E+00  0.45593999997E+02  0.45594000000E+02  0.51100000000E-03 0.  1.
         11   -1    0    0    0    0 -0.00000000000E+00 -0.00000000000E+00 -0.45593999997E+02  0.45594000000E+02  0.51100000000E-03 0. -1.
         23    2    1    2    0    0 -0.17763568394E-14  0.00000000000E+00  0.00000000000E+00  0.91188000000E+02  0.91188000000E+02 0.  0.
    9900012    2    3    3    0    0 -0.14353390768E+02  0.43505640958E+01 -0.33627851944E+02  0.54367086637E+02  0.40000005607E+02 0.  0.
        -12    1    3    3    0    0  0.14353390768E+02 -0.43505640958E+01  0.33627851944E+02  0.36820913363E+02  0.00000000000E+00 0.  1.
         11    1    4    4    0    0  0.77848698686E+00  0.11767917251E+02 -0.26637694076E+02  0.29131712349E+02  0.51100000000E-03 0. -1.
        -11    1    4    4    0    0  0.29808127136E+01 -0.17032352468E+01  0.22596716612E+01  0.41100329703E+01  0.51100000000E-03 0.  1.
         12    1    4    4    0    0 -0.18112690469E+02 -0.57141179082E+01 -0.92498295291E+01  0.21125341318E+02  0.00000000000E+00 0. -1.
</event>
<event>
 8    1  0.1247338E-006  0.9118800E+02  0.7816164E-02  0.1184000E+00
        -11   -1    0    0    0    0  0.00000000000E+00  0.00000000000E+00  0.45593999997E+02  0.45594000000E+02  0.51100000000E-03 0.  1.
         11   -1    0    0    0    0 -0.00000000000E+00 -0.00000000000E+00 -0.45593999997E+02  0.45594000000E+02  0.51100000000E-03 0. -1.
         23    2    1    2    0    0 -0.17763568394E-14 -0.44408920985E-15  0.71054273576E-14  0.91188000000E+02  0.91188000000E+02 0.  0.
    9900012    2    3    3    0    0  0.90912219840E+01 -0.36496052596E+01  0.35493817515E+02  0.54367068215E+02  0.39999963610E+02 0.  0.
         12    1    3    3    0    0 -0.90912219840E+01  0.36496052596E+01 -0.35493817515E+02  0.36820931785E+02  0.00000000000E+00 0. -1.
         11    1    4    4    0    0 -0.46187870804E+01  0.12151365818E+01 -0.30325941153E+01  0.56574179920E+01  0.51100000000E-03 0. -1.
        -11    1    4    4    0    0  0.15449496794E+02 -0.13249947281E+02  0.21235245456E+02  0.29414005235E+02  0.51100000000E-03 0.  1.
        -12    1    4    4    0    0 -0.17394877293E+01  0.83852054399E+01  0.17291166174E+02  0.19295644988E+02  0.00000000000E+00 0.  1.
</event>
<event>
 8    1  0.1247338E-006  0.9118800E+02  0.7816164E-02  0.1184000E+00
        -11   -1    0    0    0    0  0.00000000000E+00  0.00000000000E+00  0.45593999997E+02  0.45594000000E+02  0.51100000000E-03 0. -1.
         11   -1    0    0    0    0 -0.00000000000E+00 -0.00000000000E+00 -0.45593999997E+02  0.45594000000E+02  0.51100000000E-03 0.  1.
         23    2    1    2    0    0  0.71054273576E-14  0.35527136788E-14 -0.35527136788E-14  0.91188000000E+02  0.91188000000E+02 0.  0.
    9900012    2    3    3    0    0  0.18424865498E+02  0.25057296745E+02 -0.19708734257E+02  0.54367109261E+02  0.40000057183E+02 0.  0.
         12    1    3    3    0    0 -0.18424865498E+02 -0.25057296745E+02  0.19708734257E+02  0.36820890739E+02  0.00000000000E+00 0. -1.
         11    1    4    4    0    0 -0.13801031310E+01 -0.16480344023E+01 -0.28056195499E-01  0.21497649766E+01  0.51100000000E-03 0. -1.
        -11    1    4    4    0    0 -0.67153511030E+01  0.19179709277E+02 -0.12000046885E+02  0.23599964277E+02  0.51100000000E-03 0.  1.
        -12    1    4    4    0    0  0.26520319732E+02  0.75256218710E+01 -0.76806311756E+01  0.28617380007E+02  0.00000000000E+00 0.  1.
</event>
<event>
 8    1  0.1247338E-006  0.9118800E+02  0.7816164E-02  0.1184000E+00
        -11   -1    0    0    0    0  0.00000000000E+00  0.00000000000E+00  0.45593999997E+02  0.45594000000E+02  0.51100000000E-03 0.  1.
         11   -1    0    0    0    0 -0.00000000000E+00 -0.00000000000E+00 -0.45593999997E+02  0.45594000000E+02  0.51100000000E-03 0. -1.
         23    2    1    2    0    0  0.00000000000E+00  0.00000000000E+00  0.35527136788E-14  0.91188000000E+02  0.91188000000E+02 0.  0.
    9900012    2    3    3    0    0 -0.10880850851E+02  0.27620823542E+02 -0.21782492054E+02  0.54367085176E+02  0.40000002276E+02 0.  0.
        -12    1    3    3    0    0  0.10880850851E+02 -0.27620823542E+02  0.21782492054E+02  0.36820914824E+02  0.00000000000E+00 0.  1.
         11    1    4    4    0    0 -0.17264624117E+02  0.16634462168E+02 -0.85610955375E+01  0.25457119527E+02  0.51100000000E-03 0. -1.
        -11    1    4    4    0    0  0.10402610028E+01 -0.41438304935E+01  0.36552732481E+01  0.56226770218E+01  0.51100000000E-03 0.  1.
         12    1    4    4    0    0  0.53435122636E+01  0.15130191868E+02 -0.16876669765E+02  0.23287288628E+02  0.00000000000E+00 0. -1.
</event>
<event>
 8    1  0.1247338E-006  0.9118800E+02  0.7816164E-02  0.1184000E+00
        -11   -1    0    0    0    0  0.00000000000E+00  0.00000000000E+00  0.45593999997E+02  0.45594000000E+02  0.51100000000E-03 0. -1.
         11   -1    0    0    0    0 -0.00000000000E+00 -0.00000000000E+00 -0.45593999997E+02  0.45594000000E+02  0.51100000000E-03 0.  1.
         23    2    1    2    0    0  0.00000000000E+00  0.35527136788E-14  0.00000000000E+00  0.91188000000E+02  0.91188000000E+02 0.  0.
    9900012    2    3    3    0    0  0.12876898953E+02  0.25345273937E+02 -0.23400499604E+02  0.54367070906E+02  0.39999969745E+02 0.  0.
         12    1    3    3    0    0 -0.12876898953E+02 -0.25345273937E+02  0.23400499604E+02  0.36820929094E+02  0.00000000000E+00 0. -1.
         11    1    4    4    0    0  0.81391843913E+01  0.42948570750E+01 -0.61741239888E+01  0.11082054283E+02  0.51100000000E-03 0. -1.
        -11    1    4    4    0    0  0.75549566691E+00  0.29377946512E+02 -0.17206409081E+02  0.34054295304E+02  0.51100000000E-03 0.  1.
         12    1    4    4    0    0  0.39822188949E+01 -0.83275296501E+01 -0.19966534675E-01  0.92307213187E+01  0.00000000000E+00 0. -1.
</event>
<event>
 8    1  0.1247338E-006  0.9118800E+02  0.7816164E-02  0.1184000E+00
        -11   -1    0    0    0    0  0.00000000000E+00  0.00000000000E+00  0.45593999997E+02  0.45594000000E+02  0.51100000000E-03 0.  1.
         11   -1    0    0    0    0 -0.00000000000E+00 -0.00000000000E+00 -0.45593999997E+02  0.45594000000E+02  0.51100000000E-03 0. -1.
         23    2    1    2    0    0  0.00000000000E+00 -0.35527136788E-14 -0.35527136788E-14  0.91188000000E+02  0.91188000000E+02 0.  0.
    9900012    2    3    3    0    0  0.28235157890E+01 -0.31247706973E+02 -0.19271451040E+02  0.54367078533E+02  0.39999987132E+02 0.  0.
        -12    1    3    3    0    0 -0.28235157890E+01  0.31247706973E+02  0.19271451040E+02  0.36820921467E+02  0.00000000000E+00 0.  1.
         11    1    4    4    0    0  0.26068356788E+01 -0.16505506968E+02  0.56593264528E+01  0.17642429784E+02  0.51100000000E-03 0. -1.
        -11    1    4    4    0    0  0.26777699379E+01 -0.20347350646E+02 -0.16653539326E+02  0.26429633037E+02  0.51100000000E-03 0.  1.
        -12    1    4    4    0    0 -0.24610898278E+01  0.56051506402E+01 -0.82772381664E+01  0.10295015712E+02  0.00000000000E+00 0.  1.
</event>
<event>
 8    1  0.1247338E-006  0.9118800E+02  0.7816164E-02  0.1184000E+00
        -11   -1    0    0    0    0  0.00000000000E+00  0.00000000000E+00  0.45593999997E+02  0.45594000000E+02  0.51100000000E-03 0. -1.
         11   -1    0    0    0    0 -0.00000000000E+00 -0.00000000000E+00 -0.45593999997E+02  0.45594000000E+02  0.51100000000E-03 0.  1.
         23    2    1    2    0    0  0.00000000000E+00  0.00000000000E+00  0.00000000000E+00  0.91188000000E+02  0.91188000000E+02 0.  0.
    9900012    2    3    3    0    0 -0.46622300321E+01  0.21119521225E+02  0.29799446077E+02  0.54367115272E+02  0.40000070886E+02 0.  0.
        -12    1    3    3    0    0  0.46622300321E+01 -0.21119521225E+02 -0.29799446077E+02  0.36820884728E+02  0.00000000000E+00 0.  1.
         11    1    4    4    0    0 -0.31154430210E+01  0.97911588558E+01  0.11931458228E+02  0.15745871607E+02  0.51100000000E-03 0. -1.
        -11    1    4    4    0    0  0.44831221345E+01 -0.55975893561E+00  0.23659882248E+02  0.24087377242E+02  0.51100000000E-03 0.  1.
        -12    1    4    4    0    0 -0.60299091456E+01  0.11888121305E+02 -0.57918943996E+01  0.14533866423E+02  0.00000000000E+00 0.  1.
</event>
<event>
 8    1  0.1247338E-006  0.9118800E+02  0.7816164E-02  0.1184000E+00
        -11   -1    0    0    0    0  0.00000000000E+00  0.00000000000E+00  0.45593999997E+02  0.45594000000E+02  0.51100000000E-03 0. -1.
         11   -1    0    0    0    0 -0.00000000000E+00 -0.00000000000E+00 -0.45593999997E+02  0.45594000000E+02  0.51100000000E-03 0.  1.
         23    2    1    2    0    0  0.35527136788E-14 -0.35527136788E-14  0.39968028887E-14  0.91188000000E+02  0.91188000000E+02 0.  0.
    9900012    2    3    3    0    0  0.30942958503E+02 -0.19704053489E+02 -0.31723868195E+01  0.54367076017E+02  0.39999981397E+02 0.  0.
         12    1    3    3    0    0 -0.30942958503E+02  0.19704053489E+02  0.31723868195E+01  0.36820923983E+02  0.00000000000E+00 0. -1.
         11    1    4    4    0    0  0.14800849740E+02 -0.19988630419E+02  0.13529096147E+02  0.28313370373E+02  0.51100000000E-03 0.  1.
        -11    1    4    4    0    0  0.52052805243E+01 -0.43537718820E+01 -0.18466507680E+01  0.70328084190E+01  0.51100000000E-03 0. -1.
         12    1    4    4    0    0  0.10936828238E+02  0.46383488117E+01 -0.14854832199E+02  0.19020897225E+02  0.00000000000E+00 0. -1.
</event>
<event>
 8    1  0.1247338E-006  0.9118800E+02  0.7816164E-02  0.1184000E+00
        -11   -1    0    0    0    0  0.00000000000E+00  0.00000000000E+00  0.45593999997E+02  0.45594000000E+02  0.51100000000E-03 0. -1.
         11   -1    0    0    0    0 -0.00000000000E+00 -0.00000000000E+00 -0.45593999997E+02  0.45594000000E+02  0.51100000000E-03 0.  1.
         23    2    1    2    0    0  0.00000000000E+00  0.35527136788E-14  0.00000000000E+00  0.91188000000E+02  0.91188000000E+02 0.  0.
    9900012    2    3    3    0    0 -0.26839819729E+02  0.24911480840E+02  0.38498247503E+01  0.54367096272E+02  0.40000027572E+02 0.  0.
        -12    1    3    3    0    0  0.26839819729E+02 -0.24911480840E+02 -0.38498247503E+01  0.36820903728E+02  0.00000000000E+00 0.  1.
         11    1    4    4    0    0  0.51814188078E+00  0.11511530498E+02  0.75759512994E+01  0.13790534571E+02  0.51100000000E-03 0. -1.
        -11    1    4    4    0    0 -0.23725832709E+02  0.14634035284E+02  0.73718975820E+01  0.28834267819E+02  0.51100000000E-03 0.  1.
        -12    1    4    4    0    0 -0.36321289006E+01 -0.12340849421E+01 -0.11098024131E+02  0.11742293882E+02  0.00000000000E+00 0.  1.
</event>
<event>
 8    1  0.1247338E-006  0.9118800E+02  0.7816164E-02  0.1184000E+00
        -11   -1    0    0    0    0  0.00000000000E+00  0.00000000000E+00  0.45593999997E+02  0.45594000000E+02  0.51100000000E-03 0. -1.
         11   -1    0    0    0    0 -0.00000000000E+00 -0.00000000000E+00 -0.45593999997E+02  0.45594000000E+02  0.51100000000E-03 0.  1.
         23    2    1    2    0    0  0.00000000000E+00  0.00000000000E+00  0.00000000000E+00  0.91188000000E+02  0.91188000000E+02 0.  0.
    9900012    2    3    3    0    0  0.35890614961E+02 -0.57826771291E+01 -0.58482314864E+01  0.54367117222E+02  0.40000075330E+02 0.  0.
        -12    1    3    3    0    0 -0.35890614961E+02  0.57826771291E+01  0.58482314864E+01  0.36820882778E+02  0.00000000000E+00 0.  1.
         11    1    4    4    0    0 -0.43006727003E+01 -0.73891788583E+01 -0.63252511328E+01  0.10635062390E+02  0.51100000000E-03 0. -1.
        -11    1    4    4    0    0  0.14584672369E+02 -0.49850785574E+01 -0.59484529813E+01  0.16521130998E+02  0.51100000000E-03 0.  1.
         12    1    4    4    0    0  0.25606615292E+02  0.65915802866E+01  0.64254726277E+01  0.27210923834E+02  0.00000000000E+00 0. -1.
</event>
<event>
 8    1  0.1247338E-006  0.9118800E+02  0.7816164E-02  0.1184000E+00
        -11   -1    0    0    0    0  0.00000000000E+00  0.00000000000E+00  0.45593999997E+02  0.45594000000E+02  0.51100000000E-03 0.  1.
         11   -1    0    0    0    0 -0.00000000000E+00 -0.00000000000E+00 -0.45593999997E+02  0.45594000000E+02  0.51100000000E-03 0. -1.
         23    2    1    2    0    0  0.00000000000E+00  0.00000000000E+00  0.00000000000E+00  0.91188000000E+02  0.91188000000E+02 0.  0.
    9900012    2    3    3    0    0  0.19228623507E+02 -0.72380152031E+01  0.30555687304E+02  0.54367097612E+02  0.40000030627E+02 0.  0.
         12    1    3    3    0    0 -0.19228623507E+02  0.72380152031E+01 -0.30555687304E+02  0.36820902388E+02  0.00000000000E+00 0. -1.
         11    1    4    4    0    0  0.13187686508E+02  0.74759946479E+01  0.11993998410E+02  0.19330327714E+02  0.51100000000E-03 0. -1.
        -11    1    4    4    0    0  0.93961559187E+01 -0.18694644389E+02  0.20678050869E+02  0.29416989357E+02  0.51100000000E-03 0.  1.
        -12    1    4    4    0    0 -0.33552189199E+01  0.39806345377E+01 -0.21163619747E+01  0.56197805412E+01  0.00000000000E+00 0.  1.
</event>
<event>
 8    1  0.1247338E-006  0.9118800E+02  0.7816164E-02  0.1184000E+00
        -11   -1    0    0    0    0  0.00000000000E+00  0.00000000000E+00  0.45593999997E+02  0.45594000000E+02  0.51100000000E-03 0.  1.
         11   -1    0    0    0    0 -0.00000000000E+00 -0.00000000000E+00 -0.45593999997E+02  0.45594000000E+02  0.51100000000E-03 0. -1.
         23    2    1    2    0    0  0.00000000000E+00 -0.17763568394E-14  0.00000000000E+00  0.91188000000E+02  0.91188000000E+02 0.  0.
    9900012    2    3    3    0    0 -0.22833289182E+02 -0.12503709410E+02  0.26039945976E+02  0.54367073473E+02  0.39999975597E+02 0.  0.
         12    1    3    3    0    0  0.22833289182E+02  0.12503709410E+02 -0.26039945976E+02  0.36820926527E+02  0.00000000000E+00 0. -1.
         11    1    4    4    0    0 -0.86481052047E+00  0.34540675067E+01  0.14776825241E+02  0.15199771184E+02  0.51100000000E-03 0.  1.
        -11    1    4    4    0    0 -0.11510535102E+02 -0.39414867983E+00  0.16106802165E+02  0.19800930477E+02  0.51100000000E-03 0. -1.
         12    1    4    4    0    0 -0.10457943559E+02 -0.15563628237E+02 -0.48436814298E+01  0.19366371813E+02  0.00000000000E+00 0. -1.
</event>
<event>
 8    1  0.1247338E-006  0.9118800E+02  0.7816164E-02  0.1184000E+00
        -11   -1    0    0    0    0  0.00000000000E+00  0.00000000000E+00  0.45593999997E+02  0.45594000000E+02  0.51100000000E-03 0.  1.
         11   -1    0    0    0    0 -0.00000000000E+00 -0.00000000000E+00 -0.45593999997E+02  0.45594000000E+02  0.51100000000E-03 0. -1.
         23    2    1    2    0    0 -0.35527136788E-14  0.17763568394E-14  0.00000000000E+00  0.91188000000E+02  0.91188000000E+02 0.  0.
    9900012    2    3    3    0    0  0.27579707522E+02 -0.14090785878E+02  0.19914537484E+02  0.54367091309E+02  0.40000016257E+02 0.  0.
         12    1    3    3    0    0 -0.27579707522E+02  0.14090785878E+02 -0.19914537484E+02  0.36820908691E+02  0.00000000000E+00 0. -1.
         11    1    4    4    0    0 -0.27577693533E+01 -0.74840057530E+01  0.29334729210E+01  0.84982879192E+01  0.51100000000E-03 0. -1.
        -11    1    4    4    0    0  0.57421184959E+00 -0.87543210373E+01  0.13114927151E+02  0.15778756938E+02  0.51100000000E-03 0.  1.
        -12    1    4    4    0    0  0.29763265026E+02  0.21475409125E+01  0.38661374115E+01  0.30090046451E+02  0.00000000000E+00 0.  1.
</event>
<event>
 8    1  0.1247338E-006  0.9118800E+02  0.7816164E-02  0.1184000E+00
        -11   -1    0    0    0    0  0.00000000000E+00  0.00000000000E+00  0.45593999997E+02  0.45594000000E+02  0.51100000000E-03 0. -1.
         11   -1    0    0    0    0 -0.00000000000E+00 -0.00000000000E+00 -0.45593999997E+02  0.45594000000E+02  0.51100000000E-03 0.  1.
         23    2    1    2    0    0  0.00000000000E+00  0.00000000000E+00  0.00000000000E+00  0.91188000000E+02  0.91188000000E+02 0.  0.
    9900012    2    3    3    0    0  0.13140105611E+02  0.19019864284E+02  0.28659314888E+02  0.54367164285E+02  0.40000182621E+02 0.  0.
         12    1    3    3    0    0 -0.13140105611E+02 -0.19019864284E+02 -0.28659314888E+02  0.36820835715E+02  0.00000000000E+00 0. -1.
         11    1    4    4    0    0  0.70772928699E+01  0.16990432437E+02  0.82278506104E+01  0.20160862945E+02  0.51100000000E-03 0. -1.
        -11    1    4    4    0    0 -0.67405375756E+01 -0.71246186133E+01  0.20730140096E+01  0.10024590991E+02  0.51100000000E-03 0.  1.
        -12    1    4    4    0    0  0.12803350317E+02  0.91540504607E+01  0.18358450268E+02  0.24181710349E+02  0.00000000000E+00 0.  1.
</event>
<event>
 8    1  0.1247338E-006  0.9118800E+02  0.7816164E-02  0.1184000E+00
        -11   -1    0    0    0    0  0.00000000000E+00  0.00000000000E+00  0.45593999997E+02  0.45594000000E+02  0.51100000000E-03 0.  1.
         11   -1    0    0    0    0 -0.00000000000E+00 -0.00000000000E+00 -0.45593999997E+02  0.45594000000E+02  0.51100000000E-03 0. -1.
         23    2    1    2    0    0  0.00000000000E+00  0.00000000000E+00  0.00000000000E+00  0.91188000000E+02  0.91188000000E+02 0.  0.
    9900012    2    3    3    0    0 -0.14460760099E+02 -0.63740041132E+01  0.33257157147E+02  0.54367081861E+02  0.39999994719E+02 0.  0.
         12    1    3    3    0    0  0.14460760099E+02  0.63740041132E+01 -0.33257157147E+02  0.36820918139E+02  0.00000000000E+00 0. -1.
         11    1    4    4    0    0 -0.17035166131E+02 -0.55146441564E+01  0.22499378764E+02  0.28754655802E+02  0.51100000000E-03 0. -1.
        -11    1    4    4    0    0 -0.10035744980E+02  0.15194217431E+01  0.28642889084E+01  0.10546514635E+02  0.51100000000E-03 0.  1.
         12    1    4    4    0    0  0.12610151012E+02 -0.23787816999E+01  0.78934894752E+01  0.15065911424E+02  0.00000000000E+00 0. -1.
</event>
<event>
 8    1  0.1247338E-006  0.9118800E+02  0.7816164E-02  0.1184000E+00
        -11   -1    0    0    0    0  0.00000000000E+00  0.00000000000E+00  0.45593999997E+02  0.45594000000E+02  0.51100000000E-03 0.  1.
         11   -1    0    0    0    0 -0.00000000000E+00 -0.00000000000E+00 -0.45593999997E+02  0.45594000000E+02  0.51100000000E-03 0. -1.
         23    2    1    2    0    0  0.00000000000E+00  0.17763568394E-14  0.35527136788E-14  0.91188000000E+02  0.91188000000E+02 0.  0.
    9900012    2    3    3    0    0 -0.34496849144E+02 -0.63818014382E+01 -0.11181244870E+02  0.54367078945E+02  0.39999988072E+02 0.  0.
         12    1    3    3    0    0  0.34496849144E+02  0.63818014382E+01  0.11181244870E+02  0.36820921055E+02  0.00000000000E+00 0. -1.
         11    1    4    4    0    0 -0.61541245819E+01  0.39965352145E+01 -0.39436628662E+01  0.83305474102E+01  0.51100000000E-03 0. -1.
        -11    1    4    4    0    0 -0.20318850968E+02 -0.17231087770E+02 -0.17047625677E+02  0.31628905006E+02  0.51100000000E-03 0.  1.
         12    1    4    4    0    0 -0.80238735946E+01  0.68527511174E+01  0.98100436733E+01  0.14407626529E+02  0.00000000000E+00 0. -1.
</event>
<event>
 8    1  0.1247338E-006  0.9118800E+02  0.7816164E-02  0.1184000E+00
        -11   -1    0    0    0    0  0.00000000000E+00  0.00000000000E+00  0.45593999997E+02  0.45594000000E+02  0.51100000000E-03 0.  1.
         11   -1    0    0    0    0 -0.00000000000E+00 -0.00000000000E+00 -0.45593999997E+02  0.45594000000E+02  0.51100000000E-03 0. -1.
         23    2    1    2    0    0  0.00000000000E+00  0.00000000000E+00  0.00000000000E+00  0.91188000000E+02  0.91188000000E+02 0.  0.
    9900012    2    3    3    0    0  0.70454244506E+01  0.11497956769E+02  0.34262771089E+02  0.54367102425E+02  0.40000041598E+02 0.  0.
         12    1    3    3    0    0 -0.70454244506E+01 -0.11497956769E+02 -0.34262771089E+02  0.36820897575E+02  0.00000000000E+00 0. -1.
         11    1    4    4    0    0  0.28854712288E+01 -0.59654702587E+01 -0.73673484075E+00  0.66675001393E+01  0.51100000000E-03 0. -1.
        -11    1    4    4    0    0  0.10606650824E+02  0.18309866125E+02  0.35337842917E+02  0.41188777374E+02  0.51100000000E-03 0.  1.
        -12    1    4    4    0    0 -0.64466976023E+01 -0.84643909761E+00 -0.33833698768E+00  0.65108249123E+01  0.00000000000E+00 0.  1.
</event>
<event>
 8    1  0.1247338E-006  0.9118800E+02  0.7816164E-02  0.1184000E+00
        -11   -1    0    0    0    0  0.00000000000E+00  0.00000000000E+00  0.45593999997E+02  0.45594000000E+02  0.51100000000E-03 0.  1.
         11   -1    0    0    0    0 -0.00000000000E+00 -0.00000000000E+00 -0.45593999997E+02  0.45594000000E+02  0.51100000000E-03 0. -1.
         23    2    1    2    0    0  0.00000000000E+00  0.49960036108E-15  0.00000000000E+00  0.91188000000E+02  0.91188000000E+02 0.  0.
    9900012    2    3    3    0    0  0.30466432636E+02  0.27814708761E+00  0.20676048487E+02  0.54367083874E+02  0.39999999307E+02 0.  0.
         12    1    3    3    0    0 -0.30466432636E+02 -0.27814708761E+00 -0.20676048487E+02  0.36820916126E+02  0.00000000000E+00 0. -1.
         11    1    4    4    0    0  0.17648293062E+02 -0.44798411590E+01  0.17529710947E+02  0.25274928109E+02  0.51100000000E-03 0. -1.
        -11    1    4    4    0    0  0.11532909719E+02  0.25163208731E+01  0.13782539616E+02  0.18146577525E+02  0.51100000000E-03 0.  1.
         12    1    4    4    0    0  0.12852298550E+01  0.22416673735E+01 -0.10636202076E+02  0.10945578240E+02  0.00000000000E+00 0. -1.
</event>
<event>
 8    1  0.1247338E-006  0.9118800E+02  0.7816164E-02  0.1184000E+00
        -11   -1    0    0    0    0  0.00000000000E+00  0.00000000000E+00  0.45593999997E+02  0.45594000000E+02  0.51100000000E-03 0.  1.
         11   -1    0    0    0    0 -0.00000000000E+00 -0.00000000000E+00 -0.45593999997E+02  0.45594000000E+02  0.51100000000E-03 0. -1.
         23    2    1    2    0    0  0.35527136788E-14 -0.35527136788E-14  0.00000000000E+00  0.91188000000E+02  0.91188000000E+02 0.  0.
    9900012    2    3    3    0    0 -0.24869345592E+02  0.25960808106E+02 -0.79581704619E+01  0.54367076807E+02  0.39999983197E+02 0.  0.
         12    1    3    3    0    0  0.24869345592E+02 -0.25960808106E+02  0.79581704619E+01  0.36820923193E+02  0.00000000000E+00 0. -1.
         11    1    4    4    0    0 -0.15205812311E+00 -0.19747535723E+01 -0.69719753782E+01  0.72478420430E+01  0.51100000000E-03 0. -1.
        -11    1    4    4    0    0 -0.19110518023E+02  0.55995908487E+00 -0.14269370165E+01  0.19171896171E+02  0.51100000000E-03 0.  1.
         12    1    4    4    0    0 -0.56067694455E+01  0.27375602593E+02  0.44074193285E+00  0.27947338593E+02  0.00000000000E+00 0. -1.
</event>
<event>
 8    1  0.1247338E-006  0.9118800E+02  0.7816164E-02  0.1184000E+00
        -11   -1    0    0    0    0  0.00000000000E+00  0.00000000000E+00  0.45593999997E+02  0.45594000000E+02  0.51100000000E-03 0.  1.
         11   -1    0    0    0    0 -0.00000000000E+00 -0.00000000000E+00 -0.45593999997E+02  0.45594000000E+02  0.51100000000E-03 0. -1.
         23    2    1    2    0    0  0.00000000000E+00  0.35527136788E-14  0.00000000000E+00  0.91188000000E+02  0.91188000000E+02 0.  0.
    9900012    2    3    3    0    0 -0.69334527071E+01 -0.22505842716E+02 -0.28305440577E+02  0.54367031938E+02  0.39999880909E+02 0.  0.
        -12    1    3    3    0    0  0.69334527071E+01  0.22505842716E+02  0.28305440577E+02  0.36820968062E+02  0.00000000000E+00 0.  1.
         11    1    4    4    0    0  0.44884052471E+01  0.53872833238E+01 -0.88765325785E+01  0.11312003985E+02  0.51100000000E-03 0. -1.
        -11    1    4    4    0    0  0.86510257311E-01 -0.26488834507E+02 -0.16078749288E+02  0.30986965268E+02  0.51100000000E-03 0.  1.
         12    1    4    4    0    0 -0.11508368212E+02 -0.14042915326E+01 -0.33501587101E+01  0.12068062686E+02  0.00000000000E+00 0. -1.
</event>
<event>
 8    1  0.1247338E-006  0.9118800E+02  0.7816164E-02  0.1184000E+00
        -11   -1    0    0    0    0  0.00000000000E+00  0.00000000000E+00  0.45593999997E+02  0.45594000000E+02  0.51100000000E-03 0. -1.
         11   -1    0    0    0    0 -0.00000000000E+00 -0.00000000000E+00 -0.45593999997E+02  0.45594000000E+02  0.51100000000E-03 0.  1.
         23    2    1    2    0    0  0.00000000000E+00  0.00000000000E+00  0.00000000000E+00  0.91188000000E+02  0.91188000000E+02 0.  0.
    9900012    2    3    3    0    0  0.12213201828E+02  0.27420205523E+02 -0.21324703461E+02  0.54367177799E+02  0.40000213429E+02 0.  0.
         12    1    3    3    0    0 -0.12213201828E+02 -0.27420205523E+02  0.21324703461E+02  0.36820822201E+02  0.00000000000E+00 0. -1.
         11    1    4    4    0    0 -0.74983096571E+01 -0.61754764652E+01 -0.18980706262E+01  0.98976678894E+01  0.51100000000E-03 0. -1.
        -11    1    4    4    0    0  0.10952141101E+02  0.11916113725E+02 -0.11200879739E+02  0.19682552380E+02  0.51100000000E-03 0.  1.
         12    1    4    4    0    0  0.87593703839E+01  0.21679568263E+02 -0.82257530965E+01  0.24786957530E+02  0.00000000000E+00 0. -1.
</event>
<event>
 8    1  0.1247338E-006  0.9118800E+02  0.7816164E-02  0.1184000E+00
        -11   -1    0    0    0    0  0.00000000000E+00  0.00000000000E+00  0.45593999997E+02  0.45594000000E+02  0.51100000000E-03 0. -1.
         11   -1    0    0    0    0 -0.00000000000E+00 -0.00000000000E+00 -0.45593999997E+02  0.45594000000E+02  0.51100000000E-03 0.  1.
         23    2    1    2    0    0  0.00000000000E+00 -0.35527136788E-14  0.00000000000E+00  0.91188000000E+02  0.91188000000E+02 0.  0.
    9900012    2    3    3    0    0 -0.11245861981E+02 -0.92541882579E+01 -0.33818165248E+02  0.54367113091E+02  0.40000065913E+02 0.  0.
         12    1    3    3    0    0  0.11245861981E+02  0.92541882579E+01  0.33818165248E+02  0.36820886909E+02  0.00000000000E+00 0. -1.
         11    1    4    4    0    0 -0.12589376742E+02  0.89621881977E+01 -0.12227591430E+02  0.19706019803E+02  0.51100000000E-03 0. -1.
        -11    1    4    4    0    0  0.11105681652E+01  0.34378438723E+01 -0.87943473481E+01  0.95075063860E+01  0.51100000000E-03 0.  1.
         12    1    4    4    0    0  0.23294659632E+00 -0.21654220328E+02 -0.12796226471E+02  0.25153586902E+02  0.00000000000E+00 0. -1.
</event>
<event>
 8    1  0.1247338E-006  0.9118800E+02  0.7816164E-02  0.1184000E+00
        -11   -1    0    0    0    0  0.00000000000E+00  0.00000000000E+00  0.45593999997E+02  0.45594000000E+02  0.51100000000E-03 0.  1.
         11   -1    0    0    0    0 -0.00000000000E+00 -0.00000000000E+00 -0.45593999997E+02  0.45594000000E+02  0.51100000000E-03 0. -1.
         23    2    1    2    0    0  0.00000000000E+00  0.00000000000E+00 -0.35527136788E-14  0.91188000000E+02  0.91188000000E+02 0.  0.
    9900012    2    3    3    0    0  0.15056396106E+02 -0.18671641110E+02 -0.27936606527E+02  0.54367092493E+02  0.40000018956E+02 0.  0.
        -12    1    3    3    0    0 -0.15056396106E+02  0.18671641110E+02  0.27936606527E+02  0.36820907507E+02  0.00000000000E+00 0.  1.
         11    1    4    4    0    0  0.94760902796E+01 -0.59763414198E+00 -0.58970602763E+01  0.11177154097E+02  0.51100000000E-03 0. -1.
        -11    1    4    4    0    0  0.36638622672E+01  0.85543231006E+01 -0.10710127650E+02  0.14188275616E+02  0.51100000000E-03 0.  1.
         12    1    4    4    0    0  0.19164435588E+01 -0.26628330068E+02 -0.11329418600E+02  0.29001662779E+02  0.00000000000E+00 0. -1.
</event>
<event>
 8    1  0.1247338E-006  0.9118800E+02  0.7816164E-02  0.1184000E+00
        -11   -1    0    0    0    0  0.00000000000E+00  0.00000000000E+00  0.45593999997E+02  0.45594000000E+02  0.51100000000E-03 0.  1.
         11   -1    0    0    0    0 -0.00000000000E+00 -0.00000000000E+00 -0.45593999997E+02  0.45594000000E+02  0.51100000000E-03 0. -1.
         23    2    1    2    0    0  0.00000000000E+00  0.00000000000E+00  0.00000000000E+00  0.91188000000E+02  0.91188000000E+02 0.  0.
    9900012    2    3    3    0    0  0.32269349582E+02 -0.44167387085E+01 -0.17174458959E+02  0.54367074648E+02  0.39999978274E+02 0.  0.
        -12    1    3    3    0    0 -0.32269349582E+02  0.44167387085E+01  0.17174458959E+02  0.36820925352E+02  0.00000000000E+00 0.  1.
         11    1    4    4    0    0 -0.60796675565E+01  0.45045820683E+01 -0.25022760211E+01  0.79696300261E+01  0.51100000000E-03 0.  1.
        -11    1    4    4    0    0  0.14031443962E+02  0.19268460578E+01 -0.13771422429E+02  0.19754650880E+02  0.51100000000E-03 0. -1.
         12    1    4    4    0    0  0.24317573176E+02 -0.10848166834E+02 -0.90076050851E+00  0.26642793742E+02  0.00000000000E+00 0. -1.
</event>
<event>
 8    1  0.1247338E-006  0.9118800E+02  0.7816164E-02  0.1184000E+00
        -11   -1    0    0    0    0  0.00000000000E+00  0.00000000000E+00  0.45593999997E+02  0.45594000000E+02  0.51100000000E-03 0. -1.
         11   -1    0    0    0    0 -0.00000000000E+00 -0.00000000000E+00 -0.45593999997E+02  0.45594000000E+02  0.51100000000E-03 0.  1.
         23    2    1    2    0    0  0.00000000000E+00 -0.27755575616E-15 -0.35527136788E-14  0.91188000000E+02  0.91188000000E+02 0.  0.
    9900012    2    3    3    0    0  0.32012942500E+02  0.11658886680E+00 -0.18191704990E+02  0.54367079169E+02  0.39999988581E+02 0.  0.
         12    1    3    3    0    0 -0.32012942500E+02 -0.11658886680E+00  0.18191704990E+02  0.36820920831E+02  0.00000000000E+00 0. -1.
         11    1    4    4    0    0 -0.63565786994E+01  0.13763378540E+01  0.30743136144E+01  0.71938726088E+01  0.51100000000E-03 0. -1.
        -11    1    4    4    0    0  0.19987587594E+02 -0.92206575772E+01 -0.98323605144E+01  0.24108079507E+02  0.51100000000E-03 0.  1.
        -12    1    4    4    0    0  0.18381933605E+02  0.79609085900E+01 -0.11433658090E+02  0.23065127053E+02  0.00000000000E+00 0.  1.
</event>
<event>
 8    1  0.1247338E-006  0.9118800E+02  0.7816164E-02  0.1184000E+00
        -11   -1    0    0    0    0  0.00000000000E+00  0.00000000000E+00  0.45593999997E+02  0.45594000000E+02  0.51100000000E-03 0.  1.
         11   -1    0    0    0    0 -0.00000000000E+00 -0.00000000000E+00 -0.45593999997E+02  0.45594000000E+02  0.51100000000E-03 0. -1.
         23    2    1    2    0    0  0.00000000000E+00  0.00000000000E+00 -0.35527136788E-14  0.91188000000E+02  0.91188000000E+02 0.  0.
    9900012    2    3    3    0    0  0.27153180510E+01  0.30880343293E+02  0.19869823901E+02  0.54367103000E+02  0.40000042910E+02 0.  0.
         12    1    3    3    0    0 -0.27153180510E+01 -0.30880343293E+02 -0.19869823901E+02  0.36820897000E+02  0.00000000000E+00 0. -1.
         11    1    4    4    0    0  0.90569043368E+01 -0.20826479072E+01 -0.34547364847E+00  0.92996930473E+01  0.51100000000E-03 0. -1.
        -11    1    4    4    0    0 -0.12344047064E+02  0.30817443794E+02  0.19856437071E+02  0.38682921727E+02  0.51100000000E-03 0.  1.
        -12    1    4    4    0    0  0.60024607783E+01  0.21455474065E+01  0.35886047840E+00  0.63844882263E+01  0.00000000000E+00 0.  1.
</event>
<event>
 8    1  0.1247338E-006  0.9118800E+02  0.7816164E-02  0.1184000E+00
        -11   -1    0    0    0    0  0.00000000000E+00  0.00000000000E+00  0.45593999997E+02  0.45594000000E+02  0.51100000000E-03 0. -1.
         11   -1    0    0    0    0 -0.00000000000E+00 -0.00000000000E+00 -0.45593999997E+02  0.45594000000E+02  0.51100000000E-03 0.  1.
         23    2    1    2    0    0  0.00000000000E+00  0.88817841970E-15 -0.35527136788E-14  0.91188000000E+02  0.91188000000E+02 0.  0.
    9900012    2    3    3    0    0 -0.33500244512E+02  0.64541973409E+01 -0.13851236306E+02  0.54367084845E+02  0.40000001520E+02 0.  0.
         12    1    3    3    0    0  0.33500244512E+02 -0.64541973409E+01  0.13851236306E+02  0.36820915155E+02  0.00000000000E+00 0. -1.
         11    1    4    4    0    0 -0.23911093716E+01  0.25261487675E+01  0.11725405720E+02  0.12230452616E+02  0.51100000000E-03 0. -1.
        -11    1    4    4    0    0 -0.20854819809E+02  0.59517185811E+01 -0.11334603646E+02  0.24470792864E+02  0.51100000000E-03 0.  1.
         12    1    4    4    0    0 -0.10254315332E+02 -0.20236700078E+01 -0.14242038380E+02  0.17665839364E+02  0.00000000000E+00 0. -1.
</event>
<event>
 8    1  0.1247338E-006  0.9118800E+02  0.7816164E-02  0.1184000E+00
        -11   -1    0    0    0    0  0.00000000000E+00  0.00000000000E+00  0.45593999997E+02  0.45594000000E+02  0.51100000000E-03 0. -1.
         11   -1    0    0    0    0 -0.00000000000E+00 -0.00000000000E+00 -0.45593999997E+02  0.45594000000E+02  0.51100000000E-03 0.  1.
         23    2    1    2    0    0  0.00000000000E+00  0.88817841970E-15 -0.17763568394E-14  0.91188000000E+02  0.91188000000E+02 0.  0.
    9900012    2    3    3    0    0  0.36327616834E+02  0.42676315766E+01  0.42272838141E+01  0.54367104403E+02  0.40000046108E+02 0.  0.
        -12    1    3    3    0    0 -0.36327616834E+02 -0.42676315766E+01 -0.42272838141E+01  0.36820895597E+02  0.00000000000E+00 0.  1.
         11    1    4    4    0    0  0.12048298003E+02  0.11528658599E+02  0.12312342095E+02  0.20728367567E+02  0.51100000000E-03 0. -1.
        -11    1    4    4    0    0  0.14274365266E+02 -0.35036562908E+01 -0.14927242068E+02  0.20948882242E+02  0.51100000000E-03 0.  1.
        -12    1    4    4    0    0  0.10004953564E+02 -0.37573707320E+01  0.68421837872E+01  0.12689854594E+02  0.00000000000E+00 0.  1.
</event>
<event>
 8    1  0.1247338E-006  0.9118800E+02  0.7816164E-02  0.1184000E+00
        -11   -1    0    0    0    0  0.00000000000E+00  0.00000000000E+00  0.45593999997E+02  0.45594000000E+02  0.51100000000E-03 0.  1.
         11   -1    0    0    0    0 -0.00000000000E+00 -0.00000000000E+00 -0.45593999997E+02  0.45594000000E+02  0.51100000000E-03 0. -1.
         23    2    1    2    0    0  0.00000000000E+00  0.35527136788E-14  0.35527136788E-14  0.91188000000E+02  0.91188000000E+02 0.  0.
    9900012    2    3    3    0    0  0.52574938075E+01  0.29516315919E+02 -0.21375820461E+02  0.54367084110E+02  0.39999999845E+02 0.  0.
        -12    1    3    3    0    0 -0.52574938075E+01 -0.29516315919E+02  0.21375820461E+02  0.36820915890E+02  0.00000000000E+00 0.  1.
         11    1    4    4    0    0 -0.10731854883E+01  0.53929621106E+01  0.66151362073E+01  0.86020808367E+01  0.51100000000E-03 0. -1.
        -11    1    4    4    0    0  0.18274585155E+01 -0.37267539025E+01  0.19851648908E+01  0.46009976288E+01  0.51100000000E-03 0.  1.
         12    1    4    4    0    0  0.45032207804E+01  0.27850107711E+02 -0.29976121559E+02  0.41164005644E+02  0.00000000000E+00 0. -1.
</event>
<event>
 8    1  0.1247338E-006  0.9118800E+02  0.7816164E-02  0.1184000E+00
        -11   -1    0    0    0    0  0.00000000000E+00  0.00000000000E+00  0.45593999997E+02  0.45594000000E+02  0.51100000000E-03 0. -1.
         11   -1    0    0    0    0 -0.00000000000E+00 -0.00000000000E+00 -0.45593999997E+02  0.45594000000E+02  0.51100000000E-03 0.  1.
         23    2    1    2    0    0  0.35527136788E-14  0.00000000000E+00 -0.12212453271E-14  0.91188000000E+02  0.91188000000E+02 0.  0.
    9900012    2    3    3    0    0  0.30729139933E+02 -0.20276620340E+02 -0.59778468444E+00  0.54367099414E+02  0.40000034733E+02 0.  0.
         12    1    3    3    0    0 -0.30729139933E+02  0.20276620340E+02  0.59778468444E+00  0.36820900586E+02  0.00000000000E+00 0. -1.
         11    1    4    4    0    0 -0.33189400012E+01 -0.12080359842E+01  0.18335570301E+01  0.39795282779E+01  0.51100000000E-03 0. -1.
        -11    1    4    4    0    0  0.32931506336E+02 -0.10596193015E+02  0.93478638177E+01  0.35834982548E+02  0.51100000000E-03 0.  1.
        -12    1    4    4    0    0  0.11165735980E+01 -0.84723913414E+01 -0.11779205532E+02  0.14552588588E+02  0.00000000000E+00 0.  1.
</event>
<event>
 8    1  0.1247338E-006  0.9118800E+02  0.7816164E-02  0.1184000E+00
        -11   -1    0    0    0    0  0.00000000000E+00  0.00000000000E+00  0.45593999997E+02  0.45594000000E+02  0.51100000000E-03 0.  1.
         11   -1    0    0    0    0 -0.00000000000E+00 -0.00000000000E+00 -0.45593999997E+02  0.45594000000E+02  0.51100000000E-03 0. -1.
         23    2    1    2    0    0  0.00000000000E+00  0.00000000000E+00 -0.35527136788E-14  0.91188000000E+02  0.91188000000E+02 0.  0.
    9900012    2    3    3    0    0 -0.16781832262E+02 -0.10361663889E+02 -0.31093168718E+02  0.54367094070E+02  0.40000022551E+02 0.  0.
        -12    1    3    3    0    0  0.16781832262E+02  0.10361663889E+02  0.31093168718E+02  0.36820905930E+02  0.00000000000E+00 0.  1.
         11    1    4    4    0    0 -0.10681248096E+01  0.12839822844E+02 -0.60343267701E+01  0.14227264006E+02  0.51100000000E-03 0. -1.
        -11    1    4    4    0    0 -0.47185208733E+01  0.95639977910E+00 -0.38904131721E+01  0.61898670971E+01  0.51100000000E-03 0.  1.
        -12    1    4    4    0    0 -0.10995186579E+02 -0.24157886512E+02 -0.21168428776E+02  0.33949962967E+02  0.00000000000E+00 0.  1.
</event>
<event>
 8    1  0.1247338E-006  0.9118800E+02  0.7816164E-02  0.1184000E+00
        -11   -1    0    0    0    0  0.00000000000E+00  0.00000000000E+00  0.45593999997E+02  0.45594000000E+02  0.51100000000E-03 0.  1.
         11   -1    0    0    0    0 -0.00000000000E+00 -0.00000000000E+00 -0.45593999997E+02  0.45594000000E+02  0.51100000000E-03 0. -1.
         23    2    1    2    0    0  0.00000000000E+00 -0.35527136788E-14 -0.35527136788E-14  0.91188000000E+02  0.91188000000E+02 0.  0.
    9900012    2    3    3    0    0 -0.12087706868E+02 -0.23756679141E+02 -0.25402705422E+02  0.54366947544E+02  0.39999688516E+02 0.  0.
        -12    1    3    3    0    0  0.12087706868E+02  0.23756679141E+02  0.25402705422E+02  0.36821052456E+02  0.00000000000E+00 0.  1.
         11    1    4    4    0    0 -0.25165463574E+01 -0.52370020716E+01 -0.32911136728E+01  0.66776212633E+01  0.51100000000E-03 0.  1.
        -11    1    4    4    0    0  0.58290895921E+01 -0.24746391393E+02 -0.15717155933E+02  0.29889649769E+02  0.51100000000E-03 0. -1.
        -12    1    4    4    0    0 -0.15400250103E+02  0.62267143238E+01 -0.63944358170E+01  0.17799676512E+02  0.00000000000E+00 0.  1.
</event>
<event>
 8    1  0.1247338E-006  0.9118800E+02  0.7816164E-02  0.1184000E+00
        -11   -1    0    0    0    0  0.00000000000E+00  0.00000000000E+00  0.45593999997E+02  0.45594000000E+02  0.51100000000E-03 0. -1.
         11   -1    0    0    0    0 -0.00000000000E+00 -0.00000000000E+00 -0.45593999997E+02  0.45594000000E+02  0.51100000000E-03 0.  1.
         23    2    1    2    0    0  0.00000000000E+00  0.00000000000E+00  0.00000000000E+00  0.91188000000E+02  0.91188000000E+02 0.  0.
    9900012    2    3    3    0    0 -0.26621715426E+02 -0.95663912240E+01  0.23570077480E+02  0.54367080325E+02  0.39999991217E+02 0.  0.
        -12    1    3    3    0    0  0.26621715426E+02  0.95663912240E+01 -0.23570077480E+02  0.36820919675E+02  0.00000000000E+00 0.  1.
         11    1    4    4    0    0 -0.57528218150E+01 -0.12502540151E+02  0.27879578345E+01  0.14042121571E+02  0.51100000000E-03 0. -1.
        -11    1    4    4    0    0 -0.20472008535E+02 -0.21379662039E+01  0.17881102330E+01  0.20660865699E+02  0.51100000000E-03 0.  1.
         12    1    4    4    0    0 -0.39688507603E+00  0.50741151312E+01  0.18994009413E+02  0.19664093056E+02  0.00000000000E+00 0. -1.
</event>
<event>
 8    1  0.1247338E-006  0.9118800E+02  0.7816164E-02  0.1184000E+00
        -11   -1    0    0    0    0  0.00000000000E+00  0.00000000000E+00  0.45593999997E+02  0.45594000000E+02  0.51100000000E-03 0.  1.
         11   -1    0    0    0    0 -0.00000000000E+00 -0.00000000000E+00 -0.45593999997E+02  0.45594000000E+02  0.51100000000E-03 0. -1.
         23    2    1    2    0    0 -0.26645352591E-14 -0.17763568394E-14  0.71054273576E-14  0.91188000000E+02  0.91188000000E+02 0.  0.
    9900012    2    3    3    0    0  0.18010367126E+01 -0.11126488825E+02  0.35053331517E+02  0.54367101895E+02  0.40000040391E+02 0.  0.
         12    1    3    3    0    0 -0.18010367126E+01  0.11126488825E+02 -0.35053331517E+02  0.36820898105E+02  0.00000000000E+00 0. -1.
         11    1    4    4    0    0 -0.10186127976E+02  0.59200669971E+00 -0.36536772883E+01  0.10837759596E+02  0.51100000000E-03 0. -1.
        -11    1    4    4    0    0  0.10282149316E+02 -0.28816988003E+01  0.24294259147E+02  0.26537479351E+02  0.51100000000E-03 0.  1.
        -12    1    4    4    0    0  0.17050153719E+01 -0.88367967240E+01  0.14412749658E+02  0.16991862949E+02  0.00000000000E+00 0.  1.
</event>
<event>
 8    1  0.1247338E-006  0.9118800E+02  0.7816164E-02  0.1184000E+00
        -11   -1    0    0    0    0  0.00000000000E+00  0.00000000000E+00  0.45593999997E+02  0.45594000000E+02  0.51100000000E-03 0. -1.
         11   -1    0    0    0    0 -0.00000000000E+00 -0.00000000000E+00 -0.45593999997E+02  0.45594000000E+02  0.51100000000E-03 0.  1.
         23    2    1    2    0    0  0.00000000000E+00 -0.35527136788E-14  0.00000000000E+00  0.91188000000E+02  0.91188000000E+02 0.  0.
    9900012    2    3    3    0    0 -0.17471283318E+02  0.24915788840E+02 -0.20730113301E+02  0.54367083773E+02  0.39999999077E+02 0.  0.
         12    1    3    3    0    0  0.17471283318E+02 -0.24915788840E+02  0.20730113301E+02  0.36820916227E+02  0.00000000000E+00 0. -1.
         11    1    4    4    0    0  0.90501169929E+00  0.46215167231E+01  0.17879983380E+01  0.50373009951E+01  0.51100000000E-03 0. -1.
        -11    1    4    4    0    0 -0.15714702537E+02 -0.36276602925E+01 -0.19132531954E+02  0.25023300627E+02  0.51100000000E-03 0.  1.
        -12    1    4    4    0    0 -0.26615924805E+01  0.23921932410E+02 -0.33855796846E+01  0.24306482151E+02  0.00000000000E+00 0.  1.
</event>
<event>
 8    1  0.1247338E-006  0.9118800E+02  0.7816164E-02  0.1184000E+00
        -11   -1    0    0    0    0  0.00000000000E+00  0.00000000000E+00  0.45593999997E+02  0.45594000000E+02  0.51100000000E-03 0.  1.
         11   -1    0    0    0    0 -0.00000000000E+00 -0.00000000000E+00 -0.45593999997E+02  0.45594000000E+02  0.51100000000E-03 0. -1.
         23    2    1    2    0    0  0.00000000000E+00 -0.71054273576E-14 -0.66613381478E-15  0.91188000000E+02  0.91188000000E+02 0.  0.
    9900012    2    3    3    0    0 -0.18601791752E+02 -0.31742484316E+02  0.14725715769E+01  0.54367076139E+02  0.39999981675E+02 0.  0.
         12    1    3    3    0    0  0.18601791752E+02  0.31742484316E+02 -0.14725715769E+01  0.36820923861E+02  0.00000000000E+00 0. -1.
         11    1    4    4    0    0 -0.21276644519E+01  0.34204180848E+00 -0.35843699650E+01  0.41823028257E+01  0.51100000000E-03 0. -1.
        -11    1    4    4    0    0 -0.90319464922E+01  0.59445877275E+00  0.12904617505E+02  0.15762569330E+02  0.51100000000E-03 0.  1.
        -12    1    4    4    0    0 -0.74421808074E+01 -0.32678984897E+02 -0.78476759629E+01  0.34422203984E+02  0.00000000000E+00 0.  1.
</event>
<event>
 8    1  0.1247338E-006  0.9118800E+02  0.7816164E-02  0.1184000E+00
        -11   -1    0    0    0    0  0.00000000000E+00  0.00000000000E+00  0.45593999997E+02  0.45594000000E+02  0.51100000000E-03 0. -1.
         11   -1    0    0    0    0 -0.00000000000E+00 -0.00000000000E+00 -0.45593999997E+02  0.45594000000E+02  0.51100000000E-03 0.  1.
         23    2    1    2    0    0  0.00000000000E+00  0.35527136788E-14 -0.88817841970E-15  0.91188000000E+02  0.91188000000E+02 0.  0.
    9900012    2    3    3    0    0 -0.22265109751E+02  0.29225099272E+02  0.24371211498E+01  0.54367067106E+02  0.39999961081E+02 0.  0.
        -12    1    3    3    0    0  0.22265109751E+02 -0.29225099272E+02 -0.24371211498E+01  0.36820932894E+02  0.00000000000E+00 0.  1.
         11    1    4    4    0    0 -0.67920256173E+01  0.56612522990E+00  0.11199002151E+02  0.13109910725E+02  0.51100000000E-03 0. -1.
        -11    1    4    4    0    0 -0.57180537931E+00  0.93674086082E-01  0.58510931603E+01  0.58797132292E+01  0.51100000000E-03 0.  1.
        -12    1    4    4    0    0 -0.14901278755E+02  0.28565299956E+02 -0.14612974162E+02  0.35377443152E+02  0.00000000000E+00 0.  1.
</event>
<event>
 8    1  0.1247338E-006  0.9118800E+02  0.7816164E-02  0.1184000E+00
        -11   -1    0    0    0    0  0.00000000000E+00  0.00000000000E+00  0.45593999997E+02  0.45594000000E+02  0.51100000000E-03 0. -1.
         11   -1    0    0    0    0 -0.00000000000E+00 -0.00000000000E+00 -0.45593999997E+02  0.45594000000E+02  0.51100000000E-03 0.  1.
         23    2    1    2    0    0  0.00000000000E+00 -0.35527136788E-14 -0.17763568394E-14  0.91188000000E+02  0.91188000000E+02 0.  0.
    9900012    2    3    3    0    0  0.16514859988E+02 -0.29568404217E+02 -0.14448125622E+02  0.54367089333E+02  0.40000011752E+02 0.  0.
         12    1    3    3    0    0 -0.16514859988E+02  0.29568404217E+02  0.14448125622E+02  0.36820910667E+02  0.00000000000E+00 0. -1.
         11    1    4    4    0    0  0.17799585516E+00 -0.40709448542E+01 -0.10648698691E+02  0.11401712968E+02  0.51100000000E-03 0. -1.
        -11    1    4    4    0    0  0.20721800675E+02 -0.29848600090E+02 -0.14787013533E+01  0.36366447565E+02  0.51100000000E-03 0.  1.
        -12    1    4    4    0    0 -0.43849365425E+01  0.43511407268E+01 -0.23207255780E+01  0.65989288005E+01  0.00000000000E+00 0.  1.
</event>
<event>
 8    1  0.1247338E-006  0.9118800E+02  0.7816164E-02  0.1184000E+00
        -11   -1    0    0    0    0  0.00000000000E+00  0.00000000000E+00  0.45593999997E+02  0.45594000000E+02  0.51100000000E-03 0.  1.
         11   -1    0    0    0    0 -0.00000000000E+00 -0.00000000000E+00 -0.45593999997E+02  0.45594000000E+02  0.51100000000E-03 0. -1.
         23    2    1    2    0    0  0.00000000000E+00 -0.35527136788E-14 -0.35527136788E-14  0.91188000000E+02  0.91188000000E+02 0.  0.
    9900012    2    3    3    0    0 -0.19332513061E+02 -0.24134050419E+02 -0.19989471772E+02  0.54367116895E+02  0.40000074586E+02 0.  0.
        -12    1    3    3    0    0  0.19332513061E+02  0.24134050419E+02  0.19989471772E+02  0.36820883105E+02  0.00000000000E+00 0.  1.
         11    1    4    4    0    0 -0.10543437646E+02  0.50072150106E+01 -0.71629936120E+01  0.13694698146E+02  0.51100000000E-03 0. -1.
        -11    1    4    4    0    0 -0.79342664596E+01  0.10105912516E+00 -0.75357291314E+01  0.10943034817E+02  0.51100000000E-03 0.  1.
        -12    1    4    4    0    0 -0.85480895514E+00 -0.29242324555E+02 -0.52907490285E+01  0.29729383932E+02  0.00000000000E+00 0.  1.
</event>
<event>
 8    1  0.1247338E-006  0.9118800E+02  0.7816164E-02  0.1184000E+00
        -11   -1    0    0    0    0  0.00000000000E+00  0.00000000000E+00  0.45593999997E+02  0.45594000000E+02  0.51100000000E-03 0.  1.
         11   -1    0    0    0    0 -0.00000000000E+00 -0.00000000000E+00 -0.45593999997E+02  0.45594000000E+02  0.51100000000E-03 0. -1.
         23    2    1    2    0    0  0.00000000000E+00  0.00000000000E+00  0.00000000000E+00  0.91188000000E+02  0.91188000000E+02 0.  0.
    9900012    2    3    3    0    0  0.18384205655E+02 -0.18088480446E+02 -0.26279364587E+02  0.54367120794E+02  0.40000083474E+02 0.  0.
        -12    1    3    3    0    0 -0.18384205655E+02  0.18088480446E+02  0.26279364587E+02  0.36820879206E+02  0.00000000000E+00 0.  1.
         11    1    4    4    0    0  0.11217307677E+02 -0.84942132383E+01 -0.24027721430E+02  0.27844407830E+02  0.51100000000E-03 0. -1.
        -11    1    4    4    0    0 -0.29372088415E+01  0.63058602908E+01  0.19425373897E+01  0.72225010596E+01  0.51100000000E-03 0.  1.
        -12    1    4    4    0    0  0.10104106819E+02 -0.15900127498E+02 -0.41941805469E+01  0.19300211904E+02  0.00000000000E+00 0.  1.
</event>
<event>
 8    1  0.1247338E-006  0.9118800E+02  0.7816164E-02  0.1184000E+00
        -11   -1    0    0    0    0  0.00000000000E+00  0.00000000000E+00  0.45593999997E+02  0.45594000000E+02  0.51100000000E-03 0.  1.
         11   -1    0    0    0    0 -0.00000000000E+00 -0.00000000000E+00 -0.45593999997E+02  0.45594000000E+02  0.51100000000E-03 0. -1.
         23    2    1    2    0    0  0.00000000000E+00  0.17763568394E-14 -0.35527136788E-14  0.91188000000E+02  0.91188000000E+02 0.  0.
    9900012    2    3    3    0    0 -0.25683779339E+02  0.91345660702E+01 -0.24752447323E+02  0.54367075692E+02  0.39999980654E+02 0.  0.
        -12    1    3    3    0    0  0.25683779339E+02 -0.91345660702E+01  0.24752447323E+02  0.36820924308E+02  0.00000000000E+00 0.  1.
         11    1    4    4    0    0 -0.56376826519E+01  0.15386214985E+02 -0.11825484557E+02  0.20207948004E+02  0.51100000000E-03 0. -1.
        -11    1    4    4    0    0 -0.73517740150E+01  0.34499004269E+01  0.54711335380E+01  0.97920220881E+01  0.51100000000E-03 0.  1.
         12    1    4    4    0    0 -0.12694322673E+02 -0.97015493413E+01 -0.18398096303E+02  0.24367105600E+02  0.00000000000E+00 0. -1.
</event>
<event>
 8    1  0.1247338E-006  0.9118800E+02  0.7816164E-02  0.1184000E+00
        -11   -1    0    0    0    0  0.00000000000E+00  0.00000000000E+00  0.45593999997E+02  0.45594000000E+02  0.51100000000E-03 0. -1.
         11   -1    0    0    0    0 -0.00000000000E+00 -0.00000000000E+00 -0.45593999997E+02  0.45594000000E+02  0.51100000000E-03 0.  1.
         23    2    1    2    0    0  0.00000000000E+00  0.00000000000E+00  0.00000000000E+00  0.91188000000E+02  0.91188000000E+02 0.  0.
    9900012    2    3    3    0    0 -0.23644168628E+02  0.18533784096E+02  0.21289237215E+02  0.54367089037E+02  0.40000011077E+02 0.  0.
         12    1    3    3    0    0  0.23644168628E+02 -0.18533784096E+02 -0.21289237215E+02  0.36820910963E+02  0.00000000000E+00 0. -1.
         11    1    4    4    0    0  0.14010009046E+01 -0.11067085503E+01 -0.63530747065E+01  0.65991791791E+01  0.51100000000E-03 0. -1.
        -11    1    4    4    0    0 -0.11065941038E+02 -0.35906901177E+01  0.10635133306E+02  0.15762428978E+02  0.51100000000E-03 0.  1.
        -12    1    4    4    0    0 -0.13979228494E+02  0.23231182764E+02  0.17007178615E+02  0.32005480880E+02  0.00000000000E+00 0.  1.
</event>
<event>
 8    1  0.1247338E-006  0.9118800E+02  0.7816164E-02  0.1184000E+00
        -11   -1    0    0    0    0  0.00000000000E+00  0.00000000000E+00  0.45593999997E+02  0.45594000000E+02  0.51100000000E-03 0.  1.
         11   -1    0    0    0    0 -0.00000000000E+00 -0.00000000000E+00 -0.45593999997E+02  0.45594000000E+02  0.51100000000E-03 0. -1.
         23    2    1    2    0    0  0.00000000000E+00  0.00000000000E+00 -0.35527136788E-14  0.91188000000E+02  0.91188000000E+02 0.  0.
    9900012    2    3    3    0    0  0.32473016072E+01 -0.20683376430E+02 -0.30289004341E+02  0.54367206795E+02  0.40000279530E+02 0.  0.
        -12    1    3    3    0    0 -0.32473016072E+01  0.20683376430E+02  0.30289004341E+02  0.36820793205E+02  0.00000000000E+00 0.  1.
         11    1    4    4    0    0  0.11533827040E+01 -0.22362549243E+02 -0.32018418273E+02  0.39071639449E+02  0.51100000000E-03 0. -1.
        -11    1    4    4    0    0  0.54469720909E+01  0.47089198738E+01 -0.38103899937E+01  0.81463184017E+01  0.51100000000E-03 0.  1.
        -12    1    4    4    0    0 -0.33530531877E+01 -0.30297470604E+01  0.55398039257E+01  0.71492489441E+01  0.00000000000E+00 0.  1.
</event>
<event>
 8    1  0.1247338E-006  0.9118800E+02  0.7816164E-02  0.1184000E+00
        -11   -1    0    0    0    0  0.00000000000E+00  0.00000000000E+00  0.45593999997E+02  0.45594000000E+02  0.51100000000E-03 0.  1.
         11   -1    0    0    0    0 -0.00000000000E+00 -0.00000000000E+00 -0.45593999997E+02  0.45594000000E+02  0.51100000000E-03 0. -1.
         23    2    1    2    0    0  0.00000000000E+00  0.00000000000E+00 -0.35527136788E-14  0.91188000000E+02  0.91188000000E+02 0.  0.
    9900012    2    3    3    0    0 -0.13981222368E+02  0.18509679995E+02 -0.28595401021E+02  0.54367084857E+02  0.40000001548E+02 0.  0.
        -12    1    3    3    0    0  0.13981222368E+02 -0.18509679995E+02  0.28595401021E+02  0.36820915143E+02  0.00000000000E+00 0.  1.
         11    1    4    4    0    0 -0.76086911607E+01  0.17450711121E+02 -0.92979448034E+01  0.21186582491E+02  0.51100000000E-03 0.  1.
        -11    1    4    4    0    0  0.63078600442E+01  0.97460101937E+01 -0.87919073353E+01  0.14562673102E+02  0.51100000000E-03 0. -1.
        -12    1    4    4    0    0 -0.12680391252E+02 -0.86870413193E+01 -0.10505548882E+02  0.18617829264E+02  0.00000000000E+00 0.  1.
</event>
<event>
 8    1  0.1247338E-006  0.9118800E+02  0.7816164E-02  0.1184000E+00
        -11   -1    0    0    0    0  0.00000000000E+00  0.00000000000E+00  0.45593999997E+02  0.45594000000E+02  0.51100000000E-03 0.  1.
         11   -1    0    0    0    0 -0.00000000000E+00 -0.00000000000E+00 -0.45593999997E+02  0.45594000000E+02  0.51100000000E-03 0. -1.
         23    2    1    2    0    0 -0.55511151231E-15  0.00000000000E+00 -0.88817841970E-15  0.91188000000E+02  0.91188000000E+02 0.  0.
    9900012    2    3    3    0    0 -0.55014559312E+00 -0.36008102409E+02  0.76742411666E+01  0.54367080989E+02  0.39999992732E+02 0.  0.
         12    1    3    3    0    0  0.55014559312E+00  0.36008102409E+02 -0.76742411666E+01  0.36820919011E+02  0.00000000000E+00 0. -1.
         11    1    4    4    0    0  0.78464805420E+01 -0.77328830462E+00 -0.59059073053E+01  0.98511406983E+01  0.51100000000E-03 0. -1.
        -11    1    4    4    0    0 -0.21995753388E+00 -0.26037453179E+02  0.17760578325E+02  0.31518811717E+02  0.51100000000E-03 0.  1.
         12    1    4    4    0    0 -0.81766686013E+01 -0.91973609261E+01 -0.41804298530E+01  0.12997128574E+02  0.00000000000E+00 0. -1.
</event>
<event>
 8    1  0.1247338E-006  0.9118800E+02  0.7816164E-02  0.1184000E+00
        -11   -1    0    0    0    0  0.00000000000E+00  0.00000000000E+00  0.45593999997E+02  0.45594000000E+02  0.51100000000E-03 0. -1.
         11   -1    0    0    0    0 -0.00000000000E+00 -0.00000000000E+00 -0.45593999997E+02  0.45594000000E+02  0.51100000000E-03 0.  1.
         23    2    1    2    0    0 -0.44408920985E-15  0.00000000000E+00  0.00000000000E+00  0.91188000000E+02  0.91188000000E+02 0.  0.
    9900012    2    3    3    0    0 -0.28310261731E+01  0.17408904550E+02  0.32321767934E+02  0.54367063711E+02  0.39999953343E+02 0.  0.
        -12    1    3    3    0    0  0.28310261731E+01 -0.17408904550E+02 -0.32321767934E+02  0.36820936289E+02  0.00000000000E+00 0.  1.
         11    1    4    4    0    0  0.12852187830E+02  0.45778332313E+01  0.26989813544E+02  0.30242111773E+02  0.51100000000E-03 0. -1.
        -11    1    4    4    0    0 -0.16562394290E+02  0.14182309550E+02  0.43412882000E+01  0.22232804418E+02  0.51100000000E-03 0.  1.
         12    1    4    4    0    0  0.87918028785E+00 -0.13512382314E+01  0.99066618934E+00  0.18921475194E+01  0.00000000000E+00 0. -1.
</event>
<event>
 8    1  0.1247338E-006  0.9118800E+02  0.7816164E-02  0.1184000E+00
        -11   -1    0    0    0    0  0.00000000000E+00  0.00000000000E+00  0.45593999997E+02  0.45594000000E+02  0.51100000000E-03 0. -1.
         11   -1    0    0    0    0 -0.00000000000E+00 -0.00000000000E+00 -0.45593999997E+02  0.45594000000E+02  0.51100000000E-03 0.  1.
         23    2    1    2    0    0  0.00000000000E+00 -0.55511151231E-15  0.00000000000E+00  0.91188000000E+02  0.91188000000E+02 0.  0.
    9900012    2    3    3    0    0  0.19970100829E+02 -0.38164757537E+00 -0.30932661021E+02  0.54367080676E+02  0.39999992018E+02 0.  0.
         12    1    3    3    0    0 -0.19970100829E+02  0.38164757537E+00  0.30932661021E+02  0.36820919324E+02  0.00000000000E+00 0. -1.
         11    1    4    4    0    0 -0.30385057927E+01 -0.18961965675E+01  0.48986060405E+01  0.60683128031E+01  0.51100000000E-03 0. -1.
        -11    1    4    4    0    0  0.24572052649E+02  0.49821478789E+01 -0.20158415647E+02  0.32170938603E+02  0.51100000000E-03 0.  1.
         12    1    4    4    0    0 -0.15634460279E+01 -0.34675988867E+01 -0.15672851414E+02  0.16127829271E+02  0.00000000000E+00 0. -1.
</event>
<event>
 8    1  0.1247338E-006  0.9118800E+02  0.7816164E-02  0.1184000E+00
        -11   -1    0    0    0    0  0.00000000000E+00  0.00000000000E+00  0.45593999997E+02  0.45594000000E+02  0.51100000000E-03 0.  1.
         11   -1    0    0    0    0 -0.00000000000E+00 -0.00000000000E+00 -0.45593999997E+02  0.45594000000E+02  0.51100000000E-03 0. -1.
         23    2    1    2    0    0  0.00000000000E+00  0.00000000000E+00  0.17763568394E-14  0.91188000000E+02  0.91188000000E+02 0.  0.
    9900012    2    3    3    0    0 -0.90036456614E+01 -0.33718726773E+02  0.11737486725E+02  0.54366990168E+02  0.39999785686E+02 0.  0.
         12    1    3    3    0    0  0.90036456614E+01  0.33718726773E+02 -0.11737486725E+02  0.36821009832E+02  0.00000000000E+00 0. -1.
         11    1    4    4    0    0 -0.43862977298E+01  0.14793297637E+01 -0.91390275842E+01  0.10244503393E+02  0.51100000000E-03 0. -1.
        -11    1    4    4    0    0  0.32707097655E+01 -0.27669845447E+01  0.64919930591E+01  0.77781565927E+01  0.51100000000E-03 0.  1.
        -12    1    4    4    0    0 -0.78880576971E+01 -0.32431071992E+02  0.14384521251E+02  0.36344330182E+02  0.00000000000E+00 0.  1.
</event>
<event>
 8    1  0.1247338E-006  0.9118800E+02  0.7816164E-02  0.1184000E+00
        -11   -1    0    0    0    0  0.00000000000E+00  0.00000000000E+00  0.45593999997E+02  0.45594000000E+02  0.51100000000E-03 0.  1.
         11   -1    0    0    0    0 -0.00000000000E+00 -0.00000000000E+00 -0.45593999997E+02  0.45594000000E+02  0.51100000000E-03 0. -1.
         23    2    1    2    0    0  0.35527136788E-14  0.00000000000E+00 -0.22204460493E-15  0.91188000000E+02  0.91188000000E+02 0.  0.
    9900012    2    3    3    0    0  0.16920894979E+02 -0.32684599465E+02  0.10863229454E+01  0.54367084386E+02  0.40000000476E+02 0.  0.
        -12    1    3    3    0    0 -0.16920894979E+02  0.32684599465E+02 -0.10863229454E+01  0.36820915614E+02  0.00000000000E+00 0.  1.
         11    1    4    4    0    0  0.20246949770E+02 -0.37576438103E+02  0.11755349160E+01  0.42700229017E+02  0.51100000000E-03 0. -1.
        -11    1    4    4    0    0 -0.22193204358E+01 -0.17410650551E+01  0.31282234247E+01  0.42121814750E+01  0.51100000000E-03 0.  1.
         12    1    4    4    0    0 -0.11067343551E+01  0.66329036937E+01 -0.32174353953E+01  0.74546738940E+01  0.00000000000E+00 0. -1.
</event>
<event>
 8    1  0.1247338E-006  0.9118800E+02  0.7816164E-02  0.1184000E+00
        -11   -1    0    0    0    0  0.00000000000E+00  0.00000000000E+00  0.45593999997E+02  0.45594000000E+02  0.51100000000E-03 0. -1.
         11   -1    0    0    0    0 -0.00000000000E+00 -0.00000000000E+00 -0.45593999997E+02  0.45594000000E+02  0.51100000000E-03 0.  1.
         23    2    1    2    0    0  0.88817841970E-15  0.00000000000E+00  0.71054273576E-14  0.91188000000E+02  0.91188000000E+02 0.  0.
    9900012    2    3    3    0    0  0.58860770202E+01 -0.16379524850E+02  0.32447609769E+02  0.54367053288E+02  0.39999929581E+02 0.  0.
        -12    1    3    3    0    0 -0.58860770202E+01  0.16379524850E+02 -0.32447609769E+02  0.36820946712E+02  0.00000000000E+00 0.  1.
         11    1    4    4    0    0 -0.91840460534E+01 -0.11904373113E+02  0.14802125298E+02  0.21098903164E+02  0.51100000000E-03 0.  1.
        -11    1    4    4    0    0  0.52653955485E+01  0.69389455878E+01  0.15887591004E+02  0.18118744557E+02  0.51100000000E-03 0. -1.
         12    1    4    4    0    0  0.98047275251E+01 -0.11414097325E+02  0.17578934673E+01  0.15149405567E+02  0.00000000000E+00 0. -1.
</event>
<event>
 8    1  0.1247338E-006  0.9118800E+02  0.7816164E-02  0.1184000E+00
        -11   -1    0    0    0    0  0.00000000000E+00  0.00000000000E+00  0.45593999997E+02  0.45594000000E+02  0.51100000000E-03 0.  1.
         11   -1    0    0    0    0 -0.00000000000E+00 -0.00000000000E+00 -0.45593999997E+02  0.45594000000E+02  0.51100000000E-03 0. -1.
         23    2    1    2    0    0  0.00000000000E+00 -0.19984014443E-14  0.00000000000E+00  0.91188000000E+02  0.91188000000E+02 0.  0.
    9900012    2    3    3    0    0  0.35284240651E+02  0.88404040630E+00  0.10489026815E+02  0.54367097658E+02  0.40000030731E+02 0.  0.
         12    1    3    3    0    0 -0.35284240651E+02 -0.88404040630E+00 -0.10489026815E+02  0.36820902342E+02  0.00000000000E+00 0. -1.
         11    1    4    4    0    0  0.36534892928E+01 -0.63758140629E+00  0.74033266225E+00  0.37818760919E+01  0.51100000000E-03 0. -1.
        -11    1    4    4    0    0  0.37595282415E+02 -0.79502231731E+01  0.80993398094E+01  0.39270989470E+02  0.51100000000E-03 0.  1.
        -12    1    4    4    0    0 -0.59645310572E+01  0.94718449857E+01  0.16493543433E+01  0.11314232096E+02  0.00000000000E+00 0.  1.
</event>
<event>
 8    1  0.1247338E-006  0.9118800E+02  0.7816164E-02  0.1184000E+00
        -11   -1    0    0    0    0  0.00000000000E+00  0.00000000000E+00  0.45593999997E+02  0.45594000000E+02  0.51100000000E-03 0. -1.
         11   -1    0    0    0    0 -0.00000000000E+00 -0.00000000000E+00 -0.45593999997E+02  0.45594000000E+02  0.51100000000E-03 0.  1.
         23    2    1    2    0    0 -0.16653345369E-14  0.00000000000E+00 -0.44408920985E-15  0.91188000000E+02  0.91188000000E+02 0.  0.
    9900012    2    3    3    0    0 -0.25937530349E+00  0.36645247336E+02 -0.35831535000E+01  0.54367076371E+02  0.39999982203E+02 0.  0.
         12    1    3    3    0    0  0.25937530349E+00 -0.36645247336E+02  0.35831535000E+01  0.36820923629E+02  0.00000000000E+00 0. -1.
         11    1    4    4    0    0 -0.99008358477E+01  0.86603591809E+00  0.73020011331E+01  0.12332712171E+02  0.51100000000E-03 0. -1.
        -11    1    4    4    0    0 -0.34002162959E+00  0.14387087209E+02  0.29248758032E+01  0.14685325730E+02  0.51100000000E-03 0.  1.
         12    1    4    4    0    0  0.99814821738E+01  0.21392124209E+02 -0.13810030436E+02  0.27349038470E+02  0.00000000000E+00 0. -1.
</event>
<event>
 8    1  0.1247338E-006  0.9118800E+02  0.7816164E-02  0.1184000E+00
        -11   -1    0    0    0    0  0.00000000000E+00  0.00000000000E+00  0.45593999997E+02  0.45594000000E+02  0.51100000000E-03 0. -1.
         11   -1    0    0    0    0 -0.00000000000E+00 -0.00000000000E+00 -0.45593999997E+02  0.45594000000E+02  0.51100000000E-03 0.  1.
         23    2    1    2    0    0  0.00000000000E+00  0.00000000000E+00 -0.17763568394E-14  0.91188000000E+02  0.91188000000E+02 0.  0.
    9900012    2    3    3    0    0  0.18010146521E+02 -0.28105240917E+02 -0.15540493944E+02  0.54367124172E+02  0.40000091175E+02 0.  0.
         12    1    3    3    0    0 -0.18010146521E+02  0.28105240917E+02  0.15540493944E+02  0.36820875828E+02  0.00000000000E+00 0. -1.
         11    1    4    4    0    0  0.22407829939E+02 -0.78697056473E+01 -0.17552234114E+02  0.29531746176E+02  0.51100000000E-03 0. -1.
        -11    1    4    4    0    0 -0.21765029299E+00 -0.20513979426E+02  0.22569639740E+01  0.20638910102E+02  0.51100000000E-03 0.  1.
         12    1    4    4    0    0 -0.41800331252E+01  0.27844415645E+00 -0.24522380461E+00  0.41964678946E+01  0.00000000000E+00 0. -1.
</event>
<event>
 8    1  0.1247338E-006  0.9118800E+02  0.7816164E-02  0.1184000E+00
        -11   -1    0    0    0    0  0.00000000000E+00  0.00000000000E+00  0.45593999997E+02  0.45594000000E+02  0.51100000000E-03 0.  1.
         11   -1    0    0    0    0 -0.00000000000E+00 -0.00000000000E+00 -0.45593999997E+02  0.45594000000E+02  0.51100000000E-03 0. -1.
         23    2    1    2    0    0 -0.17763568394E-14  0.17763568394E-14  0.00000000000E+00  0.91188000000E+02  0.91188000000E+02 0.  0.
    9900012    2    3    3    0    0 -0.12213381134E+02 -0.10526629940E+02  0.33102929315E+02  0.54367074620E+02  0.39999978211E+02 0.  0.
         12    1    3    3    0    0  0.12213381134E+02  0.10526629940E+02 -0.33102929315E+02  0.36820925380E+02  0.00000000000E+00 0. -1.
         11    1    4    4    0    0  0.10521068186E+01 -0.39458065789E+01 -0.14620317706E+01  0.43374941470E+01  0.51100000000E-03 0. -1.
        -11    1    4    4    0    0 -0.41481705277E+00  0.12579329718E+02  0.16360210280E+02  0.20641416861E+02  0.51100000000E-03 0.  1.
        -12    1    4    4    0    0 -0.12850670900E+02 -0.19160153079E+02  0.18204750806E+02  0.29388163612E+02  0.00000000000E+00 0.  1.
</event>
<event>
 8    1  0.1247338E-006  0.9118800E+02  0.7816164E-02  0.1184000E+00
        -11   -1    0    0    0    0  0.00000000000E+00  0.00000000000E+00  0.45593999997E+02  0.45594000000E+02  0.51100000000E-03 0.  1.
         11   -1    0    0    0    0 -0.00000000000E+00 -0.00000000000E+00 -0.45593999997E+02  0.45594000000E+02  0.51100000000E-03 0. -1.
         23    2    1    2    0    0  0.00000000000E+00  0.17763568394E-14 -0.17763568394E-14  0.91188000000E+02  0.91188000000E+02 0.  0.
    9900012    2    3    3    0    0 -0.33110628569E+02 -0.95398144426E+01  0.12979143356E+02  0.54367082764E+02  0.39999996778E+02 0.  0.
         12    1    3    3    0    0  0.33110628569E+02  0.95398144426E+01 -0.12979143356E+02  0.36820917236E+02  0.00000000000E+00 0. -1.
         11    1    4    4    0    0 -0.10005414263E+02  0.76518401970E+01  0.69633937761E+01  0.14392630966E+02  0.51100000000E-03 0. -1.
        -11    1    4    4    0    0 -0.62597393331E+00 -0.95271652621E+00  0.11625740158E+02  0.11681495907E+02  0.51100000000E-03 0.  1.
        -12    1    4    4    0    0 -0.22479240372E+02 -0.16238938113E+02 -0.56099905782E+01  0.28292955891E+02  0.00000000000E+00 0.  1.
</event>
<event>
 8    1  0.1247338E-006  0.9118800E+02  0.7816164E-02  0.1184000E+00
        -11   -1    0    0    0    0  0.00000000000E+00  0.00000000000E+00  0.45593999997E+02  0.45594000000E+02  0.51100000000E-03 0. -1.
         11   -1    0    0    0    0 -0.00000000000E+00 -0.00000000000E+00 -0.45593999997E+02  0.45594000000E+02  0.51100000000E-03 0.  1.
         23    2    1    2    0    0 -0.35527136788E-14 -0.17763568394E-14  0.00000000000E+00  0.91188000000E+02  0.91188000000E+02 0.  0.
    9900012    2    3    3    0    0  0.12869964959E+02 -0.96165044597E+01 -0.33131062767E+02  0.54367075566E+02  0.39999980368E+02 0.  0.
         12    1    3    3    0    0 -0.12869964959E+02  0.96165044597E+01  0.33131062767E+02  0.36820924434E+02  0.00000000000E+00 0. -1.
         11    1    4    4    0    0 -0.53122500892E+01  0.91948193509E+01 -0.50514830446E+01  0.11759344587E+02  0.51100000000E-03 0. -1.
        -11    1    4    4    0    0  0.14110190040E+02 -0.19644592859E+02 -0.14041641457E+02  0.27967395063E+02  0.51100000000E-03 0.  1.
         12    1    4    4    0    0  0.40720250086E+01  0.83326904798E+00 -0.14037938266E+02  0.14640335916E+02  0.00000000000E+00 0. -1.
</event>
<event>
 8    1  0.1247338E-006  0.9118800E+02  0.7816164E-02  0.1184000E+00
        -11   -1    0    0    0    0  0.00000000000E+00  0.00000000000E+00  0.45593999997E+02  0.45594000000E+02  0.51100000000E-03 0. -1.
         11   -1    0    0    0    0 -0.00000000000E+00 -0.00000000000E+00 -0.45593999997E+02  0.45594000000E+02  0.51100000000E-03 0.  1.
         23    2    1    2    0    0 -0.17763568394E-14  0.71054273576E-14 -0.17763568394E-14  0.91188000000E+02  0.91188000000E+02 0.  0.
    9900012    2    3    3    0    0  0.14101189548E+02 -0.33144783242E+02  0.76393944369E+01  0.54367074561E+02  0.39999978077E+02 0.  0.
        -12    1    3    3    0    0 -0.14101189548E+02  0.33144783242E+02 -0.76393944369E+01  0.36820925439E+02  0.00000000000E+00 0.  1.
         11    1    4    4    0    0  0.10246865147E+02 -0.10462052637E+02  0.17434198264E+02  0.22768488314E+02  0.51100000000E-03 0. -1.
        -11    1    4    4    0    0  0.16914420447E+00  0.49920403831E+00  0.42248025620E+01  0.42575546248E+01  0.51100000000E-03 0.  1.
        -12    1    4    4    0    0  0.36851801958E+01 -0.23181934643E+02 -0.14019606389E+02  0.27341031622E+02  0.00000000000E+00 0.  1.
</event>
<event>
 8    1  0.1247338E-006  0.9118800E+02  0.7816164E-02  0.1184000E+00
        -11   -1    0    0    0    0  0.00000000000E+00  0.00000000000E+00  0.45593999997E+02  0.45594000000E+02  0.51100000000E-03 0. -1.
         11   -1    0    0    0    0 -0.00000000000E+00 -0.00000000000E+00 -0.45593999997E+02  0.45594000000E+02  0.51100000000E-03 0.  1.
         23    2    1    2    0    0  0.00000000000E+00  0.00000000000E+00  0.00000000000E+00  0.91188000000E+02  0.91188000000E+02 0.  0.
    9900012    2    3    3    0    0 -0.24974921557E+02  0.15217923200E+02  0.22370666083E+02  0.54367101120E+02  0.40000038624E+02 0.  0.
        -12    1    3    3    0    0  0.24974921557E+02 -0.15217923200E+02 -0.22370666083E+02  0.36820898880E+02  0.00000000000E+00 0.  1.
         11    1    4    4    0    0 -0.74953598659E+01  0.38605717199E+01 -0.10306955295E+02  0.13316071539E+02  0.51100000000E-03 0.  1.
        -11    1    4    4    0    0 -0.19366328167E+01  0.72805047036E+01  0.17031236469E+02  0.18623085441E+02  0.51100000000E-03 0. -1.
        -12    1    4    4    0    0 -0.15542928874E+02  0.40768467770E+01  0.15646384909E+02  0.22427944140E+02  0.00000000000E+00 0.  1.
</event>
<event>
 8    1  0.1247338E-006  0.9118800E+02  0.7816164E-02  0.1184000E+00
        -11   -1    0    0    0    0  0.00000000000E+00  0.00000000000E+00  0.45593999997E+02  0.45594000000E+02  0.51100000000E-03 0.  1.
         11   -1    0    0    0    0 -0.00000000000E+00 -0.00000000000E+00 -0.45593999997E+02  0.45594000000E+02  0.51100000000E-03 0. -1.
         23    2    1    2    0    0  0.35527136788E-14  0.00000000000E+00  0.00000000000E+00  0.91188000000E+02  0.91188000000E+02 0.  0.
    9900012    2    3    3    0    0 -0.30192391789E+02  0.15072443068E+02  0.14731626107E+02  0.54367083801E+02  0.39999999141E+02 0.  0.
        -12    1    3    3    0    0  0.30192391789E+02 -0.15072443068E+02 -0.14731626107E+02  0.36820916199E+02  0.00000000000E+00 0.  1.
         11    1    4    4    0    0  0.23119543385E+01 -0.53070471092E+01  0.49648321030E+01  0.76262336677E+01  0.51100000000E-03 0. -1.
        -11    1    4    4    0    0 -0.20995986113E+02  0.20326727594E+02  0.16346182962E+02  0.33484399132E+02  0.51100000000E-03 0.  1.
        -12    1    4    4    0    0 -0.11508360014E+02  0.52762584048E-01 -0.65793889578E+01  0.13256451001E+02  0.00000000000E+00 0.  1.
</event>
<event>
 8    1  0.1247338E-006  0.9118800E+02  0.7816164E-02  0.1184000E+00
        -11   -1    0    0    0    0  0.00000000000E+00  0.00000000000E+00  0.45593999997E+02  0.45594000000E+02  0.51100000000E-03 0.  1.
         11   -1    0    0    0    0 -0.00000000000E+00 -0.00000000000E+00 -0.45593999997E+02  0.45594000000E+02  0.51100000000E-03 0. -1.
         23    2    1    2    0    0  0.22204460493E-14  0.00000000000E+00  0.00000000000E+00  0.91188000000E+02  0.91188000000E+02 0.  0.
    9900012    2    3    3    0    0  0.24446778944E+01 -0.89825998650E+01 -0.35624564981E+02  0.54367174637E+02  0.40000206219E+02 0.  0.
        -12    1    3    3    0    0 -0.24446778944E+01  0.89825998650E+01  0.35624564981E+02  0.36820825363E+02  0.00000000000E+00 0.  1.
         11    1    4    4    0    0 -0.34999359100E+01 -0.59670604306E+00 -0.10378743366E+01  0.36990259361E+01  0.51100000000E-03 0. -1.
        -11    1    4    4    0    0  0.18940502945E+02 -0.76351307718E+01 -0.31076140263E+02  0.37185539765E+02  0.51100000000E-03 0.  1.
        -12    1    4    4    0    0 -0.12995889141E+02 -0.75076305023E+00 -0.35105503816E+01  0.13482608935E+02  0.00000000000E+00 0.  1.
</event>
<event>
 8    1  0.1247338E-006  0.9118800E+02  0.7816164E-02  0.1184000E+00
        -11   -1    0    0    0    0  0.00000000000E+00  0.00000000000E+00  0.45593999997E+02  0.45594000000E+02  0.51100000000E-03 0.  1.
         11   -1    0    0    0    0 -0.00000000000E+00 -0.00000000000E+00 -0.45593999997E+02  0.45594000000E+02  0.51100000000E-03 0. -1.
         23    2    1    2    0    0  0.00000000000E+00 -0.71054273576E-14  0.17763568394E-14  0.91188000000E+02  0.91188000000E+02 0.  0.
    9900012    2    3    3    0    0 -0.57112175420E+01 -0.34700709043E+02  0.10909817857E+02  0.54367063841E+02  0.39999953639E+02 0.  0.
        -12    1    3    3    0    0  0.57112175420E+01  0.34700709043E+02 -0.10909817857E+02  0.36820936159E+02  0.00000000000E+00 0.  1.
         11    1    4    4    0    0 -0.61949996241E+01  0.25146154300E+01 -0.45459043616E+01  0.80849587401E+01  0.51100000000E-03 0.  1.
        -11    1    4    4    0    0 -0.84148220378E+01 -0.23387760513E+02  0.16454260601E+02  0.29808375734E+02  0.51100000000E-03 0. -1.
         12    1    4    4    0    0  0.88986041198E+01 -0.13827563960E+02 -0.99853838238E+00  0.16473729367E+02  0.00000000000E+00 0. -1.
</event>
<event>
 8    1  0.1247338E-006  0.9118800E+02  0.7816164E-02  0.1184000E+00
        -11   -1    0    0    0    0  0.00000000000E+00  0.00000000000E+00  0.45593999997E+02  0.45594000000E+02  0.51100000000E-03 0.  1.
         11   -1    0    0    0    0 -0.00000000000E+00 -0.00000000000E+00 -0.45593999997E+02  0.45594000000E+02  0.51100000000E-03 0. -1.
         23    2    1    2    0    0 -0.44408920985E-15  0.00000000000E+00  0.00000000000E+00  0.91188000000E+02  0.91188000000E+02 0.  0.
    9900012    2    3    3    0    0  0.25685013148E+01  0.53429255420E+01  0.36340555821E+02  0.54367081357E+02  0.39999993570E+02 0.  0.
         12    1    3    3    0    0 -0.25685013148E+01 -0.53429255420E+01 -0.36340555821E+02  0.36820918643E+02  0.00000000000E+00 0. -1.
         11    1    4    4    0    0  0.12850467363E+02  0.83482766699E+00  0.12121902372E+02  0.17685360219E+02  0.51100000000E-03 0. -1.
        -11    1    4    4    0    0 -0.83274611882E+01  0.10649970692E+02  0.21474739570E+01  0.13688686213E+02  0.51100000000E-03 0.  1.
        -12    1    4    4    0    0 -0.19545048601E+01 -0.61418728169E+01  0.22071179491E+02  0.22993034926E+02  0.00000000000E+00 0.  1.
</event>
<event>
 8    1  0.1247338E-006  0.9118800E+02  0.7816164E-02  0.1184000E+00
        -11   -1    0    0    0    0  0.00000000000E+00  0.00000000000E+00  0.45593999997E+02  0.45594000000E+02  0.51100000000E-03 0.  1.
         11   -1    0    0    0    0 -0.00000000000E+00 -0.00000000000E+00 -0.45593999997E+02  0.45594000000E+02  0.51100000000E-03 0. -1.
         23    2    1    2    0    0 -0.35527136788E-14  0.00000000000E+00  0.17763568394E-14  0.91188000000E+02  0.91188000000E+02 0.  0.
    9900012    2    3    3    0    0 -0.12273699006E+02  0.33157656726E+02 -0.10281381896E+02  0.54367072519E+02  0.39999973422E+02 0.  0.
        -12    1    3    3    0    0  0.12273699006E+02 -0.33157656726E+02  0.10281381896E+02  0.36820927481E+02  0.00000000000E+00 0.  1.
         11    1    4    4    0    0  0.41330913842E+01  0.96278390281E+01 -0.99422791894E+01  0.14443913752E+02  0.51100000000E-03 0. -1.
        -11    1    4    4    0    0 -0.13239584004E+02 -0.25989617075E+01 -0.15138041327E+01  0.13576921218E+02  0.51100000000E-03 0.  1.
         12    1    4    4    0    0 -0.31672063861E+01  0.26128779406E+02  0.11747014265E+01  0.26346237549E+02  0.00000000000E+00 0. -1.
</event>
<event>
 8    1  0.1247338E-006  0.9118800E+02  0.7816164E-02  0.1184000E+00
        -11   -1    0    0    0    0  0.00000000000E+00  0.00000000000E+00  0.45593999997E+02  0.45594000000E+02  0.51100000000E-03 0. -1.
         11   -1    0    0    0    0 -0.00000000000E+00 -0.00000000000E+00 -0.45593999997E+02  0.45594000000E+02  0.51100000000E-03 0.  1.
         23    2    1    2    0    0  0.00000000000E+00  0.00000000000E+00 -0.71054273576E-14  0.91188000000E+02  0.91188000000E+02 0.  0.
    9900012    2    3    3    0    0  0.13647275956E+02  0.18010154525E+02 -0.29071683640E+02  0.54367128246E+02  0.40000100463E+02 0.  0.
         12    1    3    3    0    0 -0.13647275956E+02 -0.18010154525E+02  0.29071683640E+02  0.36820871754E+02  0.00000000000E+00 0. -1.
         11    1    4    4    0    0  0.40398854262E+01 -0.12132639795E+01  0.35461311548E+01  0.55106923493E+01  0.51100000000E-03 0. -1.
        -11    1    4    4    0    0  0.33641242396E+01  0.15261009903E+02 -0.22363052367E+00  0.15629004000E+02  0.51100000000E-03 0.  1.
         12    1    4    4    0    0  0.62432662900E+01  0.39624086017E+01 -0.32394184271E+02  0.33227431897E+02  0.00000000000E+00 0. -1.
</event>
<event>
 8    1  0.1247338E-006  0.9118800E+02  0.7816164E-02  0.1184000E+00
        -11   -1    0    0    0    0  0.00000000000E+00  0.00000000000E+00  0.45593999997E+02  0.45594000000E+02  0.51100000000E-03 0.  1.
         11   -1    0    0    0    0 -0.00000000000E+00 -0.00000000000E+00 -0.45593999997E+02  0.45594000000E+02  0.51100000000E-03 0. -1.
         23    2    1    2    0    0 -0.17763568394E-14  0.00000000000E+00  0.00000000000E+00  0.91188000000E+02  0.91188000000E+02 0.  0.
    9900012    2    3    3    0    0  0.14631072115E+02  0.25479175957E+02  0.22192855212E+02  0.54367088806E+02  0.40000010551E+02 0.  0.
         12    1    3    3    0    0 -0.14631072115E+02 -0.25479175957E+02 -0.22192855212E+02  0.36820911194E+02  0.00000000000E+00 0. -1.
         11    1    4    4    0    0 -0.68019880316E+01  0.13197171940E+02  0.48542284994E+01  0.15620368849E+02  0.51100000000E-03 0. -1.
        -11    1    4    4    0    0  0.84556527061E+01  0.15316383917E+02  0.18383985482E+02  0.25378349069E+02  0.51100000000E-03 0.  1.
         12    1    4    4    0    0  0.12977407440E+02 -0.30343798997E+01 -0.10453587699E+01  0.13368370888E+02  0.00000000000E+00 0. -1.
</event>
<event>
 8    1  0.1247338E-006  0.9118800E+02  0.7816164E-02  0.1184000E+00
        -11   -1    0    0    0    0  0.00000000000E+00  0.00000000000E+00  0.45593999997E+02  0.45594000000E+02  0.51100000000E-03 0.  1.
         11   -1    0    0    0    0 -0.00000000000E+00 -0.00000000000E+00 -0.45593999997E+02  0.45594000000E+02  0.51100000000E-03 0. -1.
         23    2    1    2    0    0  0.00000000000E+00  0.00000000000E+00  0.00000000000E+00  0.91188000000E+02  0.91188000000E+02 0.  0.
    9900012    2    3    3    0    0 -0.12630492061E+02 -0.42293324098E+01 -0.34327212422E+02  0.54367162217E+02  0.40000177907E+02 0.  0.
        -12    1    3    3    0    0  0.12630492061E+02  0.42293324098E+01  0.34327212422E+02  0.36820837783E+02  0.00000000000E+00 0.  1.
         11    1    4    4    0    0 -0.11704274454E+02 -0.89550350546E+01 -0.12430819408E+02  0.19279729374E+02  0.51100000000E-03 0. -1.
        -11    1    4    4    0    0  0.39946783467E+01  0.25152366088E+01  0.54522293744E+01  0.72118427398E+01  0.51100000000E-03 0.  1.
        -12    1    4    4    0    0 -0.49208959542E+01  0.22104660360E+01 -0.27348622388E+02  0.27875590104E+02  0.00000000000E+00 0.  1.
</event>
<event>
 8    1  0.1247338E-006  0.9118800E+02  0.7816164E-02  0.1184000E+00
        -11   -1    0    0    0    0  0.00000000000E+00  0.00000000000E+00  0.45593999997E+02  0.45594000000E+02  0.51100000000E-03 0.  1.
         11   -1    0    0    0    0 -0.00000000000E+00 -0.00000000000E+00 -0.45593999997E+02  0.45594000000E+02  0.51100000000E-03 0. -1.
         23    2    1    2    0    0  0.00000000000E+00  0.00000000000E+00 -0.35527136788E-14  0.91188000000E+02  0.91188000000E+02 0.  0.
    9900012    2    3    3    0    0  0.86241277371E+01  0.27046401486E+02 -0.23449856595E+02  0.54367093074E+02  0.40000020280E+02 0.  0.
        -12    1    3    3    0    0 -0.86241277371E+01 -0.27046401486E+02  0.23449856595E+02  0.36820906926E+02  0.00000000000E+00 0.  1.
         11    1    4    4    0    0  0.80349514960E+01  0.18601918940E+02 -0.20633565207E+02  0.28919471766E+02  0.51100000000E-03 0. -1.
        -11    1    4    4    0    0 -0.54797731697E+00  0.15927954366E+02 -0.62714979303E+01  0.17126928971E+02  0.51100000000E-03 0.  1.
         12    1    4    4    0    0  0.11371535581E+01 -0.74834718206E+01  0.34552065427E+01  0.83206923364E+01  0.00000000000E+00 0. -1.
</event>
<event>
 8    1  0.1247338E-006  0.9118800E+02  0.7816164E-02  0.1184000E+00
        -11   -1    0    0    0    0  0.00000000000E+00  0.00000000000E+00  0.45593999997E+02  0.45594000000E+02  0.51100000000E-03 0.  1.
         11   -1    0    0    0    0 -0.00000000000E+00 -0.00000000000E+00 -0.45593999997E+02  0.45594000000E+02  0.51100000000E-03 0. -1.
         23    2    1    2    0    0  0.35527136788E-14  0.35527136788E-14 -0.35527136788E-14  0.91188000000E+02  0.91188000000E+02 0.  0.
    9900012    2    3    3    0    0 -0.17894297001E+02 -0.19797844507E+02  0.25369659152E+02  0.54367080432E+02  0.39999991462E+02 0.  0.
         12    1    3    3    0    0  0.17894297001E+02  0.19797844507E+02 -0.25369659152E+02  0.36820919568E+02  0.00000000000E+00 0. -1.
         11    1    4    4    0    0 -0.52223986151E+01 -0.24831427011E+01 -0.81229080115E+01  0.99710119744E+01  0.51100000000E-03 0. -1.
        -11    1    4    4    0    0 -0.10167356581E+02  0.49210583862E+00  0.17915091420E+02  0.20605043286E+02  0.51100000000E-03 0.  1.
         12    1    4    4    0    0 -0.25045418051E+01 -0.17806807645E+02  0.15577475744E+02  0.23791025172E+02  0.00000000000E+00 0. -1.
</event>
<event>
 8    1  0.1247338E-006  0.9118800E+02  0.7816164E-02  0.1184000E+00
        -11   -1    0    0    0    0  0.00000000000E+00  0.00000000000E+00  0.45593999997E+02  0.45594000000E+02  0.51100000000E-03 0.  1.
         11   -1    0    0    0    0 -0.00000000000E+00 -0.00000000000E+00 -0.45593999997E+02  0.45594000000E+02  0.51100000000E-03 0. -1.
         23    2    1    2    0    0  0.71054273576E-14 -0.88817841970E-15  0.00000000000E+00  0.91188000000E+02  0.91188000000E+02 0.  0.
    9900012    2    3    3    0    0  0.24217052363E+02  0.69220367187E+01  0.26858874161E+02  0.54367091012E+02  0.40000015581E+02 0.  0.
         12    1    3    3    0    0 -0.24217052363E+02 -0.69220367187E+01 -0.26858874161E+02  0.36820908988E+02  0.00000000000E+00 0. -1.
         11    1    4    4    0    0 -0.20105005751E+01 -0.75507184884E+00  0.12214732051E+01  0.24706766505E+01  0.51100000000E-03 0. -1.
        -11    1    4    4    0    0 -0.21945858162E+01  0.11135194925E+02 -0.26425819884E+01  0.11652982998E+02  0.51100000000E-03 0.  1.
        -12    1    4    4    0    0  0.28422138754E+02 -0.34580863576E+01  0.28279982944E+02  0.40243431364E+02  0.00000000000E+00 0.  1.
</event>
<event>
 8    1  0.1247338E-006  0.9118800E+02  0.7816164E-02  0.1184000E+00
        -11   -1    0    0    0    0  0.00000000000E+00  0.00000000000E+00  0.45593999997E+02  0.45594000000E+02  0.51100000000E-03 0.  1.
         11   -1    0    0    0    0 -0.00000000000E+00 -0.00000000000E+00 -0.45593999997E+02  0.45594000000E+02  0.51100000000E-03 0. -1.
         23    2    1    2    0    0  0.00000000000E+00  0.17763568394E-14  0.00000000000E+00  0.91188000000E+02  0.91188000000E+02 0.  0.
    9900012    2    3    3    0    0 -0.13316174953E+02  0.13952967355E+02 -0.31365152167E+02  0.54367101263E+02  0.40000038949E+02 0.  0.
        -12    1    3    3    0    0  0.13316174953E+02 -0.13952967355E+02  0.31365152167E+02  0.36820898737E+02  0.00000000000E+00 0.  1.
         11    1    4    4    0    0 -0.14047176771E+02 -0.14804185829E+01 -0.14781657299E+02  0.20445346834E+02  0.51100000000E-03 0. -1.
        -11    1    4    4    0    0 -0.11722739887E+02  0.35339206173E+01 -0.84257217290E+01  0.14862839981E+02  0.51100000000E-03 0.  1.
         12    1    4    4    0    0  0.12453741704E+02  0.11899465320E+02 -0.81577731386E+01  0.19058914448E+02  0.00000000000E+00 0. -1.
</event>
<event>
 8    1  0.1247338E-006  0.9118800E+02  0.7816164E-02  0.1184000E+00
        -11   -1    0    0    0    0  0.00000000000E+00  0.00000000000E+00  0.45593999997E+02  0.45594000000E+02  0.51100000000E-03 0.  1.
         11   -1    0    0    0    0 -0.00000000000E+00 -0.00000000000E+00 -0.45593999997E+02  0.45594000000E+02  0.51100000000E-03 0. -1.
         23    2    1    2    0    0  0.11102230246E-15  0.00000000000E+00  0.71054273576E-14  0.91188000000E+02  0.91188000000E+02 0.  0.
    9900012    2    3    3    0    0 -0.85127962270E+00  0.19128172260E+02 -0.31451036777E+02  0.54367090650E+02  0.40000014756E+02 0.  0.
        -12    1    3    3    0    0  0.85127962270E+00 -0.19128172260E+02  0.31451036777E+02  0.36820909350E+02  0.00000000000E+00 0.  1.
         11    1    4    4    0    0 -0.10355871393E+01 -0.11710224124E+01 -0.15134911989E+02  0.15215429517E+02  0.51100000000E-03 0. -1.
        -11    1    4    4    0    0 -0.11602554652E+02  0.14695076666E+02 -0.61363352763E+00  0.18733421979E+02  0.51100000000E-03 0.  1.
         12    1    4    4    0    0  0.11786862168E+02  0.56041180058E+01 -0.15702491260E+02  0.20418239154E+02  0.00000000000E+00 0. -1.
</event>
<event>
 8    1  0.1247338E-006  0.9118800E+02  0.7816164E-02  0.1184000E+00
        -11   -1    0    0    0    0  0.00000000000E+00  0.00000000000E+00  0.45593999997E+02  0.45594000000E+02  0.51100000000E-03 0.  1.
         11   -1    0    0    0    0 -0.00000000000E+00 -0.00000000000E+00 -0.45593999997E+02  0.45594000000E+02  0.51100000000E-03 0. -1.
         23    2    1    2    0    0  0.00000000000E+00 -0.13322676296E-14  0.17763568394E-14  0.91188000000E+02  0.91188000000E+02 0.  0.
    9900012    2    3    3    0    0 -0.36692338688E+02  0.24962645870E+01  0.17932291122E+01  0.54367153650E+02  0.40000158376E+02 0.  0.
         12    1    3    3    0    0  0.36692338688E+02 -0.24962645870E+01 -0.17932291122E+01  0.36820846350E+02  0.00000000000E+00 0. -1.
         11    1    4    4    0    0 -0.11728776083E+02 -0.78261245244E+01 -0.10121783035E+02  0.17356926731E+02  0.51100000000E-03 0. -1.
        -11    1    4    4    0    0 -0.13414405408E+02  0.17027823353E+02  0.69835524895E+01  0.22774174985E+02  0.51100000000E-03 0.  1.
        -12    1    4    4    0    0 -0.11549157196E+02 -0.67054342420E+01  0.49314596579E+01  0.14236051934E+02  0.00000000000E+00 0.  1.
</event>
<event>
 8    1  0.1247338E-006  0.9118800E+02  0.7816164E-02  0.1184000E+00
        -11   -1    0    0    0    0  0.00000000000E+00  0.00000000000E+00  0.45593999997E+02  0.45594000000E+02  0.51100000000E-03 0. -1.
         11   -1    0    0    0    0 -0.00000000000E+00 -0.00000000000E+00 -0.45593999997E+02  0.45594000000E+02  0.51100000000E-03 0.  1.
         23    2    1    2    0    0  0.44408920985E-15  0.17763568394E-14  0.00000000000E+00  0.91188000000E+02  0.91188000000E+02 0.  0.
    9900012    2    3    3    0    0 -0.27885834377E+01  0.51607074108E+01 -0.36350661116E+02  0.54367086620E+02  0.40000005566E+02 0.  0.
         12    1    3    3    0    0  0.27885834377E+01 -0.51607074108E+01  0.36350661116E+02  0.36820913380E+02  0.00000000000E+00 0. -1.
         11    1    4    4    0    0  0.70649297588E+01 -0.54799504145E+01 -0.31686960423E+02  0.32924254739E+02  0.51100000000E-03 0. -1.
        -11    1    4    4    0    0 -0.19293751378E+01  0.12290380418E+02 -0.48338846562E+01  0.13346998928E+02  0.51100000000E-03 0.  1.
         12    1    4    4    0    0 -0.79241380587E+01 -0.16497225932E+01  0.17018396264E+00  0.80958329521E+01  0.00000000000E+00 0. -1.
</event>
<event>
 8    1  0.1247338E-006  0.9118800E+02  0.7816164E-02  0.1184000E+00
        -11   -1    0    0    0    0  0.00000000000E+00  0.00000000000E+00  0.45593999997E+02  0.45594000000E+02  0.51100000000E-03 0. -1.
         11   -1    0    0    0    0 -0.00000000000E+00 -0.00000000000E+00 -0.45593999997E+02  0.45594000000E+02  0.51100000000E-03 0.  1.
         23    2    1    2    0    0  0.00000000000E+00  0.00000000000E+00  0.44408920985E-15  0.91188000000E+02  0.91188000000E+02 0.  0.
    9900012    2    3    3    0    0  0.61331948762E+01 -0.36101022617E+02  0.38574086119E+01  0.54367088623E+02  0.40000010134E+02 0.  0.
        -12    1    3    3    0    0 -0.61331948762E+01  0.36101022617E+02 -0.38574086119E+01  0.36820911377E+02  0.00000000000E+00 0.  1.
         11    1    4    4    0    0  0.20455745346E+01 -0.13743734952E+02  0.58581464090E+01  0.15079539291E+02  0.51100000000E-03 0. -1.
        -11    1    4    4    0    0 -0.11251715256E+02 -0.18235680756E+01 -0.67114499982E+01  0.13227624808E+02  0.51100000000E-03 0.  1.
         12    1    4    4    0    0  0.15339335598E+02 -0.20533719590E+02  0.47107122011E+01  0.26059924524E+02  0.00000000000E+00 0. -1.
</event>
<event>
 8    1  0.1247338E-006  0.9118800E+02  0.7816164E-02  0.1184000E+00
        -11   -1    0    0    0    0  0.00000000000E+00  0.00000000000E+00  0.45593999997E+02  0.45594000000E+02  0.51100000000E-03 0.  1.
         11   -1    0    0    0    0 -0.00000000000E+00 -0.00000000000E+00 -0.45593999997E+02  0.45594000000E+02  0.51100000000E-03 0. -1.
         23    2    1    2    0    0  0.00000000000E+00  0.00000000000E+00  0.00000000000E+00  0.91188000000E+02  0.91188000000E+02 0.  0.
    9900012    2    3    3    0    0  0.89306896518E+01  0.14365795032E+02  0.32705437825E+02  0.54367096319E+02  0.40000027679E+02 0.  0.
         12    1    3    3    0    0 -0.89306896518E+01 -0.14365795032E+02 -0.32705437825E+02  0.36820903681E+02  0.00000000000E+00 0. -1.
         11    1    4    4    0    0  0.71184706523E+01  0.41318559540E+01 -0.17323968903E+01  0.84110675481E+01  0.51100000000E-03 0. -1.
        -11    1    4    4    0    0  0.47899802217E+00  0.60993524494E+01  0.39104543092E+02  0.39580258085E+02  0.51100000000E-03 0.  1.
        -12    1    4    4    0    0  0.13332209773E+01  0.41345866288E+01 -0.46667083769E+01  0.63757706860E+01  0.00000000000E+00 0.  1.
</event>
<event>
 8    1  0.1247338E-006  0.9118800E+02  0.7816164E-02  0.1184000E+00
        -11   -1    0    0    0    0  0.00000000000E+00  0.00000000000E+00  0.45593999997E+02  0.45594000000E+02  0.51100000000E-03 0.  1.
         11   -1    0    0    0    0 -0.00000000000E+00 -0.00000000000E+00 -0.45593999997E+02  0.45594000000E+02  0.51100000000E-03 0. -1.
         23    2    1    2    0    0  0.00000000000E+00 -0.88817841970E-15  0.35527136788E-14  0.91188000000E+02  0.91188000000E+02 0.  0.
    9900012    2    3    3    0    0 -0.23814916166E+02  0.60622760563E+01  0.27420408646E+02  0.54367078864E+02  0.39999987887E+02 0.  0.
         12    1    3    3    0    0  0.23814916166E+02 -0.60622760563E+01 -0.27420408646E+02  0.36820921136E+02  0.00000000000E+00 0. -1.
         11    1    4    4    0    0 -0.15141767728E+01 -0.42013703668E+01  0.47483547761E+01  0.65185211205E+01  0.51100000000E-03 0. -1.
        -11    1    4    4    0    0  0.98332007755E+00 -0.61718641323E+01 -0.50910195040E+01  0.80608501471E+01  0.51100000000E-03 0.  1.
         12    1    4    4    0    0 -0.23284059470E+02  0.16435510555E+02  0.27763073374E+02  0.39787707597E+02  0.00000000000E+00 0. -1.
</event>
<event>
 8    1  0.1247338E-006  0.9118800E+02  0.7816164E-02  0.1184000E+00
        -11   -1    0    0    0    0  0.00000000000E+00  0.00000000000E+00  0.45593999997E+02  0.45594000000E+02  0.51100000000E-03 0.  1.
         11   -1    0    0    0    0 -0.00000000000E+00 -0.00000000000E+00 -0.45593999997E+02  0.45594000000E+02  0.51100000000E-03 0. -1.
         23    2    1    2    0    0  0.00000000000E+00  0.00000000000E+00  0.00000000000E+00  0.91188000000E+02  0.91188000000E+02 0.  0.
    9900012    2    3    3    0    0  0.33107194954E+02  0.12536304831E+02  0.10125907349E+02  0.54367091590E+02  0.40000016897E+02 0.  0.
        -12    1    3    3    0    0 -0.33107194954E+02 -0.12536304831E+02 -0.10125907349E+02  0.36820908410E+02  0.00000000000E+00 0.  1.
         11    1    4    4    0    0  0.94620175224E+01  0.17559202421E+02  0.12554620581E+02  0.23568493024E+02  0.51100000000E-03 0. -1.
        -11    1    4    4    0    0  0.21405940117E+02 -0.10078617750E+02  0.19574448845E+01  0.23740775025E+02  0.51100000000E-03 0.  1.
         12    1    4    4    0    0  0.22392373139E+01  0.50557201609E+01 -0.43861581168E+01  0.70578235398E+01  0.00000000000E+00 0. -1.
</event>
<event>
 8    1  0.1247338E-006  0.9118800E+02  0.7816164E-02  0.1184000E+00
        -11   -1    0    0    0    0  0.00000000000E+00  0.00000000000E+00  0.45593999997E+02  0.45594000000E+02  0.51100000000E-03 0. -1.
         11   -1    0    0    0    0 -0.00000000000E+00 -0.00000000000E+00 -0.45593999997E+02  0.45594000000E+02  0.51100000000E-03 0.  1.
         23    2    1    2    0    0 -0.71054273576E-14  0.00000000000E+00  0.00000000000E+00  0.91188000000E+02  0.91188000000E+02 0.  0.
    9900012    2    3    3    0    0 -0.32615080316E+02  0.12639554330E+02  0.11501284836E+02  0.54367063693E+02  0.39999953300E+02 0.  0.
        -12    1    3    3    0    0  0.32615080316E+02 -0.12639554330E+02 -0.11501284836E+02  0.36820936307E+02  0.00000000000E+00 0.  1.
         11    1    4    4    0    0  0.60746281676E+01  0.72142082828E+00  0.46690569184E+01  0.76955602886E+01  0.51100000000E-03 0. -1.
        -11    1    4    4    0    0 -0.44449748508E+01  0.86225848366E+01 -0.41599098246E+01  0.10555170330E+02  0.51100000000E-03 0.  1.
         12    1    4    4    0    0 -0.34244733633E+02  0.32955486648E+01  0.10992137742E+02  0.36116333074E+02  0.00000000000E+00 0. -1.
</event>
<event>
 8    1  0.1247338E-006  0.9118800E+02  0.7816164E-02  0.1184000E+00
        -11   -1    0    0    0    0  0.00000000000E+00  0.00000000000E+00  0.45593999997E+02  0.45594000000E+02  0.51100000000E-03 0. -1.
         11   -1    0    0    0    0 -0.00000000000E+00 -0.00000000000E+00 -0.45593999997E+02  0.45594000000E+02  0.51100000000E-03 0.  1.
         23    2    1    2    0    0  0.00000000000E+00  0.00000000000E+00 -0.10658141036E-13  0.91188000000E+02  0.91188000000E+02 0.  0.
    9900012    2    3    3    0    0 -0.11001237055E+02 -0.21051632563E+02  0.28135077205E+02  0.54367068186E+02  0.39999963545E+02 0.  0.
        -12    1    3    3    0    0  0.11001237055E+02  0.21051632563E+02 -0.28135077205E+02  0.36820931814E+02  0.00000000000E+00 0.  1.
         11    1    4    4    0    0 -0.41095991842E+01 -0.15842621273E+02  0.30151910523E+02  0.34307654579E+02  0.51100000000E-03 0. -1.
        -11    1    4    4    0    0 -0.40689716142E+00 -0.11041865288E+02 -0.24830314994E+01  0.11324919427E+02  0.51100000000E-03 0.  1.
        -12    1    4    4    0    0 -0.64847407092E+01  0.58328539993E+01  0.46619818181E+00  0.87344941804E+01  0.00000000000E+00 0.  1.
</event>
<event>
 8    1  0.1247338E-006  0.9118800E+02  0.7816164E-02  0.1184000E+00
        -11   -1    0    0    0    0  0.00000000000E+00  0.00000000000E+00  0.45593999997E+02  0.45594000000E+02  0.51100000000E-03 0.  1.
         11   -1    0    0    0    0 -0.00000000000E+00 -0.00000000000E+00 -0.45593999997E+02  0.45594000000E+02  0.51100000000E-03 0. -1.
         23    2    1    2    0    0  0.00000000000E+00  0.00000000000E+00 -0.44408920985E-15  0.91188000000E+02  0.91188000000E+02 0.  0.
    9900012    2    3    3    0    0  0.33184617946E+02  0.15514019320E+02 -0.37251849362E+01  0.54367072982E+02  0.39999974476E+02 0.  0.
        -12    1    3    3    0    0 -0.33184617946E+02 -0.15514019320E+02  0.37251849362E+01  0.36820927018E+02  0.00000000000E+00 0.  1.
         11    1    4    4    0    0  0.19455372794E+01  0.13462823803E+02 -0.36451986420E+01  0.14082620973E+02  0.51100000000E-03 0. -1.
        -11    1    4    4    0    0  0.38781834762E+01 -0.95372219211E+01 -0.20793565766E+01  0.10503458149E+02  0.51100000000E-03 0.  1.
         12    1    4    4    0    0  0.27360897190E+02  0.11588417438E+02  0.19993702825E+01  0.29780993860E+02  0.00000000000E+00 0. -1.
</event>
<event>
 8    1  0.1247338E-006  0.9118800E+02  0.7816164E-02  0.1184000E+00
        -11   -1    0    0    0    0  0.00000000000E+00  0.00000000000E+00  0.45593999997E+02  0.45594000000E+02  0.51100000000E-03 0.  1.
         11   -1    0    0    0    0 -0.00000000000E+00 -0.00000000000E+00 -0.45593999997E+02  0.45594000000E+02  0.51100000000E-03 0. -1.
         23    2    1    2    0    0  0.17763568394E-14  0.00000000000E+00  0.00000000000E+00  0.91188000000E+02  0.91188000000E+02 0.  0.
    9900012    2    3    3    0    0 -0.15337371066E+02  0.32288903402E+02 -0.88301271008E+01  0.54367090468E+02  0.40000014340E+02 0.  0.
        -12    1    3    3    0    0  0.15337371066E+02 -0.32288903402E+02  0.88301271008E+01  0.36820909532E+02  0.00000000000E+00 0.  1.
         11    1    4    4    0    0 -0.16383776325E+02  0.21140022348E+02 -0.91716338058E+01  0.28274503329E+02  0.51100000000E-03 0. -1.
        -11    1    4    4    0    0  0.75387838980E+00  0.29134409075E+01  0.11688083596E+02  0.12069290326E+02  0.51100000000E-03 0.  1.
         12    1    4    4    0    0  0.29252686960E+00  0.82354401469E+01 -0.11346576891E+02  0.14023296814E+02  0.00000000000E+00 0. -1.
</event>
<event>
 8    1  0.1247338E-006  0.9118800E+02  0.7816164E-02  0.1184000E+00
        -11   -1    0    0    0    0  0.00000000000E+00  0.00000000000E+00  0.45593999997E+02  0.45594000000E+02  0.51100000000E-03 0. -1.
         11   -1    0    0    0    0 -0.00000000000E+00 -0.00000000000E+00 -0.45593999997E+02  0.45594000000E+02  0.51100000000E-03 0.  1.
         23    2    1    2    0    0 -0.88817841970E-15 -0.71054273576E-14  0.00000000000E+00  0.91188000000E+02  0.91188000000E+02 0.  0.
    9900012    2    3    3    0    0  0.64248996556E+01  0.36018635000E+02 -0.41422332750E+01  0.54367088831E+02  0.40000010607E+02 0.  0.
        -12    1    3    3    0    0 -0.64248996556E+01 -0.36018635000E+02  0.41422332750E+01  0.36820911169E+02  0.00000000000E+00 0.  1.
         11    1    4    4    0    0 -0.11086093758E+02  0.36261017811E+01  0.65165048163E+01  0.13360947729E+02  0.51100000000E-03 0. -1.
        -11    1    4    4    0    0  0.82836509637E+01  0.40527707351E+01 -0.55619359385E+01  0.10769352607E+02  0.51100000000E-03 0.  1.
         12    1    4    4    0    0  0.92273424496E+01  0.28339762484E+02 -0.50968021527E+01  0.30236788495E+02  0.00000000000E+00 0. -1.
</event>
<event>
 8    1  0.1247338E-006  0.9118800E+02  0.7816164E-02  0.1184000E+00
        -11   -1    0    0    0    0  0.00000000000E+00  0.00000000000E+00  0.45593999997E+02  0.45594000000E+02  0.51100000000E-03 0.  1.
         11   -1    0    0    0    0 -0.00000000000E+00 -0.00000000000E+00 -0.45593999997E+02  0.45594000000E+02  0.51100000000E-03 0. -1.
         23    2    1    2    0    0 -0.35527136788E-14  0.00000000000E+00 -0.44408920985E-15  0.91188000000E+02  0.91188000000E+02 0.  0.
    9900012    2    3    3    0    0  0.27790155999E+02 -0.23998063274E+02 -0.27530305963E+01  0.54367095763E+02  0.40000026411E+02 0.  0.
         12    1    3    3    0    0 -0.27790155999E+02  0.23998063274E+02  0.27530305963E+01  0.36820904237E+02  0.00000000000E+00 0. -1.
         11    1    4    4    0    0  0.29773262142E+01  0.16797564932E+01 -0.97564805589E+01  0.10338034940E+02  0.51100000000E-03 0. -1.
        -11    1    4    4    0    0  0.20054232345E+02 -0.29725715766E+02  0.18077088266E+01  0.35903456996E+02  0.51100000000E-03 0.  1.
         12    1    4    4    0    0  0.47585974395E+01  0.40478959987E+01  0.51957411361E+01  0.81256038274E+01  0.00000000000E+00 0. -1.
</event>
<event>
 8    1  0.1247338E-006  0.9118800E+02  0.7816164E-02  0.1184000E+00
        -11   -1    0    0    0    0  0.00000000000E+00  0.00000000000E+00  0.45593999997E+02  0.45594000000E+02  0.51100000000E-03 0.  1.
         11   -1    0    0    0    0 -0.00000000000E+00 -0.00000000000E+00 -0.45593999997E+02  0.45594000000E+02  0.51100000000E-03 0. -1.
         23    2    1    2    0    0 -0.13322676296E-14 -0.17763568394E-14  0.71054273576E-14  0.91188000000E+02  0.91188000000E+02 0.  0.
    9900012    2    3    3    0    0 -0.35528834530E+01 -0.14187430575E+02 -0.33791620750E+02  0.54367084747E+02  0.40000001297E+02 0.  0.
        -12    1    3    3    0    0  0.35528834530E+01  0.14187430575E+02  0.33791620750E+02  0.36820915253E+02  0.00000000000E+00 0.  1.
         11    1    4    4    0    0 -0.54976214523E+00  0.35329637112E+01 -0.23101020908E+01  0.42568348490E+01  0.51100000000E-03 0. -1.
        -11    1    4    4    0    0 -0.12349244980E+02 -0.72129718638E+01  0.13783954485E+01  0.14367699501E+02  0.51100000000E-03 0.  1.
        -12    1    4    4    0    0  0.93461236724E+01 -0.10507422423E+02 -0.32859914108E+02  0.35742550396E+02  0.00000000000E+00 0.  1.
</event>
<event>
 8    1  0.1247338E-006  0.9118800E+02  0.7816164E-02  0.1184000E+00
        -11   -1    0    0    0    0  0.00000000000E+00  0.00000000000E+00  0.45593999997E+02  0.45594000000E+02  0.51100000000E-03 0. -1.
         11   -1    0    0    0    0 -0.00000000000E+00 -0.00000000000E+00 -0.45593999997E+02  0.45594000000E+02  0.51100000000E-03 0.  1.
         23    2    1    2    0    0  0.00000000000E+00  0.44408920985E-15 -0.35527136788E-14  0.91188000000E+02  0.91188000000E+02 0.  0.
    9900012    2    3    3    0    0  0.32519981201E+02  0.22907175626E+01  0.17116756908E+02  0.54367082965E+02  0.39999997235E+02 0.  0.
        -12    1    3    3    0    0 -0.32519981201E+02 -0.22907175626E+01 -0.17116756908E+02  0.36820917035E+02  0.00000000000E+00 0.  1.
         11    1    4    4    0    0  0.10957224132E+02  0.60494087633E+01  0.24903255563E+02  0.27871638720E+02  0.51100000000E-03 0. -1.
        -11    1    4    4    0    0  0.12775529724E+02  0.34058712108E+01 -0.94968050742E+00  0.13255791631E+02  0.51100000000E-03 0.  1.
        -12    1    4    4    0    0  0.87872273447E+01 -0.71645624115E+01 -0.68368181471E+01  0.13239652614E+02  0.00000000000E+00 0.  1.
</event>
<event>
 8    1  0.1247338E-006  0.9118800E+02  0.7816164E-02  0.1184000E+00
        -11   -1    0    0    0    0  0.00000000000E+00  0.00000000000E+00  0.45593999997E+02  0.45594000000E+02  0.51100000000E-03 0.  1.
         11   -1    0    0    0    0 -0.00000000000E+00 -0.00000000000E+00 -0.45593999997E+02  0.45594000000E+02  0.51100000000E-03 0. -1.
         23    2    1    2    0    0  0.00000000000E+00  0.00000000000E+00  0.71054273576E-14  0.91188000000E+02  0.91188000000E+02 0.  0.
    9900012    2    3    3    0    0  0.11799660672E+02  0.96567472358E+01 -0.33515597002E+02  0.54367082011E+02  0.39999995060E+02 0.  0.
        -12    1    3    3    0    0 -0.11799660672E+02 -0.96567472358E+01  0.33515597002E+02  0.36820917989E+02  0.00000000000E+00 0.  1.
         11    1    4    4    0    0 -0.11314098446E+02  0.10361576639E+02 -0.13194104851E+02  0.20235006725E+02  0.51100000000E-03 0. -1.
        -11    1    4    4    0    0  0.33499230173E+01 -0.33925576315E+01  0.10679113223E+01  0.48858843988E+01  0.51100000000E-03 0.  1.
         12    1    4    4    0    0  0.19763836101E+02  0.26877282282E+01 -0.21389403474E+02  0.29246190887E+02  0.00000000000E+00 0. -1.
</event>
<event>
 8    1  0.1247338E-006  0.9118800E+02  0.7816164E-02  0.1184000E+00
        -11   -1    0    0    0    0  0.00000000000E+00  0.00000000000E+00  0.45593999997E+02  0.45594000000E+02  0.51100000000E-03 0.  1.
         11   -1    0    0    0    0 -0.00000000000E+00 -0.00000000000E+00 -0.45593999997E+02  0.45594000000E+02  0.51100000000E-03 0. -1.
         23    2    1    2    0    0  0.17763568394E-14 -0.35527136788E-14  0.00000000000E+00  0.91188000000E+02  0.91188000000E+02 0.  0.
    9900012    2    3    3    0    0 -0.11042087537E+02  0.26172933472E+02 -0.23427113666E+02  0.54367084770E+02  0.40000001349E+02 0.  0.
        -12    1    3    3    0    0  0.11042087537E+02 -0.26172933472E+02  0.23427113666E+02  0.36820915230E+02  0.00000000000E+00 0.  1.
         11    1    4    4    0    0  0.87328927848E+01  0.50069358652E+01 -0.29992541005E+01  0.10503730222E+02  0.51100000000E-03 0. -1.
        -11    1    4    4    0    0 -0.40676192206E+01  0.18603851495E+02 -0.14542451176E+01  0.19098786498E+02  0.51100000000E-03 0.  1.
         12    1    4    4    0    0 -0.15707361101E+02  0.25621461108E+01 -0.18973614448E+02  0.24764568049E+02  0.00000000000E+00 0. -1.
</event>
<event>
 8    1  0.1247338E-006  0.9118800E+02  0.7816164E-02  0.1184000E+00
        -11   -1    0    0    0    0  0.00000000000E+00  0.00000000000E+00  0.45593999997E+02  0.45594000000E+02  0.51100000000E-03 0.  1.
         11   -1    0    0    0    0 -0.00000000000E+00 -0.00000000000E+00 -0.45593999997E+02  0.45594000000E+02  0.51100000000E-03 0. -1.
         23    2    1    2    0    0 -0.35527136788E-14 -0.35527136788E-14 -0.17763568394E-14  0.91188000000E+02  0.91188000000E+02 0.  0.
    9900012    2    3    3    0    0  0.18529795491E+02  0.30146282802E+02  0.10179828800E+02  0.54367073856E+02  0.39999976469E+02 0.  0.
         12    1    3    3    0    0 -0.18529795491E+02 -0.30146282802E+02 -0.10179828800E+02  0.36820926144E+02  0.00000000000E+00 0. -1.
         11    1    4    4    0    0  0.11181763977E+02  0.75506586791E+01  0.17456113533E+02  0.22062642454E+02  0.51100000000E-03 0. -1.
        -11    1    4    4    0    0 -0.21133607982E+01  0.15863232206E+02  0.35898719286E+01  0.16401085654E+02  0.51100000000E-03 0.  1.
         12    1    4    4    0    0  0.94613923119E+01  0.67323919169E+01 -0.10866156661E+02  0.15903345748E+02  0.00000000000E+00 0. -1.
</event>
<event>
 8    1  0.1247338E-006  0.9118800E+02  0.7816164E-02  0.1184000E+00
        -11   -1    0    0    0    0  0.00000000000E+00  0.00000000000E+00  0.45593999997E+02  0.45594000000E+02  0.51100000000E-03 0.  1.
         11   -1    0    0    0    0 -0.00000000000E+00 -0.00000000000E+00 -0.45593999997E+02  0.45594000000E+02  0.51100000000E-03 0. -1.
         23    2    1    2    0    0  0.00000000000E+00  0.00000000000E+00  0.00000000000E+00  0.91188000000E+02  0.91188000000E+02 0.  0.
    9900012    2    3    3    0    0 -0.26811416314E+02  0.16210606909E+02  0.19342814099E+02  0.54367078251E+02  0.39999986489E+02 0.  0.
        -12    1    3    3    0    0  0.26811416314E+02 -0.16210606909E+02 -0.19342814099E+02  0.36820921749E+02  0.00000000000E+00 0.  1.
         11    1    4    4    0    0 -0.54392971928E+01  0.49321717477E+01 -0.10818757754E+02  0.13075082857E+02  0.51100000000E-03 0. -1.
        -11    1    4    4    0    0 -0.12032873390E+02 -0.15192853240E+01  0.15717493306E+02  0.19852905732E+02  0.51100000000E-03 0.  1.
        -12    1    4    4    0    0 -0.93392457314E+01  0.12797720485E+02  0.14444078548E+02  0.21439089663E+02  0.00000000000E+00 0.  1.
</event>
<event>
 8    1  0.1247338E-006  0.9118800E+02  0.7816164E-02  0.1184000E+00
        -11   -1    0    0    0    0  0.00000000000E+00  0.00000000000E+00  0.45593999997E+02  0.45594000000E+02  0.51100000000E-03 0.  1.
         11   -1    0    0    0    0 -0.00000000000E+00 -0.00000000000E+00 -0.45593999997E+02  0.45594000000E+02  0.51100000000E-03 0. -1.
         23    2    1    2    0    0  0.17763568394E-14 -0.35527136788E-14  0.00000000000E+00  0.91188000000E+02  0.91188000000E+02 0.  0.
    9900012    2    3    3    0    0 -0.10893689107E+02  0.29643230134E+02  0.18931075587E+02  0.54367093194E+02  0.40000020554E+02 0.  0.
         12    1    3    3    0    0  0.10893689107E+02 -0.29643230134E+02 -0.18931075587E+02  0.36820906806E+02  0.00000000000E+00 0. -1.
         11    1    4    4    0    0 -0.17280694997E+02  0.19920534639E+00  0.88494278021E+01  0.19415830526E+02  0.51100000000E-03 0. -1.
        -11    1    4    4    0    0 -0.15898308358E+01  0.22719810766E+02  0.88965170822E+01  0.24451285852E+02  0.51100000000E-03 0.  1.
         12    1    4    4    0    0  0.79768367257E+01  0.67242140214E+01  0.11851307025E+01  0.10499976816E+02  0.00000000000E+00 0. -1.
</event>
<event>
 8    1  0.1247338E-006  0.9118800E+02  0.7816164E-02  0.1184000E+00
        -11   -1    0    0    0    0  0.00000000000E+00  0.00000000000E+00  0.45593999997E+02  0.45594000000E+02  0.51100000000E-03 0. -1.
         11   -1    0    0    0    0 -0.00000000000E+00 -0.00000000000E+00 -0.45593999997E+02  0.45594000000E+02  0.51100000000E-03 0.  1.
         23    2    1    2    0    0  0.35527136788E-14  0.00000000000E+00  0.00000000000E+00  0.91188000000E+02  0.91188000000E+02 0.  0.
    9900012    2    3    3    0    0  0.28821552989E+02 -0.21364903734E+02  0.82848211881E+01  0.54367091668E+02  0.40000017075E+02 0.  0.
        -12    1    3    3    0    0 -0.28821552989E+02  0.21364903734E+02 -0.82848211881E+01  0.36820908332E+02  0.00000000000E+00 0.  1.
         11    1    4    4    0    0  0.14289530271E+02 -0.26213716793E+02  0.10732395372E+02  0.31725918964E+02  0.51100000000E-03 0. -1.
        -11    1    4    4    0    0  0.77775897184E+01  0.81337373865E+01  0.47714205294E+01  0.12223544487E+02  0.51100000000E-03 0.  1.
         12    1    4    4    0    0  0.67544329994E+01 -0.32849243282E+01 -0.72189947130E+01  0.10417628216E+02  0.00000000000E+00 0. -1.
</event>
<event>
 8    1  0.1247338E-006  0.9118800E+02  0.7816164E-02  0.1184000E+00
        -11   -1    0    0    0    0  0.00000000000E+00  0.00000000000E+00  0.45593999997E+02  0.45594000000E+02  0.51100000000E-03 0.  1.
         11   -1    0    0    0    0 -0.00000000000E+00 -0.00000000000E+00 -0.45593999997E+02  0.45594000000E+02  0.51100000000E-03 0. -1.
         23    2    1    2    0    0 -0.22204460493E-15  0.22204460493E-15 -0.71054273576E-14  0.91188000000E+02  0.91188000000E+02 0.  0.
    9900012    2    3    3    0    0  0.16773938517E+01 -0.15234732030E+01  0.36751120993E+02  0.54367088619E+02  0.40000010124E+02 0.  0.
         12    1    3    3    0    0 -0.16773938517E+01  0.15234732030E+01 -0.36751120993E+02  0.36820911381E+02  0.00000000000E+00 0. -1.
         11    1    4    4    0    0 -0.50334768708E+01  0.37831610702E+01  0.88739388855E+01  0.10880946131E+02  0.51100000000E-03 0. -1.
        -11    1    4    4    0    0 -0.78934450728E+01  0.23667552704E+01 -0.27591555421E+01  0.86902787754E+01  0.51100000000E-03 0.  1.
         12    1    4    4    0    0  0.14604315795E+02 -0.76733895435E+01  0.30636337649E+02  0.34795863713E+02  0.00000000000E+00 0. -1.
</event>
<event>
 8    1  0.1247338E-006  0.9118800E+02  0.7816164E-02  0.1184000E+00
        -11   -1    0    0    0    0  0.00000000000E+00  0.00000000000E+00  0.45593999997E+02  0.45594000000E+02  0.51100000000E-03 0. -1.
         11   -1    0    0    0    0 -0.00000000000E+00 -0.00000000000E+00 -0.45593999997E+02  0.45594000000E+02  0.51100000000E-03 0.  1.
         23    2    1    2    0    0  0.17763568394E-14  0.17763568394E-14  0.00000000000E+00  0.91188000000E+02  0.91188000000E+02 0.  0.
    9900012    2    3    3    0    0  0.77436763971E+01 -0.80779217220E+01 -0.35079398027E+02  0.54367061535E+02  0.39999948381E+02 0.  0.
         12    1    3    3    0    0 -0.77436763971E+01  0.80779217220E+01  0.35079398027E+02  0.36820938465E+02  0.00000000000E+00 0. -1.
         11    1    4    4    0    0 -0.23973939744E+01 -0.13016268128E+02 -0.41894835733E+00  0.13241837177E+02  0.51100000000E-03 0.  1.
        -11    1    4    4    0    0  0.10143173186E+02  0.56649453114E+01 -0.72272913882E+01  0.13682445276E+02  0.51100000000E-03 0. -1.
        -12    1    4    4    0    0 -0.21028145276E-02 -0.72659890577E+00 -0.27433158282E+02  0.27442779081E+02  0.00000000000E+00 0.  1.
</event>
<event>
 8    1  0.1247338E-006  0.9118800E+02  0.7816164E-02  0.1184000E+00
        -11   -1    0    0    0    0  0.00000000000E+00  0.00000000000E+00  0.45593999997E+02  0.45594000000E+02  0.51100000000E-03 0. -1.
         11   -1    0    0    0    0 -0.00000000000E+00 -0.00000000000E+00 -0.45593999997E+02  0.45594000000E+02  0.51100000000E-03 0.  1.
         23    2    1    2    0    0  0.17763568394E-14  0.00000000000E+00 -0.35527136788E-14  0.91188000000E+02  0.91188000000E+02 0.  0.
    9900012    2    3    3    0    0  0.13692233168E+02  0.28372911164E+02 -0.19059925278E+02  0.54367080828E+02  0.39999992364E+02 0.  0.
         12    1    3    3    0    0 -0.13692233168E+02 -0.28372911164E+02  0.19059925278E+02  0.36820919172E+02  0.00000000000E+00 0. -1.
         11    1    4    4    0    0 -0.12647200118E+01  0.14335567857E+02  0.59179982835E+00  0.14403411047E+02  0.51100000000E-03 0. -1.
        -11    1    4    4    0    0  0.86165256834E+00  0.19313655840E+02 -0.14072993672E+02  0.23912525969E+02  0.51100000000E-03 0.  1.
        -12    1    4    4    0    0  0.14095300612E+02 -0.52763125330E+01 -0.55787314342E+01  0.16051143813E+02  0.00000000000E+00 0.  1.
</event>
<event>
 8    1  0.1247338E-006  0.9118800E+02  0.7816164E-02  0.1184000E+00
        -11   -1    0    0    0    0  0.00000000000E+00  0.00000000000E+00  0.45593999997E+02  0.45594000000E+02  0.51100000000E-03 0. -1.
         11   -1    0    0    0    0 -0.00000000000E+00 -0.00000000000E+00 -0.45593999997E+02  0.45594000000E+02  0.51100000000E-03 0.  1.
         23    2    1    2    0    0  0.00000000000E+00  0.17763568394E-14  0.00000000000E+00  0.91188000000E+02  0.91188000000E+02 0.  0.
    9900012    2    3    3    0    0  0.47997939765E+01  0.84702062850E+01 -0.35510440721E+02  0.54367165994E+02  0.40000186515E+02 0.  0.
         12    1    3    3    0    0 -0.47997939765E+01 -0.84702062850E+01  0.35510440721E+02  0.36820834006E+02  0.00000000000E+00 0. -1.
         11    1    4    4    0    0  0.83181216581E+00  0.13510047205E+02 -0.17503844889E+02  0.22126858636E+02  0.51100000000E-03 0. -1.
        -11    1    4    4    0    0 -0.36215494196E+01  0.94488519682E+01 -0.91381438820E+01  0.13634591948E+02  0.51100000000E-03 0.  1.
         12    1    4    4    0    0  0.75895312303E+01 -0.14488692888E+02 -0.88684519504E+01  0.18605715410E+02  0.00000000000E+00 0. -1.
</event>
<event>
 8    1  0.1247338E-006  0.9118800E+02  0.7816164E-02  0.1184000E+00
        -11   -1    0    0    0    0  0.00000000000E+00  0.00000000000E+00  0.45593999997E+02  0.45594000000E+02  0.51100000000E-03 0.  1.
         11   -1    0    0    0    0 -0.00000000000E+00 -0.00000000000E+00 -0.45593999997E+02  0.45594000000E+02  0.51100000000E-03 0. -1.
         23    2    1    2    0    0  0.00000000000E+00  0.00000000000E+00 -0.35527136788E-14  0.91188000000E+02  0.91188000000E+02 0.  0.
    9900012    2    3    3    0    0  0.26880025259E+02  0.16060401320E+02  0.19372866559E+02  0.54367079219E+02  0.39999988695E+02 0.  0.
        -12    1    3    3    0    0 -0.26880025259E+02 -0.16060401320E+02 -0.19372866559E+02  0.36820920781E+02  0.00000000000E+00 0.  1.
         11    1    4    4    0    0  0.24598727307E+01  0.14416254095E+02 -0.18247324958E+01  0.14738012245E+02  0.51100000000E-03 0. -1.
        -11    1    4    4    0    0 -0.36399769159E+01 -0.31454846663E+01  0.16022292730E+01  0.50705665008E+01  0.51100000000E-03 0.  1.
         12    1    4    4    0    0  0.28060129444E+02  0.47896318911E+01  0.19595369782E+02  0.34558500473E+02  0.00000000000E+00 0. -1.
</event>
<event>
 8    1  0.1247338E-006  0.9118800E+02  0.7816164E-02  0.1184000E+00
        -11   -1    0    0    0    0  0.00000000000E+00  0.00000000000E+00  0.45593999997E+02  0.45594000000E+02  0.51100000000E-03 0. -1.
         11   -1    0    0    0    0 -0.00000000000E+00 -0.00000000000E+00 -0.45593999997E+02  0.45594000000E+02  0.51100000000E-03 0.  1.
         23    2    1    2    0    0 -0.35527136788E-14  0.00000000000E+00  0.71054273576E-14  0.91188000000E+02  0.91188000000E+02 0.  0.
    9900012    2    3    3    0    0 -0.22393936547E+02 -0.12443799157E+02 -0.26447006304E+02  0.54367072880E+02  0.39999974244E+02 0.  0.
         12    1    3    3    0    0  0.22393936547E+02  0.12443799157E+02  0.26447006304E+02  0.36820927120E+02  0.00000000000E+00 0. -1.
         11    1    4    4    0    0  0.10901414788E+01 -0.49804703467E+01  0.49013179399E+01  0.70722281587E+01  0.51100000000E-03 0. -1.
        -11    1    4    4    0    0  0.18689816989E+01 -0.45799912126E+01  0.19731492417E+01  0.53256671216E+01  0.51100000000E-03 0.  1.
        -12    1    4    4    0    0 -0.25353059725E+02 -0.28833375979E+01 -0.33321473486E+02  0.41969177600E+02  0.00000000000E+00 0.  1.
</event>
<event>
 8    1  0.1247338E-006  0.9118800E+02  0.7816164E-02  0.1184000E+00
        -11   -1    0    0    0    0  0.00000000000E+00  0.00000000000E+00  0.45593999997E+02  0.45594000000E+02  0.51100000000E-03 0. -1.
         11   -1    0    0    0    0 -0.00000000000E+00 -0.00000000000E+00 -0.45593999997E+02  0.45594000000E+02  0.51100000000E-03 0.  1.
         23    2    1    2    0    0  0.88817841970E-15 -0.44408920985E-15  0.00000000000E+00  0.91188000000E+02  0.91188000000E+02 0.  0.
    9900012    2    3    3    0    0 -0.70380371857E+01  0.19813155928E+01 -0.36087685005E+02  0.54367074049E+02  0.39999976909E+02 0.  0.
         12    1    3    3    0    0  0.70380371857E+01 -0.19813155928E+01  0.36087685005E+02  0.36820925951E+02  0.00000000000E+00 0. -1.
         11    1    4    4    0    0  0.50453690200E+01 -0.72756710659E+01 -0.13457221880E+02  0.16108629954E+02  0.51100000000E-03 0. -1.
        -11    1    4    4    0    0  0.11989061905E+01  0.14470638656E+02 -0.45308244824E+01  0.15210691304E+02  0.51100000000E-03 0.  1.
         12    1    4    4    0    0 -0.13282312396E+02 -0.52136519978E+01 -0.18099638642E+02  0.23047752791E+02  0.00000000000E+00 0. -1.
</event>
<event>
 8    1  0.1247338E-006  0.9118800E+02  0.7816164E-02  0.1184000E+00
        -11   -1    0    0    0    0  0.00000000000E+00  0.00000000000E+00  0.45593999997E+02  0.45594000000E+02  0.51100000000E-03 0. -1.
         11   -1    0    0    0    0 -0.00000000000E+00 -0.00000000000E+00 -0.45593999997E+02  0.45594000000E+02  0.51100000000E-03 0.  1.
         23    2    1    2    0    0  0.00000000000E+00  0.35527136788E-14  0.00000000000E+00  0.91188000000E+02  0.91188000000E+02 0.  0.
    9900012    2    3    3    0    0 -0.29987196400E+02  0.20112253943E+02 -0.72141599801E+01  0.54367098180E+02  0.40000031920E+02 0.  0.
         12    1    3    3    0    0  0.29987196400E+02 -0.20112253943E+02  0.72141599801E+01  0.36820901820E+02  0.00000000000E+00 0. -1.
         11    1    4    4    0    0 -0.86033445101E+01 -0.72159573130E+01  0.34736184602E+01  0.11753876049E+02  0.51100000000E-03 0. -1.
        -11    1    4    4    0    0 -0.23870044956E+02  0.21615330460E+02 -0.14492041888E+02  0.35313182176E+02  0.51100000000E-03 0.  1.
        -12    1    4    4    0    0  0.24861930653E+01  0.57128807965E+01  0.38042634480E+01  0.73000399544E+01  0.00000000000E+00 0.  1.
</event>
<event>
 8    1  0.1247338E-006  0.9118800E+02  0.7816164E-02  0.1184000E+00
        -11   -1    0    0    0    0  0.00000000000E+00  0.00000000000E+00  0.45593999997E+02  0.45594000000E+02  0.51100000000E-03 0. -1.
         11   -1    0    0    0    0 -0.00000000000E+00 -0.00000000000E+00 -0.45593999997E+02  0.45594000000E+02  0.51100000000E-03 0.  1.
         23    2    1    2    0    0 -0.44408920985E-15  0.00000000000E+00  0.35527136788E-14  0.91188000000E+02  0.91188000000E+02 0.  0.
    9900012    2    3    3    0    0 -0.14609208528E+01 -0.20783479100E+02  0.30359415435E+02  0.54367063038E+02  0.39999951807E+02 0.  0.
        -12    1    3    3    0    0  0.14609208528E+01  0.20783479100E+02 -0.30359415435E+02  0.36820936962E+02  0.00000000000E+00 0.  1.
         11    1    4    4    0    0 -0.47425642682E+01 -0.11775080256E+02  0.82226270907E+01  0.15124682721E+02  0.51100000000E-03 0.  1.
        -11    1    4    4    0    0  0.28580254162E+00 -0.12385964303E+02  0.28709379226E+02  0.31268550504E+02  0.51100000000E-03 0. -1.
        -12    1    4    4    0    0  0.29958408738E+01  0.33775654590E+01 -0.65725908824E+01  0.79738298125E+01  0.00000000000E+00 0.  1.
</event>
<event>
 8    1  0.1247338E-006  0.9118800E+02  0.7816164E-02  0.1184000E+00
        -11   -1    0    0    0    0  0.00000000000E+00  0.00000000000E+00  0.45593999997E+02  0.45594000000E+02  0.51100000000E-03 0. -1.
         11   -1    0    0    0    0 -0.00000000000E+00 -0.00000000000E+00 -0.45593999997E+02  0.45594000000E+02  0.51100000000E-03 0.  1.
         23    2    1    2    0    0  0.00000000000E+00  0.00000000000E+00 -0.17763568394E-14  0.91188000000E+02  0.91188000000E+02 0.  0.
    9900012    2    3    3    0    0  0.39798909811E+01  0.36505135773E+02 -0.27045972967E+01  0.54367091313E+02  0.40000016266E+02 0.  0.
         12    1    3    3    0    0 -0.39798909811E+01 -0.36505135773E+02  0.27045972967E+01  0.36820908687E+02  0.00000000000E+00 0. -1.
         11    1    4    4    0    0  0.82630491451E+01  0.52758346367E+00 -0.67419291724E+01  0.10677543477E+02  0.51100000000E-03 0. -1.
        -11    1    4    4    0    0  0.19732051936E+00  0.15198416401E+02 -0.10019885726E+02  0.18205189005E+02  0.51100000000E-03 0.  1.
        -12    1    4    4    0    0 -0.44804786834E+01  0.20779135908E+02  0.14057217601E+02  0.25484358830E+02  0.00000000000E+00 0.  1.
</event>
<event>
 8    1  0.1247338E-006  0.9118800E+02  0.7816164E-02  0.1184000E+00
        -11   -1    0    0    0    0  0.00000000000E+00  0.00000000000E+00  0.45593999997E+02  0.45594000000E+02  0.51100000000E-03 0.  1.
         11   -1    0    0    0    0 -0.00000000000E+00 -0.00000000000E+00 -0.45593999997E+02  0.45594000000E+02  0.51100000000E-03 0. -1.
         23    2    1    2    0    0  0.71054273576E-14  0.00000000000E+00  0.88817841970E-15  0.91188000000E+02  0.91188000000E+02 0.  0.
    9900012    2    3    3    0    0  0.19721288562E+02 -0.30285678725E+02  0.70448140754E+01  0.54367068945E+02  0.39999965274E+02 0.  0.
         12    1    3    3    0    0 -0.19721288562E+02  0.30285678725E+02 -0.70448140754E+01  0.36820931055E+02  0.00000000000E+00 0. -1.
         11    1    4    4    0    0  0.72489214031E+00 -0.84275641202E+01  0.24117160513E+01  0.87957762698E+01  0.51100000000E-03 0. -1.
        -11    1    4    4    0    0  0.17114684917E+02 -0.25549642776E+02  0.15139892466E+02  0.34277004390E+02  0.51100000000E-03 0.  1.
         12    1    4    4    0    0  0.18817115047E+01  0.36915281712E+01 -0.10506794442E+02  0.11294288285E+02  0.00000000000E+00 0. -1.
</event>
<event>
 8    1  0.1247338E-006  0.9118800E+02  0.7816164E-02  0.1184000E+00
        -11   -1    0    0    0    0  0.00000000000E+00  0.00000000000E+00  0.45593999997E+02  0.45594000000E+02  0.51100000000E-03 0. -1.
         11   -1    0    0    0    0 -0.00000000000E+00 -0.00000000000E+00 -0.45593999997E+02  0.45594000000E+02  0.51100000000E-03 0.  1.
         23    2    1    2    0    0  0.15543122345E-14 -0.44408920985E-15  0.71054273576E-14  0.91188000000E+02  0.91188000000E+02 0.  0.
    9900012    2    3    3    0    0  0.18532028206E+01 -0.27110720447E+01  0.36674182742E+02  0.54367082682E+02  0.39999996590E+02 0.  0.
        -12    1    3    3    0    0 -0.18532028206E+01  0.27110720447E+01 -0.36674182742E+02  0.36820917318E+02  0.00000000000E+00 0.  1.
         11    1    4    4    0    0  0.76454134474E+01 -0.97855153294E+01  0.22717380218E+02  0.25889921230E+02  0.51100000000E-03 0. -1.
        -11    1    4    4    0    0 -0.46566170910E+01 -0.50894014009E+01  0.14699722711E+02  0.16237855074E+02  0.51100000000E-03 0.  1.
        -12    1    4    4    0    0 -0.11355935358E+01  0.12163844686E+02 -0.74292018704E+00  0.12239306378E+02  0.00000000000E+00 0.  1.
</event>
<event>
 8    1  0.1247338E-006  0.9118800E+02  0.7816164E-02  0.1184000E+00
        -11   -1    0    0    0    0  0.00000000000E+00  0.00000000000E+00  0.45593999997E+02  0.45594000000E+02  0.51100000000E-03 0.  1.
         11   -1    0    0    0    0 -0.00000000000E+00 -0.00000000000E+00 -0.45593999997E+02  0.45594000000E+02  0.51100000000E-03 0. -1.
         23    2    1    2    0    0 -0.63837823916E-15  0.00000000000E+00 -0.35527136788E-14  0.91188000000E+02  0.91188000000E+02 0.  0.
    9900012    2    3    3    0    0  0.23572464480E+00  0.21082838992E+02 -0.30186716934E+02  0.54367088206E+02  0.40000009184E+02 0.  0.
        -12    1    3    3    0    0 -0.23572464480E+00 -0.21082838992E+02  0.30186716934E+02  0.36820911794E+02  0.00000000000E+00 0.  1.
         11    1    4    4    0    0 -0.17019635407E+01  0.10736522817E+02 -0.26129707809E+02  0.28300728481E+02  0.51100000000E-03 0. -1.
        -11    1    4    4    0    0 -0.22199045260E+01  0.89771040315E+01  0.86279210209E+01  0.12647426390E+02  0.51100000000E-03 0.  1.
        -12    1    4    4    0    0  0.41575927115E+01  0.13692121438E+01 -0.12684930146E+02  0.13418933335E+02  0.00000000000E+00 0.  1.
</event>
<event>
 8    1  0.1247338E-006  0.9118800E+02  0.7816164E-02  0.1184000E+00
        -11   -1    0    0    0    0  0.00000000000E+00  0.00000000000E+00  0.45593999997E+02  0.45594000000E+02  0.51100000000E-03 0.  1.
         11   -1    0    0    0    0 -0.00000000000E+00 -0.00000000000E+00 -0.45593999997E+02  0.45594000000E+02  0.51100000000E-03 0. -1.
         23    2    1    2    0    0  0.00000000000E+00  0.00000000000E+00  0.00000000000E+00  0.91188000000E+02  0.91188000000E+02 0.  0.
    9900012    2    3    3    0    0 -0.18726856967E+02  0.30413792846E+02 -0.89490792074E+01  0.54367082225E+02  0.39999995549E+02 0.  0.
        -12    1    3    3    0    0  0.18726856967E+02 -0.30413792846E+02  0.89490792074E+01  0.36820917775E+02  0.00000000000E+00 0.  1.
         11    1    4    4    0    0 -0.14250154814E+02  0.75897875037E+01  0.71832179348E+01  0.17671174459E+02  0.51100000000E-03 0. -1.
        -11    1    4    4    0    0  0.31572138006E+01  0.40432997110E+01  0.51738787120E+01  0.72859654627E+01  0.51100000000E-03 0.  1.
         12    1    4    4    0    0 -0.76339159527E+01  0.18780705631E+02 -0.21306175854E+02  0.29409942304E+02  0.00000000000E+00 0. -1.
</event>
<event>
 8    1  0.1247338E-006  0.9118800E+02  0.7816164E-02  0.1184000E+00
        -11   -1    0    0    0    0  0.00000000000E+00  0.00000000000E+00  0.45593999997E+02  0.45594000000E+02  0.51100000000E-03 0.  1.
         11   -1    0    0    0    0 -0.00000000000E+00 -0.00000000000E+00 -0.45593999997E+02  0.45594000000E+02  0.51100000000E-03 0. -1.
         23    2    1    2    0    0  0.00000000000E+00 -0.17763568394E-14  0.00000000000E+00  0.91188000000E+02  0.91188000000E+02 0.  0.
    9900012    2    3    3    0    0 -0.19816423951E+02 -0.12075068638E+02  0.28588147668E+02  0.54367080295E+02  0.39999991148E+02 0.  0.
         12    1    3    3    0    0  0.19816423951E+02  0.12075068638E+02 -0.28588147668E+02  0.36820919705E+02  0.00000000000E+00 0. -1.
         11    1    4    4    0    0  0.68960359877E+01  0.94870147563E+01  0.66720218593E+01  0.13493503521E+02  0.51100000000E-03 0. -1.
        -11    1    4    4    0    0 -0.47644381450E+01 -0.51201586468E+01  0.56310559427E+01  0.89791250519E+01  0.51100000000E-03 0.  1.
         12    1    4    4    0    0 -0.21948021794E+02 -0.16441924747E+02  0.16285069866E+02  0.31894451722E+02  0.00000000000E+00 0. -1.
</event>
<event>
 8    1  0.1247338E-006  0.9118800E+02  0.7816164E-02  0.1184000E+00
        -11   -1    0    0    0    0  0.00000000000E+00  0.00000000000E+00  0.45593999997E+02  0.45594000000E+02  0.51100000000E-03 0.  1.
         11   -1    0    0    0    0 -0.00000000000E+00 -0.00000000000E+00 -0.45593999997E+02  0.45594000000E+02  0.51100000000E-03 0. -1.
         23    2    1    2    0    0  0.00000000000E+00  0.00000000000E+00  0.00000000000E+00  0.91188000000E+02  0.91188000000E+02 0.  0.
    9900012    2    3    3    0    0 -0.10386122590E+02 -0.51595575381E+01 -0.34946923186E+02  0.54367081807E+02  0.39999994595E+02 0.  0.
        -12    1    3    3    0    0  0.10386122590E+02  0.51595575381E+01  0.34946923186E+02  0.36820918193E+02  0.00000000000E+00 0.  1.
         11    1    4    4    0    0 -0.14278080170E+02 -0.64377265765E+01 -0.28488491870E+02  0.32510030239E+02  0.51100000000E-03 0. -1.
        -11    1    4    4    0    0  0.50562555455E+01 -0.91096058699E+01 -0.35534388116E+01  0.11008068264E+02  0.51100000000E-03 0.  1.
         12    1    4    4    0    0 -0.11642979660E+01  0.10387774908E+02 -0.29049925035E+01  0.10848983305E+02  0.00000000000E+00 0. -1.
</event>
<event>
 8    1  0.1247338E-006  0.9118800E+02  0.7816164E-02  0.1184000E+00
        -11   -1    0    0    0    0  0.00000000000E+00  0.00000000000E+00  0.45593999997E+02  0.45594000000E+02  0.51100000000E-03 0.  1.
         11   -1    0    0    0    0 -0.00000000000E+00 -0.00000000000E+00 -0.45593999997E+02  0.45594000000E+02  0.51100000000E-03 0. -1.
         23    2    1    2    0    0  0.35527136788E-14  0.35527136788E-14  0.00000000000E+00  0.91188000000E+02  0.91188000000E+02 0.  0.
    9900012    2    3    3    0    0 -0.13771206760E+02 -0.30587117067E+02  0.15184342725E+02  0.54367053107E+02  0.39999929168E+02 0.  0.
         12    1    3    3    0    0  0.13771206760E+02  0.30587117067E+02 -0.15184342725E+02  0.36820946893E+02  0.00000000000E+00 0. -1.
         11    1    4    4    0    0 -0.40653630697E-01  0.41752148952E+01  0.88426645927E+00  0.42680205683E+01  0.51100000000E-03 0. -1.
        -11    1    4    4    0    0  0.89911261199E+01 -0.45972586228E+01  0.14186571584E+01  0.10197437136E+02  0.51100000000E-03 0.  1.
        -12    1    4    4    0    0 -0.22721679249E+02 -0.30165073339E+02  0.12881419107E+02  0.39901595403E+02  0.00000000000E+00 0.  1.
</event>
<event>
 8    1  0.1247338E-006  0.9118800E+02  0.7816164E-02  0.1184000E+00
        -11   -1    0    0    0    0  0.00000000000E+00  0.00000000000E+00  0.45593999997E+02  0.45594000000E+02  0.51100000000E-03 0. -1.
         11   -1    0    0    0    0 -0.00000000000E+00 -0.00000000000E+00 -0.45593999997E+02  0.45594000000E+02  0.51100000000E-03 0.  1.
         23    2    1    2    0    0  0.88817841970E-15  0.35527136788E-14  0.35527136788E-14  0.91188000000E+02  0.91188000000E+02 0.  0.
    9900012    2    3    3    0    0  0.79730503074E+01  0.18674206362E+02  0.30716203630E+02  0.54367072800E+02  0.39999974061E+02 0.  0.
        -12    1    3    3    0    0 -0.79730503074E+01 -0.18674206362E+02 -0.30716203630E+02  0.36820927200E+02  0.00000000000E+00 0.  1.
         11    1    4    4    0    0  0.14711696957E+02  0.88995571251E+01  0.86348144299E+01  0.19240482449E+02  0.51100000000E-03 0. -1.
        -11    1    4    4    0    0 -0.14952186886E+02  0.61528937333E+00  0.11049391679E+02  0.18602030277E+02  0.51100000000E-03 0.  1.
        -12    1    4    4    0    0  0.82135402367E+01  0.91593598631E+01  0.11031997522E+02  0.16524560074E+02  0.00000000000E+00 0.  1.
</event>
<event>
 8    1  0.1247338E-006  0.9118800E+02  0.7816164E-02  0.1184000E+00
        -11   -1    0    0    0    0  0.00000000000E+00  0.00000000000E+00  0.45593999997E+02  0.45594000000E+02  0.51100000000E-03 0.  1.
         11   -1    0    0    0    0 -0.00000000000E+00 -0.00000000000E+00 -0.45593999997E+02  0.45594000000E+02  0.51100000000E-03 0. -1.
         23    2    1    2    0    0  0.00000000000E+00  0.17763568394E-14 -0.17763568394E-14  0.91188000000E+02  0.91188000000E+02 0.  0.
    9900012    2    3    3    0    0 -0.31861100753E+02  0.15759812206E+02  0.96061752979E+01  0.54367081681E+02  0.39999994308E+02 0.  0.
         12    1    3    3    0    0  0.31861100753E+02 -0.15759812206E+02 -0.96061752979E+01  0.36820918319E+02  0.00000000000E+00 0. -1.
         11    1    4    4    0    0  0.30036342812E+01  0.79530020069E+01 -0.25446897593E+01  0.88739791554E+01  0.51100000000E-03 0. -1.
        -11    1    4    4    0    0 -0.50846360795E+01 -0.19483874971E+01 -0.69227866575E+01  0.88076508370E+01  0.51100000000E-03 0.  1.
        -12    1    4    4    0    0 -0.29780098955E+02  0.97551976964E+01  0.19073651715E+02  0.36685451689E+02  0.00000000000E+00 0.  1.
</event>
<event>
 8    1  0.1247338E-006  0.9118800E+02  0.7816164E-02  0.1184000E+00
        -11   -1    0    0    0    0  0.00000000000E+00  0.00000000000E+00  0.45593999997E+02  0.45594000000E+02  0.51100000000E-03 0. -1.
         11   -1    0    0    0    0 -0.00000000000E+00 -0.00000000000E+00 -0.45593999997E+02  0.45594000000E+02  0.51100000000E-03 0.  1.
         23    2    1    2    0    0  0.00000000000E+00  0.00000000000E+00  0.00000000000E+00  0.91188000000E+02  0.91188000000E+02 0.  0.
    9900012    2    3    3    0    0 -0.47342237687E+01 -0.35746524021E+02 -0.74534315696E+01  0.54367075291E+02  0.39999979740E+02 0.  0.
         12    1    3    3    0    0  0.47342237687E+01  0.35746524021E+02  0.74534315696E+01  0.36820924709E+02  0.00000000000E+00 0. -1.
         11    1    4    4    0    0 -0.77281818455E+01 -0.41009853300E+02 -0.15268096243E+02  0.44437007387E+02  0.51100000000E-03 0. -1.
        -11    1    4    4    0    0  0.29008298288E+01  0.48259235052E+01  0.75204326750E+01  0.93947463646E+01  0.51100000000E-03 0.  1.
         12    1    4    4    0    0  0.93128248010E-01  0.43740577380E+00  0.29423199866E+00  0.53532153942E+00  0.00000000000E+00 0. -1.
</event>
<event>
 8    1  0.1247338E-006  0.9118800E+02  0.7816164E-02  0.1184000E+00
        -11   -1    0    0    0    0  0.00000000000E+00  0.00000000000E+00  0.45593999997E+02  0.45594000000E+02  0.51100000000E-03 0.  1.
         11   -1    0    0    0    0 -0.00000000000E+00 -0.00000000000E+00 -0.45593999997E+02  0.45594000000E+02  0.51100000000E-03 0. -1.
         23    2    1    2    0    0  0.15543122345E-14  0.00000000000E+00  0.00000000000E+00  0.91188000000E+02  0.91188000000E+02 0.  0.
    9900012    2    3    3    0    0  0.10974652427E+01  0.32514600389E+02 -0.17244451704E+02  0.54367152876E+02  0.40000156610E+02 0.  0.
        -12    1    3    3    0    0 -0.10974652427E+01 -0.32514600389E+02  0.17244451704E+02  0.36820847124E+02  0.00000000000E+00 0.  1.
         11    1    4    4    0    0  0.73710492042E+01  0.20618329044E+02 -0.25762952948E+02  0.33810909538E+02  0.51100000000E-03 0. -1.
        -11    1    4    4    0    0 -0.24827375526E+01  0.13878521966E+02  0.80949961166E+01  0.16257500426E+02  0.51100000000E-03 0.  1.
         12    1    4    4    0    0 -0.37908464089E+01 -0.19822506219E+01  0.42350512730E+00  0.42987429112E+01  0.00000000000E+00 0. -1.
</event>
<event>
 8    1  0.1247338E-006  0.9118800E+02  0.7816164E-02  0.1184000E+00
        -11   -1    0    0    0    0  0.00000000000E+00  0.00000000000E+00  0.45593999997E+02  0.45594000000E+02  0.51100000000E-03 0. -1.
         11   -1    0    0    0    0 -0.00000000000E+00 -0.00000000000E+00 -0.45593999997E+02  0.45594000000E+02  0.51100000000E-03 0.  1.
         23    2    1    2    0    0  0.00000000000E+00  0.00000000000E+00  0.00000000000E+00  0.91188000000E+02  0.91188000000E+02 0.  0.
    9900012    2    3    3    0    0  0.12596431852E+02 -0.11591969869E+02  0.32599618369E+02  0.54367095902E+02  0.40000026727E+02 0.  0.
        -12    1    3    3    0    0 -0.12596431852E+02  0.11591969869E+02 -0.32599618369E+02  0.36820904098E+02  0.00000000000E+00 0.  1.
         11    1    4    4    0    0 -0.19459133252E+01 -0.14193652111E+02  0.21065048012E+02  0.25475136642E+02  0.51100000000E-03 0. -1.
        -11    1    4    4    0    0 -0.15739520840E+01  0.77590541813E+01  0.86505376209E+01  0.11726553131E+02  0.51100000000E-03 0.  1.
        -12    1    4    4    0    0  0.16116297261E+02 -0.51573719395E+01  0.28840327361E+01  0.17165406129E+02  0.00000000000E+00 0.  1.
</event>
<event>
 8    1  0.1247338E-006  0.9118800E+02  0.7816164E-02  0.1184000E+00
        -11   -1    0    0    0    0  0.00000000000E+00  0.00000000000E+00  0.45593999997E+02  0.45594000000E+02  0.51100000000E-03 0.  1.
         11   -1    0    0    0    0 -0.00000000000E+00 -0.00000000000E+00 -0.45593999997E+02  0.45594000000E+02  0.51100000000E-03 0. -1.
         23    2    1    2    0    0  0.00000000000E+00  0.00000000000E+00  0.35527136788E-14  0.91188000000E+02  0.91188000000E+02 0.  0.
    9900012    2    3    3    0    0 -0.17912573455E+02 -0.21206284004E+02 -0.24191267681E+02  0.54367024986E+02  0.39999865060E+02 0.  0.
        -12    1    3    3    0    0  0.17912573455E+02  0.21206284004E+02  0.24191267681E+02  0.36820975014E+02  0.00000000000E+00 0.  1.
         11    1    4    4    0    0 -0.80613327702E+01 -0.19307089862E+02  0.50674828975E+01  0.21527382288E+02  0.51100000000E-03 0. -1.
        -11    1    4    4    0    0 -0.84057126446E+01 -0.22013099556E+01 -0.89388359991E+01  0.12466136525E+02  0.51100000000E-03 0.  1.
         12    1    4    4    0    0 -0.14455280399E+01  0.30211581429E+00 -0.20319914579E+02  0.20373506173E+02  0.00000000000E+00 0. -1.
</event>
<event>
 8    1  0.1247338E-006  0.9118800E+02  0.7816164E-02  0.1184000E+00
        -11   -1    0    0    0    0  0.00000000000E+00  0.00000000000E+00  0.45593999997E+02  0.45594000000E+02  0.51100000000E-03 0.  1.
         11   -1    0    0    0    0 -0.00000000000E+00 -0.00000000000E+00 -0.45593999997E+02  0.45594000000E+02  0.51100000000E-03 0. -1.
         23    2    1    2    0    0  0.00000000000E+00  0.00000000000E+00  0.00000000000E+00  0.91188000000E+02  0.91188000000E+02 0.  0.
    9900012    2    3    3    0    0 -0.23679446699E+02  0.19441795556E+02  0.20422514394E+02  0.54367099623E+02  0.40000035210E+02 0.  0.
         12    1    3    3    0    0  0.23679446699E+02 -0.19441795556E+02 -0.20422514394E+02  0.36820900377E+02  0.00000000000E+00 0. -1.
         11    1    4    4    0    0 -0.29603991720E+01  0.15847281112E+02  0.88358185637E+01  0.18384014030E+02  0.51100000000E-03 0. -1.
        -11    1    4    4    0    0 -0.76244575036E+01  0.15404995643E+01  0.19187122352E+02  0.20703892280E+02  0.51100000000E-03 0.  1.
         12    1    4    4    0    0 -0.13094590023E+02  0.20540148800E+01 -0.76004265215E+01  0.15279193314E+02  0.00000000000E+00 0. -1.
</event>
<event>
 8    1  0.1247338E-006  0.9118800E+02  0.7816164E-02  0.1184000E+00
        -11   -1    0    0    0    0  0.00000000000E+00  0.00000000000E+00  0.45593999997E+02  0.45594000000E+02  0.51100000000E-03 0. -1.
         11   -1    0    0    0    0 -0.00000000000E+00 -0.00000000000E+00 -0.45593999997E+02  0.45594000000E+02  0.51100000000E-03 0.  1.
         23    2    1    2    0    0 -0.35527136788E-14  0.35527136788E-14  0.35527136788E-14  0.91188000000E+02  0.91188000000E+02 0.  0.
    9900012    2    3    3    0    0 -0.18382600158E+02  0.23140239088E+02  0.21963382924E+02  0.54367070584E+02  0.39999969010E+02 0.  0.
        -12    1    3    3    0    0  0.18382600158E+02 -0.23140239088E+02 -0.21963382924E+02  0.36820929416E+02  0.00000000000E+00 0.  1.
         11    1    4    4    0    0 -0.27496450158E+02  0.17234662543E+02  0.19723943745E+02  0.37975285665E+02  0.51100000000E-03 0. -1.
        -11    1    4    4    0    0  0.75163452084E+01 -0.12669248627E+00 -0.31458608270E+01  0.81491065082E+01  0.51100000000E-03 0.  1.
        -12    1    4    4    0    0  0.15975047911E+01  0.60322690314E+01  0.53853000054E+01  0.82426784101E+01  0.00000000000E+00 0.  1.
</event>
<event>
 8    1  0.1247338E-006  0.9118800E+02  0.7816164E-02  0.1184000E+00
        -11   -1    0    0    0    0  0.00000000000E+00  0.00000000000E+00  0.45593999997E+02  0.45594000000E+02  0.51100000000E-03 0.  1.
         11   -1    0    0    0    0 -0.00000000000E+00 -0.00000000000E+00 -0.45593999997E+02  0.45594000000E+02  0.51100000000E-03 0. -1.
         23    2    1    2    0    0 -0.35527136788E-14 -0.35527136788E-14  0.00000000000E+00  0.91188000000E+02  0.91188000000E+02 0.  0.
    9900012    2    3    3    0    0  0.17116228900E+02  0.27224430651E+02 -0.17934459013E+02  0.54367085615E+02  0.40000003277E+02 0.  0.
        -12    1    3    3    0    0 -0.17116228900E+02 -0.27224430651E+02  0.17934459013E+02  0.36820914385E+02  0.00000000000E+00 0.  1.
         11    1    4    4    0    0  0.61136230187E+01  0.51152773914E+01 -0.48296734192E+01  0.93203108748E+01  0.51100000000E-03 0. -1.
        -11    1    4    4    0    0 -0.10948200377E+02  0.13989769736E+02  0.87344193030E+00  0.17785939667E+02  0.51100000000E-03 0.  1.
        -12    1    4    4    0    0  0.21950806258E+02  0.81193835234E+01 -0.13978227524E+02  0.27260835074E+02  0.00000000000E+00 0.  1.
</event>
<event>
 8    1  0.1247338E-006  0.9118800E+02  0.7816164E-02  0.1184000E+00
        -11   -1    0    0    0    0  0.00000000000E+00  0.00000000000E+00  0.45593999997E+02  0.45594000000E+02  0.51100000000E-03 0. -1.
         11   -1    0    0    0    0 -0.00000000000E+00 -0.00000000000E+00 -0.45593999997E+02  0.45594000000E+02  0.51100000000E-03 0.  1.
         23    2    1    2    0    0  0.00000000000E+00 -0.35527136788E-14 -0.44408920985E-15  0.91188000000E+02  0.91188000000E+02 0.  0.
    9900012    2    3    3    0    0  0.18856001976E+02  0.31378290701E+02  0.39539785065E+01  0.54367083609E+02  0.39999998704E+02 0.  0.
         12    1    3    3    0    0 -0.18856001976E+02 -0.31378290701E+02 -0.39539785065E+01  0.36820916391E+02  0.00000000000E+00 0. -1.
         11    1    4    4    0    0 -0.99612464038E+01  0.14716187817E+02 -0.66525354374E+01  0.18974953011E+02  0.51100000000E-03 0. -1.
        -11    1    4    4    0    0  0.23856156642E+02  0.15420047977E+02  0.73932406007E+01  0.29352241758E+02  0.51100000000E-03 0.  1.
        -12    1    4    4    0    0  0.49610917377E+01  0.12420549067E+01  0.32132733432E+01  0.60398888400E+01  0.00000000000E+00 0.  1.
</event>
<event>
 8    1  0.1247338E-006  0.9118800E+02  0.7816164E-02  0.1184000E+00
        -11   -1    0    0    0    0  0.00000000000E+00  0.00000000000E+00  0.45593999997E+02  0.45594000000E+02  0.51100000000E-03 0. -1.
         11   -1    0    0    0    0 -0.00000000000E+00 -0.00000000000E+00 -0.45593999997E+02  0.45594000000E+02  0.51100000000E-03 0.  1.
         23    2    1    2    0    0  0.35527136788E-14  0.38857805862E-15  0.71054273576E-14  0.91188000000E+02  0.91188000000E+02 0.  0.
    9900012    2    3    3    0    0  0.24015116575E+02  0.30238632855E+00  0.27909912107E+02  0.54367075848E+02  0.39999981010E+02 0.  0.
        -12    1    3    3    0    0 -0.24015116575E+02 -0.30238632855E+00 -0.27909912107E+02  0.36820924152E+02  0.00000000000E+00 0.  1.
         11    1    4    4    0    0 -0.21115971481E+01 -0.82637909087E+01  0.11496956309E+02  0.14315344472E+02  0.51100000000E-03 0. -1.
        -11    1    4    4    0    0  0.16858942397E+02 -0.22580065954E+01 -0.15992407665E+01  0.17084498934E+02  0.51100000000E-03 0.  1.
        -12    1    4    4    0    0  0.92677713257E+01  0.10824183833E+02  0.18012196564E+02  0.22967232442E+02  0.00000000000E+00 0.  1.
</event>
<event>
 8    1  0.1247338E-006  0.9118800E+02  0.7816164E-02  0.1184000E+00
        -11   -1    0    0    0    0  0.00000000000E+00  0.00000000000E+00  0.45593999997E+02  0.45594000000E+02  0.51100000000E-03 0. -1.
         11   -1    0    0    0    0 -0.00000000000E+00 -0.00000000000E+00 -0.45593999997E+02  0.45594000000E+02  0.51100000000E-03 0.  1.
         23    2    1    2    0    0 -0.17763568394E-14  0.00000000000E+00  0.17763568394E-14  0.91188000000E+02  0.91188000000E+02 0.  0.
    9900012    2    3    3    0    0 -0.14583625245E+02 -0.32195246694E+02  0.10322926336E+02  0.54367097742E+02  0.40000030922E+02 0.  0.
        -12    1    3    3    0    0  0.14583625245E+02  0.32195246694E+02 -0.10322926336E+02  0.36820902258E+02  0.00000000000E+00 0.  1.
         11    1    4    4    0    0 -0.14103953018E+01 -0.13891759788E+02  0.13183827458E+02  0.19203736918E+02  0.51100000000E-03 0. -1.
        -11    1    4    4    0    0 -0.10572551959E+02 -0.19598534332E+02 -0.12194029922E+02  0.25388496783E+02  0.51100000000E-03 0.  1.
        -12    1    4    4    0    0 -0.26006779835E+01  0.12950474257E+01  0.93331288008E+01  0.97748640410E+01  0.00000000000E+00 0.  1.
</event>
<event>
 8    1  0.1247338E-006  0.9118800E+02  0.7816164E-02  0.1184000E+00
        -11   -1    0    0    0    0  0.00000000000E+00  0.00000000000E+00  0.45593999997E+02  0.45594000000E+02  0.51100000000E-03 0.  1.
         11   -1    0    0    0    0 -0.00000000000E+00 -0.00000000000E+00 -0.45593999997E+02  0.45594000000E+02  0.51100000000E-03 0. -1.
         23    2    1    2    0    0  0.00000000000E+00  0.88817841970E-15 -0.17763568394E-14  0.91188000000E+02  0.91188000000E+02 0.  0.
    9900012    2    3    3    0    0  0.34204236634E+02  0.75686673340E+01 -0.11338670185E+02  0.54367082433E+02  0.39999996023E+02 0.  0.
        -12    1    3    3    0    0 -0.34204236634E+02 -0.75686673340E+01  0.11338670185E+02  0.36820917567E+02  0.00000000000E+00 0.  1.
         11    1    4    4    0    0  0.18979386958E+02  0.20799062328E+02  0.90516402713E+00  0.28171571578E+02  0.51100000000E-03 0. -1.
        -11    1    4    4    0    0  0.10371229114E+02 -0.66744248962E+01 -0.10958418991E+01  0.12381890435E+02  0.51100000000E-03 0.  1.
         12    1    4    4    0    0  0.48536205620E+01 -0.65559700979E+01 -0.11147992313E+02  0.13813620420E+02  0.00000000000E+00 0. -1.
</event>
<event>
 8    1  0.1247338E-006  0.9118800E+02  0.7816164E-02  0.1184000E+00
        -11   -1    0    0    0    0  0.00000000000E+00  0.00000000000E+00  0.45593999997E+02  0.45594000000E+02  0.51100000000E-03 0. -1.
         11   -1    0    0    0    0 -0.00000000000E+00 -0.00000000000E+00 -0.45593999997E+02  0.45594000000E+02  0.51100000000E-03 0.  1.
         23    2    1    2    0    0  0.00000000000E+00  0.35527136788E-14  0.00000000000E+00  0.91188000000E+02  0.91188000000E+02 0.  0.
    9900012    2    3    3    0    0 -0.26833447534E+02 -0.22207438464E+02  0.11940533203E+02  0.54367074388E+02  0.39999977683E+02 0.  0.
        -12    1    3    3    0    0  0.26833447534E+02  0.22207438464E+02 -0.11940533203E+02  0.36820925612E+02  0.00000000000E+00 0.  1.
         11    1    4    4    0    0 -0.15146439180E+01 -0.82010620177E+01  0.39210066876E+01  0.92155226722E+01  0.51100000000E-03 0. -1.
        -11    1    4    4    0    0 -0.13583247985E+02  0.99821423112E+01  0.74775732932E+01  0.18440767163E+02  0.51100000000E-03 0.  1.
        -12    1    4    4    0    0 -0.11735555631E+02 -0.23988518758E+02  0.54195322241E+00  0.26710784554E+02  0.00000000000E+00 0.  1.
</event>
<event>
 8    1  0.1247338E-006  0.9118800E+02  0.7816164E-02  0.1184000E+00
        -11   -1    0    0    0    0  0.00000000000E+00  0.00000000000E+00  0.45593999997E+02  0.45594000000E+02  0.51100000000E-03 0.  1.
         11   -1    0    0    0    0 -0.00000000000E+00 -0.00000000000E+00 -0.45593999997E+02  0.45594000000E+02  0.51100000000E-03 0. -1.
         23    2    1    2    0    0  0.17763568394E-14  0.00000000000E+00 -0.35527136788E-14  0.91188000000E+02  0.91188000000E+02 0.  0.
    9900012    2    3    3    0    0  0.14552952406E+02  0.18290380242E+02  0.28450880331E+02  0.54367095275E+02  0.40000025299E+02 0.  0.
         12    1    3    3    0    0 -0.14552952406E+02 -0.18290380242E+02 -0.28450880331E+02  0.36820904725E+02  0.00000000000E+00 0. -1.
         11    1    4    4    0    0  0.56084075387E+00  0.11019288791E+02 -0.56685670797E+01  0.12404512115E+02  0.51100000000E-03 0.  1.
        -11    1    4    4    0    0  0.17461017760E+01 -0.69545220452E+00 -0.21533844996E+01  0.28582495071E+01  0.51100000000E-03 0. -1.
        -12    1    4    4    0    0  0.12246009876E+02  0.79665436557E+01  0.36272831910E+02  0.39104333654E+02  0.00000000000E+00 0.  1.
</event>
<event>
 8    1  0.1247338E-006  0.9118800E+02  0.7816164E-02  0.1184000E+00
        -11   -1    0    0    0    0  0.00000000000E+00  0.00000000000E+00  0.45593999997E+02  0.45594000000E+02  0.51100000000E-03 0.  1.
         11   -1    0    0    0    0 -0.00000000000E+00 -0.00000000000E+00 -0.45593999997E+02  0.45594000000E+02  0.51100000000E-03 0. -1.
         23    2    1    2    0    0  0.00000000000E+00 -0.17763568394E-14  0.00000000000E+00  0.91188000000E+02  0.91188000000E+02 0.  0.
    9900012    2    3    3    0    0  0.30238560305E+02  0.82229333021E+01 -0.19333714982E+02  0.54367086154E+02  0.40000004506E+02 0.  0.
        -12    1    3    3    0    0 -0.30238560305E+02 -0.82229333021E+01  0.19333714982E+02  0.36820913846E+02  0.00000000000E+00 0.  1.
         11    1    4    4    0    0  0.35628875170E+02 -0.33180505488E+01 -0.86621789797E+01  0.36816566248E+02  0.51100000000E-03 0. -1.
        -11    1    4    4    0    0 -0.25022853894E+01  0.89365170863E+01 -0.99300817705E+01  0.13591515516E+02  0.51100000000E-03 0.  1.
         12    1    4    4    0    0 -0.28880294759E+01  0.26044667646E+01 -0.74145423194E+00  0.39590043899E+01  0.00000000000E+00 0. -1.
</event>
<event>
 8    1  0.1247338E-006  0.9118800E+02  0.7816164E-02  0.1184000E+00
        -11   -1    0    0    0    0  0.00000000000E+00  0.00000000000E+00  0.45593999997E+02  0.45594000000E+02  0.51100000000E-03 0.  1.
         11   -1    0    0    0    0 -0.00000000000E+00 -0.00000000000E+00 -0.45593999997E+02  0.45594000000E+02  0.51100000000E-03 0. -1.
         23    2    1    2    0    0  0.22204460493E-15  0.88817841970E-15  0.00000000000E+00  0.91188000000E+02  0.91188000000E+02 0.  0.
    9900012    2    3    3    0    0 -0.17721939298E+01  0.50973068891E+01 -0.36423287054E+02  0.54367094950E+02  0.40000024558E+02 0.  0.
        -12    1    3    3    0    0  0.17721939298E+01 -0.50973068891E+01  0.36423287054E+02  0.36820905050E+02  0.00000000000E+00 0.  1.
         11    1    4    4    0    0  0.39017266367E+00  0.15831102397E+02 -0.15975494087E+02  0.22494275925E+02  0.51100000000E-03 0. -1.
        -11    1    4    4    0    0 -0.90808622751E+01 -0.43845047453E+01 -0.20086361307E+02  0.22475494484E+02  0.51100000000E-03 0.  1.
        -12    1    4    4    0    0  0.69184956816E+01 -0.63492907624E+01 -0.36143166066E+00  0.93973245409E+01  0.00000000000E+00 0.  1.
</event>
<event>
 8    1  0.1247338E-006  0.9118800E+02  0.7816164E-02  0.1184000E+00
        -11   -1    0    0    0    0  0.00000000000E+00  0.00000000000E+00  0.45593999997E+02  0.45594000000E+02  0.51100000000E-03 0.  1.
         11   -1    0    0    0    0 -0.00000000000E+00 -0.00000000000E+00 -0.45593999997E+02  0.45594000000E+02  0.51100000000E-03 0. -1.
         23    2    1    2    0    0  0.00000000000E+00  0.00000000000E+00  0.17763568394E-14  0.91188000000E+02  0.91188000000E+02 0.  0.
    9900012    2    3    3    0    0  0.26750214866E+02  0.22477352065E+02  0.11617924131E+02  0.54367061496E+02  0.39999948292E+02 0.  0.
        -12    1    3    3    0    0 -0.26750214866E+02 -0.22477352065E+02 -0.11617924131E+02  0.36820938504E+02  0.00000000000E+00 0.  1.
         11    1    4    4    0    0  0.60406024997E+00  0.17014119648E+02  0.27348465603E+01  0.17243101292E+02  0.51100000000E-03 0. -1.
        -11    1    4    4    0    0  0.80493797488E+01 -0.83333539209E+01 -0.22308605242E+01  0.11798899985E+02  0.51100000000E-03 0.  1.
        -12    1    4    4    0    0  0.18096774867E+02  0.13796586338E+02  0.11113938095E+02  0.25325060220E+02  0.00000000000E+00 0.  1.
</event>
<event>
 8    1  0.1247338E-006  0.9118800E+02  0.7816164E-02  0.1184000E+00
        -11   -1    0    0    0    0  0.00000000000E+00  0.00000000000E+00  0.45593999997E+02  0.45594000000E+02  0.51100000000E-03 0.  1.
         11   -1    0    0    0    0 -0.00000000000E+00 -0.00000000000E+00 -0.45593999997E+02  0.45594000000E+02  0.51100000000E-03 0. -1.
         23    2    1    2    0    0 -0.11102230246E-15  0.17763568394E-14  0.00000000000E+00  0.91188000000E+02  0.91188000000E+02 0.  0.
    9900012    2    3    3    0    0 -0.73993116122E+00 -0.15231317241E+02 -0.33514758766E+02  0.54367087761E+02  0.40000008168E+02 0.  0.
        -12    1    3    3    0    0  0.73993116122E+00  0.15231317241E+02  0.33514758766E+02  0.36820912239E+02  0.00000000000E+00 0.  1.
         11    1    4    4    0    0 -0.12189626546E+02  0.33528235042E+01 -0.14979985684E-01  0.12642335443E+02  0.51100000000E-03 0. -1.
        -11    1    4    4    0    0  0.63102776939E+01 -0.56938233735E+01 -0.45963461958E+01  0.96625890835E+01  0.51100000000E-03 0.  1.
         12    1    4    4    0    0  0.51394176910E+01 -0.12890317371E+02 -0.28903432584E+02  0.32062163235E+02  0.00000000000E+00 0. -1.
</event>
<event>
 8    1  0.1247338E-006  0.9118800E+02  0.7816164E-02  0.1184000E+00
        -11   -1    0    0    0    0  0.00000000000E+00  0.00000000000E+00  0.45593999997E+02  0.45594000000E+02  0.51100000000E-03 0. -1.
         11   -1    0    0    0    0 -0.00000000000E+00 -0.00000000000E+00 -0.45593999997E+02  0.45594000000E+02  0.51100000000E-03 0.  1.
         23    2    1    2    0    0  0.35527136788E-14 -0.17763568394E-14  0.00000000000E+00  0.91188000000E+02  0.91188000000E+02 0.  0.
    9900012    2    3    3    0    0 -0.29737132943E+02 -0.15399018393E+02  0.15308735695E+02  0.54367024568E+02  0.39999864108E+02 0.  0.
        -12    1    3    3    0    0  0.29737132943E+02  0.15399018393E+02 -0.15308735695E+02  0.36820975432E+02  0.00000000000E+00 0.  1.
         11    1    4    4    0    0 -0.32368492441E+01 -0.13615227515E+02 -0.83729682491E+01  0.16308225252E+02  0.51100000000E-03 0.  1.
        -11    1    4    4    0    0 -0.15478800535E+02 -0.39937875274E+01  0.21192637383E+02  0.26545649066E+02  0.51100000000E-03 0. -1.
        -12    1    4    4    0    0 -0.11021483164E+02  0.22099966492E+01  0.24890665611E+01  0.11513150250E+02  0.00000000000E+00 0.  1.
</event>
<event>
 8    1  0.1247338E-006  0.9118800E+02  0.7816164E-02  0.1184000E+00
        -11   -1    0    0    0    0  0.00000000000E+00  0.00000000000E+00  0.45593999997E+02  0.45594000000E+02  0.51100000000E-03 0.  1.
         11   -1    0    0    0    0 -0.00000000000E+00 -0.00000000000E+00 -0.45593999997E+02  0.45594000000E+02  0.51100000000E-03 0. -1.
         23    2    1    2    0    0  0.00000000000E+00 -0.22204460493E-14  0.17763568394E-14  0.91188000000E+02  0.91188000000E+02 0.  0.
    9900012    2    3    3    0    0  0.35981513767E+02 -0.37465069801E+01  0.68610667371E+01  0.54367083603E+02  0.39999998690E+02 0.  0.
         12    1    3    3    0    0 -0.35981513767E+02  0.37465069801E+01 -0.68610667371E+01  0.36820916397E+02  0.00000000000E+00 0. -1.
         11    1    4    4    0    0  0.91354501641E+01  0.41869149883E+01  0.38328170661E+01  0.10755333270E+02  0.51100000000E-03 0.  1.
        -11    1    4    4    0    0  0.26182631692E+02  0.30741521650E+01 -0.84606473542E+01  0.27686877177E+02  0.51100000000E-03 0. -1.
        -12    1    4    4    0    0  0.66343191062E+00 -0.11007574133E+02  0.11488897025E+02  0.15924873157E+02  0.00000000000E+00 0.  1.
</event>
<event>
 8    1  0.1247338E-006  0.9118800E+02  0.7816164E-02  0.1184000E+00
        -11   -1    0    0    0    0  0.00000000000E+00  0.00000000000E+00  0.45593999997E+02  0.45594000000E+02  0.51100000000E-03 0.  1.
         11   -1    0    0    0    0 -0.00000000000E+00 -0.00000000000E+00 -0.45593999997E+02  0.45594000000E+02  0.51100000000E-03 0. -1.
         23    2    1    2    0    0  0.35527136788E-14 -0.55511151231E-15  0.35527136788E-14  0.91188000000E+02  0.91188000000E+02 0.  0.
    9900012    2    3    3    0    0 -0.30792714250E+02 -0.80025846358E+00  0.20172939280E+02  0.54367093660E+02  0.40000021616E+02 0.  0.
         12    1    3    3    0    0  0.30792714250E+02  0.80025846358E+00 -0.20172939280E+02  0.36820906340E+02  0.00000000000E+00 0. -1.
         11    1    4    4    0    0 -0.48543415962E+01  0.10300531414E+02 -0.39279381390E+01  0.12045508624E+02  0.51100000000E-03 0. -1.
        -11    1    4    4    0    0 -0.11870685275E+02 -0.15646016846E+02  0.10685002751E+02  0.22358002954E+02  0.51100000000E-03 0.  1.
         12    1    4    4    0    0 -0.14067687379E+02  0.45452269693E+01  0.13415874669E+02  0.19963582081E+02  0.00000000000E+00 0. -1.
</event>
<event>
 8    1  0.1247338E-006  0.9118800E+02  0.7816164E-02  0.1184000E+00
        -11   -1    0    0    0    0  0.00000000000E+00  0.00000000000E+00  0.45593999997E+02  0.45594000000E+02  0.51100000000E-03 0. -1.
         11   -1    0    0    0    0 -0.00000000000E+00 -0.00000000000E+00 -0.45593999997E+02  0.45594000000E+02  0.51100000000E-03 0.  1.
         23    2    1    2    0    0  0.00000000000E+00  0.71054273576E-14  0.00000000000E+00  0.91188000000E+02  0.91188000000E+02 0.  0.
    9900012    2    3    3    0    0  0.10672032988E+02  0.30315034376E+02 -0.17969055721E+02  0.54367074417E+02  0.39999977748E+02 0.  0.
         12    1    3    3    0    0 -0.10672032988E+02 -0.30315034376E+02  0.17969055721E+02  0.36820925583E+02  0.00000000000E+00 0. -1.
         11    1    4    4    0    0  0.20728858560E+02  0.22066766101E+02 -0.94762715158E+01  0.31724240975E+02  0.51100000000E-03 0. -1.
        -11    1    4    4    0    0  0.37189570996E+01  0.59442807879E+01 -0.31836332208E+01  0.77006906665E+01  0.51100000000E-03 0.  1.
        -12    1    4    4    0    0 -0.13775782671E+02  0.23039874872E+01 -0.53091509842E+01  0.14942142775E+02  0.00000000000E+00 0.  1.
</event>
<event>
 8    1  0.1247338E-006  0.9118800E+02  0.7816164E-02  0.1184000E+00
        -11   -1    0    0    0    0  0.00000000000E+00  0.00000000000E+00  0.45593999997E+02  0.45594000000E+02  0.51100000000E-03 0.  1.
         11   -1    0    0    0    0 -0.00000000000E+00 -0.00000000000E+00 -0.45593999997E+02  0.45594000000E+02  0.51100000000E-03 0. -1.
         23    2    1    2    0    0 -0.44408920985E-15  0.00000000000E+00  0.00000000000E+00  0.91188000000E+02  0.91188000000E+02 0.  0.
    9900012    2    3    3    0    0  0.31010824441E+01 -0.13567179171E+02  0.34089520430E+02  0.54367075703E+02  0.39999980679E+02 0.  0.
         12    1    3    3    0    0 -0.31010824441E+01  0.13567179171E+02 -0.34089520430E+02  0.36820924297E+02  0.00000000000E+00 0. -1.
         11    1    4    4    0    0 -0.48000057851E+01  0.50438604438E+01 -0.30859790208E+01  0.76160258988E+01  0.51100000000E-03 0. -1.
        -11    1    4    4    0    0  0.92639688284E+01 -0.63445229696E+01  0.50029684992E+01  0.12292427923E+02  0.51100000000E-03 0.  1.
         12    1    4    4    0    0 -0.13628805992E+01 -0.12266516646E+02  0.32172530951E+02  0.34458621881E+02  0.00000000000E+00 0. -1.
</event>
<event>
 8    1  0.1247338E-006  0.9118800E+02  0.7816164E-02  0.1184000E+00
        -11   -1    0    0    0    0  0.00000000000E+00  0.00000000000E+00  0.45593999997E+02  0.45594000000E+02  0.51100000000E-03 0.  1.
         11   -1    0    0    0    0 -0.00000000000E+00 -0.00000000000E+00 -0.45593999997E+02  0.45594000000E+02  0.51100000000E-03 0. -1.
         23    2    1    2    0    0  0.17763568394E-14 -0.35527136788E-14  0.00000000000E+00  0.91188000000E+02  0.91188000000E+02 0.  0.
    9900012    2    3    3    0    0 -0.14096996489E+02  0.20587246607E+02 -0.27077946783E+02  0.54367146740E+02  0.40000142622E+02 0.  0.
        -12    1    3    3    0    0  0.14096996489E+02 -0.20587246607E+02  0.27077946783E+02  0.36820853260E+02  0.00000000000E+00 0.  1.
         11    1    4    4    0    0 -0.13632026157E+02 -0.53853095806E+01 -0.11242976533E+02  0.18472634301E+02  0.51100000000E-03 0. -1.
        -11    1    4    4    0    0  0.69274634012E+01  0.21398631498E+01 -0.32019651180E+01  0.79259916952E+01  0.51100000000E-03 0.  1.
        -12    1    4    4    0    0 -0.73924337334E+01  0.23832693038E+02 -0.12633005131E+02  0.27968520743E+02  0.00000000000E+00 0.  1.
</event>
<event>
 8    1  0.1247338E-006  0.9118800E+02  0.7816164E-02  0.1184000E+00
        -11   -1    0    0    0    0  0.00000000000E+00  0.00000000000E+00  0.45593999997E+02  0.45594000000E+02  0.51100000000E-03 0. -1.
         11   -1    0    0    0    0 -0.00000000000E+00 -0.00000000000E+00 -0.45593999997E+02  0.45594000000E+02  0.51100000000E-03 0.  1.
         23    2    1    2    0    0  0.00000000000E+00  0.00000000000E+00  0.00000000000E+00  0.91188000000E+02  0.91188000000E+02 0.  0.
    9900012    2    3    3    0    0 -0.15645186120E+02  0.10655786291E+02 -0.31582661168E+02  0.54367053289E+02  0.39999929584E+02 0.  0.
         12    1    3    3    0    0  0.15645186120E+02 -0.10655786291E+02  0.31582661168E+02  0.36820946711E+02  0.00000000000E+00 0. -1.
         11    1    4    4    0    0 -0.11212233051E+02  0.13461771478E+02 -0.19353799709E+02  0.26105612897E+02  0.51100000000E-03 0.  1.
        -11    1    4    4    0    0 -0.11201935152E+02  0.67783674179E+01 -0.96038760102E+01  0.16237735393E+02  0.51100000000E-03 0. -1.
         12    1    4    4    0    0  0.67689820832E+01 -0.95843526052E+01 -0.26249854495E+01  0.12023704999E+02  0.00000000000E+00 0. -1.
</event>
<event>
 8    1  0.1247338E-006  0.9118800E+02  0.7816164E-02  0.1184000E+00
        -11   -1    0    0    0    0  0.00000000000E+00  0.00000000000E+00  0.45593999997E+02  0.45594000000E+02  0.51100000000E-03 0. -1.
         11   -1    0    0    0    0 -0.00000000000E+00 -0.00000000000E+00 -0.45593999997E+02  0.45594000000E+02  0.51100000000E-03 0.  1.
         23    2    1    2    0    0  0.00000000000E+00  0.35527136788E-14 -0.17763568394E-14  0.91188000000E+02  0.91188000000E+02 0.  0.
    9900012    2    3    3    0    0  0.17958757364E+02  0.30780787533E+02 -0.92631883262E+01  0.54367075173E+02  0.39999979471E+02 0.  0.
        -12    1    3    3    0    0 -0.17958757364E+02 -0.30780787533E+02  0.92631883262E+01  0.36820924827E+02  0.00000000000E+00 0.  1.
         11    1    4    4    0    0  0.74879988070E+01  0.18668568830E+02  0.58610218758E+01  0.20950827334E+02  0.51100000000E-03 0. -1.
        -11    1    4    4    0    0 -0.27832950459E+01  0.12516547118E+02  0.61346743636E+00  0.12836939885E+02  0.51100000000E-03 0.  1.
        -12    1    4    4    0    0  0.13254053603E+02 -0.40432841525E+00 -0.15737677638E+02  0.20579307953E+02  0.00000000000E+00 0.  1.
</event>
<event>
 8    1  0.1247338E-006  0.9118800E+02  0.7816164E-02  0.1184000E+00
        -11   -1    0    0    0    0  0.00000000000E+00  0.00000000000E+00  0.45593999997E+02  0.45594000000E+02  0.51100000000E-03 0.  1.
         11   -1    0    0    0    0 -0.00000000000E+00 -0.00000000000E+00 -0.45593999997E+02  0.45594000000E+02  0.51100000000E-03 0. -1.
         23    2    1    2    0    0  0.00000000000E+00  0.00000000000E+00  0.00000000000E+00  0.91188000000E+02  0.91188000000E+02 0.  0.
    9900012    2    3    3    0    0 -0.29546396176E+02 -0.17335139150E+02  0.13501336111E+02  0.54367046004E+02  0.39999912976E+02 0.  0.
         12    1    3    3    0    0  0.29546396176E+02  0.17335139150E+02 -0.13501336111E+02  0.36820953996E+02  0.00000000000E+00 0. -1.
         11    1    4    4    0    0 -0.21580042360E+01 -0.40063958780E+01 -0.95663935898E+01  0.10593586588E+02  0.51100000000E-03 0. -1.
        -11    1    4    4    0    0 -0.21160708713E+02 -0.60717475669E+01  0.39065063813E+01  0.22358499595E+02  0.51100000000E-03 0.  1.
         12    1    4    4    0    0 -0.62276832267E+01 -0.72569957055E+01  0.19161223320E+02  0.21414959822E+02  0.00000000000E+00 0. -1.
</event>
<event>
 8    1  0.1247338E-006  0.9118800E+02  0.7816164E-02  0.1184000E+00
        -11   -1    0    0    0    0  0.00000000000E+00  0.00000000000E+00  0.45593999997E+02  0.45594000000E+02  0.51100000000E-03 0.  1.
         11   -1    0    0    0    0 -0.00000000000E+00 -0.00000000000E+00 -0.45593999997E+02  0.45594000000E+02  0.51100000000E-03 0. -1.
         23    2    1    2    0    0  0.53290705182E-14 -0.35527136788E-14 -0.71054273576E-14  0.91188000000E+02  0.91188000000E+02 0.  0.
    9900012    2    3    3    0    0  0.10455508979E+02 -0.15513312376E+02 -0.31714333757E+02  0.54367088896E+02  0.40000010756E+02 0.  0.
        -12    1    3    3    0    0 -0.10455508979E+02  0.15513312376E+02  0.31714333757E+02  0.36820911104E+02  0.00000000000E+00 0.  1.
         11    1    4    4    0    0  0.17990257133E+02 -0.14627081464E+02 -0.26514964505E+02  0.35222779658E+02  0.51100000000E-03 0. -1.
        -11    1    4    4    0    0 -0.41013631951E+01 -0.74201650115E+01 -0.75966062086E+01  0.11383692503E+02  0.51100000000E-03 0.  1.
        -12    1    4    4    0    0 -0.34333849581E+01  0.65339340993E+01  0.23972369566E+01  0.77606167352E+01  0.00000000000E+00 0.  1.
</event>
<event>
 8    1  0.1247338E-006  0.9118800E+02  0.7816164E-02  0.1184000E+00
        -11   -1    0    0    0    0  0.00000000000E+00  0.00000000000E+00  0.45593999997E+02  0.45594000000E+02  0.51100000000E-03 0. -1.
         11   -1    0    0    0    0 -0.00000000000E+00 -0.00000000000E+00 -0.45593999997E+02  0.45594000000E+02  0.51100000000E-03 0.  1.
         23    2    1    2    0    0  0.00000000000E+00 -0.13322676296E-14  0.00000000000E+00  0.91188000000E+02  0.91188000000E+02 0.  0.
    9900012    2    3    3    0    0  0.36721343775E+02  0.16411437733E+01 -0.21506400816E+01  0.54367140500E+02  0.40000128399E+02 0.  0.
         12    1    3    3    0    0 -0.36721343775E+02 -0.16411437733E+01  0.21506400816E+01  0.36820859500E+02  0.00000000000E+00 0. -1.
         11    1    4    4    0    0  0.70305757332E+01 -0.17042514707E+02  0.12178329608E+01  0.18475914593E+02  0.51100000000E-03 0. -1.
        -11    1    4    4    0    0  0.13361435823E+02  0.83008851209E+01  0.18785789001E+01  0.15841771365E+02  0.51100000000E-03 0.  1.
        -12    1    4    4    0    0  0.16329332219E+02  0.10382773359E+02 -0.52470519425E+01  0.20049454542E+02  0.00000000000E+00 0.  1.
</event>
<event>
 8    1  0.1247338E-006  0.9118800E+02  0.7816164E-02  0.1184000E+00
        -11   -1    0    0    0    0  0.00000000000E+00  0.00000000000E+00  0.45593999997E+02  0.45594000000E+02  0.51100000000E-03 0.  1.
         11   -1    0    0    0    0 -0.00000000000E+00 -0.00000000000E+00 -0.45593999997E+02  0.45594000000E+02  0.51100000000E-03 0. -1.
         23    2    1    2    0    0  0.00000000000E+00  0.00000000000E+00  0.00000000000E+00  0.91188000000E+02  0.91188000000E+02 0.  0.
    9900012    2    3    3    0    0  0.25327514418E+02 -0.21129049173E+02 -0.16366432185E+02  0.54367084639E+02  0.40000001052E+02 0.  0.
         12    1    3    3    0    0 -0.25327514418E+02  0.21129049173E+02  0.16366432185E+02  0.36820915361E+02  0.00000000000E+00 0. -1.
         11    1    4    4    0    0  0.44124263361E+01 -0.10536069360E+01 -0.12460911511E+02  0.13260992033E+02  0.51100000000E-03 0. -1.
        -11    1    4    4    0    0  0.32059331181E+01 -0.88481095954E+00  0.10686822711E+02  0.11192366931E+02  0.51100000000E-03 0.  1.
        -12    1    4    4    0    0  0.17709154964E+02 -0.19190631277E+02 -0.14592343385E+02  0.29913725676E+02  0.00000000000E+00 0.  1.
</event>
<event>
 8    1  0.1247338E-006  0.9118800E+02  0.7816164E-02  0.1184000E+00
        -11   -1    0    0    0    0  0.00000000000E+00  0.00000000000E+00  0.45593999997E+02  0.45594000000E+02  0.51100000000E-03 0. -1.
         11   -1    0    0    0    0 -0.00000000000E+00 -0.00000000000E+00 -0.45593999997E+02  0.45594000000E+02  0.51100000000E-03 0.  1.
         23    2    1    2    0    0  0.00000000000E+00  0.00000000000E+00  0.88817841970E-15  0.91188000000E+02  0.91188000000E+02 0.  0.
    9900012    2    3    3    0    0  0.24303386701E+02  0.27498741538E+02 -0.29908542016E+01  0.54367073882E+02  0.39999976530E+02 0.  0.
         12    1    3    3    0    0 -0.24303386701E+02 -0.27498741538E+02  0.29908542016E+01  0.36820926118E+02  0.00000000000E+00 0. -1.
         11    1    4    4    0    0  0.39579029875E+01  0.15711044706E+02 -0.54550550677E+01  0.17095600248E+02  0.51100000000E-03 0. -1.
        -11    1    4    4    0    0  0.21295425982E+02  0.19779578246E+02  0.29196002603E+01  0.29210459587E+02  0.51100000000E-03 0.  1.
        -12    1    4    4    0    0 -0.94994226885E+00 -0.79918814142E+01 -0.45539939425E+00  0.80610140466E+01  0.00000000000E+00 0.  1.
</event>
<event>
 8    1  0.1247338E-006  0.9118800E+02  0.7816164E-02  0.1184000E+00
        -11   -1    0    0    0    0  0.00000000000E+00  0.00000000000E+00  0.45593999997E+02  0.45594000000E+02  0.51100000000E-03 0. -1.
         11   -1    0    0    0    0 -0.00000000000E+00 -0.00000000000E+00 -0.45593999997E+02  0.45594000000E+02  0.51100000000E-03 0.  1.
         23    2    1    2    0    0 -0.66613381478E-15  0.00000000000E+00  0.00000000000E+00  0.91188000000E+02  0.91188000000E+02 0.  0.
    9900012    2    3    3    0    0  0.16860226709E+01 -0.11575290633E+02  0.34913468880E+02  0.54367077484E+02  0.39999984740E+02 0.  0.
        -12    1    3    3    0    0 -0.16860226709E+01  0.11575290633E+02 -0.34913468880E+02  0.36820922516E+02  0.00000000000E+00 0.  1.
         11    1    4    4    0    0  0.41065880854E+01 -0.90951520075E+01  0.13814117570E+02  0.17041587374E+02  0.51100000000E-03 0. -1.
        -11    1    4    4    0    0 -0.13815892513E+02  0.25593241764E+00  0.21547600777E+02  0.25597724252E+02  0.51100000000E-03 0.  1.
        -12    1    4    4    0    0  0.11395327098E+02 -0.27360710436E+01 -0.44824946718E+00  0.11727765858E+02  0.00000000000E+00 0.  1.
</event>
<event>
 8    1  0.1247338E-006  0.9118800E+02  0.7816164E-02  0.1184000E+00
        -11   -1    0    0    0    0  0.00000000000E+00  0.00000000000E+00  0.45593999997E+02  0.45594000000E+02  0.51100000000E-03 0.  1.
         11   -1    0    0    0    0 -0.00000000000E+00 -0.00000000000E+00 -0.45593999997E+02  0.45594000000E+02  0.51100000000E-03 0. -1.
         23    2    1    2    0    0  0.00000000000E+00 -0.17763568394E-14  0.00000000000E+00  0.91188000000E+02  0.91188000000E+02 0.  0.
    9900012    2    3    3    0    0 -0.61670310493E+01 -0.84708754766E+01 -0.35298627665E+02  0.54367066846E+02  0.39999960489E+02 0.  0.
        -12    1    3    3    0    0  0.61670310493E+01  0.84708754766E+01  0.35298627665E+02  0.36820933154E+02  0.00000000000E+00 0.  1.
         11    1    4    4    0    0 -0.17704861650E+02 -0.87243884100E+01 -0.35976893836E+02  0.41035520827E+02  0.51100000000E-03 0. -1.
        -11    1    4    4    0    0  0.47551896705E+01 -0.71132994160E+00 -0.28871904950E+01  0.56083587888E+01  0.51100000000E-03 0.  1.
         12    1    4    4    0    0  0.67826409305E+01  0.96484287503E+00  0.35654566657E+01  0.77231872308E+01  0.00000000000E+00 0. -1.
</event>
<event>
 8    1  0.1247338E-006  0.9118800E+02  0.7816164E-02  0.1184000E+00
        -11   -1    0    0    0    0  0.00000000000E+00  0.00000000000E+00  0.45593999997E+02  0.45594000000E+02  0.51100000000E-03 0.  1.
         11   -1    0    0    0    0 -0.00000000000E+00 -0.00000000000E+00 -0.45593999997E+02  0.45594000000E+02  0.51100000000E-03 0. -1.
         23    2    1    2    0    0  0.88817841970E-15  0.22204460493E-14  0.00000000000E+00  0.91188000000E+02  0.91188000000E+02 0.  0.
    9900012    2    3    3    0    0 -0.70166827659E+01 -0.28480114035E+01 -0.36033795578E+02  0.54367089775E+02  0.40000012761E+02 0.  0.
        -12    1    3    3    0    0  0.70166827659E+01  0.28480114035E+01  0.36033795578E+02  0.36820910225E+02  0.00000000000E+00 0.  1.
         11    1    4    4    0    0  0.67085783545E+01  0.85986059508E+00 -0.17495144413E+02  0.18756984355E+02  0.51100000000E-03 0. -1.
        -11    1    4    4    0    0  0.35014753473E+01 -0.90840884478E+01 -0.13912282787E+02  0.16980359394E+02  0.51100000000E-03 0.  1.
        -12    1    4    4    0    0 -0.17226736468E+02  0.53762164492E+01 -0.46263683775E+01  0.18629746026E+02  0.00000000000E+00 0.  1.
</event>
<event>
 8    1  0.1247338E-006  0.9118800E+02  0.7816164E-02  0.1184000E+00
        -11   -1    0    0    0    0  0.00000000000E+00  0.00000000000E+00  0.45593999997E+02  0.45594000000E+02  0.51100000000E-03 0. -1.
         11   -1    0    0    0    0 -0.00000000000E+00 -0.00000000000E+00 -0.45593999997E+02  0.45594000000E+02  0.51100000000E-03 0.  1.
         23    2    1    2    0    0 -0.35527136788E-14  0.17763568394E-14  0.00000000000E+00  0.91188000000E+02  0.91188000000E+02 0.  0.
    9900012    2    3    3    0    0  0.30933111460E+02 -0.13593745056E+02  0.14633265493E+02  0.54367085451E+02  0.40000002903E+02 0.  0.
        -12    1    3    3    0    0 -0.30933111460E+02  0.13593745056E+02 -0.14633265493E+02  0.36820914549E+02  0.00000000000E+00 0.  1.
         11    1    4    4    0    0  0.45687184131E+01 -0.40694584228E+01 -0.17459693739E+01  0.63625536626E+01  0.51100000000E-03 0. -1.
        -11    1    4    4    0    0  0.12029492152E+02 -0.21316962651E+01 -0.10861508038E+02  0.16347023200E+02  0.51100000000E-03 0.  1.
         12    1    4    4    0    0  0.14334900895E+02 -0.73925903679E+01  0.27240742905E+02  0.31657508588E+02  0.00000000000E+00 0. -1.
</event>
<event>
 8    1  0.1247338E-006  0.9118800E+02  0.7816164E-02  0.1184000E+00
        -11   -1    0    0    0    0  0.00000000000E+00  0.00000000000E+00  0.45593999997E+02  0.45594000000E+02  0.51100000000E-03 0. -1.
         11   -1    0    0    0    0 -0.00000000000E+00 -0.00000000000E+00 -0.45593999997E+02  0.45594000000E+02  0.51100000000E-03 0.  1.
         23    2    1    2    0    0  0.00000000000E+00  0.44408920985E-15 -0.17763568394E-14  0.91188000000E+02  0.91188000000E+02 0.  0.
    9900012    2    3    3    0    0 -0.33915544613E+02  0.32396563338E+01 -0.13964977587E+02  0.54367080151E+02  0.39999990820E+02 0.  0.
         12    1    3    3    0    0  0.33915544613E+02 -0.32396563338E+01  0.13964977587E+02  0.36820919849E+02  0.00000000000E+00 0. -1.
         11    1    4    4    0    0 -0.66090757569E+00 -0.32805883292E+01 -0.23032190178E+01  0.40624963649E+01  0.51100000000E-03 0. -1.
        -11    1    4    4    0    0 -0.73243992351E+01  0.14369616359E-01 -0.20800029305E+02  0.22051944359E+02  0.51100000000E-03 0.  1.
         12    1    4    4    0    0 -0.25930237802E+02  0.65058750466E+01  0.91382707360E+01  0.28252639427E+02  0.00000000000E+00 0. -1.
</event>
<event>
 8    1  0.1247338E-006  0.9118800E+02  0.7816164E-02  0.1184000E+00
        -11   -1    0    0    0    0  0.00000000000E+00  0.00000000000E+00  0.45593999997E+02  0.45594000000E+02  0.51100000000E-03 0. -1.
         11   -1    0    0    0    0 -0.00000000000E+00 -0.00000000000E+00 -0.45593999997E+02  0.45594000000E+02  0.51100000000E-03 0.  1.
         23    2    1    2    0    0  0.00000000000E+00  0.17763568394E-14  0.00000000000E+00  0.91188000000E+02  0.91188000000E+02 0.  0.
    9900012    2    3    3    0    0 -0.27413798526E+02  0.12067534654E+02  0.21415843190E+02  0.54367080922E+02  0.39999992578E+02 0.  0.
        -12    1    3    3    0    0  0.27413798526E+02 -0.12067534654E+02 -0.21415843190E+02  0.36820919078E+02  0.00000000000E+00 0.  1.
         11    1    4    4    0    0 -0.93252783990E+01 -0.15544235904E+01  0.84251430881E+01  0.12663336299E+02  0.51100000000E-03 0. -1.
        -11    1    4    4    0    0  0.76213636766E+01  0.45203647189E+01  0.11324852226E+02  0.14379539620E+02  0.51100000000E-03 0.  1.
        -12    1    4    4    0    0 -0.25709883803E+02  0.91015935257E+01  0.16658478758E+01  0.27324205003E+02  0.00000000000E+00 0.  1.
</event>
<event>
 8    1  0.1247338E-006  0.9118800E+02  0.7816164E-02  0.1184000E+00
        -11   -1    0    0    0    0  0.00000000000E+00  0.00000000000E+00  0.45593999997E+02  0.45594000000E+02  0.51100000000E-03 0.  1.
         11   -1    0    0    0    0 -0.00000000000E+00 -0.00000000000E+00 -0.45593999997E+02  0.45594000000E+02  0.51100000000E-03 0. -1.
         23    2    1    2    0    0  0.00000000000E+00 -0.26645352591E-14 -0.35527136788E-14  0.91188000000E+02  0.91188000000E+02 0.  0.
    9900012    2    3    3    0    0  0.22221939021E+02 -0.61606235563E+01 -0.28705608232E+02  0.54367084743E+02  0.40000001288E+02 0.  0.
        -12    1    3    3    0    0 -0.22221939021E+02  0.61606235563E+01  0.28705608232E+02  0.36820915257E+02  0.00000000000E+00 0.  1.
         11    1    4    4    0    0 -0.32936652067E+01  0.49590339216E+00 -0.11272980905E+02  0.11754754332E+02  0.51100000000E-03 0. -1.
        -11    1    4    4    0    0  0.12661045421E+02  0.11177482037E+02 -0.80642428082E+01  0.18715506624E+02  0.51100000000E-03 0.  1.
        -12    1    4    4    0    0  0.12854558806E+02 -0.17834008986E+02 -0.93683845183E+01  0.23896823787E+02  0.00000000000E+00 0.  1.
</event>
<event>
 8    1  0.1247338E-006  0.9118800E+02  0.7816164E-02  0.1184000E+00
        -11   -1    0    0    0    0  0.00000000000E+00  0.00000000000E+00  0.45593999997E+02  0.45594000000E+02  0.51100000000E-03 0.  1.
         11   -1    0    0    0    0 -0.00000000000E+00 -0.00000000000E+00 -0.45593999997E+02  0.45594000000E+02  0.51100000000E-03 0. -1.
         23    2    1    2    0    0  0.22204460493E-15 -0.71054273576E-14  0.00000000000E+00  0.91188000000E+02  0.91188000000E+02 0.  0.
    9900012    2    3    3    0    0  0.14728151495E+01 -0.36296744922E+02  0.60130519871E+01  0.54367086505E+02  0.40000005306E+02 0.  0.
        -12    1    3    3    0    0 -0.14728151495E+01  0.36296744922E+02 -0.60130519871E+01  0.36820913495E+02  0.00000000000E+00 0.  1.
         11    1    4    4    0    0  0.47927561488E+01 -0.10343077577E+02 -0.96363867984E+01  0.14926811985E+02  0.51100000000E-03 0. -1.
        -11    1    4    4    0    0 -0.53084302109E+01 -0.27727289841E+01  0.15015258326E+02  0.16165563405E+02  0.51100000000E-03 0.  1.
        -12    1    4    4    0    0  0.19884892116E+01 -0.23180938361E+02  0.63418045904E+00  0.23274711115E+02  0.00000000000E+00 0.  1.
</event>
<event>
 8    1  0.1247338E-006  0.9118800E+02  0.7816164E-02  0.1184000E+00
        -11   -1    0    0    0    0  0.00000000000E+00  0.00000000000E+00  0.45593999997E+02  0.45594000000E+02  0.51100000000E-03 0. -1.
         11   -1    0    0    0    0 -0.00000000000E+00 -0.00000000000E+00 -0.45593999997E+02  0.45594000000E+02  0.51100000000E-03 0.  1.
         23    2    1    2    0    0  0.00000000000E+00  0.00000000000E+00  0.00000000000E+00  0.91188000000E+02  0.91188000000E+02 0.  0.
    9900012    2    3    3    0    0  0.17483870108E+02  0.23857181801E+02  0.21930111289E+02  0.54367073632E+02  0.39999975960E+02 0.  0.
        -12    1    3    3    0    0 -0.17483870108E+02 -0.23857181801E+02 -0.21930111289E+02  0.36820926368E+02  0.00000000000E+00 0.  1.
         11    1    4    4    0    0 -0.30028562241E+00  0.27330903554E+02  0.59402535211E+01  0.27970610875E+02  0.51100000000E-03 0. -1.
        -11    1    4    4    0    0  0.16282087304E+02 -0.39735644992E+01  0.17484082282E+02  0.24219593624E+02  0.51100000000E-03 0.  1.
         12    1    4    4    0    0  0.15020684260E+01  0.49984274610E+00 -0.14942245141E+01  0.21768691338E+01  0.00000000000E+00 0. -1.
</event>
<event>
 8    1  0.1247338E-006  0.9118800E+02  0.7816164E-02  0.1184000E+00
        -11   -1    0    0    0    0  0.00000000000E+00  0.00000000000E+00  0.45593999997E+02  0.45594000000E+02  0.51100000000E-03 0.  1.
         11   -1    0    0    0    0 -0.00000000000E+00 -0.00000000000E+00 -0.45593999997E+02  0.45594000000E+02  0.51100000000E-03 0. -1.
         23    2    1    2    0    0 -0.17763568394E-14  0.00000000000E+00 -0.13322676296E-14  0.91188000000E+02  0.91188000000E+02 0.  0.
    9900012    2    3    3    0    0 -0.14727827597E+02  0.33636982736E+02 -0.27253298292E+01  0.54367042164E+02  0.39999904221E+02 0.  0.
        -12    1    3    3    0    0  0.14727827597E+02 -0.33636982736E+02  0.27253298292E+01  0.36820957836E+02  0.00000000000E+00 0.  1.
         11    1    4    4    0    0 -0.19163318805E+02  0.20234268275E+02 -0.14210561038E+02  0.31282558167E+02  0.51100000000E-03 0. -1.
        -11    1    4    4    0    0  0.58580676981E+01  0.11154889364E+01 -0.33870060778E+00  0.59729382289E+01  0.51100000000E-03 0.  1.
         12    1    4    4    0    0 -0.14225764907E+01  0.12287225525E+02  0.11823931816E+02  0.17111545768E+02  0.00000000000E+00 0. -1.
</event>
<event>
 8    1  0.1247338E-006  0.9118800E+02  0.7816164E-02  0.1184000E+00
        -11   -1    0    0    0    0  0.00000000000E+00  0.00000000000E+00  0.45593999997E+02  0.45594000000E+02  0.51100000000E-03 0. -1.
         11   -1    0    0    0    0 -0.00000000000E+00 -0.00000000000E+00 -0.45593999997E+02  0.45594000000E+02  0.51100000000E-03 0.  1.
         23    2    1    2    0    0  0.00000000000E+00 -0.71054273576E-14 -0.18318679906E-14  0.91188000000E+02  0.91188000000E+02 0.  0.
    9900012    2    3    3    0    0 -0.11170443000E+02  0.35084585218E+02  0.27125204182E+00  0.54367075319E+02  0.39999979804E+02 0.  0.
        -12    1    3    3    0    0  0.11170443000E+02 -0.35084585218E+02 -0.27125204182E+00  0.36820924681E+02  0.00000000000E+00 0.  1.
         11    1    4    4    0    0  0.27925473778E+01  0.45858325270E+00  0.28642527777E+01  0.40264827943E+01  0.51100000000E-03 0. -1.
        -11    1    4    4    0    0  0.60265432756E+01  0.17306254041E+02 -0.12405815153E+02  0.22129841903E+02  0.51100000000E-03 0.  1.
        -12    1    4    4    0    0 -0.19989533653E+02  0.17319747924E+02  0.98128144175E+01  0.28210750621E+02  0.00000000000E+00 0.  1.
</event>
<event>
 8    1  0.1247338E-006  0.9118800E+02  0.7816164E-02  0.1184000E+00
        -11   -1    0    0    0    0  0.00000000000E+00  0.00000000000E+00  0.45593999997E+02  0.45594000000E+02  0.51100000000E-03 0.  1.
         11   -1    0    0    0    0 -0.00000000000E+00 -0.00000000000E+00 -0.45593999997E+02  0.45594000000E+02  0.51100000000E-03 0. -1.
         23    2    1    2    0    0  0.00000000000E+00  0.00000000000E+00  0.35527136788E-14  0.91188000000E+02  0.91188000000E+02 0.  0.
    9900012    2    3    3    0    0  0.10223017569E+02 -0.15809088070E+02 -0.31643958978E+02  0.54367116067E+02  0.40000072698E+02 0.  0.
        -12    1    3    3    0    0 -0.10223017569E+02  0.15809088070E+02  0.31643958978E+02  0.36820883933E+02  0.00000000000E+00 0.  1.
         11    1    4    4    0    0  0.90062336886E+01  0.16108438347E+01 -0.13892354094E+01  0.92540282254E+01  0.51100000000E-03 0. -1.
        -11    1    4    4    0    0  0.11383726677E+02 -0.50586898152E+00 -0.19636625377E+02  0.22703352020E+02  0.51100000000E-03 0.  1.
        -12    1    4    4    0    0 -0.10166942796E+02 -0.16914062923E+02 -0.10618098191E+02  0.22409735821E+02  0.00000000000E+00 0.  1.
</event>
<event>
 8    1  0.1247338E-006  0.9118800E+02  0.7816164E-02  0.1184000E+00
        -11   -1    0    0    0    0  0.00000000000E+00  0.00000000000E+00  0.45593999997E+02  0.45594000000E+02  0.51100000000E-03 0. -1.
         11   -1    0    0    0    0 -0.00000000000E+00 -0.00000000000E+00 -0.45593999997E+02  0.45594000000E+02  0.51100000000E-03 0.  1.
         23    2    1    2    0    0  0.00000000000E+00  0.00000000000E+00  0.00000000000E+00  0.91188000000E+02  0.91188000000E+02 0.  0.
    9900012    2    3    3    0    0 -0.17677002944E+02 -0.43591457143E+01  0.32004714264E+02  0.54367077692E+02  0.39999985215E+02 0.  0.
        -12    1    3    3    0    0  0.17677002944E+02  0.43591457143E+01 -0.32004714264E+02  0.36820922308E+02  0.00000000000E+00 0.  1.
         11    1    4    4    0    0 -0.93792294379E+01 -0.54984541436E+01  0.32379634893E+01  0.11344044721E+02  0.51100000000E-03 0. -1.
        -11    1    4    4    0    0 -0.19159843336E+02 -0.44678220147E+01  0.19322970583E+02  0.27576044361E+02  0.51100000000E-03 0.  1.
        -12    1    4    4    0    0  0.10862069830E+02  0.56071304440E+01  0.94437801926E+01  0.15446988610E+02  0.00000000000E+00 0.  1.
</event>
<event>
 8    1  0.1247338E-006  0.9118800E+02  0.7816164E-02  0.1184000E+00
        -11   -1    0    0    0    0  0.00000000000E+00  0.00000000000E+00  0.45593999997E+02  0.45594000000E+02  0.51100000000E-03 0.  1.
         11   -1    0    0    0    0 -0.00000000000E+00 -0.00000000000E+00 -0.45593999997E+02  0.45594000000E+02  0.51100000000E-03 0. -1.
         23    2    1    2    0    0 -0.10658141036E-13 -0.71054273576E-14  0.00000000000E+00  0.91188000000E+02  0.91188000000E+02 0.  0.
    9900012    2    3    3    0    0 -0.22893500267E+02 -0.24074007644E+02 -0.15877947334E+02  0.54367090043E+02  0.40000013371E+02 0.  0.
        -12    1    3    3    0    0  0.22893500267E+02  0.24074007644E+02  0.15877947334E+02  0.36820909957E+02  0.00000000000E+00 0.  1.
         11    1    4    4    0    0  0.48223763959E+01  0.41407784837E+01 -0.29000943735E+01  0.69865519529E+01  0.51100000000E-03 0. -1.
        -11    1    4    4    0    0  0.18343049624E+01 -0.34624538385E+01  0.36915601993E+01  0.53833891040E+01  0.51100000000E-03 0.  1.
         12    1    4    4    0    0 -0.29550181626E+02 -0.24752332289E+02 -0.16669413160E+02  0.41997148986E+02  0.00000000000E+00 0. -1.
</event>
<event>
 8    1  0.1247338E-006  0.9118800E+02  0.7816164E-02  0.1184000E+00
        -11   -1    0    0    0    0  0.00000000000E+00  0.00000000000E+00  0.45593999997E+02  0.45594000000E+02  0.51100000000E-03 0. -1.
         11   -1    0    0    0    0 -0.00000000000E+00 -0.00000000000E+00 -0.45593999997E+02  0.45594000000E+02  0.51100000000E-03 0.  1.
         23    2    1    2    0    0  0.00000000000E+00 -0.44408920985E-15 -0.35527136788E-14  0.91188000000E+02  0.91188000000E+02 0.  0.
    9900012    2    3    3    0    0  0.23040158145E+02  0.21710683405E+01  0.28639439598E+02  0.54367083043E+02  0.39999997412E+02 0.  0.
        -12    1    3    3    0    0 -0.23040158145E+02 -0.21710683405E+01 -0.28639439598E+02  0.36820916957E+02  0.00000000000E+00 0.  1.
         11    1    4    4    0    0  0.23529317308E+01 -0.94150761434E+01  0.82206150240E+01  0.12718429862E+02  0.51100000000E-03 0. -1.
        -11    1    4    4    0    0  0.47597274913E+01  0.18131308825E+02  0.78171662457E+01  0.20310279512E+02  0.51100000000E-03 0.  1.
         12    1    4    4    0    0  0.15927498923E+02 -0.65451643409E+01  0.12601658328E+02  0.21338373669E+02  0.00000000000E+00 0. -1.
</event>
<event>
 8    1  0.1247338E-006  0.9118800E+02  0.7816164E-02  0.1184000E+00
        -11   -1    0    0    0    0  0.00000000000E+00  0.00000000000E+00  0.45593999997E+02  0.45594000000E+02  0.51100000000E-03 0.  1.
         11   -1    0    0    0    0 -0.00000000000E+00 -0.00000000000E+00 -0.45593999997E+02  0.45594000000E+02  0.51100000000E-03 0. -1.
         23    2    1    2    0    0 -0.17763568394E-14  0.88817841970E-15  0.00000000000E+00  0.91188000000E+02  0.91188000000E+02 0.  0.
    9900012    2    3    3    0    0 -0.87133750697E+01 -0.46565440517E+01 -0.35470744910E+02  0.54367081325E+02  0.39999993497E+02 0.  0.
        -12    1    3    3    0    0  0.87133750697E+01  0.46565440517E+01  0.35470744910E+02  0.36820918675E+02  0.00000000000E+00 0.  1.
         11    1    4    4    0    0  0.25547699245E+01  0.42915288455E+01  0.12989083995E+01  0.51605457551E+01  0.51100000000E-03 0.  1.
        -11    1    4    4    0    0 -0.17885830188E+01 -0.14330914749E+01  0.51176496677E+01  0.56074164080E+01  0.51100000000E-03 0. -1.
         12    1    4    4    0    0 -0.94795619755E+01 -0.75149814223E+01 -0.41887302977E+02  0.43599119162E+02  0.00000000000E+00 0. -1.
</event>
<event>
 8    1  0.1247338E-006  0.9118800E+02  0.7816164E-02  0.1184000E+00
        -11   -1    0    0    0    0  0.00000000000E+00  0.00000000000E+00  0.45593999997E+02  0.45594000000E+02  0.51100000000E-03 0. -1.
         11   -1    0    0    0    0 -0.00000000000E+00 -0.00000000000E+00 -0.45593999997E+02  0.45594000000E+02  0.51100000000E-03 0.  1.
         23    2    1    2    0    0  0.00000000000E+00  0.00000000000E+00  0.88817841970E-15  0.91188000000E+02  0.91188000000E+02 0.  0.
    9900012    2    3    3    0    0  0.18300602675E+02  0.31740794203E+02 -0.36590731423E+01  0.54367097090E+02  0.40000029435E+02 0.  0.
         12    1    3    3    0    0 -0.18300602675E+02 -0.31740794203E+02  0.36590731423E+01  0.36820902910E+02  0.00000000000E+00 0. -1.
         11    1    4    4    0    0  0.75622880830E+01 -0.17809059660E+01  0.20080396813E+01  0.80244657599E+01  0.51100000000E-03 0. -1.
        -11    1    4    4    0    0 -0.24142970860E+01  0.31281838156E+01 -0.11992423782E+02  0.12626661983E+02  0.51100000000E-03 0.  1.
        -12    1    4    4    0    0  0.13152611678E+02  0.30393516353E+02  0.63253109587E+01  0.33715969347E+02  0.00000000000E+00 0.  1.
</event>
<event>
 8    1  0.1247338E-006  0.9118800E+02  0.7816164E-02  0.1184000E+00
        -11   -1    0    0    0    0  0.00000000000E+00  0.00000000000E+00  0.45593999997E+02  0.45594000000E+02  0.51100000000E-03 0.  1.
         11   -1    0    0    0    0 -0.00000000000E+00 -0.00000000000E+00 -0.45593999997E+02  0.45594000000E+02  0.51100000000E-03 0. -1.
         23    2    1    2    0    0  0.00000000000E+00  0.00000000000E+00  0.00000000000E+00  0.91188000000E+02  0.91188000000E+02 0.  0.
    9900012    2    3    3    0    0 -0.32254321066E+02  0.16051355571E+02  0.76022034334E+01  0.54367071981E+02  0.39999972196E+02 0.  0.
         12    1    3    3    0    0  0.32254321066E+02 -0.16051355571E+02 -0.76022034334E+01  0.36820928019E+02  0.00000000000E+00 0. -1.
         11    1    4    4    0    0 -0.87812130300E+01 -0.42962516473E+01 -0.19311707518E+01  0.99647830497E+01  0.51100000000E-03 0. -1.
        -11    1    4    4    0    0 -0.19583308029E+02  0.28150324762E+02  0.52612861866E+01  0.34693340429E+02  0.51100000000E-03 0.  1.
        -12    1    4    4    0    0 -0.38898000071E+01 -0.78027175430E+01  0.42720879986E+01  0.97089485023E+01  0.00000000000E+00 0.  1.
</event>
<event>
 8    1  0.1247338E-006  0.9118800E+02  0.7816164E-02  0.1184000E+00
        -11   -1    0    0    0    0  0.00000000000E+00  0.00000000000E+00  0.45593999997E+02  0.45594000000E+02  0.51100000000E-03 0.  1.
         11   -1    0    0    0    0 -0.00000000000E+00 -0.00000000000E+00 -0.45593999997E+02  0.45594000000E+02  0.51100000000E-03 0. -1.
         23    2    1    2    0    0  0.88817841970E-15  0.00000000000E+00  0.00000000000E+00  0.91188000000E+02  0.91188000000E+02 0.  0.
    9900012    2    3    3    0    0 -0.43410027588E+01 -0.31860737092E+02  0.17939565979E+02  0.54367096962E+02  0.40000029145E+02 0.  0.
         12    1    3    3    0    0  0.43410027588E+01  0.31860737092E+02 -0.17939565979E+02  0.36820903038E+02  0.00000000000E+00 0. -1.
         11    1    4    4    0    0 -0.81884430849E+01 -0.61227664151E+01  0.16158392887E+02  0.19121520067E+02  0.51100000000E-03 0. -1.
        -11    1    4    4    0    0  0.53593820335E+01 -0.17981906383E+02  0.12041474055E+02  0.22295044979E+02  0.51100000000E-03 0.  1.
        -12    1    4    4    0    0 -0.15119417074E+01 -0.77560642943E+01 -0.10260300963E+02  0.12950531916E+02  0.00000000000E+00 0.  1.
</event>
<event>
 8    1  0.1247338E-006  0.9118800E+02  0.7816164E-02  0.1184000E+00
        -11   -1    0    0    0    0  0.00000000000E+00  0.00000000000E+00  0.45593999997E+02  0.45594000000E+02  0.51100000000E-03 0.  1.
         11   -1    0    0    0    0 -0.00000000000E+00 -0.00000000000E+00 -0.45593999997E+02  0.45594000000E+02  0.51100000000E-03 0. -1.
         23    2    1    2    0    0 -0.17763568394E-14  0.00000000000E+00  0.71054273576E-14  0.91188000000E+02  0.91188000000E+02 0.  0.
    9900012    2    3    3    0    0  0.84465317864E+01  0.25872997713E+02 -0.24799656821E+02  0.54367097128E+02  0.40000029524E+02 0.  0.
        -12    1    3    3    0    0 -0.84465317864E+01 -0.25872997713E+02  0.24799656821E+02  0.36820902872E+02  0.00000000000E+00 0.  1.
         11    1    4    4    0    0 -0.41686860620E+01  0.38974830183E+01 -0.24158860506E+01  0.61971624985E+01  0.51100000000E-03 0. -1.
        -11    1    4    4    0    0  0.42469355318E+01  0.11061556175E+02  0.83526541296E+01  0.14496941667E+02  0.51100000000E-03 0.  1.
        -12    1    4    4    0    0  0.83682823166E+01  0.10913958520E+02 -0.30736424900E+02  0.33672992963E+02  0.00000000000E+00 0.  1.
</event>
<event>
 8    1  0.1247338E-006  0.9118800E+02  0.7816164E-02  0.1184000E+00
        -11   -1    0    0    0    0  0.00000000000E+00  0.00000000000E+00  0.45593999997E+02  0.45594000000E+02  0.51100000000E-03 0.  1.
         11   -1    0    0    0    0 -0.00000000000E+00 -0.00000000000E+00 -0.45593999997E+02  0.45594000000E+02  0.51100000000E-03 0. -1.
         23    2    1    2    0    0  0.00000000000E+00  0.44408920985E-15  0.00000000000E+00  0.91188000000E+02  0.91188000000E+02 0.  0.
    9900012    2    3    3    0    0  0.20214104844E+02  0.25487132704E+01 -0.30670425161E+02  0.54367069083E+02  0.39999965590E+02 0.  0.
        -12    1    3    3    0    0 -0.20214104844E+02 -0.25487132704E+01  0.30670425161E+02  0.36820930917E+02  0.00000000000E+00 0.  1.
         11    1    4    4    0    0  0.14808251472E+02  0.11017449283E+02 -0.41391970083E+01  0.18915640420E+02  0.51100000000E-03 0. -1.
        -11    1    4    4    0    0 -0.26419369740E+01 -0.12562801474E+02 -0.88326724800E+01  0.15582679977E+02  0.51100000000E-03 0.  1.
        -12    1    4    4    0    0  0.80477903464E+01  0.40940654616E+01 -0.17698555673E+02  0.19868748687E+02  0.00000000000E+00 0.  1.
</event>
<event>
 8    1  0.1247338E-006  0.9118800E+02  0.7816164E-02  0.1184000E+00
        -11   -1    0    0    0    0  0.00000000000E+00  0.00000000000E+00  0.45593999997E+02  0.45594000000E+02  0.51100000000E-03 0.  1.
         11   -1    0    0    0    0 -0.00000000000E+00 -0.00000000000E+00 -0.45593999997E+02  0.45594000000E+02  0.51100000000E-03 0. -1.
         23    2    1    2    0    0 -0.17763568394E-14  0.00000000000E+00  0.00000000000E+00  0.91188000000E+02  0.91188000000E+02 0.  0.
    9900012    2    3    3    0    0 -0.11935487526E+02  0.28730455382E+02 -0.19694773787E+02  0.54367095021E+02  0.40000024719E+02 0.  0.
        -12    1    3    3    0    0  0.11935487526E+02 -0.28730455382E+02  0.19694773787E+02  0.36820904979E+02  0.00000000000E+00 0.  1.
         11    1    4    4    0    0 -0.73461298956E+01  0.29974989573E+01 -0.66119789175E+01  0.10328063222E+02  0.51100000000E-03 0. -1.
        -11    1    4    4    0    0  0.53551515482E+01  0.30053058720E+02 -0.60633399945E+01  0.31122790342E+02  0.51100000000E-03 0.  1.
        -12    1    4    4    0    0 -0.99445091789E+01 -0.43201022947E+01 -0.70194548749E+01  0.12916241457E+02  0.00000000000E+00 0.  1.
</event>
<event>
 8    1  0.1247338E-006  0.9118800E+02  0.7816164E-02  0.1184000E+00
        -11   -1    0    0    0    0  0.00000000000E+00  0.00000000000E+00  0.45593999997E+02  0.45594000000E+02  0.51100000000E-03 0. -1.
         11   -1    0    0    0    0 -0.00000000000E+00 -0.00000000000E+00 -0.45593999997E+02  0.45594000000E+02  0.51100000000E-03 0.  1.
         23    2    1    2    0    0  0.00000000000E+00 -0.35527136788E-14  0.35527136788E-14  0.91188000000E+02  0.91188000000E+02 0.  0.
    9900012    2    3    3    0    0  0.20262680731E+02  0.22823228728E+02 -0.20598619352E+02  0.54367093993E+02  0.40000022375E+02 0.  0.
         12    1    3    3    0    0 -0.20262680731E+02 -0.22823228728E+02  0.20598619352E+02  0.36820906007E+02  0.00000000000E+00 0. -1.
         11    1    4    4    0    0  0.22892142293E+01 -0.97577836880E+01 -0.74221966278E+01  0.12471721907E+02  0.51100000000E-03 0. -1.
        -11    1    4    4    0    0  0.14095265276E+02  0.16287924733E+02 -0.12974656910E+02  0.25145868796E+02  0.51100000000E-03 0.  1.
        -12    1    4    4    0    0  0.38782012262E+01  0.16293087683E+02 -0.20176581388E+00  0.16749503289E+02  0.00000000000E+00 0.  1.
</event>
<event>
 8    1  0.1247338E-006  0.9118800E+02  0.7816164E-02  0.1184000E+00
        -11   -1    0    0    0    0  0.00000000000E+00  0.00000000000E+00  0.45593999997E+02  0.45594000000E+02  0.51100000000E-03 0.  1.
         11   -1    0    0    0    0 -0.00000000000E+00 -0.00000000000E+00 -0.45593999997E+02  0.45594000000E+02  0.51100000000E-03 0. -1.
         23    2    1    2    0    0  0.35527136788E-14  0.00000000000E+00  0.00000000000E+00  0.91188000000E+02  0.91188000000E+02 0.  0.
    9900012    2    3    3    0    0  0.17666738022E+02  0.28145032718E+02  0.15859464469E+02  0.54367094087E+02  0.40000022590E+02 0.  0.
        -12    1    3    3    0    0 -0.17666738022E+02 -0.28145032718E+02 -0.15859464469E+02  0.36820905913E+02  0.00000000000E+00 0.  1.
         11    1    4    4    0    0 -0.11388488672E+02  0.34071891393E+01  0.67784171091E+01  0.13684061927E+02  0.51100000000E-03 0. -1.
        -11    1    4    4    0    0  0.44532277385E+01  0.28789027188E+01  0.53990738713E+01  0.75676493764E+01  0.51100000000E-03 0.  1.
         12    1    4    4    0    0  0.24601998955E+02  0.21858940860E+02  0.36819734889E+01  0.33115382783E+02  0.00000000000E+00 0. -1.
</event>
<event>
 8    1  0.1247338E-006  0.9118800E+02  0.7816164E-02  0.1184000E+00
        -11   -1    0    0    0    0  0.00000000000E+00  0.00000000000E+00  0.45593999997E+02  0.45594000000E+02  0.51100000000E-03 0.  1.
         11   -1    0    0    0    0 -0.00000000000E+00 -0.00000000000E+00 -0.45593999997E+02  0.45594000000E+02  0.51100000000E-03 0. -1.
         23    2    1    2    0    0 -0.35527136788E-14  0.00000000000E+00  0.00000000000E+00  0.91188000000E+02  0.91188000000E+02 0.  0.
    9900012    2    3    3    0    0 -0.19485202634E+02  0.16714667492E+02 -0.26395572109E+02  0.54367089392E+02  0.40000011886E+02 0.  0.
        -12    1    3    3    0    0  0.19485202634E+02 -0.16714667492E+02  0.26395572109E+02  0.36820910608E+02  0.00000000000E+00 0.  1.
         11    1    4    4    0    0 -0.42633045987E+01  0.21701322319E+02 -0.54087505032E+01  0.22767910286E+02  0.51100000000E-03 0. -1.
        -11    1    4    4    0    0 -0.10583934483E+01  0.54910164262E+01 -0.27119817487E+01  0.62150063033E+01  0.51100000000E-03 0.  1.
        -12    1    4    4    0    0 -0.14163504587E+02 -0.10477671253E+02 -0.18274839857E+02  0.25384172803E+02  0.00000000000E+00 0.  1.
</event>
<event>
 8    1  0.1247338E-006  0.9118800E+02  0.7816164E-02  0.1184000E+00
        -11   -1    0    0    0    0  0.00000000000E+00  0.00000000000E+00  0.45593999997E+02  0.45594000000E+02  0.51100000000E-03 0.  1.
         11   -1    0    0    0    0 -0.00000000000E+00 -0.00000000000E+00 -0.45593999997E+02  0.45594000000E+02  0.51100000000E-03 0. -1.
         23    2    1    2    0    0  0.00000000000E+00 -0.88817841970E-15  0.00000000000E+00  0.91188000000E+02  0.91188000000E+02 0.  0.
    9900012    2    3    3    0    0  0.42091388465E+01  0.78552987255E+01  0.35726144193E+02  0.54367082755E+02  0.39999996756E+02 0.  0.
         12    1    3    3    0    0 -0.42091388465E+01 -0.78552987255E+01 -0.35726144193E+02  0.36820917245E+02  0.00000000000E+00 0. -1.
         11    1    4    4    0    0  0.22791760024E+01  0.25118729943E+01 -0.22118217575E+01  0.40492351053E+01  0.51100000000E-03 0. -1.
        -11    1    4    4    0    0  0.12034875559E+01 -0.13759567703E+02  0.18098630766E+02  0.22766961184E+02  0.51100000000E-03 0.  1.
        -12    1    4    4    0    0  0.72647528817E+00  0.19102993434E+02  0.19839335184E+02  0.27550886466E+02  0.00000000000E+00 0.  1.
</event>
<event>
 8    1  0.1247338E-006  0.9118800E+02  0.7816164E-02  0.1184000E+00
        -11   -1    0    0    0    0  0.00000000000E+00  0.00000000000E+00  0.45593999997E+02  0.45594000000E+02  0.51100000000E-03 0. -1.
         11   -1    0    0    0    0 -0.00000000000E+00 -0.00000000000E+00 -0.45593999997E+02  0.45594000000E+02  0.51100000000E-03 0.  1.
         23    2    1    2    0    0  0.00000000000E+00 -0.35527136788E-14  0.00000000000E+00  0.91188000000E+02  0.91188000000E+02 0.  0.
    9900012    2    3    3    0    0 -0.29471113456E+02 -0.17498834582E+02 -0.13454449614E+02  0.54367109809E+02  0.40000058431E+02 0.  0.
         12    1    3    3    0    0  0.29471113456E+02  0.17498834582E+02  0.13454449614E+02  0.36820890191E+02  0.00000000000E+00 0. -1.
         11    1    4    4    0    0  0.24194929201E+00  0.20538823458E+01  0.61026446183E+01  0.64435427948E+01  0.51100000000E-03 0. -1.
        -11    1    4    4    0    0 -0.23117871545E+02 -0.10898515898E+00 -0.87268708061E+01  0.24710445906E+02  0.51100000000E-03 0.  1.
         12    1    4    4    0    0 -0.65951912027E+01 -0.19443731769E+02 -0.10830223426E+02  0.23213121108E+02  0.00000000000E+00 0. -1.
</event>
<event>
 8    1  0.1247338E-006  0.9118800E+02  0.7816164E-02  0.1184000E+00
        -11   -1    0    0    0    0  0.00000000000E+00  0.00000000000E+00  0.45593999997E+02  0.45594000000E+02  0.51100000000E-03 0. -1.
         11   -1    0    0    0    0 -0.00000000000E+00 -0.00000000000E+00 -0.45593999997E+02  0.45594000000E+02  0.51100000000E-03 0.  1.
         23    2    1    2    0    0  0.00000000000E+00  0.00000000000E+00 -0.88817841970E-15  0.91188000000E+02  0.91188000000E+02 0.  0.
    9900012    2    3    3    0    0  0.10292980905E+02 -0.34731142511E+02  0.66018340605E+01  0.54367055838E+02  0.39999935393E+02 0.  0.
        -12    1    3    3    0    0 -0.10292980905E+02  0.34731142511E+02 -0.66018340605E+01  0.36820944162E+02  0.00000000000E+00 0.  1.
         11    1    4    4    0    0 -0.17984396937E+01 -0.23450991303E+02 -0.11813885085E+02  0.26320168303E+02  0.51100000000E-03 0. -1.
        -11    1    4    4    0    0 -0.26155594838E+01  0.42718470643E-02  0.23686244080E+01  0.35286756027E+01  0.51100000000E-03 0.  1.
         12    1    4    4    0    0  0.14706980082E+02 -0.11284423056E+02  0.16047094738E+02  0.24518211932E+02  0.00000000000E+00 0. -1.
</event>
<event>
 8    1  0.1247338E-006  0.9118800E+02  0.7816164E-02  0.1184000E+00
        -11   -1    0    0    0    0  0.00000000000E+00  0.00000000000E+00  0.45593999997E+02  0.45594000000E+02  0.51100000000E-03 0.  1.
         11   -1    0    0    0    0 -0.00000000000E+00 -0.00000000000E+00 -0.45593999997E+02  0.45594000000E+02  0.51100000000E-03 0. -1.
         23    2    1    2    0    0 -0.17763568394E-14  0.71054273576E-14  0.00000000000E+00  0.91188000000E+02  0.91188000000E+02 0.  0.
    9900012    2    3    3    0    0  0.10700266820E+02 -0.33559022138E+02 -0.10727373222E+02  0.54367079139E+02  0.39999988512E+02 0.  0.
        -12    1    3    3    0    0 -0.10700266820E+02  0.33559022138E+02  0.10727373222E+02  0.36820920861E+02  0.00000000000E+00 0.  1.
         11    1    4    4    0    0  0.23801612419E+01 -0.35422829572E+02 -0.17868961734E+02  0.39745966036E+02  0.51100000000E-03 0. -1.
        -11    1    4    4    0    0  0.11418850617E+01  0.14215231793E+01  0.72017932103E+01  0.74290278872E+01  0.51100000000E-03 0.  1.
        -12    1    4    4    0    0  0.71782205159E+01  0.44228425505E+00 -0.60204697916E-01  0.71920852152E+01  0.00000000000E+00 0.  1.
</event>
<event>
 8    1  0.1247338E-006  0.9118800E+02  0.7816164E-02  0.1184000E+00
        -11   -1    0    0    0    0  0.00000000000E+00  0.00000000000E+00  0.45593999997E+02  0.45594000000E+02  0.51100000000E-03 0. -1.
         11   -1    0    0    0    0 -0.00000000000E+00 -0.00000000000E+00 -0.45593999997E+02  0.45594000000E+02  0.51100000000E-03 0.  1.
         23    2    1    2    0    0 -0.44408920985E-15  0.00000000000E+00 -0.35527136788E-14  0.91188000000E+02  0.91188000000E+02 0.  0.
    9900012    2    3    3    0    0 -0.23810495955E+01  0.31949906557E+02  0.18146997687E+02  0.54367089484E+02  0.40000012096E+02 0.  0.
        -12    1    3    3    0    0  0.23810495955E+01 -0.31949906557E+02 -0.18146997687E+02  0.36820910516E+02  0.00000000000E+00 0.  1.
         11    1    4    4    0    0 -0.66450757328E+01 -0.14590746758E+01  0.54013831172E+00  0.68247842502E+01  0.51100000000E-03 0. -1.
        -11    1    4    4    0    0  0.50798706178E+01  0.75339650790E+01 -0.72716308031E+01  0.11637969329E+02  0.51100000000E-03 0.  1.
         12    1    4    4    0    0 -0.81584448048E+00  0.25875016154E+02  0.24878490179E+02  0.35904335905E+02  0.00000000000E+00 0. -1.
</event>
<event>
 8    1  0.1247338E-006  0.9118800E+02  0.7816164E-02  0.1184000E+00
        -11   -1    0    0    0    0  0.00000000000E+00  0.00000000000E+00  0.45593999997E+02  0.45594000000E+02  0.51100000000E-03 0. -1.
         11   -1    0    0    0    0 -0.00000000000E+00 -0.00000000000E+00 -0.45593999997E+02  0.45594000000E+02  0.51100000000E-03 0.  1.
         23    2    1    2    0    0  0.00000000000E+00  0.94368957093E-15  0.00000000000E+00  0.91188000000E+02  0.91188000000E+02 0.  0.
    9900012    2    3    3    0    0 -0.16485347759E+02 -0.29245915842E+00  0.32923080294E+02  0.54367062490E+02  0.39999950559E+02 0.  0.
        -12    1    3    3    0    0  0.16485347759E+02  0.29245915842E+00 -0.32923080294E+02  0.36820937510E+02  0.00000000000E+00 0.  1.
         11    1    4    4    0    0  0.83185995710E+01 -0.43960118014E+01  0.51474307522E+01  0.10724740658E+02  0.51100000000E-03 0. -1.
        -11    1    4    4    0    0 -0.62270928331E+01  0.47849549513E+01 -0.23900424886E+01  0.82088234478E+01  0.51100000000E-03 0.  1.
        -12    1    4    4    0    0 -0.18576854497E+02 -0.68140230834E+00  0.30165692030E+02  0.35433498384E+02  0.00000000000E+00 0.  1.
</event>
<event>
 8    1  0.1247338E-006  0.9118800E+02  0.7816164E-02  0.1184000E+00
        -11   -1    0    0    0    0  0.00000000000E+00  0.00000000000E+00  0.45593999997E+02  0.45594000000E+02  0.51100000000E-03 0. -1.
         11   -1    0    0    0    0 -0.00000000000E+00 -0.00000000000E+00 -0.45593999997E+02  0.45594000000E+02  0.51100000000E-03 0.  1.
         23    2    1    2    0    0  0.00000000000E+00 -0.88817841970E-15  0.00000000000E+00  0.91188000000E+02  0.91188000000E+02 0.  0.
    9900012    2    3    3    0    0  0.14047671295E+02 -0.42658192576E+01 -0.33767526410E+02  0.54367080367E+02  0.39999991314E+02 0.  0.
         12    1    3    3    0    0 -0.14047671295E+02  0.42658192576E+01  0.33767526410E+02  0.36820919633E+02  0.00000000000E+00 0. -1.
         11    1    4    4    0    0  0.89149436490E+01  0.41910720915E+01 -0.34722970670E+01  0.10445006114E+02  0.51100000000E-03 0. -1.
        -11    1    4    4    0    0  0.45823316469E+01  0.10670685032E+02 -0.62372514451E+01  0.13181979678E+02  0.51100000000E-03 0.  1.
         12    1    4    4    0    0  0.55039599869E+00 -0.19127576381E+02 -0.24057977898E+02  0.30740094576E+02  0.00000000000E+00 0. -1.
</event>
<event>
 8    1  0.1247338E-006  0.9118800E+02  0.7816164E-02  0.1184000E+00
        -11   -1    0    0    0    0  0.00000000000E+00  0.00000000000E+00  0.45593999997E+02  0.45594000000E+02  0.51100000000E-03 0. -1.
         11   -1    0    0    0    0 -0.00000000000E+00 -0.00000000000E+00 -0.45593999997E+02  0.45594000000E+02  0.51100000000E-03 0.  1.
         23    2    1    2    0    0  0.00000000000E+00  0.35527136788E-14  0.00000000000E+00  0.91188000000E+02  0.91188000000E+02 0.  0.
    9900012    2    3    3    0    0 -0.14410729837E+02  0.21934465344E+02  0.25826148939E+02  0.54367083752E+02  0.39999999028E+02 0.  0.
        -12    1    3    3    0    0  0.14410729837E+02 -0.21934465344E+02 -0.25826148939E+02  0.36820916248E+02  0.00000000000E+00 0.  1.
         11    1    4    4    0    0 -0.17758187413E+02  0.26538517397E+02  0.29658009201E+02  0.43580312480E+02  0.51100000000E-03 0. -1.
        -11    1    4    4    0    0 -0.14841954585E+01 -0.47716849426E+01 -0.74919541075E+00  0.50530295244E+01  0.51100000000E-03 0.  1.
        -12    1    4    4    0    0  0.48316530350E+01  0.16763288959E+00 -0.30826648513E+01  0.57337417471E+01  0.00000000000E+00 0.  1.
</event>
<event>
 8    1  0.1247338E-006  0.9118800E+02  0.7816164E-02  0.1184000E+00
        -11   -1    0    0    0    0  0.00000000000E+00  0.00000000000E+00  0.45593999997E+02  0.45594000000E+02  0.51100000000E-03 0.  1.
         11   -1    0    0    0    0 -0.00000000000E+00 -0.00000000000E+00 -0.45593999997E+02  0.45594000000E+02  0.51100000000E-03 0. -1.
         23    2    1    2    0    0  0.00000000000E+00  0.00000000000E+00  0.00000000000E+00  0.91188000000E+02  0.91188000000E+02 0.  0.
    9900012    2    3    3    0    0 -0.10618215661E+02  0.34235158359E+02 -0.84253352296E+01  0.54367097711E+02  0.40000030851E+02 0.  0.
        -12    1    3    3    0    0  0.10618215661E+02 -0.34235158359E+02  0.84253352296E+01  0.36820902289E+02  0.00000000000E+00 0.  1.
         11    1    4    4    0    0 -0.16511994567E+02  0.19133039763E+02  0.52016424876E+01  0.25802640562E+02  0.51100000000E-03 0.  1.
        -11    1    4    4    0    0  0.58803281625E+01 -0.87591416267E-01 -0.11903829913E+02  0.13277315181E+02  0.51100000000E-03 0. -1.
         12    1    4    4    0    0  0.13450743685E-01  0.15189710012E+02 -0.17231478041E+01  0.15287141967E+02  0.00000000000E+00 0. -1.
</event>
<event>
 8    1  0.1247338E-006  0.9118800E+02  0.7816164E-02  0.1184000E+00
        -11   -1    0    0    0    0  0.00000000000E+00  0.00000000000E+00  0.45593999997E+02  0.45594000000E+02  0.51100000000E-03 0.  1.
         11   -1    0    0    0    0 -0.00000000000E+00 -0.00000000000E+00 -0.45593999997E+02  0.45594000000E+02  0.51100000000E-03 0. -1.
         23    2    1    2    0    0  0.53290705182E-14  0.00000000000E+00  0.00000000000E+00  0.91188000000E+02  0.91188000000E+02 0.  0.
    9900012    2    3    3    0    0  0.14348824311E+02  0.33548074766E+02 -0.49413068264E+01  0.54367101142E+02  0.40000038673E+02 0.  0.
        -12    1    3    3    0    0 -0.14348824311E+02 -0.33548074766E+02  0.49413068264E+01  0.36820898858E+02  0.00000000000E+00 0.  1.
         11    1    4    4    0    0 -0.10319200723E+02  0.13308256754E+02 -0.72057262483E+01  0.18317152957E+02  0.51100000000E-03 0. -1.
        -11    1    4    4    0    0  0.11739413638E+01  0.67032385829E+01  0.54904388464E+01  0.87439387470E+01  0.51100000000E-03 0.  1.
         12    1    4    4    0    0  0.23494083670E+02  0.13536579428E+02 -0.32260194246E+01  0.27306009438E+02  0.00000000000E+00 0. -1.
</event>
<event>
 8    1  0.1247338E-006  0.9118800E+02  0.7816164E-02  0.1184000E+00
        -11   -1    0    0    0    0  0.00000000000E+00  0.00000000000E+00  0.45593999997E+02  0.45594000000E+02  0.51100000000E-03 0. -1.
         11   -1    0    0    0    0 -0.00000000000E+00 -0.00000000000E+00 -0.45593999997E+02  0.45594000000E+02  0.51100000000E-03 0.  1.
         23    2    1    2    0    0 -0.44408920985E-15 -0.17763568394E-14  0.71054273576E-14  0.91188000000E+02  0.91188000000E+02 0.  0.
    9900012    2    3    3    0    0  0.22966673798E+01 -0.98695025524E+01 -0.35399146663E+02  0.54367063752E+02  0.39999953436E+02 0.  0.
         12    1    3    3    0    0 -0.22966673798E+01  0.98695025524E+01  0.35399146663E+02  0.36820936248E+02  0.00000000000E+00 0. -1.
         11    1    4    4    0    0 -0.48294764472E+01 -0.33693920397E+01  0.14663469397E+00  0.58905133449E+01  0.51100000000E-03 0. -1.
        -11    1    4    4    0    0  0.18154052260E+01 -0.10868804653E+02  0.12076202034E+01  0.11085348779E+02  0.51100000000E-03 0.  1.
        -12    1    4    4    0    0  0.53107386011E+01  0.43686941406E+01 -0.36753401560E+02  0.37391201629E+02  0.00000000000E+00 0.  1.
</event>
<event>
 8    1  0.1247338E-006  0.9118800E+02  0.7816164E-02  0.1184000E+00
        -11   -1    0    0    0    0  0.00000000000E+00  0.00000000000E+00  0.45593999997E+02  0.45594000000E+02  0.51100000000E-03 0. -1.
         11   -1    0    0    0    0 -0.00000000000E+00 -0.00000000000E+00 -0.45593999997E+02  0.45594000000E+02  0.51100000000E-03 0.  1.
         23    2    1    2    0    0 -0.17763568394E-14  0.00000000000E+00  0.00000000000E+00  0.91188000000E+02  0.91188000000E+02 0.  0.
    9900012    2    3    3    0    0 -0.14053399627E+02 -0.16490545452E+02 -0.29771515277E+02  0.54367092186E+02  0.40000018256E+02 0.  0.
         12    1    3    3    0    0  0.14053399627E+02  0.16490545452E+02  0.29771515277E+02  0.36820907814E+02  0.00000000000E+00 0. -1.
         11    1    4    4    0    0  0.92681582371E+01 -0.74015933512E+01 -0.98124556076E+01  0.15393720361E+02  0.51100000000E-03 0. -1.
        -11    1    4    4    0    0 -0.13864756027E+02 -0.13797393689E+02 -0.42079362003E+01  0.20007655026E+02  0.51100000000E-03 0.  1.
        -12    1    4    4    0    0 -0.94568018365E+01  0.47084415881E+01 -0.15751123469E+02  0.18965716799E+02  0.00000000000E+00 0.  1.
</event>
<event>
 8    1  0.1247338E-006  0.9118800E+02  0.7816164E-02  0.1184000E+00
        -11   -1    0    0    0    0  0.00000000000E+00  0.00000000000E+00  0.45593999997E+02  0.45594000000E+02  0.51100000000E-03 0. -1.
         11   -1    0    0    0    0 -0.00000000000E+00 -0.00000000000E+00 -0.45593999997E+02  0.45594000000E+02  0.51100000000E-03 0.  1.
         23    2    1    2    0    0  0.00000000000E+00 -0.17763568394E-14 -0.17763568394E-14  0.91188000000E+02  0.91188000000E+02 0.  0.
    9900012    2    3    3    0    0  0.32269195964E+02 -0.14407408867E+02  0.10339484007E+02  0.54367090614E+02  0.40000014674E+02 0.  0.
         12    1    3    3    0    0 -0.32269195964E+02  0.14407408867E+02 -0.10339484007E+02  0.36820909386E+02  0.00000000000E+00 0. -1.
         11    1    4    4    0    0 -0.14166344662E+01  0.40165129515E+01 -0.62844878486E+00  0.43051338697E+01  0.51100000000E-03 0. -1.
        -11    1    4    4    0    0 -0.10879491923E+01  0.13150236549E+01 -0.62853358094E+01  0.65129384426E+01  0.51100000000E-03 0.  1.
        -12    1    4    4    0    0  0.34773779623E+02 -0.19738945473E+02  0.17253268601E+02  0.43549018302E+02  0.00000000000E+00 0.  1.
</event>
<event>
 8    1  0.1247338E-006  0.9118800E+02  0.7816164E-02  0.1184000E+00
        -11   -1    0    0    0    0  0.00000000000E+00  0.00000000000E+00  0.45593999997E+02  0.45594000000E+02  0.51100000000E-03 0.  1.
         11   -1    0    0    0    0 -0.00000000000E+00 -0.00000000000E+00 -0.45593999997E+02  0.45594000000E+02  0.51100000000E-03 0. -1.
         23    2    1    2    0    0 -0.17763568394E-14  0.00000000000E+00  0.00000000000E+00  0.91188000000E+02  0.91188000000E+02 0.  0.
    9900012    2    3    3    0    0  0.82817487896E+01 -0.32661354230E+02 -0.14846776776E+02  0.54367106424E+02  0.40000050714E+02 0.  0.
        -12    1    3    3    0    0 -0.82817487896E+01  0.32661354230E+02  0.14846776776E+02  0.36820893576E+02  0.00000000000E+00 0.  1.
         11    1    4    4    0    0 -0.54417662916E+01 -0.87794186600E+01 -0.26755414941E+00  0.10332598795E+02  0.51100000000E-03 0. -1.
        -11    1    4    4    0    0 -0.32173054127E+01 -0.12244506067E+02  0.68062826715E+01  0.14373742275E+02  0.51100000000E-03 0.  1.
         12    1    4    4    0    0  0.16940820494E+02 -0.11637429503E+02 -0.21385505299E+02  0.29660765353E+02  0.00000000000E+00 0. -1.
</event>
<event>
 8    1  0.1247338E-006  0.9118800E+02  0.7816164E-02  0.1184000E+00
        -11   -1    0    0    0    0  0.00000000000E+00  0.00000000000E+00  0.45593999997E+02  0.45594000000E+02  0.51100000000E-03 0.  1.
         11   -1    0    0    0    0 -0.00000000000E+00 -0.00000000000E+00 -0.45593999997E+02  0.45594000000E+02  0.51100000000E-03 0. -1.
         23    2    1    2    0    0  0.00000000000E+00  0.00000000000E+00 -0.88817841970E-15  0.91188000000E+02  0.91188000000E+02 0.  0.
    9900012    2    3    3    0    0 -0.33767631771E+02 -0.14650957289E+02 -0.93219406390E+00  0.54367184003E+02  0.40000227572E+02 0.  0.
        -12    1    3    3    0    0  0.33767631771E+02  0.14650957289E+02  0.93219406390E+00  0.36820815997E+02  0.00000000000E+00 0.  1.
         11    1    4    4    0    0 -0.15299128950E+02 -0.69009309162E+01  0.15329225718E+02  0.22730405969E+02  0.51100000000E-03 0. -1.
        -11    1    4    4    0    0 -0.10894692888E+02  0.52365637135E+01 -0.77891757350E+01  0.14380097063E+02  0.51100000000E-03 0.  1.
        -12    1    4    4    0    0 -0.75738099326E+01 -0.12986590087E+02 -0.84722440464E+01  0.17256680972E+02  0.00000000000E+00 0.  1.
</event>
<event>
 8    1  0.1247338E-006  0.9118800E+02  0.7816164E-02  0.1184000E+00
        -11   -1    0    0    0    0  0.00000000000E+00  0.00000000000E+00  0.45593999997E+02  0.45594000000E+02  0.51100000000E-03 0.  1.
         11   -1    0    0    0    0 -0.00000000000E+00 -0.00000000000E+00 -0.45593999997E+02  0.45594000000E+02  0.51100000000E-03 0. -1.
         23    2    1    2    0    0  0.88817841970E-15  0.83266726847E-16  0.00000000000E+00  0.91188000000E+02  0.91188000000E+02 0.  0.
    9900012    2    3    3    0    0  0.72437119382E+01 -0.88209099411E-01 -0.36101257372E+02  0.54367083019E+02  0.39999997357E+02 0.  0.
        -12    1    3    3    0    0 -0.72437119382E+01  0.88209099411E-01  0.36101257372E+02  0.36820916981E+02  0.00000000000E+00 0.  1.
         11    1    4    4    0    0 -0.79911915985E+01  0.26486581652E+01 -0.62041308654E+01  0.10457809202E+02  0.51100000000E-03 0. -1.
        -11    1    4    4    0    0  0.95021747899E+00 -0.13864110596E+02 -0.15135289055E+02  0.20547346566E+02  0.51100000000E-03 0.  1.
        -12    1    4    4    0    0  0.14284686058E+02  0.11127243331E+02 -0.14761837452E+02  0.23361927251E+02  0.00000000000E+00 0.  1.
</event>
<event>
 8    1  0.1247338E-006  0.9118800E+02  0.7816164E-02  0.1184000E+00
        -11   -1    0    0    0    0  0.00000000000E+00  0.00000000000E+00  0.45593999997E+02  0.45594000000E+02  0.51100000000E-03 0.  1.
         11   -1    0    0    0    0 -0.00000000000E+00 -0.00000000000E+00 -0.45593999997E+02  0.45594000000E+02  0.51100000000E-03 0. -1.
         23    2    1    2    0    0 -0.35527136788E-14  0.00000000000E+00  0.00000000000E+00  0.91188000000E+02  0.91188000000E+02 0.  0.
    9900012    2    3    3    0    0  0.17336671517E+02 -0.23065406385E+02 -0.22873724120E+02  0.54367076517E+02  0.39999982536E+02 0.  0.
        -12    1    3    3    0    0 -0.17336671517E+02  0.23065406385E+02  0.22873724120E+02  0.36820923483E+02  0.00000000000E+00 0.  1.
         11    1    4    4    0    0  0.48904592490E+01  0.13541186869E+01 -0.61829049041E+01  0.79986587875E+01  0.51100000000E-03 0. -1.
        -11    1    4    4    0    0  0.34588341413E+01 -0.29646899105E+02 -0.42403657431E+01  0.30147684191E+02  0.51100000000E-03 0.  1.
        -12    1    4    4    0    0  0.89873781263E+01  0.52273740329E+01 -0.12450453473E+02  0.16220733539E+02  0.00000000000E+00 0.  1.
</event>
<event>
 8    1  0.1247338E-006  0.9118800E+02  0.7816164E-02  0.1184000E+00
        -11   -1    0    0    0    0  0.00000000000E+00  0.00000000000E+00  0.45593999997E+02  0.45594000000E+02  0.51100000000E-03 0.  1.
         11   -1    0    0    0    0 -0.00000000000E+00 -0.00000000000E+00 -0.45593999997E+02  0.45594000000E+02  0.51100000000E-03 0. -1.
         23    2    1    2    0    0 -0.26645352591E-14  0.00000000000E+00  0.00000000000E+00  0.91188000000E+02  0.91188000000E+02 0.  0.
    9900012    2    3    3    0    0 -0.64890343572E+01 -0.12619993368E+02 -0.33976564588E+02  0.54367099132E+02  0.40000034092E+02 0.  0.
        -12    1    3    3    0    0  0.64890343572E+01  0.12619993368E+02  0.33976564588E+02  0.36820900868E+02  0.00000000000E+00 0.  1.
         11    1    4    4    0    0 -0.77835011359E+01 -0.20854886544E+01 -0.12168652608E+02  0.14594802480E+02  0.51100000000E-03 0. -1.
        -11    1    4    4    0    0  0.95178047544E+01  0.75887236406E+00  0.40582252626E+01  0.10374665640E+02  0.51100000000E-03 0.  1.
        -12    1    4    4    0    0 -0.82233379756E+01 -0.11293377077E+02 -0.25866137243E+02  0.29397631012E+02  0.00000000000E+00 0.  1.
</event>
<event>
 8    1  0.1247338E-006  0.9118800E+02  0.7816164E-02  0.1184000E+00
        -11   -1    0    0    0    0  0.00000000000E+00  0.00000000000E+00  0.45593999997E+02  0.45594000000E+02  0.51100000000E-03 0.  1.
         11   -1    0    0    0    0 -0.00000000000E+00 -0.00000000000E+00 -0.45593999997E+02  0.45594000000E+02  0.51100000000E-03 0. -1.
         23    2    1    2    0    0  0.35527136788E-14 -0.22204460493E-15  0.35527136788E-14  0.91188000000E+02  0.91188000000E+02 0.  0.
    9900012    2    3    3    0    0  0.30093373518E+02 -0.18886957646E+01  0.21132941995E+02  0.54367088295E+02  0.40000009387E+02 0.  0.
         12    1    3    3    0    0 -0.30093373518E+02  0.18886957646E+01 -0.21132941995E+02  0.36820911705E+02  0.00000000000E+00 0. -1.
         11    1    4    4    0    0 -0.39084118842E+01  0.36185364111E+01  0.29135807234E+01  0.60711153924E+01  0.51100000000E-03 0. -1.
        -11    1    4    4    0    0  0.10808813572E+02  0.20567183632E+01 -0.71330038898E+01  0.13112600277E+02  0.51100000000E-03 0.  1.
        -12    1    4    4    0    0  0.23192971830E+02 -0.75639505389E+01  0.25352365162E+02  0.35183372626E+02  0.00000000000E+00 0.  1.
</event>
<event>
 8    1  0.1247338E-006  0.9118800E+02  0.7816164E-02  0.1184000E+00
        -11   -1    0    0    0    0  0.00000000000E+00  0.00000000000E+00  0.45593999997E+02  0.45594000000E+02  0.51100000000E-03 0. -1.
         11   -1    0    0    0    0 -0.00000000000E+00 -0.00000000000E+00 -0.45593999997E+02  0.45594000000E+02  0.51100000000E-03 0.  1.
         23    2    1    2    0    0  0.00000000000E+00  0.44408920985E-15  0.35527136788E-14  0.91188000000E+02  0.91188000000E+02 0.  0.
    9900012    2    3    3    0    0  0.19434606132E+02  0.54855167357E+00  0.31269422458E+02  0.54367060233E+02  0.39999945414E+02 0.  0.
        -12    1    3    3    0    0 -0.19434606132E+02 -0.54855167357E+00 -0.31269422458E+02  0.36820939767E+02  0.00000000000E+00 0.  1.
         11    1    4    4    0    0  0.14171209750E+01 -0.91720863876E+01  0.48164402165E+01  0.10456265929E+02  0.51100000000E-03 0. -1.
        -11    1    4    4    0    0  0.11081303103E+01 -0.54882800064E+00 -0.58783041821E+01  0.60069647309E+01  0.51100000000E-03 0.  1.
        -12    1    4    4    0    0  0.16909354847E+02  0.10269466062E+02  0.32331286424E+02  0.37903829573E+02  0.00000000000E+00 0.  1.
</event>
<event>
 8    1  0.1247338E-006  0.9118800E+02  0.7816164E-02  0.1184000E+00
        -11   -1    0    0    0    0  0.00000000000E+00  0.00000000000E+00  0.45593999997E+02  0.45594000000E+02  0.51100000000E-03 0.  1.
         11   -1    0    0    0    0 -0.00000000000E+00 -0.00000000000E+00 -0.45593999997E+02  0.45594000000E+02  0.51100000000E-03 0. -1.
         23    2    1    2    0    0  0.35527136788E-14  0.00000000000E+00  0.00000000000E+00  0.91188000000E+02  0.91188000000E+02 0.  0.
    9900012    2    3    3    0    0 -0.22424124643E+02  0.56202805948E+01  0.28659241372E+02  0.54367067964E+02  0.39999963038E+02 0.  0.
         12    1    3    3    0    0  0.22424124643E+02 -0.56202805948E+01 -0.28659241372E+02  0.36820932036E+02  0.00000000000E+00 0. -1.
         11    1    4    4    0    0 -0.92467952089E+01 -0.65858627754E+01 -0.33091582037E+01  0.11824861031E+02  0.51100000000E-03 0. -1.
        -11    1    4    4    0    0 -0.45150794360E+01 -0.28481544179E+01  0.21739614236E+02  0.22385458524E+02  0.51100000000E-03 0.  1.
        -12    1    4    4    0    0 -0.86622499980E+01  0.15054297788E+02  0.10228785339E+02  0.20156748409E+02  0.00000000000E+00 0.  1.
</event>
<event>
 8    1  0.1247338E-006  0.9118800E+02  0.7816164E-02  0.1184000E+00
        -11   -1    0    0    0    0  0.00000000000E+00  0.00000000000E+00  0.45593999997E+02  0.45594000000E+02  0.51100000000E-03 0.  1.
         11   -1    0    0    0    0 -0.00000000000E+00 -0.00000000000E+00 -0.45593999997E+02  0.45594000000E+02  0.51100000000E-03 0. -1.
         23    2    1    2    0    0  0.00000000000E+00  0.88817841970E-15 -0.71054273576E-14  0.91188000000E+02  0.91188000000E+02 0.  0.
    9900012    2    3    3    0    0 -0.16555506058E+02  0.74998689140E+01  0.32022605427E+02  0.54367081042E+02  0.39999992852E+02 0.  0.
         12    1    3    3    0    0  0.16555506058E+02 -0.74998689140E+01 -0.32022605427E+02  0.36820918958E+02  0.00000000000E+00 0. -1.
         11    1    4    4    0    0  0.10508406723E+02  0.17435256161E+01  0.22931697077E+01  0.10896105772E+02  0.51100000000E-03 0. -1.
        -11    1    4    4    0    0 -0.65660299571E+01  0.83536446609E+01  0.13602818485E+02  0.17260729982E+02  0.51100000000E-03 0.  1.
         12    1    4    4    0    0 -0.20497882824E+02 -0.25973013630E+01  0.16126617234E+02  0.26210245288E+02  0.00000000000E+00 0. -1.
</event>
<event>
 8    1  0.1247338E-006  0.9118800E+02  0.7816164E-02  0.1184000E+00
        -11   -1    0    0    0    0  0.00000000000E+00  0.00000000000E+00  0.45593999997E+02  0.45594000000E+02  0.51100000000E-03 0.  1.
         11   -1    0    0    0    0 -0.00000000000E+00 -0.00000000000E+00 -0.45593999997E+02  0.45594000000E+02  0.51100000000E-03 0. -1.
         23    2    1    2    0    0  0.00000000000E+00  0.00000000000E+00  0.17763568394E-14  0.91188000000E+02  0.91188000000E+02 0.  0.
    9900012    2    3    3    0    0 -0.26223335444E+02 -0.22536010801E+02  0.12658761672E+02  0.54367090836E+02  0.40000015178E+02 0.  0.
         12    1    3    3    0    0  0.26223335444E+02  0.22536010801E+02 -0.12658761672E+02  0.36820909164E+02  0.00000000000E+00 0. -1.
         11    1    4    4    0    0 -0.11380301397E+02 -0.24353718786E+02 -0.46942359893E+01  0.27288289254E+02  0.51100000000E-03 0. -1.
        -11    1    4    4    0    0 -0.10357088567E+02 -0.20500191796E+01  0.21663763270E+01  0.10777989093E+02  0.51100000000E-03 0.  1.
         12    1    4    4    0    0 -0.44859454795E+01  0.38677271649E+01  0.15186621334E+02  0.16300812489E+02  0.00000000000E+00 0. -1.
</event>
<event>
 8    1  0.1247338E-006  0.9118800E+02  0.7816164E-02  0.1184000E+00
        -11   -1    0    0    0    0  0.00000000000E+00  0.00000000000E+00  0.45593999997E+02  0.45594000000E+02  0.51100000000E-03 0. -1.
         11   -1    0    0    0    0 -0.00000000000E+00 -0.00000000000E+00 -0.45593999997E+02  0.45594000000E+02  0.51100000000E-03 0.  1.
         23    2    1    2    0    0 -0.35527136788E-14 -0.44408920985E-15  0.00000000000E+00  0.91188000000E+02  0.91188000000E+02 0.  0.
    9900012    2    3    3    0    0 -0.27269814859E+02 -0.25284775665E+01 -0.24611872481E+02  0.54367078389E+02  0.39999986803E+02 0.  0.
         12    1    3    3    0    0  0.27269814859E+02  0.25284775665E+01  0.24611872481E+02  0.36820921611E+02  0.00000000000E+00 0. -1.
         11    1    4    4    0    0  0.27960412087E+01 -0.23716560374E+01 -0.32041236464E+01  0.48691896043E+01  0.51100000000E-03 0. -1.
        -11    1    4    4    0    0 -0.35930248672E+02 -0.58997502372E+01 -0.17863659424E+02  0.40557368637E+02  0.51100000000E-03 0.  1.
         12    1    4    4    0    0  0.58643926039E+01  0.57429287081E+01 -0.35440894104E+01  0.89405201475E+01  0.00000000000E+00 0. -1.
</event>
<event>
 8    1  0.1247338E-006  0.9118800E+02  0.7816164E-02  0.1184000E+00
        -11   -1    0    0    0    0  0.00000000000E+00  0.00000000000E+00  0.45593999997E+02  0.45594000000E+02  0.51100000000E-03 0.  1.
         11   -1    0    0    0    0 -0.00000000000E+00 -0.00000000000E+00 -0.45593999997E+02  0.45594000000E+02  0.51100000000E-03 0. -1.
         23    2    1    2    0    0 -0.35527136788E-14  0.00000000000E+00 -0.17763568394E-14  0.91188000000E+02  0.91188000000E+02 0.  0.
    9900012    2    3    3    0    0  0.20654951716E+02  0.28193623848E+02  0.11587601578E+02  0.54367082488E+02  0.39999996148E+02 0.  0.
         12    1    3    3    0    0 -0.20654951716E+02 -0.28193623848E+02 -0.11587601578E+02  0.36820917512E+02  0.00000000000E+00 0. -1.
         11    1    4    4    0    0 -0.35555785228E+01  0.88368478252E+01  0.14438714642E+02  0.17297644317E+02  0.51100000000E-03 0. -1.
        -11    1    4    4    0    0  0.33012640240E+01  0.15079918385E+02  0.60666243832E+00  0.15448958613E+02  0.51100000000E-03 0.  1.
         12    1    4    4    0    0  0.20909266215E+02  0.42768576383E+01 -0.34577755030E+01  0.21620479558E+02  0.00000000000E+00 0. -1.
</event>
<event>
 8    1  0.1247338E-006  0.9118800E+02  0.7816164E-02  0.1184000E+00
        -11   -1    0    0    0    0  0.00000000000E+00  0.00000000000E+00  0.45593999997E+02  0.45594000000E+02  0.51100000000E-03 0. -1.
         11   -1    0    0    0    0 -0.00000000000E+00 -0.00000000000E+00 -0.45593999997E+02  0.45594000000E+02  0.51100000000E-03 0.  1.
         23    2    1    2    0    0 -0.35527136788E-14  0.00000000000E+00  0.00000000000E+00  0.91188000000E+02  0.91188000000E+02 0.  0.
    9900012    2    3    3    0    0  0.30596481074E+02 -0.20433294785E+02 -0.14553939090E+01  0.54367049967E+02  0.39999922010E+02 0.  0.
         12    1    3    3    0    0 -0.30596481074E+02  0.20433294785E+02  0.14553939090E+01  0.36820950033E+02  0.00000000000E+00 0. -1.
         11    1    4    4    0    0  0.53259757638E+01 -0.10621989323E+02  0.13448571650E+02  0.17945939783E+02  0.51100000000E-03 0. -1.
        -11    1    4    4    0    0  0.86716894373E+01 -0.13652515402E+02 -0.66136826087E+01  0.17473699448E+02  0.51100000000E-03 0.  1.
         12    1    4    4    0    0  0.16598815873E+02  0.38412099399E+01 -0.82902829501E+01  0.18947410736E+02  0.00000000000E+00 0. -1.
</event>
<event>
 8    1  0.1247338E-006  0.9118800E+02  0.7816164E-02  0.1184000E+00
        -11   -1    0    0    0    0  0.00000000000E+00  0.00000000000E+00  0.45593999997E+02  0.45594000000E+02  0.51100000000E-03 0.  1.
         11   -1    0    0    0    0 -0.00000000000E+00 -0.00000000000E+00 -0.45593999997E+02  0.45594000000E+02  0.51100000000E-03 0. -1.
         23    2    1    2    0    0  0.35527136788E-14 -0.17763568394E-14  0.35527136788E-14  0.91188000000E+02  0.91188000000E+02 0.  0.
    9900012    2    3    3    0    0  0.30232202516E+02  0.40998813485E+01  0.20615163894E+02  0.54367080968E+02  0.39999992682E+02 0.  0.
         12    1    3    3    0    0 -0.30232202516E+02 -0.40998813485E+01 -0.20615163894E+02  0.36820919032E+02  0.00000000000E+00 0. -1.
         11    1    4    4    0    0 -0.25717141624E+01  0.47575156515E+00  0.72111449284E+01  0.76707668928E+01  0.51100000000E-03 0.  1.
        -11    1    4    4    0    0  0.14616073886E+02  0.13596033495E+02 -0.30846164752E+01  0.20198925756E+02  0.51100000000E-03 0. -1.
        -12    1    4    4    0    0  0.18187842792E+02 -0.99719037114E+01  0.16488635440E+02  0.26497388319E+02  0.00000000000E+00 0.  1.
</event>
<event>
 8    1  0.1247338E-006  0.9118800E+02  0.7816164E-02  0.1184000E+00
        -11   -1    0    0    0    0  0.00000000000E+00  0.00000000000E+00  0.45593999997E+02  0.45594000000E+02  0.51100000000E-03 0. -1.
         11   -1    0    0    0    0 -0.00000000000E+00 -0.00000000000E+00 -0.45593999997E+02  0.45594000000E+02  0.51100000000E-03 0.  1.
         23    2    1    2    0    0  0.00000000000E+00 -0.17763568394E-14  0.35527136788E-14  0.91188000000E+02  0.91188000000E+02 0.  0.
    9900012    2    3    3    0    0 -0.28123831510E+02 -0.10229980984E+02  0.21451745102E+02  0.54367085051E+02  0.40000001991E+02 0.  0.
        -12    1    3    3    0    0  0.28123831510E+02  0.10229980984E+02 -0.21451745102E+02  0.36820914949E+02  0.00000000000E+00 0.  1.
         11    1    4    4    0    0 -0.12236383730E+02 -0.29886765457E+01 -0.42074884690E+00  0.12603106924E+02  0.51100000000E-03 0. -1.
        -11    1    4    4    0    0 -0.14984070602E+02 -0.27272687994E+01  0.29302051036E+02  0.33023787821E+02  0.51100000000E-03 0.  1.
        -12    1    4    4    0    0 -0.90337717767E+00 -0.45140356392E+01 -0.74295570866E+01  0.87401903058E+01  0.00000000000E+00 0.  1.
</event>
<event>
 8    1  0.1247338E-006  0.9118800E+02  0.7816164E-02  0.1184000E+00
        -11   -1    0    0    0    0  0.00000000000E+00  0.00000000000E+00  0.45593999997E+02  0.45594000000E+02  0.51100000000E-03 0.  1.
         11   -1    0    0    0    0 -0.00000000000E+00 -0.00000000000E+00 -0.45593999997E+02  0.45594000000E+02  0.51100000000E-03 0. -1.
         23    2    1    2    0    0 -0.35527136788E-14  0.00000000000E+00 -0.17763568394E-14  0.91188000000E+02  0.91188000000E+02 0.  0.
    9900012    2    3    3    0    0  0.29390509157E+02 -0.16496199746E+02 -0.14827448680E+02  0.54367083812E+02  0.39999999167E+02 0.  0.
         12    1    3    3    0    0 -0.29390509157E+02  0.16496199746E+02  0.14827448680E+02  0.36820916188E+02  0.00000000000E+00 0. -1.
         11    1    4    4    0    0  0.53336376164E+01 -0.84133432727E+01 -0.17910203909E+02  0.20494083038E+02  0.51100000000E-03 0. -1.
        -11    1    4    4    0    0  0.17641448998E+02 -0.14901690238E+02  0.63615532729E+01  0.23953088631E+02  0.51100000000E-03 0.  1.
        -12    1    4    4    0    0  0.64154225428E+01  0.68188337646E+01 -0.32787980442E+01  0.99199121431E+01  0.00000000000E+00 0.  1.
</event>
<event>
 8    1  0.1247338E-006  0.9118800E+02  0.7816164E-02  0.1184000E+00
        -11   -1    0    0    0    0  0.00000000000E+00  0.00000000000E+00  0.45593999997E+02  0.45594000000E+02  0.51100000000E-03 0. -1.
         11   -1    0    0    0    0 -0.00000000000E+00 -0.00000000000E+00 -0.45593999997E+02  0.45594000000E+02  0.51100000000E-03 0.  1.
         23    2    1    2    0    0  0.00000000000E+00 -0.88817841970E-15  0.17763568394E-14  0.91188000000E+02  0.91188000000E+02 0.  0.
    9900012    2    3    3    0    0 -0.33958019213E+02  0.60367342726E+01 -0.12891454648E+02  0.54367097886E+02  0.40000031250E+02 0.  0.
         12    1    3    3    0    0  0.33958019213E+02 -0.60367342726E+01  0.12891454648E+02  0.36820902114E+02  0.00000000000E+00 0. -1.
         11    1    4    4    0    0 -0.18693713329E+02  0.58350694970E+01  0.10214152039E+01  0.19609850671E+02  0.51100000000E-03 0. -1.
        -11    1    4    4    0    0 -0.18806511026E+02 -0.46865212572E+00  0.15534014406E+01  0.18876375396E+02  0.51100000000E-03 0.  1.
        -12    1    4    4    0    0  0.35422051423E+01  0.67031690126E+00 -0.15466271293E+02  0.15880871819E+02  0.00000000000E+00 0.  1.
</event>
<event>
 8    1  0.1247338E-006  0.9118800E+02  0.7816164E-02  0.1184000E+00
        -11   -1    0    0    0    0  0.00000000000E+00  0.00000000000E+00  0.45593999997E+02  0.45594000000E+02  0.51100000000E-03 0. -1.
         11   -1    0    0    0    0 -0.00000000000E+00 -0.00000000000E+00 -0.45593999997E+02  0.45594000000E+02  0.51100000000E-03 0.  1.
         23    2    1    2    0    0  0.44408920985E-15  0.00000000000E+00  0.00000000000E+00  0.91188000000E+02  0.91188000000E+02 0.  0.
    9900012    2    3    3    0    0 -0.21240066965E+01  0.12464147253E+02 -0.34581985368E+02  0.54367080903E+02  0.39999992534E+02 0.  0.
         12    1    3    3    0    0  0.21240066965E+01 -0.12464147253E+02  0.34581985368E+02  0.36820919097E+02  0.00000000000E+00 0. -1.
         11    1    4    4    0    0  0.16281384861E+02  0.40645806617E+01 -0.23074560544E+02  0.28531380154E+02  0.51100000000E-03 0. -1.
        -11    1    4    4    0    0 -0.53835995507E+01  0.83759469233E+01 -0.64652529163E+01  0.11871778574E+02  0.51100000000E-03 0.  1.
         12    1    4    4    0    0 -0.13021792006E+02  0.23619668254E-01 -0.50421719071E+01  0.13963922174E+02  0.00000000000E+00 0. -1.
</event>
<event>
 8    1  0.1247338E-006  0.9118800E+02  0.7816164E-02  0.1184000E+00
        -11   -1    0    0    0    0  0.00000000000E+00  0.00000000000E+00  0.45593999997E+02  0.45594000000E+02  0.51100000000E-03 0. -1.
         11   -1    0    0    0    0 -0.00000000000E+00 -0.00000000000E+00 -0.45593999997E+02  0.45594000000E+02  0.51100000000E-03 0.  1.
         23    2    1    2    0    0  0.00000000000E+00 -0.17763568394E-14 -0.35527136788E-14  0.91188000000E+02  0.91188000000E+02 0.  0.
    9900012    2    3    3    0    0 -0.29496648920E+02  0.92141553409E+01  0.20020765738E+02  0.54367027486E+02  0.39999870759E+02 0.  0.
        -12    1    3    3    0    0  0.29496648920E+02 -0.92141553409E+01 -0.20020765738E+02  0.36820972514E+02  0.00000000000E+00 0.  1.
         11    1    4    4    0    0 -0.24574519797E+01 -0.85595513224E+01  0.13301514957E+02  0.16007351108E+02  0.51100000000E-03 0. -1.
        -11    1    4    4    0    0 -0.25319416634E+02  0.67391831511E+01  0.21354388115E+01  0.26287821275E+02  0.51100000000E-03 0.  1.
        -12    1    4    4    0    0 -0.17197803067E+01  0.11034523512E+02  0.45838119694E+01  0.12071855103E+02  0.00000000000E+00 0.  1.
</event>
<event>
 8    1  0.1247338E-006  0.9118800E+02  0.7816164E-02  0.1184000E+00
        -11   -1    0    0    0    0  0.00000000000E+00  0.00000000000E+00  0.45593999997E+02  0.45594000000E+02  0.51100000000E-03 0.  1.
         11   -1    0    0    0    0 -0.00000000000E+00 -0.00000000000E+00 -0.45593999997E+02  0.45594000000E+02  0.51100000000E-03 0. -1.
         23    2    1    2    0    0  0.00000000000E+00  0.00000000000E+00  0.17763568394E-14  0.91188000000E+02  0.91188000000E+02 0.  0.
    9900012    2    3    3    0    0 -0.33108623988E+02 -0.52151626887E+01 -0.15244709846E+02  0.54367080911E+02  0.39999992554E+02 0.  0.
        -12    1    3    3    0    0  0.33108623988E+02  0.52151626887E+01  0.15244709846E+02  0.36820919089E+02  0.00000000000E+00 0.  1.
         11    1    4    4    0    0 -0.23431001234E+02  0.60108003755E+01 -0.11289439778E+02  0.26694437450E+02  0.51100000000E-03 0. -1.
        -11    1    4    4    0    0 -0.13434535875E+02 -0.49306322717E+01  0.58240674323E+01  0.15450490299E+02  0.51100000000E-03 0.  1.
         12    1    4    4    0    0  0.37569131213E+01 -0.62953307926E+01 -0.97793374999E+01  0.12222153162E+02  0.00000000000E+00 0. -1.
</event>
<event>
 8    1  0.1247338E-006  0.9118800E+02  0.7816164E-02  0.1184000E+00
        -11   -1    0    0    0    0  0.00000000000E+00  0.00000000000E+00  0.45593999997E+02  0.45594000000E+02  0.51100000000E-03 0.  1.
         11   -1    0    0    0    0 -0.00000000000E+00 -0.00000000000E+00 -0.45593999997E+02  0.45594000000E+02  0.51100000000E-03 0. -1.
         23    2    1    2    0    0  0.00000000000E+00 -0.44408920985E-15  0.00000000000E+00  0.91188000000E+02  0.91188000000E+02 0.  0.
    9900012    2    3    3    0    0 -0.26189509475E+02 -0.31658983825E+01 -0.25687884322E+02  0.54367072254E+02  0.39999972818E+02 0.  0.
        -12    1    3    3    0    0  0.26189509475E+02  0.31658983825E+01  0.25687884322E+02  0.36820927746E+02  0.00000000000E+00 0.  1.
         11    1    4    4    0    0 -0.48392085546E+01 -0.47123950891E+00 -0.15961370262E+02  0.16685483122E+02  0.51100000000E-03 0. -1.
        -11    1    4    4    0    0 -0.17355283187E+02 -0.54393229236E+01  0.75838005170E+01  0.19705484488E+02  0.51100000000E-03 0.  1.
        -12    1    4    4    0    0 -0.39950177336E+01  0.27446640500E+01 -0.17310314577E+02  0.17976104645E+02  0.00000000000E+00 0.  1.
</event>
<event>
 8    1  0.1247338E-006  0.9118800E+02  0.7816164E-02  0.1184000E+00
        -11   -1    0    0    0    0  0.00000000000E+00  0.00000000000E+00  0.45593999997E+02  0.45594000000E+02  0.51100000000E-03 0.  1.
         11   -1    0    0    0    0 -0.00000000000E+00 -0.00000000000E+00 -0.45593999997E+02  0.45594000000E+02  0.51100000000E-03 0. -1.
         23    2    1    2    0    0  0.00000000000E+00  0.00000000000E+00  0.00000000000E+00  0.91188000000E+02  0.91188000000E+02 0.  0.
    9900012    2    3    3    0    0 -0.17222615345E+02  0.12596293637E+02  0.30008229962E+02  0.54367096180E+02  0.40000027361E+02 0.  0.
         12    1    3    3    0    0  0.17222615345E+02 -0.12596293637E+02 -0.30008229962E+02  0.36820903820E+02  0.00000000000E+00 0. -1.
         11    1    4    4    0    0  0.44620224570E+00 -0.17585590206E+01  0.33326630561E+01  0.37945051824E+01  0.51100000000E-03 0. -1.
        -11    1    4    4    0    0 -0.20532497020E+02  0.11161935669E+02 -0.18569857815E+00  0.23371066000E+02  0.51100000000E-03 0.  1.
        -12    1    4    4    0    0  0.28636794298E+01  0.31929169890E+01  0.26861265484E+02  0.27201524997E+02  0.00000000000E+00 0.  1.
</event>
<event>
 8    1  0.1247338E-006  0.9118800E+02  0.7816164E-02  0.1184000E+00
        -11   -1    0    0    0    0  0.00000000000E+00  0.00000000000E+00  0.45593999997E+02  0.45594000000E+02  0.51100000000E-03 0. -1.
         11   -1    0    0    0    0 -0.00000000000E+00 -0.00000000000E+00 -0.45593999997E+02  0.45594000000E+02  0.51100000000E-03 0.  1.
         23    2    1    2    0    0 -0.35527136788E-14 -0.88817841970E-15  0.00000000000E+00  0.91188000000E+02  0.91188000000E+02 0.  0.
    9900012    2    3    3    0    0  0.21327716940E+02  0.45052683545E+01 -0.29675137162E+02  0.54367045118E+02  0.39999910956E+02 0.  0.
         12    1    3    3    0    0 -0.21327716940E+02 -0.45052683545E+01  0.29675137162E+02  0.36820954882E+02  0.00000000000E+00 0. -1.
         11    1    4    4    0    0  0.11054717078E+02 -0.20891829678E+01 -0.34751953005E+01  0.11774907125E+02  0.51100000000E-03 0. -1.
        -11    1    4    4    0    0  0.29691555525E+01 -0.12638935087E+02 -0.93563517384E+01  0.16003121038E+02  0.51100000000E-03 0.  1.
         12    1    4    4    0    0  0.73038443093E+01  0.19233386409E+02 -0.16843590123E+02  0.26589016956E+02  0.00000000000E+00 0. -1.
</event>
<event>
 8    1  0.1247338E-006  0.9118800E+02  0.7816164E-02  0.1184000E+00
        -11   -1    0    0    0    0  0.00000000000E+00  0.00000000000E+00  0.45593999997E+02  0.45594000000E+02  0.51100000000E-03 0.  1.
         11   -1    0    0    0    0 -0.00000000000E+00 -0.00000000000E+00 -0.45593999997E+02  0.45594000000E+02  0.51100000000E-03 0. -1.
         23    2    1    2    0    0 -0.88817841970E-15  0.00000000000E+00  0.00000000000E+00  0.91188000000E+02  0.91188000000E+02 0.  0.
    9900012    2    3    3    0    0 -0.57869835206E+01  0.26720394162E+02  0.24663991207E+02  0.54367067031E+02  0.39999960911E+02 0.  0.
         12    1    3    3    0    0  0.57869835206E+01 -0.26720394162E+02 -0.24663991207E+02  0.36820932969E+02  0.00000000000E+00 0. -1.
         11    1    4    4    0    0 -0.10006602301E+02  0.60157968450E+01 -0.33449976310E+01  0.12145406979E+02  0.51100000000E-03 0. -1.
        -11    1    4    4    0    0 -0.98048505747E+00 -0.17036406826E+00  0.18790507912E+02  0.18816842527E+02  0.51100000000E-03 0.  1.
        -12    1    4    4    0    0  0.52001038375E+01  0.20874961385E+02  0.92184809262E+01  0.23404817524E+02  0.00000000000E+00 0.  1.
</event>
<event>
 8    1  0.1247338E-006  0.9118800E+02  0.7816164E-02  0.1184000E+00
        -11   -1    0    0    0    0  0.00000000000E+00  0.00000000000E+00  0.45593999997E+02  0.45594000000E+02  0.51100000000E-03 0.  1.
         11   -1    0    0    0    0 -0.00000000000E+00 -0.00000000000E+00 -0.45593999997E+02  0.45594000000E+02  0.51100000000E-03 0. -1.
         23    2    1    2    0    0  0.35527136788E-14  0.00000000000E+00 -0.35527136788E-14  0.91188000000E+02  0.91188000000E+02 0.  0.
    9900012    2    3    3    0    0  0.18231758356E+02 -0.21689160932E+02 -0.23515118089E+02  0.54367116070E+02  0.40000072704E+02 0.  0.
        -12    1    3    3    0    0 -0.18231758356E+02  0.21689160932E+02  0.23515118089E+02  0.36820883930E+02  0.00000000000E+00 0.  1.
         11    1    4    4    0    0 -0.48801912193E+01  0.36562655932E+01 -0.62071673828E+01  0.87013488382E+01  0.51100000000E-03 0. -1.
        -11    1    4    4    0    0  0.18535900001E+01  0.23278863160E+01  0.38428603895E+01  0.48602908167E+01  0.51100000000E-03 0.  1.
        -12    1    4    4    0    0  0.21258359575E+02 -0.27673312841E+02 -0.21150811095E+02  0.40805476415E+02  0.00000000000E+00 0.  1.
</event>
<event>
 8    1  0.1247338E-006  0.9118800E+02  0.7816164E-02  0.1184000E+00
        -11   -1    0    0    0    0  0.00000000000E+00  0.00000000000E+00  0.45593999997E+02  0.45594000000E+02  0.51100000000E-03 0.  1.
         11   -1    0    0    0    0 -0.00000000000E+00 -0.00000000000E+00 -0.45593999997E+02  0.45594000000E+02  0.51100000000E-03 0. -1.
         23    2    1    2    0    0  0.00000000000E+00  0.00000000000E+00 -0.35527136788E-14  0.91188000000E+02  0.91188000000E+02 0.  0.
    9900012    2    3    3    0    0 -0.20760320619E+02 -0.82253059505E+01  0.29276836496E+02  0.54367085761E+02  0.40000003609E+02 0.  0.
         12    1    3    3    0    0  0.20760320619E+02  0.82253059505E+01 -0.29276836496E+02  0.36820914239E+02  0.00000000000E+00 0. -1.
         11    1    4    4    0    0  0.33131543981E+01 -0.10226432453E+02  0.35163764236E+00  0.10755489857E+02  0.51100000000E-03 0. -1.
        -11    1    4    4    0    0 -0.27945565043E+02  0.30007607336E+01  0.27617604056E+02  0.39404203134E+02  0.51100000000E-03 0.  1.
        -12    1    4    4    0    0  0.38720900258E+01 -0.99963423149E+00  0.13075947977E+01  0.42073927699E+01  0.00000000000E+00 0.  1.
</event>
<event>
 8    1  0.1247338E-006  0.9118800E+02  0.7816164E-02  0.1184000E+00
        -11   -1    0    0    0    0  0.00000000000E+00  0.00000000000E+00  0.45593999997E+02  0.45594000000E+02  0.51100000000E-03 0.  1.
         11   -1    0    0    0    0 -0.00000000000E+00 -0.00000000000E+00 -0.45593999997E+02  0.45594000000E+02  0.51100000000E-03 0. -1.
         23    2    1    2    0    0  0.00000000000E+00  0.00000000000E+00  0.00000000000E+00  0.91188000000E+02  0.91188000000E+02 0.  0.
    9900012    2    3    3    0    0  0.86899942267E+01  0.94124462145E+01  0.34520561397E+02  0.54367091503E+02  0.40000016699E+02 0.  0.
         12    1    3    3    0    0 -0.86899942267E+01 -0.94124462145E+01 -0.34520561397E+02  0.36820908497E+02  0.00000000000E+00 0. -1.
         11    1    4    4    0    0 -0.20613747876E+00 -0.41388647975E+01 -0.12416566547E+01  0.43260150233E+01  0.51100000000E-03 0. -1.
        -11    1    4    4    0    0  0.11466227014E+02  0.83184769362E+01  0.36872416292E+00  0.14170652005E+02  0.51100000000E-03 0.  1.
        -12    1    4    4    0    0 -0.25700953081E+01  0.52328340758E+01  0.35393493889E+02  0.35870424475E+02  0.00000000000E+00 0.  1.
</event>
<event>
 8    1  0.1247338E-006  0.9118800E+02  0.7816164E-02  0.1184000E+00
        -11   -1    0    0    0    0  0.00000000000E+00  0.00000000000E+00  0.45593999997E+02  0.45594000000E+02  0.51100000000E-03 0.  1.
         11   -1    0    0    0    0 -0.00000000000E+00 -0.00000000000E+00 -0.45593999997E+02  0.45594000000E+02  0.51100000000E-03 0. -1.
         23    2    1    2    0    0  0.00000000000E+00  0.00000000000E+00 -0.17763568394E-14  0.91188000000E+02  0.91188000000E+02 0.  0.
    9900012    2    3    3    0    0  0.32111695492E+02  0.93753937364E+01 -0.15385752533E+02  0.54367076925E+02  0.39999983466E+02 0.  0.
        -12    1    3    3    0    0 -0.32111695492E+02 -0.93753937364E+01  0.15385752533E+02  0.36820923075E+02  0.00000000000E+00 0.  1.
         11    1    4    4    0    0  0.10771148243E+02  0.27990854182E+01 -0.15326328980E+02  0.18940667198E+02  0.51100000000E-03 0. -1.
        -11    1    4    4    0    0  0.23362510644E+01  0.75617795917E+01 -0.10942249274E+02  0.13504495513E+02  0.51100000000E-03 0.  1.
        -12    1    4    4    0    0  0.19004296185E+02 -0.98547127354E+00  0.10882825721E+02  0.21921914214E+02  0.00000000000E+00 0.  1.
</event>
<event>
 8    1  0.1247338E-006  0.9118800E+02  0.7816164E-02  0.1184000E+00
        -11   -1    0    0    0    0  0.00000000000E+00  0.00000000000E+00  0.45593999997E+02  0.45594000000E+02  0.51100000000E-03 0.  1.
         11   -1    0    0    0    0 -0.00000000000E+00 -0.00000000000E+00 -0.45593999997E+02  0.45594000000E+02  0.51100000000E-03 0. -1.
         23    2    1    2    0    0  0.00000000000E+00  0.35527136788E-14  0.00000000000E+00  0.91188000000E+02  0.91188000000E+02 0.  0.
    9900012    2    3    3    0    0 -0.24250808437E+02  0.16221436162E+02 -0.22462047030E+02  0.54367078532E+02  0.39999987129E+02 0.  0.
        -12    1    3    3    0    0  0.24250808437E+02 -0.16221436162E+02  0.22462047030E+02  0.36820921468E+02  0.00000000000E+00 0.  1.
         11    1    4    4    0    0  0.65636586494E+01 -0.18700972557E+01 -0.61843227804E+01  0.92100340458E+01  0.51100000000E-03 0. -1.
        -11    1    4    4    0    0  0.25790138673E+01  0.17884144914E+01  0.20235063286E+01  0.37342090252E+01  0.51100000000E-03 0.  1.
         12    1    4    4    0    0 -0.33393480954E+02  0.16303118926E+02 -0.18301230578E+02  0.41422835461E+02  0.00000000000E+00 0. -1.
</event>
<event>
 8    1  0.1247338E-006  0.9118800E+02  0.7816164E-02  0.1184000E+00
        -11   -1    0    0    0    0  0.00000000000E+00  0.00000000000E+00  0.45593999997E+02  0.45594000000E+02  0.51100000000E-03 0.  1.
         11   -1    0    0    0    0 -0.00000000000E+00 -0.00000000000E+00 -0.45593999997E+02  0.45594000000E+02  0.51100000000E-03 0. -1.
         23    2    1    2    0    0 -0.71054273576E-14  0.00000000000E+00  0.00000000000E+00  0.91188000000E+02  0.91188000000E+02 0.  0.
    9900012    2    3    3    0    0  0.26725335966E+02  0.13042301744E+02 -0.21712549925E+02  0.54367081469E+02  0.39999993824E+02 0.  0.
        -12    1    3    3    0    0 -0.26725335966E+02 -0.13042301744E+02  0.21712549925E+02  0.36820918531E+02  0.00000000000E+00 0.  1.
         11    1    4    4    0    0  0.15791847824E+02  0.16660246421E+02 -0.89853191914E+01  0.24651211527E+02  0.51100000000E-03 0. -1.
        -11    1    4    4    0    0 -0.70655281504E+01 -0.63010848647E+00 -0.83433611020E+01  0.10951273875E+02  0.51100000000E-03 0.  1.
        -12    1    4    4    0    0  0.17999016292E+02 -0.29878361913E+01 -0.43838696316E+01  0.18764596067E+02  0.00000000000E+00 0.  1.
</event>
<event>
 8    1  0.1247338E-006  0.9118800E+02  0.7816164E-02  0.1184000E+00
        -11   -1    0    0    0    0  0.00000000000E+00  0.00000000000E+00  0.45593999997E+02  0.45594000000E+02  0.51100000000E-03 0.  1.
         11   -1    0    0    0    0 -0.00000000000E+00 -0.00000000000E+00 -0.45593999997E+02  0.45594000000E+02  0.51100000000E-03 0. -1.
         23    2    1    2    0    0  0.00000000000E+00 -0.13322676296E-14  0.00000000000E+00  0.91188000000E+02  0.91188000000E+02 0.  0.
    9900012    2    3    3    0    0  0.26932906501E+02  0.92818485719E+00 -0.25090563928E+02  0.54367090479E+02  0.40000014364E+02 0.  0.
        -12    1    3    3    0    0 -0.26932906501E+02 -0.92818485719E+00  0.25090563928E+02  0.36820909521E+02  0.00000000000E+00 0.  1.
         11    1    4    4    0    0  0.21730803433E+02  0.11489051574E+02 -0.16544523434E+02  0.29630176844E+02  0.51100000000E-03 0. -1.
        -11    1    4    4    0    0 -0.56270220674E+01  0.25386673089E+01 -0.29617958910E+01  0.68469295463E+01  0.51100000000E-03 0.  1.
         12    1    4    4    0    0  0.10829125136E+02 -0.13099534025E+02 -0.55842446037E+01  0.17889984089E+02  0.00000000000E+00 0. -1.
</event>
<event>
 8    1  0.1247338E-006  0.9118800E+02  0.7816164E-02  0.1184000E+00
        -11   -1    0    0    0    0  0.00000000000E+00  0.00000000000E+00  0.45593999997E+02  0.45594000000E+02  0.51100000000E-03 0. -1.
         11   -1    0    0    0    0 -0.00000000000E+00 -0.00000000000E+00 -0.45593999997E+02  0.45594000000E+02  0.51100000000E-03 0.  1.
         23    2    1    2    0    0  0.00000000000E+00 -0.17763568394E-14  0.00000000000E+00  0.91188000000E+02  0.91188000000E+02 0.  0.
    9900012    2    3    3    0    0 -0.32336791318E+02  0.15749278988E+02 -0.78786273668E+01  0.54367073469E+02  0.39999975588E+02 0.  0.
         12    1    3    3    0    0  0.32336791318E+02 -0.15749278988E+02  0.78786273668E+01  0.36820926531E+02  0.00000000000E+00 0. -1.
         11    1    4    4    0    0  0.43638243987E+01  0.12040625171E+01 -0.53356496590E+00  0.45582257251E+01  0.51100000000E-03 0. -1.
        -11    1    4    4    0    0  0.37624760989E+01  0.57087085990E+01 -0.47218649063E+01  0.83091268325E+01  0.51100000000E-03 0.  1.
        -12    1    4    4    0    0 -0.40463091816E+02  0.88365078722E+01 -0.26231974945E+01  0.41499720912E+02  0.00000000000E+00 0.  1.
</event>
<event>
 8    1  0.1247338E-006  0.9118800E+02  0.7816164E-02  0.1184000E+00
        -11   -1    0    0    0    0  0.00000000000E+00  0.00000000000E+00  0.45593999997E+02  0.45594000000E+02  0.51100000000E-03 0.  1.
         11   -1    0    0    0    0 -0.00000000000E+00 -0.00000000000E+00 -0.45593999997E+02  0.45594000000E+02  0.51100000000E-03 0. -1.
         23    2    1    2    0    0 -0.17763568394E-14  0.00000000000E+00 -0.35527136788E-14  0.91188000000E+02  0.91188000000E+02 0.  0.
    9900012    2    3    3    0    0 -0.12585397701E+02 -0.17709373084E+02 -0.29728195327E+02  0.54367085730E+02  0.40000003538E+02 0.  0.
        -12    1    3    3    0    0  0.12585397701E+02  0.17709373084E+02  0.29728195327E+02  0.36820914270E+02  0.00000000000E+00 0.  1.
         11    1    4    4    0    0 -0.17208356904E+02 -0.22300206731E+01 -0.50044178560E+01  0.18059477786E+02  0.51100000000E-03 0. -1.
        -11    1    4    4    0    0  0.91278383047E+00  0.12052516448E+01  0.32164243577E+01  0.35540387953E+01  0.51100000000E-03 0.  1.
         12    1    4    4    0    0  0.37101753729E+01 -0.16684604055E+02 -0.27940201829E+02  0.32753569149E+02  0.00000000000E+00 0. -1.
</event>
<event>
 8    1  0.1247338E-006  0.9118800E+02  0.7816164E-02  0.1184000E+00
        -11   -1    0    0    0    0  0.00000000000E+00  0.00000000000E+00  0.45593999997E+02  0.45594000000E+02  0.51100000000E-03 0.  1.
         11   -1    0    0    0    0 -0.00000000000E+00 -0.00000000000E+00 -0.45593999997E+02  0.45594000000E+02  0.51100000000E-03 0. -1.
         23    2    1    2    0    0  0.00000000000E+00  0.00000000000E+00 -0.29143354396E-15  0.91188000000E+02  0.91188000000E+02 0.  0.
    9900012    2    3    3    0    0  0.54104167706E+01 -0.36421175269E+02 -0.72521480780E-01  0.54367083703E+02  0.39999998918E+02 0.  0.
        -12    1    3    3    0    0 -0.54104167706E+01  0.36421175269E+02  0.72521480780E-01  0.36820916297E+02  0.00000000000E+00 0.  1.
         11    1    4    4    0    0 -0.11213987631E+01 -0.33126090165E+01  0.78605487236E+01  0.86034376955E+01  0.51100000000E-03 0. -1.
        -11    1    4    4    0    0  0.30516726535E+01 -0.23806099973E+01 -0.13760950095E+02  0.14294885719E+02  0.51100000000E-03 0.  1.
        -12    1    4    4    0    0  0.34801428802E+01 -0.30727956255E+02  0.58278798907E+01  0.31468760288E+02  0.00000000000E+00 0.  1.
</event>
<event>
 8    1  0.1247338E-006  0.9118800E+02  0.7816164E-02  0.1184000E+00
        -11   -1    0    0    0    0  0.00000000000E+00  0.00000000000E+00  0.45593999997E+02  0.45594000000E+02  0.51100000000E-03 0. -1.
         11   -1    0    0    0    0 -0.00000000000E+00 -0.00000000000E+00 -0.45593999997E+02  0.45594000000E+02  0.51100000000E-03 0.  1.
         23    2    1    2    0    0  0.00000000000E+00  0.00000000000E+00  0.00000000000E+00  0.91188000000E+02  0.91188000000E+02 0.  0.
    9900012    2    3    3    0    0  0.27087377923E+02 -0.24804005680E+02 -0.26105665469E+01  0.54367084772E+02  0.40000001356E+02 0.  0.
         12    1    3    3    0    0 -0.27087377923E+02  0.24804005680E+02  0.26105665469E+01  0.36820915228E+02  0.00000000000E+00 0. -1.
         11    1    4    4    0    0  0.19107745816E+02 -0.19662616188E+02 -0.11370223325E+02  0.29681752042E+02  0.51100000000E-03 0. -1.
        -11    1    4    4    0    0 -0.72281853270E+01 -0.16750876657E+01  0.19914623055E+01  0.76823501732E+01  0.51100000000E-03 0.  1.
         12    1    4    4    0    0  0.15207817433E+02 -0.34663018268E+01  0.67681944730E+01  0.17002982558E+02  0.00000000000E+00 0. -1.
</event>
<event>
 8    1  0.1247338E-006  0.9118800E+02  0.7816164E-02  0.1184000E+00
        -11   -1    0    0    0    0  0.00000000000E+00  0.00000000000E+00  0.45593999997E+02  0.45594000000E+02  0.51100000000E-03 0.  1.
         11   -1    0    0    0    0 -0.00000000000E+00 -0.00000000000E+00 -0.45593999997E+02  0.45594000000E+02  0.51100000000E-03 0. -1.
         23    2    1    2    0    0 -0.35527136788E-14 -0.35527136788E-14  0.00000000000E+00  0.91188000000E+02  0.91188000000E+02 0.  0.
    9900012    2    3    3    0    0 -0.17865282707E+02  0.26873381933E+02 -0.17732251939E+02  0.54367085541E+02  0.40000003108E+02 0.  0.
        -12    1    3    3    0    0  0.17865282707E+02 -0.26873381933E+02  0.17732251939E+02  0.36820914459E+02  0.00000000000E+00 0.  1.
         11    1    4    4    0    0 -0.86281710064E+01  0.69294453181E+01 -0.12968784204E+02  0.17048516397E+02  0.51100000000E-03 0. -1.
        -11    1    4    4    0    0  0.41501189809E+01  0.16128103550E+02  0.79612655919E+01  0.18458628383E+02  0.51100000000E-03 0.  1.
        -12    1    4    4    0    0 -0.13387230682E+02  0.38158330650E+01 -0.12724733327E+02  0.18859940762E+02  0.00000000000E+00 0.  1.
</event>
<event>
 8    1  0.1247338E-006  0.9118800E+02  0.7816164E-02  0.1184000E+00
        -11   -1    0    0    0    0  0.00000000000E+00  0.00000000000E+00  0.45593999997E+02  0.45594000000E+02  0.51100000000E-03 0.  1.
         11   -1    0    0    0    0 -0.00000000000E+00 -0.00000000000E+00 -0.45593999997E+02  0.45594000000E+02  0.51100000000E-03 0. -1.
         23    2    1    2    0    0  0.00000000000E+00 -0.17763568394E-14  0.00000000000E+00  0.91188000000E+02  0.91188000000E+02 0.  0.
    9900012    2    3    3    0    0 -0.26310222765E+02  0.13745484790E+02 -0.21785855387E+02  0.54366950735E+02  0.39999695789E+02 0.  0.
        -12    1    3    3    0    0  0.26310222765E+02 -0.13745484790E+02  0.21785855387E+02  0.36821049265E+02  0.00000000000E+00 0.  1.
         11    1    4    4    0    0 -0.19825010464E+02 -0.31693782724E+01 -0.16810028628E+02  0.26184977778E+02  0.51100000000E-03 0. -1.
        -11    1    4    4    0    0 -0.11883133950E+01 -0.42696419320E+01  0.25154925221E+01  0.50960409969E+01  0.51100000000E-03 0.  1.
         12    1    4    4    0    0 -0.52968989062E+01  0.21184504994E+02 -0.74913192809E+01  0.23085931960E+02  0.00000000000E+00 0. -1.
</event>
<event>
 8    1  0.1247338E-006  0.9118800E+02  0.7816164E-02  0.1184000E+00
        -11   -1    0    0    0    0  0.00000000000E+00  0.00000000000E+00  0.45593999997E+02  0.45594000000E+02  0.51100000000E-03 0.  1.
         11   -1    0    0    0    0 -0.00000000000E+00 -0.00000000000E+00 -0.45593999997E+02  0.45594000000E+02  0.51100000000E-03 0. -1.
         23    2    1    2    0    0  0.35527136788E-14  0.00000000000E+00  0.35527136788E-14  0.91188000000E+02  0.91188000000E+02 0.  0.
    9900012    2    3    3    0    0 -0.27611130360E+02 -0.11886670040E+02 -0.21262935735E+02  0.54367083655E+02  0.39999998808E+02 0.  0.
        -12    1    3    3    0    0  0.27611130360E+02  0.11886670040E+02  0.21262935735E+02  0.36820916345E+02  0.00000000000E+00 0.  1.
         11    1    4    4    0    0 -0.10210204045E+02  0.44948109288E+01 -0.76450406383E+01  0.13523987524E+02  0.51100000000E-03 0. -1.
        -11    1    4    4    0    0 -0.12307098188E+02 -0.22314313867E+02 -0.18619541184E+02  0.31560744340E+02  0.51100000000E-03 0.  1.
        -12    1    4    4    0    0 -0.50938281279E+01  0.59328328977E+01  0.50016460876E+01  0.92823517911E+01  0.00000000000E+00 0.  1.
</event>
<event>
 8    1  0.1247338E-006  0.9118800E+02  0.7816164E-02  0.1184000E+00
        -11   -1    0    0    0    0  0.00000000000E+00  0.00000000000E+00  0.45593999997E+02  0.45594000000E+02  0.51100000000E-03 0.  1.
         11   -1    0    0    0    0 -0.00000000000E+00 -0.00000000000E+00 -0.45593999997E+02  0.45594000000E+02  0.51100000000E-03 0. -1.
         23    2    1    2    0    0  0.00000000000E+00  0.17763568394E-14 -0.88817841970E-15  0.91188000000E+02  0.91188000000E+02 0.  0.
    9900012    2    3    3    0    0 -0.34818561434E+02  0.11646311269E+02 -0.27946633067E+01  0.54367096569E+02  0.40000028248E+02 0.  0.
        -12    1    3    3    0    0  0.34818561434E+02 -0.11646311269E+02  0.27946633067E+01  0.36820903431E+02  0.00000000000E+00 0.  1.
         11    1    4    4    0    0 -0.20826778634E+02  0.28862126430E+01 -0.37965087255E+01  0.21365823421E+02  0.51100000000E-03 0. -1.
        -11    1    4    4    0    0 -0.46111902203E+01 -0.29907156131E+01  0.12773332366E+02  0.13905591506E+02  0.51100000000E-03 0.  1.
        -12    1    4    4    0    0 -0.93805925798E+01  0.11750814239E+02 -0.11771486947E+02  0.19095681642E+02  0.00000000000E+00 0.  1.
</event>
<event>
 8    1  0.1247338E-006  0.9118800E+02  0.7816164E-02  0.1184000E+00
        -11   -1    0    0    0    0  0.00000000000E+00  0.00000000000E+00  0.45593999997E+02  0.45594000000E+02  0.51100000000E-03 0. -1.
         11   -1    0    0    0    0 -0.00000000000E+00 -0.00000000000E+00 -0.45593999997E+02  0.45594000000E+02  0.51100000000E-03 0.  1.
         23    2    1    2    0    0  0.00000000000E+00  0.71054273576E-14 -0.35527136788E-14  0.91188000000E+02  0.91188000000E+02 0.  0.
    9900012    2    3    3    0    0 -0.12599274872E+02  0.32924631734E+02  0.10630489203E+02  0.54367076563E+02  0.39999982640E+02 0.  0.
        -12    1    3    3    0    0  0.12599274872E+02 -0.32924631734E+02 -0.10630489203E+02  0.36820923437E+02  0.00000000000E+00 0.  1.
         11    1    4    4    0    0 -0.60871925999E+00  0.30674534100E+01 -0.18016348179E+01  0.36091131651E+01  0.51100000000E-03 0. -1.
        -11    1    4    4    0    0 -0.80890129182E+01  0.19534583551E+02  0.25843302201E+02  0.33390243386E+02  0.51100000000E-03 0.  1.
        -12    1    4    4    0    0 -0.39015426934E+01  0.10322594773E+02 -0.13411178180E+02  0.17367720012E+02  0.00000000000E+00 0.  1.
</event>
<event>
 8    1  0.1247338E-006  0.9118800E+02  0.7816164E-02  0.1184000E+00
        -11   -1    0    0    0    0  0.00000000000E+00  0.00000000000E+00  0.45593999997E+02  0.45594000000E+02  0.51100000000E-03 0.  1.
         11   -1    0    0    0    0 -0.00000000000E+00 -0.00000000000E+00 -0.45593999997E+02  0.45594000000E+02  0.51100000000E-03 0. -1.
         23    2    1    2    0    0  0.00000000000E+00 -0.88817841970E-15  0.00000000000E+00  0.91188000000E+02  0.91188000000E+02 0.  0.
    9900012    2    3    3    0    0 -0.26212124741E+02  0.43652918663E+01  0.25488220607E+02  0.54367073257E+02  0.39999975103E+02 0.  0.
         12    1    3    3    0    0  0.26212124741E+02 -0.43652918663E+01 -0.25488220607E+02  0.36820926743E+02  0.00000000000E+00 0. -1.
         11    1    4    4    0    0  0.70611460171E+00  0.42474004894E+01  0.17658493724E+02  0.18175846875E+02  0.51100000000E-03 0. -1.
        -11    1    4    4    0    0 -0.12655450570E+02 -0.83300662745E+01  0.11730763292E+02  0.19161451953E+02  0.51100000000E-03 0.  1.
        -12    1    4    4    0    0 -0.14262788773E+02  0.84479576515E+01 -0.39010364087E+01  0.17029774429E+02  0.00000000000E+00 0.  1.
</event>
<event>
 8    1  0.1247338E-006  0.9118800E+02  0.7816164E-02  0.1184000E+00
        -11   -1    0    0    0    0  0.00000000000E+00  0.00000000000E+00  0.45593999997E+02  0.45594000000E+02  0.51100000000E-03 0.  1.
         11   -1    0    0    0    0 -0.00000000000E+00 -0.00000000000E+00 -0.45593999997E+02  0.45594000000E+02  0.51100000000E-03 0. -1.
         23    2    1    2    0    0 -0.71054273576E-14  0.17763568394E-14  0.88817841970E-15  0.91188000000E+02  0.91188000000E+02 0.  0.
    9900012    2    3    3    0    0 -0.35022730444E+02  0.87674286081E+01  0.72332507759E+01  0.54367090602E+02  0.40000014645E+02 0.  0.
        -12    1    3    3    0    0  0.35022730444E+02 -0.87674286081E+01 -0.72332507759E+01  0.36820909398E+02  0.00000000000E+00 0.  1.
         11    1    4    4    0    0 -0.14217566588E+02 -0.63563068019E+01 -0.15635971194E+00  0.15574539623E+02  0.51100000000E-03 0. -1.
        -11    1    4    4    0    0 -0.36723325380E+01 -0.67602732195E+01  0.78561747846E+01  0.10995762947E+02  0.51100000000E-03 0.  1.
         12    1    4    4    0    0 -0.17132831318E+02  0.21884008630E+02 -0.46656429667E+00  0.27796788032E+02  0.00000000000E+00 0. -1.
</event>
<event>
 8    1  0.1247338E-006  0.9118800E+02  0.7816164E-02  0.1184000E+00
        -11   -1    0    0    0    0  0.00000000000E+00  0.00000000000E+00  0.45593999997E+02  0.45594000000E+02  0.51100000000E-03 0. -1.
         11   -1    0    0    0    0 -0.00000000000E+00 -0.00000000000E+00 -0.45593999997E+02  0.45594000000E+02  0.51100000000E-03 0.  1.
         23    2    1    2    0    0  0.17763568394E-14  0.21094237468E-14  0.71054273576E-14  0.91188000000E+02  0.91188000000E+02 0.  0.
    9900012    2    3    3    0    0  0.14502735549E+02  0.50246712232E+00 -0.33840807581E+02  0.54367053932E+02  0.39999931048E+02 0.  0.
         12    1    3    3    0    0 -0.14502735549E+02 -0.50246712232E+00  0.33840807581E+02  0.36820946068E+02  0.00000000000E+00 0. -1.
         11    1    4    4    0    0  0.36166963187E+01  0.38148384043E+01  0.45802115534E+01  0.69722179002E+01  0.51100000000E-03 0. -1.
        -11    1    4    4    0    0  0.11840601913E+02 -0.12063419138E+02 -0.32943017993E+02  0.37026590037E+02  0.51100000000E-03 0.  1.
        -12    1    4    4    0    0 -0.95456268285E+00  0.87510478565E+01 -0.54780011416E+01  0.10368245995E+02  0.00000000000E+00 0.  1.
</event>
<event>
 8    1  0.1247338E-006  0.9118800E+02  0.7816164E-02  0.1184000E+00
        -11   -1    0    0    0    0  0.00000000000E+00  0.00000000000E+00  0.45593999997E+02  0.45594000000E+02  0.51100000000E-03 0.  1.
         11   -1    0    0    0    0 -0.00000000000E+00 -0.00000000000E+00 -0.45593999997E+02  0.45594000000E+02  0.51100000000E-03 0. -1.
         23    2    1    2    0    0  0.00000000000E+00  0.00000000000E+00 -0.17763568394E-14  0.91188000000E+02  0.91188000000E+02 0.  0.
    9900012    2    3    3    0    0  0.32813840332E+02 -0.77007915244E+01  0.14823339873E+02  0.54367058778E+02  0.39999942097E+02 0.  0.
         12    1    3    3    0    0 -0.32813840332E+02  0.77007915244E+01 -0.14823339873E+02  0.36820941222E+02  0.00000000000E+00 0. -1.
         11    1    4    4    0    0  0.10936090105E+01  0.10524527001E+01 -0.64297685066E+01  0.66064786886E+01  0.51100000000E-03 0. -1.
        -11    1    4    4    0    0  0.11928116904E+02  0.85335111464E+01  0.14509242839E+02  0.20630533522E+02  0.51100000000E-03 0.  1.
         12    1    4    4    0    0  0.19792114417E+02 -0.17286755371E+02  0.67438655410E+01  0.27130046568E+02  0.00000000000E+00 0. -1.
</event>
<event>
 8    1  0.1247338E-006  0.9118800E+02  0.7816164E-02  0.1184000E+00
        -11   -1    0    0    0    0  0.00000000000E+00  0.00000000000E+00  0.45593999997E+02  0.45594000000E+02  0.51100000000E-03 0.  1.
         11   -1    0    0    0    0 -0.00000000000E+00 -0.00000000000E+00 -0.45593999997E+02  0.45594000000E+02  0.51100000000E-03 0. -1.
         23    2    1    2    0    0  0.00000000000E+00  0.00000000000E+00  0.35527136788E-14  0.91188000000E+02  0.91188000000E+02 0.  0.
    9900012    2    3    3    0    0  0.65593793936E+01 -0.18805220355E+02 -0.30969645888E+02  0.54367072024E+02  0.39999972293E+02 0.  0.
        -12    1    3    3    0    0 -0.65593793936E+01  0.18805220355E+02  0.30969645888E+02  0.36820927976E+02  0.00000000000E+00 0.  1.
         11    1    4    4    0    0 -0.39695250021E+01 -0.44597480937E+01 -0.10727262217E+02  0.12276833335E+02  0.51100000000E-03 0. -1.
        -11    1    4    4    0    0 -0.82195335289E+00  0.10441606975E+01 -0.22763213711E+02  0.22801968721E+02  0.51100000000E-03 0.  1.
        -12    1    4    4    0    0  0.11350857749E+02 -0.15389632959E+02  0.25208300402E+01  0.19288269967E+02  0.00000000000E+00 0.  1.
</event>
<event>
 8    1  0.1247338E-006  0.9118800E+02  0.7816164E-02  0.1184000E+00
        -11   -1    0    0    0    0  0.00000000000E+00  0.00000000000E+00  0.45593999997E+02  0.45594000000E+02  0.51100000000E-03 0.  1.
         11   -1    0    0    0    0 -0.00000000000E+00 -0.00000000000E+00 -0.45593999997E+02  0.45594000000E+02  0.51100000000E-03 0. -1.
         23    2    1    2    0    0 -0.88817841970E-15  0.71054273576E-14  0.35527136788E-14  0.91188000000E+02  0.91188000000E+02 0.  0.
    9900012    2    3    3    0    0  0.72914100389E+01 -0.31913526126E+02 -0.16856475071E+02  0.54367101560E+02  0.40000039625E+02 0.  0.
        -12    1    3    3    0    0 -0.72914100389E+01  0.31913526126E+02  0.16856475071E+02  0.36820898440E+02  0.00000000000E+00 0.  1.
         11    1    4    4    0    0 -0.54915897306E+00  0.38216302797E+01 -0.72687283238E+01  0.82304826881E+01  0.51100000000E-03 0. -1.
        -11    1    4    4    0    0 -0.34736035458E+01 -0.66488022577E+01 -0.12723340335E+02  0.14770100967E+02  0.51100000000E-03 0.  1.
         12    1    4    4    0    0  0.11314172558E+02 -0.29086354148E+02  0.31355935872E+01  0.31366517904E+02  0.00000000000E+00 0. -1.
</event>
<event>
 8    1  0.1247338E-006  0.9118800E+02  0.7816164E-02  0.1184000E+00
        -11   -1    0    0    0    0  0.00000000000E+00  0.00000000000E+00  0.45593999997E+02  0.45594000000E+02  0.51100000000E-03 0. -1.
         11   -1    0    0    0    0 -0.00000000000E+00 -0.00000000000E+00 -0.45593999997E+02  0.45594000000E+02  0.51100000000E-03 0.  1.
         23    2    1    2    0    0 -0.35527136788E-14 -0.17763568394E-14  0.35527136788E-14  0.91188000000E+02  0.91188000000E+02 0.  0.
    9900012    2    3    3    0    0 -0.21160228485E+02 -0.10981403626E+02  0.28061241204E+02  0.54367085386E+02  0.40000002754E+02 0.  0.
        -12    1    3    3    0    0  0.21160228485E+02  0.10981403626E+02 -0.28061241204E+02  0.36820914614E+02  0.00000000000E+00 0.  1.
         11    1    4    4    0    0 -0.16925130472E+02  0.91525781338E+01  0.10648643984E+02  0.21991438037E+02  0.51100000000E-03 0. -1.
        -11    1    4    4    0    0 -0.97040939177E+01 -0.17845688662E+02  0.16901302963E+02  0.26425216834E+02  0.51100000000E-03 0.  1.
        -12    1    4    4    0    0  0.54689959041E+01 -0.22882930970E+01  0.51129425602E+00  0.59504305149E+01  0.00000000000E+00 0.  1.
</event>
<event>
 8    1  0.1247338E-006  0.9118800E+02  0.7816164E-02  0.1184000E+00
        -11   -1    0    0    0    0  0.00000000000E+00  0.00000000000E+00  0.45593999997E+02  0.45594000000E+02  0.51100000000E-03 0.  1.
         11   -1    0    0    0    0 -0.00000000000E+00 -0.00000000000E+00 -0.45593999997E+02  0.45594000000E+02  0.51100000000E-03 0. -1.
         23    2    1    2    0    0  0.00000000000E+00 -0.35527136788E-14 -0.35527136788E-14  0.91188000000E+02  0.91188000000E+02 0.  0.
    9900012    2    3    3    0    0  0.10545997585E+02  0.22429197119E+02  0.27230362271E+02  0.54367087764E+02  0.40000008176E+02 0.  0.
         12    1    3    3    0    0 -0.10545997585E+02 -0.22429197119E+02 -0.27230362271E+02  0.36820912236E+02  0.00000000000E+00 0. -1.
         11    1    4    4    0    0  0.91891952167E+01  0.69748297564E+01  0.57842030966E+01  0.12905292115E+02  0.51100000000E-03 0. -1.
        -11    1    4    4    0    0  0.15314921110E+01  0.27530123501E+01  0.27295836000E+02  0.27477030558E+02  0.51100000000E-03 0.  1.
         12    1    4    4    0    0 -0.17468974228E+00  0.12701355013E+02 -0.58496768260E+01  0.13984765090E+02  0.00000000000E+00 0. -1.
</event>
<event>
 8    1  0.1247338E-006  0.9118800E+02  0.7816164E-02  0.1184000E+00
        -11   -1    0    0    0    0  0.00000000000E+00  0.00000000000E+00  0.45593999997E+02  0.45594000000E+02  0.51100000000E-03 0.  1.
         11   -1    0    0    0    0 -0.00000000000E+00 -0.00000000000E+00 -0.45593999997E+02  0.45594000000E+02  0.51100000000E-03 0. -1.
         23    2    1    2    0    0  0.12212453271E-14  0.00000000000E+00  0.00000000000E+00  0.91188000000E+02  0.91188000000E+02 0.  0.
    9900012    2    3    3    0    0 -0.51563766962E+00  0.35567819948E+02  0.95102763125E+01  0.54367067725E+02  0.39999962492E+02 0.  0.
         12    1    3    3    0    0  0.51563766962E+00 -0.35567819948E+02 -0.95102763125E+01  0.36820932275E+02  0.00000000000E+00 0. -1.
         11    1    4    4    0    0  0.11657793522E+02 -0.11908254229E-01 -0.16556331467E+01  0.11774778681E+02  0.51100000000E-03 0. -1.
        -11    1    4    4    0    0  0.91047365935E+00  0.17245465633E+02  0.10180042622E+02  0.20046653467E+02  0.51100000000E-03 0.  1.
         12    1    4    4    0    0 -0.13083904851E+02  0.18334262570E+02  0.98586683723E+00  0.22545635577E+02  0.00000000000E+00 0. -1.
</event>
<event>
 8    1  0.1247338E-006  0.9118800E+02  0.7816164E-02  0.1184000E+00
        -11   -1    0    0    0    0  0.00000000000E+00  0.00000000000E+00  0.45593999997E+02  0.45594000000E+02  0.51100000000E-03 0. -1.
         11   -1    0    0    0    0 -0.00000000000E+00 -0.00000000000E+00 -0.45593999997E+02  0.45594000000E+02  0.51100000000E-03 0.  1.
         23    2    1    2    0    0  0.35527136788E-14  0.00000000000E+00  0.00000000000E+00  0.91188000000E+02  0.91188000000E+02 0.  0.
    9900012    2    3    3    0    0 -0.19769743086E+02 -0.13372243636E+02  0.28037827116E+02  0.54367090303E+02  0.40000013963E+02 0.  0.
        -12    1    3    3    0    0  0.19769743086E+02  0.13372243636E+02 -0.28037827116E+02  0.36820909697E+02  0.00000000000E+00 0.  1.
         11    1    4    4    0    0  0.17233082671E+01 -0.85228347040E+00  0.73336581066E+01  0.75814721515E+01  0.51100000000E-03 0. -1.
        -11    1    4    4    0    0 -0.29794775631E+02 -0.91659616183E+01  0.98010873283E+01  0.32677282941E+02  0.51100000000E-03 0.  1.
        -12    1    4    4    0    0  0.83017242788E+01 -0.33539985477E+01  0.10903081681E+02  0.14108335210E+02  0.00000000000E+00 0.  1.
</event>
<event>
 8    1  0.1247338E-006  0.9118800E+02  0.7816164E-02  0.1184000E+00
        -11   -1    0    0    0    0  0.00000000000E+00  0.00000000000E+00  0.45593999997E+02  0.45594000000E+02  0.51100000000E-03 0. -1.
         11   -1    0    0    0    0 -0.00000000000E+00 -0.00000000000E+00 -0.45593999997E+02  0.45594000000E+02  0.51100000000E-03 0.  1.
         23    2    1    2    0    0  0.00000000000E+00  0.00000000000E+00 -0.35527136788E-14  0.91188000000E+02  0.91188000000E+02 0.  0.
    9900012    2    3    3    0    0  0.22780337287E+02 -0.46032326642E+01 -0.28559527971E+02  0.54367079917E+02  0.39999990286E+02 0.  0.
         12    1    3    3    0    0 -0.22780337287E+02  0.46032326642E+01  0.28559527971E+02  0.36820920083E+02  0.00000000000E+00 0. -1.
         11    1    4    4    0    0  0.17896940426E+02  0.13504162554E+01 -0.10960619759E+02  0.21029961636E+02  0.51100000000E-03 0. -1.
        -11    1    4    4    0    0  0.13963810778E+02 -0.38156602758E+01 -0.19018668632E+02  0.23900983904E+02  0.51100000000E-03 0.  1.
        -12    1    4    4    0    0 -0.90804139162E+01 -0.21379886438E+01  0.14197604197E+01  0.94361343769E+01  0.00000000000E+00 0.  1.
</event>
<event>
 8    1  0.1247338E-006  0.9118800E+02  0.7816164E-02  0.1184000E+00
        -11   -1    0    0    0    0  0.00000000000E+00  0.00000000000E+00  0.45593999997E+02  0.45594000000E+02  0.51100000000E-03 0.  1.
         11   -1    0    0    0    0 -0.00000000000E+00 -0.00000000000E+00 -0.45593999997E+02  0.45594000000E+02  0.51100000000E-03 0. -1.
         23    2    1    2    0    0  0.00000000000E+00 -0.35527136788E-14  0.17763568394E-14  0.91188000000E+02  0.91188000000E+02 0.  0.
    9900012    2    3    3    0    0 -0.20865147186E+02 -0.26627659625E+02 -0.14539369898E+02  0.54367083373E+02  0.39999998166E+02 0.  0.
        -12    1    3    3    0    0  0.20865147186E+02  0.26627659625E+02  0.14539369898E+02  0.36820916627E+02  0.00000000000E+00 0.  1.
         11    1    4    4    0    0 -0.67205286529E+01 -0.11433460598E+02  0.32602652774E+01  0.13657190654E+02  0.51100000000E-03 0. -1.
        -11    1    4    4    0    0 -0.18754586435E+02  0.19371661051E+01 -0.97949484914E+01  0.21246838379E+02  0.51100000000E-03 0.  1.
        -12    1    4    4    0    0  0.46099679018E+01 -0.17131365133E+02 -0.80046866836E+01  0.19463054341E+02  0.00000000000E+00 0.  1.
</event>
<event>
 8    1  0.1247338E-006  0.9118800E+02  0.7816164E-02  0.1184000E+00
        -11   -1    0    0    0    0  0.00000000000E+00  0.00000000000E+00  0.45593999997E+02  0.45594000000E+02  0.51100000000E-03 0.  1.
         11   -1    0    0    0    0 -0.00000000000E+00 -0.00000000000E+00 -0.45593999997E+02  0.45594000000E+02  0.51100000000E-03 0. -1.
         23    2    1    2    0    0  0.13322676296E-14  0.00000000000E+00  0.00000000000E+00  0.91188000000E+02  0.91188000000E+02 0.  0.
    9900012    2    3    3    0    0 -0.21120808099E+01 -0.35699348568E+02  0.87688799185E+01  0.54366842651E+02  0.39999449387E+02 0.  0.
         12    1    3    3    0    0  0.21120808099E+01  0.35699348568E+02 -0.87688799185E+01  0.36821157349E+02  0.00000000000E+00 0. -1.
         11    1    4    4    0    0 -0.12684462925E+02 -0.86053950075E+01 -0.28272906095E+01  0.15586596658E+02  0.51100000000E-03 0. -1.
        -11    1    4    4    0    0  0.11698882942E+02 -0.52750449992E+01 -0.20860984561E+01  0.13001606395E+02  0.51100000000E-03 0.  1.
        -12    1    4    4    0    0 -0.11265008268E+01 -0.21818908561E+02  0.13682268984E+02  0.25778639597E+02  0.00000000000E+00 0.  1.
</event>
<event>
 8    1  0.1247338E-006  0.9118800E+02  0.7816164E-02  0.1184000E+00
        -11   -1    0    0    0    0  0.00000000000E+00  0.00000000000E+00  0.45593999997E+02  0.45594000000E+02  0.51100000000E-03 0.  1.
         11   -1    0    0    0    0 -0.00000000000E+00 -0.00000000000E+00 -0.45593999997E+02  0.45594000000E+02  0.51100000000E-03 0. -1.
         23    2    1    2    0    0 -0.35527136788E-14  0.00000000000E+00 -0.17763568394E-14  0.91188000000E+02  0.91188000000E+02 0.  0.
    9900012    2    3    3    0    0 -0.28191998398E+02 -0.22096055971E+02 -0.85295251687E+01  0.54367119202E+02  0.40000079845E+02 0.  0.
        -12    1    3    3    0    0  0.28191998398E+02  0.22096055971E+02  0.85295251687E+01  0.36820880798E+02  0.00000000000E+00 0.  1.
         11    1    4    4    0    0 -0.12641026589E+02  0.55017911497E+01  0.48509744794E+01  0.14614965369E+02  0.51100000000E-03 0.  1.
        -11    1    4    4    0    0 -0.16941797725E+02 -0.10597326110E+02 -0.43473654850E+01  0.20450609227E+02  0.51100000000E-03 0. -1.
        -12    1    4    4    0    0  0.13908259161E+01 -0.17000521010E+02 -0.90331341631E+01  0.19301544606E+02  0.00000000000E+00 0.  1.
</event>
<event>
 8    1  0.1247338E-006  0.9118800E+02  0.7816164E-02  0.1184000E+00
        -11   -1    0    0    0    0  0.00000000000E+00  0.00000000000E+00  0.45593999997E+02  0.45594000000E+02  0.51100000000E-03 0.  1.
         11   -1    0    0    0    0 -0.00000000000E+00 -0.00000000000E+00 -0.45593999997E+02  0.45594000000E+02  0.51100000000E-03 0. -1.
         23    2    1    2    0    0  0.00000000000E+00  0.35527136788E-14  0.35527136788E-14  0.91188000000E+02  0.91188000000E+02 0.  0.
    9900012    2    3    3    0    0  0.20522762848E+02  0.20497155733E+02  0.22681769169E+02  0.54367084196E+02  0.40000000041E+02 0.  0.
         12    1    3    3    0    0 -0.20522762848E+02 -0.20497155733E+02 -0.22681769169E+02  0.36820915804E+02  0.00000000000E+00 0. -1.
         11    1    4    4    0    0 -0.22356607208E+01 -0.22417711080E+01  0.38913936369E+01  0.50166384420E+01  0.51100000000E-03 0. -1.
        -11    1    4    4    0    0  0.71761245458E+01 -0.12552192962E+01  0.19411788196E+02  0.20733785477E+02  0.51100000000E-03 0.  1.
         12    1    4    4    0    0  0.15582299023E+02  0.23994146137E+02 -0.62141266408E+00  0.28616660277E+02  0.00000000000E+00 0. -1.
</event>
<event>
 8    1  0.1247338E-006  0.9118800E+02  0.7816164E-02  0.1184000E+00
        -11   -1    0    0    0    0  0.00000000000E+00  0.00000000000E+00  0.45593999997E+02  0.45594000000E+02  0.51100000000E-03 0.  1.
         11   -1    0    0    0    0 -0.00000000000E+00 -0.00000000000E+00 -0.45593999997E+02  0.45594000000E+02  0.51100000000E-03 0. -1.
         23    2    1    2    0    0  0.55511151231E-16  0.35527136788E-14 -0.71054273576E-14  0.91188000000E+02  0.91188000000E+02 0.  0.
    9900012    2    3    3    0    0 -0.32159447545E+00  0.18325645652E+02  0.31935044289E+02  0.54367085219E+02  0.40000002374E+02 0.  0.
         12    1    3    3    0    0  0.32159447545E+00 -0.18325645652E+02 -0.31935044289E+02  0.36820914781E+02  0.00000000000E+00 0. -1.
         11    1    4    4    0    0  0.37999444635E+01  0.34167180414E+01 -0.43630080352E+01  0.67193287966E+01  0.51100000000E-03 0. -1.
        -11    1    4    4    0    0 -0.22227942701E+01  0.72327060589E+00 -0.41385404432E+01  0.47530466017E+01  0.51100000000E-03 0.  1.
        -12    1    4    4    0    0 -0.18987446688E+01  0.14185657004E+02  0.40436592768E+02  0.42894709821E+02  0.00000000000E+00 0.  1.
</event>
<event>
 8    1  0.1247338E-006  0.9118800E+02  0.7816164E-02  0.1184000E+00
        -11   -1    0    0    0    0  0.00000000000E+00  0.00000000000E+00  0.45593999997E+02  0.45594000000E+02  0.51100000000E-03 0.  1.
         11   -1    0    0    0    0 -0.00000000000E+00 -0.00000000000E+00 -0.45593999997E+02  0.45594000000E+02  0.51100000000E-03 0. -1.
         23    2    1    2    0    0  0.00000000000E+00  0.88817841970E-15 -0.44408920985E-15  0.91188000000E+02  0.91188000000E+02 0.  0.
    9900012    2    3    3    0    0 -0.35889825865E+02  0.76198013882E+01  0.31044971468E+01  0.54367097290E+02  0.40000029892E+02 0.  0.
         12    1    3    3    0    0  0.35889825865E+02 -0.76198013882E+01 -0.31044971468E+01  0.36820902710E+02  0.00000000000E+00 0. -1.
         11    1    4    4    0    0  0.13992550241E+01 -0.46429267448E+01 -0.31859170910E+01  0.58021333449E+01  0.51100000000E-03 0. -1.
        -11    1    4    4    0    0 -0.98169615070E+01  0.17346895689E+02  0.23391827266E-01  0.19932086461E+02  0.51100000000E-03 0.  1.
        -12    1    4    4    0    0 -0.27472119383E+02 -0.50841675558E+01  0.62670224105E+01  0.28632877484E+02  0.00000000000E+00 0.  1.
</event>
<event>
 8    1  0.1247338E-006  0.9118800E+02  0.7816164E-02  0.1184000E+00
        -11   -1    0    0    0    0  0.00000000000E+00  0.00000000000E+00  0.45593999997E+02  0.45594000000E+02  0.51100000000E-03 0. -1.
         11   -1    0    0    0    0 -0.00000000000E+00 -0.00000000000E+00 -0.45593999997E+02  0.45594000000E+02  0.51100000000E-03 0.  1.
         23    2    1    2    0    0 -0.17763568394E-14 -0.17763568394E-14 -0.71054273576E-14  0.91188000000E+02  0.91188000000E+02 0.  0.
    9900012    2    3    3    0    0  0.82082796049E+01  0.11217226730E+02  0.34096615814E+02  0.54367065200E+02  0.39999956736E+02 0.  0.
        -12    1    3    3    0    0 -0.82082796049E+01 -0.11217226730E+02 -0.34096615814E+02  0.36820934800E+02  0.00000000000E+00 0.  1.
         11    1    4    4    0    0  0.19918194946E+01 -0.68142970667E+01  0.77260345898E+01  0.10492549745E+02  0.51100000000E-03 0. -1.
        -11    1    4    4    0    0 -0.19985445587E+01  0.22372514758E+02  0.90442424009E+01  0.24214085112E+02  0.51100000000E-03 0.  1.
        -12    1    4    4    0    0  0.82150046690E+01 -0.43409909609E+01  0.17326338823E+02  0.19660430342E+02  0.00000000000E+00 0.  1.
</event>
<event>
 8    1  0.1247338E-006  0.9118800E+02  0.7816164E-02  0.1184000E+00
        -11   -1    0    0    0    0  0.00000000000E+00  0.00000000000E+00  0.45593999997E+02  0.45594000000E+02  0.51100000000E-03 0.  1.
         11   -1    0    0    0    0 -0.00000000000E+00 -0.00000000000E+00 -0.45593999997E+02  0.45594000000E+02  0.51100000000E-03 0. -1.
         23    2    1    2    0    0 -0.71054273576E-14 -0.88817841970E-15 -0.17763568394E-14  0.91188000000E+02  0.91188000000E+02 0.  0.
    9900012    2    3    3    0    0  0.33353469242E+02 -0.62318551562E+01  0.14300168873E+02  0.54367017409E+02  0.39999847787E+02 0.  0.
         12    1    3    3    0    0 -0.33353469242E+02  0.62318551562E+01 -0.14300168873E+02  0.36820982591E+02  0.00000000000E+00 0. -1.
         11    1    4    4    0    0 -0.59741447653E+01  0.17120086531E+01  0.36381783454E+01  0.72012305364E+01  0.51100000000E-03 0. -1.
        -11    1    4    4    0    0  0.32308102410E+02 -0.89243531290E+01 -0.98415055224E+00  0.33532463564E+02  0.51100000000E-03 0.  1.
         12    1    4    4    0    0  0.70195115975E+01  0.98048931973E+00  0.11646141080E+02  0.13633323308E+02  0.00000000000E+00 0. -1.
</event>
<event>
 8    1  0.1247338E-006  0.9118800E+02  0.7816164E-02  0.1184000E+00
        -11   -1    0    0    0    0  0.00000000000E+00  0.00000000000E+00  0.45593999997E+02  0.45594000000E+02  0.51100000000E-03 0. -1.
         11   -1    0    0    0    0 -0.00000000000E+00 -0.00000000000E+00 -0.45593999997E+02  0.45594000000E+02  0.51100000000E-03 0.  1.
         23    2    1    2    0    0  0.00000000000E+00  0.35527136788E-14  0.00000000000E+00  0.91188000000E+02  0.91188000000E+02 0.  0.
    9900012    2    3    3    0    0  0.14784194484E+02  0.27129478079E+02 -0.20029975261E+02  0.54367069861E+02  0.39999967362E+02 0.  0.
         12    1    3    3    0    0 -0.14784194484E+02 -0.27129478079E+02  0.20029975261E+02  0.36820930139E+02  0.00000000000E+00 0. -1.
         11    1    4    4    0    0  0.69940981265E+01  0.12345387729E+01 -0.24324342670E+02  0.25339990946E+02  0.51100000000E-03 0.  1.
        -11    1    4    4    0    0  0.42306593324E+01  0.24535297807E+02  0.37307953889E+01  0.25175348088E+02  0.51100000000E-03 0. -1.
         12    1    4    4    0    0  0.35594370251E+01  0.13596414990E+01  0.56357202002E+00  0.38517308269E+01  0.00000000000E+00 0. -1.
</event>
<event>
 8    1  0.1247338E-006  0.9118800E+02  0.7816164E-02  0.1184000E+00
        -11   -1    0    0    0    0  0.00000000000E+00  0.00000000000E+00  0.45593999997E+02  0.45594000000E+02  0.51100000000E-03 0.  1.
         11   -1    0    0    0    0 -0.00000000000E+00 -0.00000000000E+00 -0.45593999997E+02  0.45594000000E+02  0.51100000000E-03 0. -1.
         23    2    1    2    0    0  0.35527136788E-14  0.71054273576E-14  0.00000000000E+00  0.91188000000E+02  0.91188000000E+02 0.  0.
    9900012    2    3    3    0    0  0.24251840929E+02  0.26303753574E+02 -0.87028923161E+01  0.54367087801E+02  0.40000008259E+02 0.  0.
        -12    1    3    3    0    0 -0.24251840929E+02 -0.26303753574E+02  0.87028923161E+01  0.36820912199E+02  0.00000000000E+00 0.  1.
         11    1    4    4    0    0  0.13939710331E+02  0.47855651832E+01 -0.89300395606E+01  0.17232607610E+02  0.51100000000E-03 0. -1.
        -11    1    4    4    0    0 -0.23666237584E+01  0.34337679260E+01 -0.11425550035E+02  0.12162847695E+02  0.51100000000E-03 0.  1.
        -12    1    4    4    0    0  0.12678754356E+02  0.18084420465E+02  0.11652697280E+02  0.24971632495E+02  0.00000000000E+00 0.  1.
</event>
<event>
 8    1  0.1247338E-006  0.9118800E+02  0.7816164E-02  0.1184000E+00
        -11   -1    0    0    0    0  0.00000000000E+00  0.00000000000E+00  0.45593999997E+02  0.45594000000E+02  0.51100000000E-03 0.  1.
         11   -1    0    0    0    0 -0.00000000000E+00 -0.00000000000E+00 -0.45593999997E+02  0.45594000000E+02  0.51100000000E-03 0. -1.
         23    2    1    2    0    0  0.88817841970E-15 -0.17763568394E-14  0.00000000000E+00  0.91188000000E+02  0.91188000000E+02 0.  0.
    9900012    2    3    3    0    0  0.13495487338E+01  0.14043148026E+02  0.34010989998E+02  0.54367099292E+02  0.40000034457E+02 0.  0.
         12    1    3    3    0    0 -0.13495487338E+01 -0.14043148026E+02 -0.34010989998E+02  0.36820900708E+02  0.00000000000E+00 0. -1.
         11    1    4    4    0    0  0.81926552785E+01  0.76138732665E+01  0.20683844085E+01  0.11374044178E+02  0.51100000000E-03 0. -1.
        -11    1    4    4    0    0  0.37982069645E+01  0.14756786836E+02  0.16014375592E+02  0.22105414715E+02  0.51100000000E-03 0.  1.
         12    1    4    4    0    0 -0.10641313509E+02 -0.83275120768E+01  0.15928229998E+02  0.20887640400E+02  0.00000000000E+00 0. -1.
</event>
<event>
 8    1  0.1247338E-006  0.9118800E+02  0.7816164E-02  0.1184000E+00
        -11   -1    0    0    0    0  0.00000000000E+00  0.00000000000E+00  0.45593999997E+02  0.45594000000E+02  0.51100000000E-03 0. -1.
         11   -1    0    0    0    0 -0.00000000000E+00 -0.00000000000E+00 -0.45593999997E+02  0.45594000000E+02  0.51100000000E-03 0.  1.
         23    2    1    2    0    0  0.00000000000E+00 -0.88817841970E-15  0.00000000000E+00  0.91188000000E+02  0.91188000000E+02 0.  0.
    9900012    2    3    3    0    0  0.33491026419E+02 -0.33417769351E+01 -0.14931954326E+02  0.54367087685E+02  0.40000007996E+02 0.  0.
         12    1    3    3    0    0 -0.33491026419E+02  0.33417769351E+01  0.14931954326E+02  0.36820912315E+02  0.00000000000E+00 0. -1.
         11    1    4    4    0    0  0.22868367943E+02  0.27295804863E+01 -0.76205077782E+01  0.24258709798E+02  0.51100000000E-03 0. -1.
        -11    1    4    4    0    0  0.10847226320E+02  0.55308017041E+01  0.50247607523E+01  0.13171951533E+02  0.51100000000E-03 0.  1.
         12    1    4    4    0    0 -0.22456784373E+00 -0.11602159125E+02 -0.12336207300E+02  0.16936426354E+02  0.00000000000E+00 0. -1.
</event>
<event>
 8    1  0.1247338E-006  0.9118800E+02  0.7816164E-02  0.1184000E+00
        -11   -1    0    0    0    0  0.00000000000E+00  0.00000000000E+00  0.45593999997E+02  0.45594000000E+02  0.51100000000E-03 0. -1.
         11   -1    0    0    0    0 -0.00000000000E+00 -0.00000000000E+00 -0.45593999997E+02  0.45594000000E+02  0.51100000000E-03 0.  1.
         23    2    1    2    0    0  0.88817841970E-15  0.71054273576E-14 -0.17763568394E-14  0.91188000000E+02  0.91188000000E+02 0.  0.
    9900012    2    3    3    0    0 -0.48160382332E+01 -0.33341064895E+02  0.14864670200E+02  0.54367092179E+02  0.40000018242E+02 0.  0.
        -12    1    3    3    0    0  0.48160382332E+01  0.33341064895E+02 -0.14864670200E+02  0.36820907821E+02  0.00000000000E+00 0.  1.
         11    1    4    4    0    0  0.84314651952E+01 -0.13651489014E+02 -0.87050384403E+01  0.18254600848E+02  0.51100000000E-03 0. -1.
        -11    1    4    4    0    0 -0.46640320306E+01  0.11263555631E+01  0.33693141285E+01  0.58629471765E+01  0.51100000000E-03 0.  1.
         12    1    4    4    0    0 -0.85834713977E+01 -0.20815931444E+02  0.20200394512E+02  0.30249544155E+02  0.00000000000E+00 0. -1.
</event>
<event>
 8    1  0.1247338E-006  0.9118800E+02  0.7816164E-02  0.1184000E+00
        -11   -1    0    0    0    0  0.00000000000E+00  0.00000000000E+00  0.45593999997E+02  0.45594000000E+02  0.51100000000E-03 0. -1.
         11   -1    0    0    0    0 -0.00000000000E+00 -0.00000000000E+00 -0.45593999997E+02  0.45594000000E+02  0.51100000000E-03 0.  1.
         23    2    1    2    0    0 -0.35527136788E-14  0.00000000000E+00  0.00000000000E+00  0.91188000000E+02  0.91188000000E+02 0.  0.
    9900012    2    3    3    0    0 -0.31360078188E+02  0.98505063921E+01 -0.16591956566E+02  0.54367081994E+02  0.39999995021E+02 0.  0.
        -12    1    3    3    0    0  0.31360078188E+02 -0.98505063921E+01  0.16591956566E+02  0.36820918006E+02  0.00000000000E+00 0.  1.
         11    1    4    4    0    0 -0.24240079633E+02 -0.68539070577E+01 -0.10043393658E+02  0.27118762122E+02  0.51100000000E-03 0. -1.
        -11    1    4    4    0    0  0.47088621270E+01  0.20141630872E+01 -0.66421610916E+01  0.83874036329E+01  0.51100000000E-03 0.  1.
         12    1    4    4    0    0 -0.11828860682E+02  0.14690250363E+02  0.93598183792E-01  0.18860916239E+02  0.00000000000E+00 0. -1.
</event>
<event>
 8    1  0.1247338E-006  0.9118800E+02  0.7816164E-02  0.1184000E+00
        -11   -1    0    0    0    0  0.00000000000E+00  0.00000000000E+00  0.45593999997E+02  0.45594000000E+02  0.51100000000E-03 0.  1.
         11   -1    0    0    0    0 -0.00000000000E+00 -0.00000000000E+00 -0.45593999997E+02  0.45594000000E+02  0.51100000000E-03 0. -1.
         23    2    1    2    0    0 -0.71054273576E-14  0.00000000000E+00  0.00000000000E+00  0.91188000000E+02  0.91188000000E+02 0.  0.
    9900012    2    3    3    0    0  0.28395235876E+02 -0.55581890939E+01  0.22772696461E+02  0.54367101171E+02  0.40000038741E+02 0.  0.
         12    1    3    3    0    0 -0.28395235876E+02  0.55581890939E+01 -0.22772696461E+02  0.36820898829E+02  0.00000000000E+00 0. -1.
         11    1    4    4    0    0  0.18430128412E+00 -0.11475146571E+02  0.15521959730E+02  0.19303994144E+02  0.51100000000E-03 0. -1.
        -11    1    4    4    0    0  0.12689284380E+02  0.11127741584E+00 -0.58162837331E+01  0.13959207623E+02  0.51100000000E-03 0.  1.
        -12    1    4    4    0    0  0.15521650212E+02  0.58056800612E+01  0.13067020464E+02  0.21103899405E+02  0.00000000000E+00 0.  1.
</event>
<event>
 8    1  0.1247338E-006  0.9118800E+02  0.7816164E-02  0.1184000E+00
        -11   -1    0    0    0    0  0.00000000000E+00  0.00000000000E+00  0.45593999997E+02  0.45594000000E+02  0.51100000000E-03 0.  1.
         11   -1    0    0    0    0 -0.00000000000E+00 -0.00000000000E+00 -0.45593999997E+02  0.45594000000E+02  0.51100000000E-03 0. -1.
         23    2    1    2    0    0  0.00000000000E+00  0.00000000000E+00  0.00000000000E+00  0.91188000000E+02  0.91188000000E+02 0.  0.
    9900012    2    3    3    0    0  0.89329063234E+01  0.35486022083E+02  0.40896117639E+01  0.54367088780E+02  0.40000010492E+02 0.  0.
         12    1    3    3    0    0 -0.89329063234E+01 -0.35486022083E+02 -0.40896117639E+01  0.36820911220E+02  0.00000000000E+00 0. -1.
         11    1    4    4    0    0  0.12646371259E+02  0.77901030457E+01 -0.50065315908E+01  0.15674239067E+02  0.51100000000E-03 0. -1.
        -11    1    4    4    0    0 -0.87001754820E+01  0.29357793781E+02  0.31886265161E+01  0.30785393426E+02  0.51100000000E-03 0.  1.
        -12    1    4    4    0    0  0.49867105462E+01 -0.16618747432E+01  0.59075168386E+01  0.79074562871E+01  0.00000000000E+00 0.  1.
</event>
<event>
 8    1  0.1247338E-006  0.9118800E+02  0.7816164E-02  0.1184000E+00
        -11   -1    0    0    0    0  0.00000000000E+00  0.00000000000E+00  0.45593999997E+02  0.45594000000E+02  0.51100000000E-03 0.  1.
         11   -1    0    0    0    0 -0.00000000000E+00 -0.00000000000E+00 -0.45593999997E+02  0.45594000000E+02  0.51100000000E-03 0. -1.
         23    2    1    2    0    0 -0.35527136788E-14  0.00000000000E+00 -0.26645352591E-14  0.91188000000E+02  0.91188000000E+02 0.  0.
    9900012    2    3    3    0    0  0.30434822593E+02  0.19381096112E+02  0.73399871991E+01  0.54367072189E+02  0.39999972669E+02 0.  0.
        -12    1    3    3    0    0 -0.30434822593E+02 -0.19381096112E+02 -0.73399871991E+01  0.36820927811E+02  0.00000000000E+00 0.  1.
         11    1    4    4    0    0  0.67014043685E+01  0.71338417769E+01 -0.12549412897E+02  0.15915033249E+02  0.51100000000E-03 0. -1.
        -11    1    4    4    0    0  0.26564992579E+02  0.10257012345E+02  0.20293359513E+02  0.34967493098E+02  0.51100000000E-03 0.  1.
        -12    1    4    4    0    0 -0.28315743549E+01  0.19902419906E+01 -0.40395941692E+00  0.34845458412E+01  0.00000000000E+00 0.  1.
</event>
<event>
 8    1  0.1247338E-006  0.9118800E+02  0.7816164E-02  0.1184000E+00
        -11   -1    0    0    0    0  0.00000000000E+00  0.00000000000E+00  0.45593999997E+02  0.45594000000E+02  0.51100000000E-03 0. -1.
         11   -1    0    0    0    0 -0.00000000000E+00 -0.00000000000E+00 -0.45593999997E+02  0.45594000000E+02  0.51100000000E-03 0.  1.
         23    2    1    2    0    0  0.35527136788E-14  0.00000000000E+00  0.13322676296E-14  0.91188000000E+02  0.91188000000E+02 0.  0.
    9900012    2    3    3    0    0 -0.31715333302E+02 -0.18378671629E+02 -0.34846091382E+01  0.54367076082E+02  0.39999981545E+02 0.  0.
        -12    1    3    3    0    0  0.31715333302E+02  0.18378671629E+02  0.34846091382E+01  0.36820923918E+02  0.00000000000E+00 0.  1.
         11    1    4    4    0    0 -0.70193792971E+01 -0.28291001470E+01 -0.14064498861E+02  0.15971400121E+02  0.51100000000E-03 0. -1.
        -11    1    4    4    0    0 -0.11060317946E+02 -0.16884000616E+02  0.13635490265E+02  0.24358298481E+02  0.51100000000E-03 0.  1.
        -12    1    4    4    0    0 -0.13635636059E+02  0.13344291338E+01 -0.30556005426E+01  0.14037377480E+02  0.00000000000E+00 0.  1.
</event>
<event>
 8    1  0.1247338E-006  0.9118800E+02  0.7816164E-02  0.1184000E+00
        -11   -1    0    0    0    0  0.00000000000E+00  0.00000000000E+00  0.45593999997E+02  0.45594000000E+02  0.51100000000E-03 0.  1.
         11   -1    0    0    0    0 -0.00000000000E+00 -0.00000000000E+00 -0.45593999997E+02  0.45594000000E+02  0.51100000000E-03 0. -1.
         23    2    1    2    0    0  0.17763568394E-14  0.00000000000E+00  0.35527136788E-14  0.91188000000E+02  0.91188000000E+02 0.  0.
    9900012    2    3    3    0    0  0.11734743795E+02 -0.23856553811E+02  0.25474310520E+02  0.54367083823E+02  0.39999999191E+02 0.  0.
         12    1    3    3    0    0 -0.11734743795E+02  0.23856553811E+02 -0.25474310520E+02  0.36820916177E+02  0.00000000000E+00 0. -1.
         11    1    4    4    0    0  0.95450307568E+01 -0.15636961803E+02  0.13757903439E+02  0.22910741889E+02  0.51100000000E-03 0. -1.
        -11    1    4    4    0    0  0.12279022358E+02 -0.73000467554E+01  0.15089169686E+02  0.20778549390E+02  0.51100000000E-03 0.  1.
         12    1    4    4    0    0 -0.10089309319E+02 -0.91954525196E+00 -0.33727626051E+01  0.10677792544E+02  0.00000000000E+00 0. -1.
</event>
<event>
 8    1  0.1247338E-006  0.9118800E+02  0.7816164E-02  0.1184000E+00
        -11   -1    0    0    0    0  0.00000000000E+00  0.00000000000E+00  0.45593999997E+02  0.45594000000E+02  0.51100000000E-03 0.  1.
         11   -1    0    0    0    0 -0.00000000000E+00 -0.00000000000E+00 -0.45593999997E+02  0.45594000000E+02  0.51100000000E-03 0. -1.
         23    2    1    2    0    0  0.35527136788E-14  0.00000000000E+00  0.00000000000E+00  0.91188000000E+02  0.91188000000E+02 0.  0.
    9900012    2    3    3    0    0 -0.16294867578E+02  0.19908105308E+02 -0.26342459590E+02  0.54367074650E+02  0.39999978280E+02 0.  0.
        -12    1    3    3    0    0  0.16294867578E+02 -0.19908105308E+02  0.26342459590E+02  0.36820925350E+02  0.00000000000E+00 0.  1.
         11    1    4    4    0    0  0.53647659471E+01  0.65901685345E+00 -0.31251211169E+00  0.54141186690E+01  0.51100000000E-03 0. -1.
        -11    1    4    4    0    0 -0.73496076541E+01  0.13334804160E+02  0.34878390298E+01  0.15620459533E+02  0.51100000000E-03 0.  1.
         12    1    4    4    0    0 -0.14310025871E+02  0.59142842944E+01 -0.29517786508E+02  0.33332496449E+02  0.00000000000E+00 0. -1.
</event>
<event>
 8    1  0.1247338E-006  0.9118800E+02  0.7816164E-02  0.1184000E+00
        -11   -1    0    0    0    0  0.00000000000E+00  0.00000000000E+00  0.45593999997E+02  0.45594000000E+02  0.51100000000E-03 0.  1.
         11   -1    0    0    0    0 -0.00000000000E+00 -0.00000000000E+00 -0.45593999997E+02  0.45594000000E+02  0.51100000000E-03 0. -1.
         23    2    1    2    0    0  0.00000000000E+00  0.61062266354E-15  0.00000000000E+00  0.91188000000E+02  0.91188000000E+02 0.  0.
    9900012    2    3    3    0    0 -0.34773283071E+02 -0.28194421535E+00  0.12104408720E+02  0.54367117086E+02  0.40000075021E+02 0.  0.
        -12    1    3    3    0    0  0.34773283071E+02  0.28194421535E+00 -0.12104408720E+02  0.36820882914E+02  0.00000000000E+00 0.  1.
         11    1    4    4    0    0  0.16057432776E+01  0.88765738734E+01 -0.43571760265E+01  0.10017832020E+02  0.51100000000E-03 0. -1.
        -11    1    4    4    0    0 -0.14863342958E+02 -0.41794843258E+01 -0.19948465890E+01  0.15568123403E+02  0.51100000000E-03 0.  1.
        -12    1    4    4    0    0 -0.21515683391E+02 -0.49790337630E+01  0.18456431336E+02  0.28781161662E+02  0.00000000000E+00 0.  1.
</event>
<event>
 8    1  0.1247338E-006  0.9118800E+02  0.7816164E-02  0.1184000E+00
        -11   -1    0    0    0    0  0.00000000000E+00  0.00000000000E+00  0.45593999997E+02  0.45594000000E+02  0.51100000000E-03 0.  1.
         11   -1    0    0    0    0 -0.00000000000E+00 -0.00000000000E+00 -0.45593999997E+02  0.45594000000E+02  0.51100000000E-03 0. -1.
         23    2    1    2    0    0 -0.71054273576E-14  0.35527136788E-14  0.88817841970E-15  0.91188000000E+02  0.91188000000E+02 0.  0.
    9900012    2    3    3    0    0  0.29641969420E+02 -0.21271636559E+02  0.49643861384E+01  0.54367163471E+02  0.40000180764E+02 0.  0.
         12    1    3    3    0    0 -0.29641969420E+02  0.21271636559E+02 -0.49643861384E+01  0.36820836529E+02  0.00000000000E+00 0. -1.
         11    1    4    4    0    0  0.17869142903E+02 -0.16493243792E+02 -0.10804316028E+02  0.26609520927E+02  0.51100000000E-03 0. -1.
        -11    1    4    4    0    0  0.11137521825E+02  0.30047492952E+01  0.16908497918E+01  0.11658982975E+02  0.51100000000E-03 0.  1.
        -12    1    4    4    0    0  0.63530469176E+00 -0.77831420622E+01  0.14077852375E+02  0.16098659568E+02  0.00000000000E+00 0.  1.
</event>
<event>
 8    1  0.1247338E-006  0.9118800E+02  0.7816164E-02  0.1184000E+00
        -11   -1    0    0    0    0  0.00000000000E+00  0.00000000000E+00  0.45593999997E+02  0.45594000000E+02  0.51100000000E-03 0.  1.
         11   -1    0    0    0    0 -0.00000000000E+00 -0.00000000000E+00 -0.45593999997E+02  0.45594000000E+02  0.51100000000E-03 0. -1.
         23    2    1    2    0    0 -0.17763568394E-14  0.00000000000E+00 -0.17763568394E-14  0.91188000000E+02  0.91188000000E+02 0.  0.
    9900012    2    3    3    0    0 -0.13084951127E+02 -0.31572339469E+02 -0.13702177272E+02  0.54367106101E+02  0.40000049978E+02 0.  0.
        -12    1    3    3    0    0  0.13084951127E+02  0.31572339469E+02  0.13702177272E+02  0.36820893899E+02  0.00000000000E+00 0.  1.
         11    1    4    4    0    0  0.26261382700E+01 -0.13790522659E+02  0.48531618766E+00  0.14046730918E+02  0.51100000000E-03 0. -1.
        -11    1    4    4    0    0 -0.33379919224E+01 -0.64213756900E+01  0.90874434462E+01  0.11617137534E+02  0.51100000000E-03 0.  1.
         12    1    4    4    0    0 -0.12373097474E+02 -0.11360441121E+02 -0.23274936906E+02  0.28703237649E+02  0.00000000000E+00 0. -1.
</event>
<event>
 8    1  0.1247338E-006  0.9118800E+02  0.7816164E-02  0.1184000E+00
        -11   -1    0    0    0    0  0.00000000000E+00  0.00000000000E+00  0.45593999997E+02  0.45594000000E+02  0.51100000000E-03 0. -1.
         11   -1    0    0    0    0 -0.00000000000E+00 -0.00000000000E+00 -0.45593999997E+02  0.45594000000E+02  0.51100000000E-03 0.  1.
         23    2    1    2    0    0  0.00000000000E+00  0.00000000000E+00 -0.17763568394E-14  0.91188000000E+02  0.91188000000E+02 0.  0.
    9900012    2    3    3    0    0  0.35952867549E+02  0.74023902360E+01 -0.28943375660E+01  0.54367064975E+02  0.39999956222E+02 0.  0.
        -12    1    3    3    0    0 -0.35952867549E+02 -0.74023902360E+01  0.28943375660E+01  0.36820935025E+02  0.00000000000E+00 0.  1.
         11    1    4    4    0    0  0.28330901031E+02  0.69754798502E+01  0.75979910138E+01  0.30150070316E+02  0.51100000000E-03 0. -1.
        -11    1    4    4    0    0  0.11073107447E+02  0.53131264448E+01 -0.12860672921E+02  0.17783136096E+02  0.51100000000E-03 0.  1.
         12    1    4    4    0    0 -0.34511409289E+01 -0.48862160590E+01  0.23683443414E+01  0.64338585627E+01  0.00000000000E+00 0. -1.
</event>
<event>
 8    1  0.1247338E-006  0.9118800E+02  0.7816164E-02  0.1184000E+00
        -11   -1    0    0    0    0  0.00000000000E+00  0.00000000000E+00  0.45593999997E+02  0.45594000000E+02  0.51100000000E-03 0.  1.
         11   -1    0    0    0    0 -0.00000000000E+00 -0.00000000000E+00 -0.45593999997E+02  0.45594000000E+02  0.51100000000E-03 0. -1.
         23    2    1    2    0    0  0.00000000000E+00  0.00000000000E+00  0.00000000000E+00  0.91188000000E+02  0.91188000000E+02 0.  0.
    9900012    2    3    3    0    0  0.33610321058E+02 -0.11441441323E+02  0.97580590859E+01  0.54367082327E+02  0.39999995780E+02 0.  0.
         12    1    3    3    0    0 -0.33610321058E+02  0.11441441323E+02 -0.97580590859E+01  0.36820917673E+02  0.00000000000E+00 0. -1.
         11    1    4    4    0    0  0.21904875986E+02  0.58488674445E+01  0.17550328657E+02  0.28671359901E+02  0.51100000000E-03 0. -1.
        -11    1    4    4    0    0  0.14243821672E+02 -0.14341734714E+02 -0.47680551568E+01  0.20767911803E+02  0.51100000000E-03 0.  1.
        -12    1    4    4    0    0 -0.25383765995E+01 -0.29485740535E+01 -0.30242144143E+01  0.49278106227E+01  0.00000000000E+00 0.  1.
</event>
<event>
 8    1  0.1247338E-006  0.9118800E+02  0.7816164E-02  0.1184000E+00
        -11   -1    0    0    0    0  0.00000000000E+00  0.00000000000E+00  0.45593999997E+02  0.45594000000E+02  0.51100000000E-03 0. -1.
         11   -1    0    0    0    0 -0.00000000000E+00 -0.00000000000E+00 -0.45593999997E+02  0.45594000000E+02  0.51100000000E-03 0.  1.
         23    2    1    2    0    0 -0.35527136788E-14  0.00000000000E+00 -0.88817841970E-15  0.91188000000E+02  0.91188000000E+02 0.  0.
    9900012    2    3    3    0    0 -0.20165391843E+02 -0.30384783311E+02 -0.50896361502E+01  0.54367048340E+02  0.39999918300E+02 0.  0.
         12    1    3    3    0    0  0.20165391843E+02  0.30384783311E+02  0.50896361502E+01  0.36820951660E+02  0.00000000000E+00 0. -1.
         11    1    4    4    0    0 -0.18293930991E+00 -0.19253844481E+02 -0.17519045498E+02  0.26031921741E+02  0.51100000000E-03 0. -1.
        -11    1    4    4    0    0 -0.10256787373E+02 -0.64119406763E+01  0.31680978556E+00  0.12100208228E+02  0.51100000000E-03 0.  1.
         12    1    4    4    0    0 -0.97256651596E+01 -0.47189981533E+01  0.12112599562E+02  0.16234918371E+02  0.00000000000E+00 0. -1.
</event>
<event>
 8    1  0.1247338E-006  0.9118800E+02  0.7816164E-02  0.1184000E+00
        -11   -1    0    0    0    0  0.00000000000E+00  0.00000000000E+00  0.45593999997E+02  0.45594000000E+02  0.51100000000E-03 0. -1.
         11   -1    0    0    0    0 -0.00000000000E+00 -0.00000000000E+00 -0.45593999997E+02  0.45594000000E+02  0.51100000000E-03 0.  1.
         23    2    1    2    0    0  0.00000000000E+00  0.00000000000E+00  0.00000000000E+00  0.91188000000E+02  0.91188000000E+02 0.  0.
    9900012    2    3    3    0    0 -0.28476583284E+02  0.19223238316E+02 -0.13241274748E+02  0.54367081437E+02  0.39999993751E+02 0.  0.
         12    1    3    3    0    0  0.28476583284E+02 -0.19223238316E+02  0.13241274748E+02  0.36820918563E+02  0.00000000000E+00 0. -1.
         11    1    4    4    0    0  0.30932552846E+01  0.13897770353E+02 -0.13100205861E+02  0.19347652130E+02  0.51100000000E-03 0. -1.
        -11    1    4    4    0    0 -0.97280625127E+01  0.20115471617E+01 -0.66910498851E+01  0.11977131170E+02  0.51100000000E-03 0.  1.
         12    1    4    4    0    0 -0.21841776056E+02  0.33139208011E+01  0.65499809986E+01  0.23042298137E+02  0.00000000000E+00 0. -1.
</event>
<event>
 8    1  0.1247338E-006  0.9118800E+02  0.7816164E-02  0.1184000E+00
        -11   -1    0    0    0    0  0.00000000000E+00  0.00000000000E+00  0.45593999997E+02  0.45594000000E+02  0.51100000000E-03 0. -1.
         11   -1    0    0    0    0 -0.00000000000E+00 -0.00000000000E+00 -0.45593999997E+02  0.45594000000E+02  0.51100000000E-03 0.  1.
         23    2    1    2    0    0  0.00000000000E+00  0.00000000000E+00  0.35527136788E-14  0.91188000000E+02  0.91188000000E+02 0.  0.
    9900012    2    3    3    0    0  0.18397569528E+02  0.14225816633E+02  0.28547099053E+02  0.54367064545E+02  0.39999955244E+02 0.  0.
        -12    1    3    3    0    0 -0.18397569528E+02 -0.14225816633E+02 -0.28547099053E+02  0.36820935455E+02  0.00000000000E+00 0.  1.
         11    1    4    4    0    0  0.20677694568E+02  0.33416133911E+01  0.13969913938E+01  0.20992499087E+02  0.51100000000E-03 0. -1.
        -11    1    4    4    0    0 -0.30401995436E+01  0.57069297742E+01  0.27383499728E+02  0.28136593936E+02  0.51100000000E-03 0.  1.
        -12    1    4    4    0    0  0.76007450398E+00  0.51772734674E+01 -0.23339206923E+00  0.52379715221E+01  0.00000000000E+00 0.  1.
</event>
<event>
 8    1  0.1247338E-006  0.9118800E+02  0.7816164E-02  0.1184000E+00
        -11   -1    0    0    0    0  0.00000000000E+00  0.00000000000E+00  0.45593999997E+02  0.45594000000E+02  0.51100000000E-03 0.  1.
         11   -1    0    0    0    0 -0.00000000000E+00 -0.00000000000E+00 -0.45593999997E+02  0.45594000000E+02  0.51100000000E-03 0. -1.
         23    2    1    2    0    0  0.00000000000E+00  0.00000000000E+00  0.00000000000E+00  0.91188000000E+02  0.91188000000E+02 0.  0.
    9900012    2    3    3    0    0  0.17098114735E+02  0.36264264087E+01 -0.32408063047E+02  0.54367094981E+02  0.40000024629E+02 0.  0.
        -12    1    3    3    0    0 -0.17098114735E+02 -0.36264264087E+01  0.32408063047E+02  0.36820905019E+02  0.00000000000E+00 0.  1.
         11    1    4    4    0    0 -0.79681088964E+01  0.36841458260E+01 -0.85195327434E+01  0.12232993431E+02  0.51100000000E-03 0. -1.
        -11    1    4    4    0    0  0.32107277379E+01 -0.47215773809E+01  0.35676301399E+01  0.67327595121E+01  0.51100000000E-03 0.  1.
         12    1    4    4    0    0  0.21855495893E+02  0.46638579635E+01 -0.27456160443E+02  0.35401342038E+02  0.00000000000E+00 0. -1.
</event>
<event>
 8    1  0.1247338E-006  0.9118800E+02  0.7816164E-02  0.1184000E+00
        -11   -1    0    0    0    0  0.00000000000E+00  0.00000000000E+00  0.45593999997E+02  0.45594000000E+02  0.51100000000E-03 0. -1.
         11   -1    0    0    0    0 -0.00000000000E+00 -0.00000000000E+00 -0.45593999997E+02  0.45594000000E+02  0.51100000000E-03 0.  1.
         23    2    1    2    0    0  0.00000000000E+00  0.00000000000E+00  0.00000000000E+00  0.91188000000E+02  0.91188000000E+02 0.  0.
    9900012    2    3    3    0    0  0.26489752518E+02 -0.17200264935E+02  0.18926816126E+02  0.54367075637E+02  0.39999980529E+02 0.  0.
        -12    1    3    3    0    0 -0.26489752518E+02  0.17200264935E+02 -0.18926816126E+02  0.36820924363E+02  0.00000000000E+00 0.  1.
         11    1    4    4    0    0  0.33173062065E+02 -0.10640456438E+02  0.19480183848E+02  0.39914269666E+02  0.51100000000E-03 0. -1.
        -11    1    4    4    0    0  0.15473225115E+01 -0.12418378470E+01 -0.36682827197E+01  0.41704516021E+01  0.51100000000E-03 0.  1.
         12    1    4    4    0    0 -0.82306320582E+01 -0.53179706505E+01  0.31149149972E+01  0.10282354368E+02  0.00000000000E+00 0. -1.
</event>
<event>
 8    1  0.1247338E-006  0.9118800E+02  0.7816164E-02  0.1184000E+00
        -11   -1    0    0    0    0  0.00000000000E+00  0.00000000000E+00  0.45593999997E+02  0.45594000000E+02  0.51100000000E-03 0.  1.
         11   -1    0    0    0    0 -0.00000000000E+00 -0.00000000000E+00 -0.45593999997E+02  0.45594000000E+02  0.51100000000E-03 0. -1.
         23    2    1    2    0    0 -0.13322676296E-14  0.88817841970E-15  0.00000000000E+00  0.91188000000E+02  0.91188000000E+02 0.  0.
    9900012    2    3    3    0    0  0.10325338791E+01 -0.57022388407E+01 -0.36362041301E+02  0.54367086085E+02  0.40000004348E+02 0.  0.
        -12    1    3    3    0    0 -0.10325338791E+01  0.57022388407E+01  0.36362041301E+02  0.36820913915E+02  0.00000000000E+00 0.  1.
         11    1    4    4    0    0  0.90996157464E+00  0.68684007866E+01 -0.16524535025E+02  0.17918237008E+02  0.51100000000E-03 0. -1.
        -11    1    4    4    0    0  0.10067974627E+02  0.40773230615E+01 -0.46440790613E+01  0.11813388465E+02  0.51100000000E-03 0.  1.
        -12    1    4    4    0    0 -0.99454023223E+01 -0.16647962689E+02 -0.15193427215E+02  0.24635460612E+02  0.00000000000E+00 0.  1.
</event>
<event>
 8    1  0.1247338E-006  0.9118800E+02  0.7816164E-02  0.1184000E+00
        -11   -1    0    0    0    0  0.00000000000E+00  0.00000000000E+00  0.45593999997E+02  0.45594000000E+02  0.51100000000E-03 0. -1.
         11   -1    0    0    0    0 -0.00000000000E+00 -0.00000000000E+00 -0.45593999997E+02  0.45594000000E+02  0.51100000000E-03 0.  1.
         23    2    1    2    0    0 -0.17763568394E-14 -0.44408920985E-15  0.00000000000E+00  0.91188000000E+02  0.91188000000E+02 0.  0.
    9900012    2    3    3    0    0 -0.10310028769E+02 -0.25868523746E+01 -0.35253240362E+02  0.54367089441E+02  0.40000011998E+02 0.  0.
         12    1    3    3    0    0  0.10310028769E+02  0.25868523746E+01  0.35253240362E+02  0.36820910559E+02  0.00000000000E+00 0. -1.
         11    1    4    4    0    0  0.39357563662E+01 -0.37698643308E+01 -0.17805163416E+02  0.18620577322E+02  0.51100000000E-03 0. -1.
        -11    1    4    4    0    0 -0.13262235427E+02 -0.45477941545E+01 -0.23493274420E+02  0.27358787683E+02  0.51100000000E-03 0.  1.
        -12    1    4    4    0    0 -0.98354970789E+00  0.57308061107E+01  0.60451974752E+01  0.83877244364E+01  0.00000000000E+00 0.  1.
</event>
<event>
 8    1  0.1247338E-006  0.9118800E+02  0.7816164E-02  0.1184000E+00
        -11   -1    0    0    0    0  0.00000000000E+00  0.00000000000E+00  0.45593999997E+02  0.45594000000E+02  0.51100000000E-03 0.  1.
         11   -1    0    0    0    0 -0.00000000000E+00 -0.00000000000E+00 -0.45593999997E+02  0.45594000000E+02  0.51100000000E-03 0. -1.
         23    2    1    2    0    0  0.13322676296E-14  0.00000000000E+00  0.17763568394E-14  0.91188000000E+02  0.91188000000E+02 0.  0.
    9900012    2    3    3    0    0 -0.21402586739E+01 -0.35137936078E+02 -0.10794822952E+02  0.54367035026E+02  0.39999887950E+02 0.  0.
         12    1    3    3    0    0  0.21402586739E+01  0.35137936078E+02  0.10794822952E+02  0.36820964974E+02  0.00000000000E+00 0. -1.
         11    1    4    4    0    0 -0.69501511160E+01 -0.54669228937E+01 -0.93562798884E+00  0.88919765213E+01  0.51100000000E-03 0. -1.
        -11    1    4    4    0    0  0.14894679171E+02 -0.15235684144E+02 -0.16192703035E+02  0.26761561441E+02  0.51100000000E-03 0.  1.
        -12    1    4    4    0    0 -0.10084786729E+02 -0.14435329040E+02  0.63335080720E+01  0.18713497064E+02  0.00000000000E+00 0.  1.
</event>
<event>
 8    1  0.1247338E-006  0.9118800E+02  0.7816164E-02  0.1184000E+00
        -11   -1    0    0    0    0  0.00000000000E+00  0.00000000000E+00  0.45593999997E+02  0.45594000000E+02  0.51100000000E-03 0. -1.
         11   -1    0    0    0    0 -0.00000000000E+00 -0.00000000000E+00 -0.45593999997E+02  0.45594000000E+02  0.51100000000E-03 0.  1.
         23    2    1    2    0    0  0.00000000000E+00  0.35527136788E-14  0.00000000000E+00  0.91188000000E+02  0.91188000000E+02 0.  0.
    9900012    2    3    3    0    0  0.95048928018E+01 -0.30077401155E+02 -0.18994435495E+02  0.54367059936E+02  0.39999944737E+02 0.  0.
         12    1    3    3    0    0 -0.95048928018E+01  0.30077401155E+02  0.18994435495E+02  0.36820940064E+02  0.00000000000E+00 0. -1.
         11    1    4    4    0    0  0.63681328770E+01 -0.25286112165E+02 -0.20466525373E+02  0.33148442586E+02  0.51100000000E-03 0. -1.
        -11    1    4    4    0    0  0.53751818161E+01 -0.16522032712E+01 -0.86894199679E+01  0.10350283805E+02  0.51100000000E-03 0.  1.
         12    1    4    4    0    0 -0.22384218913E+01 -0.31390857187E+01  0.10161509846E+02  0.10868333545E+02  0.00000000000E+00 0. -1.
</event>
<event>
 8    1  0.1247338E-006  0.9118800E+02  0.7816164E-02  0.1184000E+00
        -11   -1    0    0    0    0  0.00000000000E+00  0.00000000000E+00  0.45593999997E+02  0.45594000000E+02  0.51100000000E-03 0. -1.
         11   -1    0    0    0    0 -0.00000000000E+00 -0.00000000000E+00 -0.45593999997E+02  0.45594000000E+02  0.51100000000E-03 0.  1.
         23    2    1    2    0    0  0.88817841970E-15  0.00000000000E+00  0.00000000000E+00  0.91188000000E+02  0.91188000000E+02 0.  0.
    9900012    2    3    3    0    0  0.55831549440E+01  0.36040687209E+02 -0.50670464792E+01  0.54367113079E+02  0.40000065887E+02 0.  0.
         12    1    3    3    0    0 -0.55831549440E+01 -0.36040687209E+02  0.50670464792E+01  0.36820886921E+02  0.00000000000E+00 0. -1.
         11    1    4    4    0    0  0.38527789556E+01 -0.18600123875E+01  0.11204378896E+01  0.44225482573E+01  0.51100000000E-03 0. -1.
        -11    1    4    4    0    0 -0.13901530903E+02  0.86383283413E+01 -0.26607008331E+01  0.16581694942E+02  0.51100000000E-03 0.  1.
        -12    1    4    4    0    0  0.15631906891E+02  0.29262371255E+02 -0.35267835357E+01  0.33362869880E+02  0.00000000000E+00 0.  1.
</event>
<event>
 8    1  0.1247338E-006  0.9118800E+02  0.7816164E-02  0.1184000E+00
        -11   -1    0    0    0    0  0.00000000000E+00  0.00000000000E+00  0.45593999997E+02  0.45594000000E+02  0.51100000000E-03 0.  1.
         11   -1    0    0    0    0 -0.00000000000E+00 -0.00000000000E+00 -0.45593999997E+02  0.45594000000E+02  0.51100000000E-03 0. -1.
         23    2    1    2    0    0  0.17763568394E-14  0.00000000000E+00 -0.26645352591E-14  0.91188000000E+02  0.91188000000E+02 0.  0.
    9900012    2    3    3    0    0  0.92827442885E+01  0.35048984380E+02 -0.64171526558E+01  0.54367075299E+02  0.39999979759E+02 0.  0.
         12    1    3    3    0    0 -0.92827442885E+01 -0.35048984380E+02  0.64171526558E+01  0.36820924701E+02  0.00000000000E+00 0. -1.
         11    1    4    4    0    0  0.18277797741E+01  0.20961165704E+01 -0.44992342352E+01  0.52893848928E+01  0.51100000000E-03 0. -1.
        -11    1    4    4    0    0 -0.33033797695E+00  0.31922302022E+02 -0.13845334177E+02  0.34797065513E+02  0.51100000000E-03 0.  1.
         12    1    4    4    0    0  0.77853024913E+01  0.10305657882E+01  0.11927415757E+02  0.14280624894E+02  0.00000000000E+00 0. -1.
</event>
<event>
 8    1  0.1247338E-006  0.9118800E+02  0.7816164E-02  0.1184000E+00
        -11   -1    0    0    0    0  0.00000000000E+00  0.00000000000E+00  0.45593999997E+02  0.45594000000E+02  0.51100000000E-03 0.  1.
         11   -1    0    0    0    0 -0.00000000000E+00 -0.00000000000E+00 -0.45593999997E+02  0.45594000000E+02  0.51100000000E-03 0. -1.
         23    2    1    2    0    0  0.00000000000E+00  0.00000000000E+00  0.35527136788E-14  0.91188000000E+02  0.91188000000E+02 0.  0.
    9900012    2    3    3    0    0 -0.27304215519E+02  0.18182619645E+02 -0.16722813371E+02  0.54367077560E+02  0.39999984914E+02 0.  0.
        -12    1    3    3    0    0  0.27304215519E+02 -0.18182619645E+02  0.16722813371E+02  0.36820922440E+02  0.00000000000E+00 0.  1.
         11    1    4    4    0    0 -0.20147416162E+02  0.12274436417E+02  0.24379566788E+01  0.23717584202E+02  0.51100000000E-03 0. -1.
        -11    1    4    4    0    0  0.14466231452E+00 -0.10250453247E+01  0.46676589465E+01  0.47810757581E+01  0.51100000000E-03 0.  1.
         12    1    4    4    0    0 -0.73014616717E+01  0.69332285529E+01 -0.23828428996E+02  0.25868417600E+02  0.00000000000E+00 0. -1.
</event>
<event>
 8    1  0.1247338E-006  0.9118800E+02  0.7816164E-02  0.1184000E+00
        -11   -1    0    0    0    0  0.00000000000E+00  0.00000000000E+00  0.45593999997E+02  0.45594000000E+02  0.51100000000E-03 0.  1.
         11   -1    0    0    0    0 -0.00000000000E+00 -0.00000000000E+00 -0.45593999997E+02  0.45594000000E+02  0.51100000000E-03 0. -1.
         23    2    1    2    0    0  0.00000000000E+00  0.00000000000E+00  0.00000000000E+00  0.91188000000E+02  0.91188000000E+02 0.  0.
    9900012    2    3    3    0    0 -0.25048902671E+02 -0.13188999403E+02 -0.23545335939E+02  0.54367081017E+02  0.39999992794E+02 0.  0.
         12    1    3    3    0    0  0.25048902671E+02  0.13188999403E+02  0.23545335939E+02  0.36820918983E+02  0.00000000000E+00 0. -1.
         11    1    4    4    0    0  0.76315823992E+01 -0.85916698112E+01 -0.70161207869E+00  0.11513040425E+02  0.51100000000E-03 0. -1.
        -11    1    4    4    0    0 -0.12266468756E+02 -0.52821690290E+01 -0.17125252803E+01  0.13464780299E+02  0.51100000000E-03 0.  1.
        -12    1    4    4    0    0 -0.20414016315E+02  0.68483943745E+00 -0.21131198580E+02  0.29389260293E+02  0.00000000000E+00 0.  1.
</event>
<event>
 8    1  0.1247338E-006  0.9118800E+02  0.7816164E-02  0.1184000E+00
        -11   -1    0    0    0    0  0.00000000000E+00  0.00000000000E+00  0.45593999997E+02  0.45594000000E+02  0.51100000000E-03 0. -1.
         11   -1    0    0    0    0 -0.00000000000E+00 -0.00000000000E+00 -0.45593999997E+02  0.45594000000E+02  0.51100000000E-03 0.  1.
         23    2    1    2    0    0 -0.71054273576E-14  0.00000000000E+00  0.00000000000E+00  0.91188000000E+02  0.91188000000E+02 0.  0.
    9900012    2    3    3    0    0 -0.29453155477E+02 -0.17048185960E+02 -0.14058887059E+02  0.54367064142E+02  0.39999954325E+02 0.  0.
        -12    1    3    3    0    0  0.29453155477E+02  0.17048185960E+02  0.14058887059E+02  0.36820935858E+02  0.00000000000E+00 0.  1.
         11    1    4    4    0    0  0.31391824719E+01 -0.15570533238E+01  0.90369166419E+00  0.36187761094E+01  0.51100000000E-03 0. -1.
        -11    1    4    4    0    0 -0.34199110208E+02 -0.16092070813E+02 -0.21882021924E+01  0.37859240763E+02  0.51100000000E-03 0.  1.
        -12    1    4    4    0    0  0.16067722585E+01  0.60093817702E+00 -0.12774376531E+02  0.12889047270E+02  0.00000000000E+00 0.  1.
</event>
<event>
 8    1  0.1247338E-006  0.9118800E+02  0.7816164E-02  0.1184000E+00
        -11   -1    0    0    0    0  0.00000000000E+00  0.00000000000E+00  0.45593999997E+02  0.45594000000E+02  0.51100000000E-03 0.  1.
         11   -1    0    0    0    0 -0.00000000000E+00 -0.00000000000E+00 -0.45593999997E+02  0.45594000000E+02  0.51100000000E-03 0. -1.
         23    2    1    2    0    0 -0.15265566589E-14  0.71054273576E-14  0.00000000000E+00  0.91188000000E+02  0.91188000000E+02 0.  0.
    9900012    2    3    3    0    0  0.16729928697E+00 -0.36509457365E+02 -0.47760899787E+01  0.54367088799E+02  0.40000010536E+02 0.  0.
         12    1    3    3    0    0 -0.16729928697E+00  0.36509457365E+02  0.47760899787E+01  0.36820911201E+02  0.00000000000E+00 0. -1.
         11    1    4    4    0    0  0.53190285220E+01  0.22242465753E+01 -0.45950886698E+01  0.73725285615E+01  0.51100000000E-03 0. -1.
        -11    1    4    4    0    0 -0.75597315300E+01 -0.11391765915E+02  0.10808750970E+02  0.17428452865E+02  0.51100000000E-03 0.  1.
         12    1    4    4    0    0  0.24080022949E+01 -0.27341938026E+02 -0.10989752279E+02  0.29566107373E+02  0.00000000000E+00 0. -1.
</event>
<event>
 8    1  0.1247338E-006  0.9118800E+02  0.7816164E-02  0.1184000E+00
        -11   -1    0    0    0    0  0.00000000000E+00  0.00000000000E+00  0.45593999997E+02  0.45594000000E+02  0.51100000000E-03 0. -1.
         11   -1    0    0    0    0 -0.00000000000E+00 -0.00000000000E+00 -0.45593999997E+02  0.45594000000E+02  0.51100000000E-03 0.  1.
         23    2    1    2    0    0 -0.17763568394E-14  0.35527136788E-14 -0.71054273576E-14  0.91188000000E+02  0.91188000000E+02 0.  0.
    9900012    2    3    3    0    0 -0.14572234086E+02  0.10299805641E+02 -0.32207831486E+02  0.54367076444E+02  0.39999982369E+02 0.  0.
         12    1    3    3    0    0  0.14572234086E+02 -0.10299805641E+02  0.32207831486E+02  0.36820923556E+02  0.00000000000E+00 0. -1.
         11    1    4    4    0    0 -0.65812170404E+01  0.21309763073E+01  0.47522023808E+01  0.83926697472E+01  0.51100000000E-03 0. -1.
        -11    1    4    4    0    0  0.56538881059E+01 -0.50614830813E+01 -0.15826254609E+02  0.17551506970E+02  0.51100000000E-03 0.  1.
         12    1    4    4    0    0 -0.13644905151E+02  0.13230312415E+02 -0.21133779258E+02  0.28422899727E+02  0.00000000000E+00 0. -1.
</event>
<event>
 8    1  0.1247338E-006  0.9118800E+02  0.7816164E-02  0.1184000E+00
        -11   -1    0    0    0    0  0.00000000000E+00  0.00000000000E+00  0.45593999997E+02  0.45594000000E+02  0.51100000000E-03 0.  1.
         11   -1    0    0    0    0 -0.00000000000E+00 -0.00000000000E+00 -0.45593999997E+02  0.45594000000E+02  0.51100000000E-03 0. -1.
         23    2    1    2    0    0 -0.35527136788E-14 -0.35527136788E-14 -0.88817841970E-15  0.91188000000E+02  0.91188000000E+02 0.  0.
    9900012    2    3    3    0    0 -0.19467729567E+02  0.30615001878E+02  0.62856366401E+01  0.54367081184E+02  0.39999993175E+02 0.  0.
         12    1    3    3    0    0  0.19467729567E+02 -0.30615001878E+02 -0.62856366401E+01  0.36820918816E+02  0.00000000000E+00 0. -1.
         11    1    4    4    0    0 -0.42490213146E+01  0.36950134564E-01  0.15726420744E+02  0.16290360866E+02  0.51100000000E-03 0. -1.
        -11    1    4    4    0    0 -0.13704249568E+02  0.17898159608E+02 -0.60945572914E+00  0.22550432593E+02  0.51100000000E-03 0.  1.
         12    1    4    4    0    0 -0.15144586844E+01  0.12679892136E+02 -0.88313283750E+01  0.15526287726E+02  0.00000000000E+00 0. -1.
</event>
<event>
 8    1  0.1247338E-006  0.9118800E+02  0.7816164E-02  0.1184000E+00
        -11   -1    0    0    0    0  0.00000000000E+00  0.00000000000E+00  0.45593999997E+02  0.45594000000E+02  0.51100000000E-03 0. -1.
         11   -1    0    0    0    0 -0.00000000000E+00 -0.00000000000E+00 -0.45593999997E+02  0.45594000000E+02  0.51100000000E-03 0.  1.
         23    2    1    2    0    0  0.71054273576E-14  0.00000000000E+00 -0.17763568394E-14  0.91188000000E+02  0.91188000000E+02 0.  0.
    9900012    2    3    3    0    0 -0.33182377880E+02  0.13217815936E+02  0.89442328508E+01  0.54367079844E+02  0.39999990120E+02 0.  0.
        -12    1    3    3    0    0  0.33182377880E+02 -0.13217815936E+02 -0.89442328508E+01  0.36820920156E+02  0.00000000000E+00 0.  1.
         11    1    4    4    0    0 -0.11758529366E+02 -0.33307020234E+01 -0.65918859467E+01  0.13885587832E+02  0.51100000000E-03 0. -1.
        -11    1    4    4    0    0 -0.29878808488E+01 -0.14816566871E+01 -0.60129485578E+01  0.68759209656E+01  0.51100000000E-03 0.  1.
         12    1    4    4    0    0 -0.18435967664E+02  0.18030174646E+02  0.21549067355E+02  0.33605571047E+02  0.00000000000E+00 0. -1.
</event>
<event>
 8    1  0.1247338E-006  0.9118800E+02  0.7816164E-02  0.1184000E+00
        -11   -1    0    0    0    0  0.00000000000E+00  0.00000000000E+00  0.45593999997E+02  0.45594000000E+02  0.51100000000E-03 0. -1.
         11   -1    0    0    0    0 -0.00000000000E+00 -0.00000000000E+00 -0.45593999997E+02  0.45594000000E+02  0.51100000000E-03 0.  1.
         23    2    1    2    0    0  0.88817841970E-15 -0.71054273576E-14 -0.55511151231E-15  0.91188000000E+02  0.91188000000E+02 0.  0.
    9900012    2    3    3    0    0  0.64820150875E+01 -0.36234804759E+02 -0.89590264128E+00  0.54367078813E+02  0.39999987770E+02 0.  0.
        -12    1    3    3    0    0 -0.64820150875E+01  0.36234804759E+02  0.89590264128E+00  0.36820921187E+02  0.00000000000E+00 0.  1.
         11    1    4    4    0    0  0.11744622795E+02 -0.24139090274E+02  0.53738945550E+01  0.27377190996E+02  0.51100000000E-03 0. -1.
        -11    1    4    4    0    0  0.84314448414E+01 -0.77214082478E+01 -0.52425288883E+01  0.12577500421E+02  0.51100000000E-03 0.  1.
        -12    1    4    4    0    0 -0.13694052549E+02 -0.43743062372E+01 -0.10272683080E+01  0.14412387396E+02  0.00000000000E+00 0.  1.
</event>
<event>
 8    1  0.1247338E-006  0.9118800E+02  0.7816164E-02  0.1184000E+00
        -11   -1    0    0    0    0  0.00000000000E+00  0.00000000000E+00  0.45593999997E+02  0.45594000000E+02  0.51100000000E-03 0. -1.
         11   -1    0    0    0    0 -0.00000000000E+00 -0.00000000000E+00 -0.45593999997E+02  0.45594000000E+02  0.51100000000E-03 0.  1.
         23    2    1    2    0    0  0.15543122345E-14 -0.17763568394E-14  0.00000000000E+00  0.91188000000E+02  0.91188000000E+02 0.  0.
    9900012    2    3    3    0    0 -0.14519855676E+01 -0.12805901497E+02 -0.34491747613E+02  0.54367081643E+02  0.39999994222E+02 0.  0.
         12    1    3    3    0    0  0.14519855676E+01  0.12805901497E+02  0.34491747613E+02  0.36820918357E+02  0.00000000000E+00 0. -1.
         11    1    4    4    0    0 -0.10030754784E+02  0.83084557705E+01 -0.17859856580E+02  0.22104772248E+02  0.51100000000E-03 0. -1.
        -11    1    4    4    0    0  0.99917352420E+01 -0.10116485638E+02 -0.27277848447E+01  0.14478220375E+02  0.51100000000E-03 0.  1.
         12    1    4    4    0    0 -0.14129660257E+01 -0.10997871629E+02 -0.13904106189E+02  0.17784089020E+02  0.00000000000E+00 0. -1.
</event>
<event>
 8    1  0.1247338E-006  0.9118800E+02  0.7816164E-02  0.1184000E+00
        -11   -1    0    0    0    0  0.00000000000E+00  0.00000000000E+00  0.45593999997E+02  0.45594000000E+02  0.51100000000E-03 0. -1.
         11   -1    0    0    0    0 -0.00000000000E+00 -0.00000000000E+00 -0.45593999997E+02  0.45594000000E+02  0.51100000000E-03 0.  1.
         23    2    1    2    0    0  0.88817841970E-15  0.00000000000E+00  0.00000000000E+00  0.91188000000E+02  0.91188000000E+02 0.  0.
    9900012    2    3    3    0    0 -0.64998832913E+01 -0.12230115943E+02  0.34116799405E+02  0.54367079039E+02  0.39999988286E+02 0.  0.
        -12    1    3    3    0    0  0.64998832913E+01  0.12230115943E+02 -0.34116799405E+02  0.36820920961E+02  0.00000000000E+00 0.  1.
         11    1    4    4    0    0 -0.59861802903E+00  0.18061085729E+01  0.38025131393E+02  0.38072706621E+02  0.51100000000E-03 0. -1.
        -11    1    4    4    0    0  0.67744110009E+00 -0.92096547142E+00 -0.36075994551E+00  0.11988543878E+01  0.51100000000E-03 0.  1.
         12    1    4    4    0    0 -0.65787063624E+01 -0.13115259045E+02 -0.35475720428E+01  0.15095518031E+02  0.00000000000E+00 0. -1.
</event>
<event>
 8    1  0.1247338E-006  0.9118800E+02  0.7816164E-02  0.1184000E+00
        -11   -1    0    0    0    0  0.00000000000E+00  0.00000000000E+00  0.45593999997E+02  0.45594000000E+02  0.51100000000E-03 0.  1.
         11   -1    0    0    0    0 -0.00000000000E+00 -0.00000000000E+00 -0.45593999997E+02  0.45594000000E+02  0.51100000000E-03 0. -1.
         23    2    1    2    0    0  0.00000000000E+00  0.00000000000E+00  0.00000000000E+00  0.91188000000E+02  0.91188000000E+02 0.  0.
    9900012    2    3    3    0    0  0.31079958440E+02 -0.36888913439E+01 -0.19396061503E+02  0.54367096456E+02  0.40000027991E+02 0.  0.
        -12    1    3    3    0    0 -0.31079958440E+02  0.36888913439E+01  0.19396061503E+02  0.36820903544E+02  0.00000000000E+00 0.  1.
         11    1    4    4    0    0  0.78742025212E+01 -0.31474574495E+01 -0.16968518627E+02  0.18969453824E+02  0.51100000000E-03 0. -1.
        -11    1    4    4    0    0  0.27460684196E+02  0.30126939291E+01 -0.66668637172E+01  0.28418525179E+02  0.51100000000E-03 0.  1.
         12    1    4    4    0    0 -0.42549282777E+01 -0.35541278235E+01  0.42393208412E+01  0.69791174535E+01  0.00000000000E+00 0. -1.
</event>
<event>
 8    1  0.1247338E-006  0.9118800E+02  0.7816164E-02  0.1184000E+00
        -11   -1    0    0    0    0  0.00000000000E+00  0.00000000000E+00  0.45593999997E+02  0.45594000000E+02  0.51100000000E-03 0. -1.
         11   -1    0    0    0    0 -0.00000000000E+00 -0.00000000000E+00 -0.45593999997E+02  0.45594000000E+02  0.51100000000E-03 0.  1.
         23    2    1    2    0    0  0.71054273576E-14 -0.17763568394E-14  0.17763568394E-14  0.91188000000E+02  0.91188000000E+02 0.  0.
    9900012    2    3    3    0    0  0.34527240923E+02 -0.53396847149E+01  0.11625051946E+02  0.54367021857E+02  0.39999857928E+02 0.  0.
        -12    1    3    3    0    0 -0.34527240923E+02  0.53396847149E+01 -0.11625051946E+02  0.36820978143E+02  0.00000000000E+00 0.  1.
         11    1    4    4    0    0  0.16678928341E+02  0.48769262614E+01 -0.91944824245E+01  0.19659846584E+02  0.51100000000E-03 0. -1.
        -11    1    4    4    0    0  0.10320018491E+02 -0.98411039958E+01  0.19562566137E+01  0.14393646158E+02  0.51100000000E-03 0.  1.
         12    1    4    4    0    0  0.75282940905E+01 -0.37550698058E+00  0.18863277757E+02  0.20313529116E+02  0.00000000000E+00 0. -1.
</event>
<event>
 8    1  0.1247338E-006  0.9118800E+02  0.7816164E-02  0.1184000E+00
        -11   -1    0    0    0    0  0.00000000000E+00  0.00000000000E+00  0.45593999997E+02  0.45594000000E+02  0.51100000000E-03 0.  1.
         11   -1    0    0    0    0 -0.00000000000E+00 -0.00000000000E+00 -0.45593999997E+02  0.45594000000E+02  0.51100000000E-03 0. -1.
         23    2    1    2    0    0  0.00000000000E+00  0.00000000000E+00  0.00000000000E+00  0.91188000000E+02  0.91188000000E+02 0.  0.
    9900012    2    3    3    0    0 -0.34031798089E+02  0.83129463801E+01 -0.11336202252E+02  0.54367111361E+02  0.40000061970E+02 0.  0.
         12    1    3    3    0    0  0.34031798089E+02 -0.83129463801E+01  0.11336202252E+02  0.36820888639E+02  0.00000000000E+00 0. -1.
         11    1    4    4    0    0 -0.45646695265E+01 -0.70325616181E+00 -0.14316651271E+02  0.15043180548E+02  0.51100000000E-03 0. -1.
        -11    1    4    4    0    0 -0.22914055173E+02  0.16815608760E+02 -0.86512923853E+00  0.28435313807E+02  0.51100000000E-03 0.  1.
         12    1    4    4    0    0 -0.65530733890E+01 -0.77994062176E+01  0.38455782576E+01  0.10888617007E+02  0.00000000000E+00 0. -1.
</event>
<event>
 8    1  0.1247338E-006  0.9118800E+02  0.7816164E-02  0.1184000E+00
        -11   -1    0    0    0    0  0.00000000000E+00  0.00000000000E+00  0.45593999997E+02  0.45594000000E+02  0.51100000000E-03 0. -1.
         11   -1    0    0    0    0 -0.00000000000E+00 -0.00000000000E+00 -0.45593999997E+02  0.45594000000E+02  0.51100000000E-03 0.  1.
         23    2    1    2    0    0  0.00000000000E+00 -0.17763568394E-14  0.00000000000E+00  0.91188000000E+02  0.91188000000E+02 0.  0.
    9900012    2    3    3    0    0  0.11317281594E+02 -0.21125795867E+01 -0.34974808306E+02  0.54367067486E+02  0.39999961948E+02 0.  0.
         12    1    3    3    0    0 -0.11317281594E+02  0.21125795867E+01  0.34974808306E+02  0.36820932514E+02  0.00000000000E+00 0. -1.
         11    1    4    4    0    0  0.39011522634E+01 -0.55925528149E+01  0.24612950484E+01  0.72493868393E+01  0.51100000000E-03 0. -1.
        -11    1    4    4    0    0  0.53723181345E+01  0.13655605565E+02 -0.32428002425E+02  0.35593717241E+02  0.51100000000E-03 0.  1.
         12    1    4    4    0    0  0.20438111956E+01 -0.10175632337E+02 -0.50081009296E+01  0.11523963406E+02  0.00000000000E+00 0. -1.
</event>
<event>
 8    1  0.1247338E-006  0.9118800E+02  0.7816164E-02  0.1184000E+00
        -11   -1    0    0    0    0  0.00000000000E+00  0.00000000000E+00  0.45593999997E+02  0.45594000000E+02  0.51100000000E-03 0. -1.
         11   -1    0    0    0    0 -0.00000000000E+00 -0.00000000000E+00 -0.45593999997E+02  0.45594000000E+02  0.51100000000E-03 0.  1.
         23    2    1    2    0    0 -0.55511151231E-15  0.00000000000E+00  0.17763568394E-14  0.91188000000E+02  0.91188000000E+02 0.  0.
    9900012    2    3    3    0    0  0.58725024782E+00 -0.36472463357E+02  0.50192544923E+01  0.54367104277E+02  0.40000045821E+02 0.  0.
         12    1    3    3    0    0 -0.58725024782E+00  0.36472463357E+02 -0.50192544923E+01  0.36820895723E+02  0.00000000000E+00 0. -1.
         11    1    4    4    0    0 -0.41174267693E+01 -0.37988192357E+01  0.32067974804E+01  0.64550585688E+01  0.51100000000E-03 0. -1.
        -11    1    4    4    0    0 -0.79079842624E+01 -0.14505970701E+02 -0.13229071681E+02  0.21165248377E+02  0.51100000000E-03 0.  1.
        -12    1    4    4    0    0  0.12612661280E+02 -0.18167673420E+02  0.15041528693E+02  0.26746797331E+02  0.00000000000E+00 0.  1.
</event>
<event>
 8    1  0.1247338E-006  0.9118800E+02  0.7816164E-02  0.1184000E+00
        -11   -1    0    0    0    0  0.00000000000E+00  0.00000000000E+00  0.45593999997E+02  0.45594000000E+02  0.51100000000E-03 0.  1.
         11   -1    0    0    0    0 -0.00000000000E+00 -0.00000000000E+00 -0.45593999997E+02  0.45594000000E+02  0.51100000000E-03 0. -1.
         23    2    1    2    0    0  0.00000000000E+00  0.17763568394E-14  0.00000000000E+00  0.91188000000E+02  0.91188000000E+02 0.  0.
    9900012    2    3    3    0    0  0.96472180999E+01 -0.10579286951E+02  0.33923296562E+02  0.54367079600E+02  0.39999989564E+02 0.  0.
         12    1    3    3    0    0 -0.96472180999E+01  0.10579286951E+02 -0.33923296562E+02  0.36820920400E+02  0.00000000000E+00 0. -1.
         11    1    4    4    0    0  0.56680941067E+01 -0.10059756705E+02 -0.65011973289E+01  0.13251096661E+02  0.51100000000E-03 0. -1.
        -11    1    4    4    0    0  0.11716259451E+01 -0.11651688921E+01  0.34384349598E+02  0.34424029738E+02  0.51100000000E-03 0.  1.
         12    1    4    4    0    0  0.28074980481E+01  0.64563864528E+00  0.60401442935E+01  0.66919532004E+01  0.00000000000E+00 0. -1.
</event>
<event>
 8    1  0.1247338E-006  0.9118800E+02  0.7816164E-02  0.1184000E+00
        -11   -1    0    0    0    0  0.00000000000E+00  0.00000000000E+00  0.45593999997E+02  0.45594000000E+02  0.51100000000E-03 0. -1.
         11   -1    0    0    0    0 -0.00000000000E+00 -0.00000000000E+00 -0.45593999997E+02  0.45594000000E+02  0.51100000000E-03 0.  1.
         23    2    1    2    0    0  0.00000000000E+00  0.17763568394E-14 -0.17763568394E-14  0.91188000000E+02  0.91188000000E+02 0.  0.
    9900012    2    3    3    0    0 -0.32854237991E+02  0.11728899999E+02  0.11781860366E+02  0.54367078192E+02  0.39999986354E+02 0.  0.
        -12    1    3    3    0    0  0.32854237991E+02 -0.11728899999E+02 -0.11781860366E+02  0.36820921808E+02  0.00000000000E+00 0.  1.
         11    1    4    4    0    0  0.48279526426E+01 -0.59038511775E+01  0.21491880207E+01  0.79236099636E+01  0.51100000000E-03 0. -1.
        -11    1    4    4    0    0 -0.54585060721E+01  0.60527740817E+01  0.90748237635E+01  0.12197696062E+02  0.51100000000E-03 0.  1.
         12    1    4    4    0    0 -0.32223684561E+02  0.11579977095E+02  0.55784858154E+00  0.34245772166E+02  0.00000000000E+00 0. -1.
</event>
<event>
 8    1  0.1247338E-006  0.9118800E+02  0.7816164E-02  0.1184000E+00
        -11   -1    0    0    0    0  0.00000000000E+00  0.00000000000E+00  0.45593999997E+02  0.45594000000E+02  0.51100000000E-03 0. -1.
         11   -1    0    0    0    0 -0.00000000000E+00 -0.00000000000E+00 -0.45593999997E+02  0.45594000000E+02  0.51100000000E-03 0.  1.
         23    2    1    2    0    0 -0.22204460493E-15  0.00000000000E+00  0.00000000000E+00  0.91188000000E+02  0.91188000000E+02 0.  0.
    9900012    2    3    3    0    0 -0.16794539590E+01 -0.27218555785E+02  0.24740838693E+02  0.54367089584E+02  0.40000012326E+02 0.  0.
        -12    1    3    3    0    0  0.16794539590E+01  0.27218555785E+02 -0.24740838693E+02  0.36820910416E+02  0.00000000000E+00 0.  1.
         11    1    4    4    0    0 -0.16498324502E+01  0.36334510508E+01  0.81527608454E+01  0.90769721447E+01  0.51100000000E-03 0. -1.
        -11    1    4    4    0    0  0.13856544366E+00  0.47046888995E+01  0.70485764602E+01  0.84755960498E+01  0.51100000000E-03 0.  1.
         12    1    4    4    0    0 -0.16818695243E+00 -0.35556695735E+02  0.95395013870E+01  0.36814521390E+02  0.00000000000E+00 0. -1.
</event>
<event>
 8    1  0.1247338E-006  0.9118800E+02  0.7816164E-02  0.1184000E+00
        -11   -1    0    0    0    0  0.00000000000E+00  0.00000000000E+00  0.45593999997E+02  0.45594000000E+02  0.51100000000E-03 0. -1.
         11   -1    0    0    0    0 -0.00000000000E+00 -0.00000000000E+00 -0.45593999997E+02  0.45594000000E+02  0.51100000000E-03 0.  1.
         23    2    1    2    0    0  0.00000000000E+00 -0.17763568394E-14  0.35527136788E-14  0.91188000000E+02  0.91188000000E+02 0.  0.
    9900012    2    3    3    0    0 -0.24767996648E+02  0.33915275377E+01 -0.27033677883E+02  0.54367138292E+02  0.40000123364E+02 0.  0.
         12    1    3    3    0    0  0.24767996648E+02 -0.33915275377E+01  0.27033677883E+02  0.36820861708E+02  0.00000000000E+00 0. -1.
         11    1    4    4    0    0 -0.14771267498E+02  0.60423706407E+00 -0.13278656127E+02  0.19871541327E+02  0.51100000000E-03 0.  1.
        -11    1    4    4    0    0 -0.95174256334E+01 -0.12835085838E+02 -0.62532317164E+01  0.17158779861E+02  0.51100000000E-03 0. -1.
        -12    1    4    4    0    0 -0.47930351708E+00  0.15622376312E+02 -0.75017900399E+01  0.17336817104E+02  0.00000000000E+00 0.  1.
</event>
<event>
 8    1  0.1247338E-006  0.9118800E+02  0.7816164E-02  0.1184000E+00
        -11   -1    0    0    0    0  0.00000000000E+00  0.00000000000E+00  0.45593999997E+02  0.45594000000E+02  0.51100000000E-03 0.  1.
         11   -1    0    0    0    0 -0.00000000000E+00 -0.00000000000E+00 -0.45593999997E+02  0.45594000000E+02  0.51100000000E-03 0. -1.
         23    2    1    2    0    0  0.35527136788E-14  0.00000000000E+00  0.00000000000E+00  0.91188000000E+02  0.91188000000E+02 0.  0.
    9900012    2    3    3    0    0 -0.20011980528E+02  0.16171268486E+02 -0.26339761632E+02  0.54367186158E+02  0.40000232484E+02 0.  0.
        -12    1    3    3    0    0  0.20011980528E+02 -0.16171268486E+02  0.26339761632E+02  0.36820813842E+02  0.00000000000E+00 0.  1.
         11    1    4    4    0    0 -0.36357103953E+01  0.23851441775E+01 -0.55977796491E+01  0.70881901842E+01  0.51100000000E-03 0. -1.
        -11    1    4    4    0    0 -0.11057220165E+02 -0.11682975304E+01  0.85077166150E+01  0.14000295681E+02  0.51100000000E-03 0.  1.
         12    1    4    4    0    0 -0.53190499685E+01  0.14954421839E+02 -0.29249698598E+02  0.33278700293E+02  0.00000000000E+00 0. -1.
</event>
<event>
 8    1  0.1247338E-006  0.9118800E+02  0.7816164E-02  0.1184000E+00
        -11   -1    0    0    0    0  0.00000000000E+00  0.00000000000E+00  0.45593999997E+02  0.45594000000E+02  0.51100000000E-03 0. -1.
         11   -1    0    0    0    0 -0.00000000000E+00 -0.00000000000E+00 -0.45593999997E+02  0.45594000000E+02  0.51100000000E-03 0.  1.
         23    2    1    2    0    0 -0.35527136788E-14 -0.35527136788E-14  0.00000000000E+00  0.91188000000E+02  0.91188000000E+02 0.  0.
    9900012    2    3    3    0    0 -0.16416875595E+02 -0.20800387391E+02 -0.25565772013E+02  0.54367100791E+02  0.40000037874E+02 0.  0.
         12    1    3    3    0    0  0.16416875595E+02  0.20800387391E+02  0.25565772013E+02  0.36820899209E+02  0.00000000000E+00 0. -1.
         11    1    4    4    0    0  0.29517886616E+01 -0.34142885012E+01 -0.41933189258E+00  0.45327984480E+01  0.51100000000E-03 0. -1.
        -11    1    4    4    0    0 -0.17067109866E+02 -0.14731846784E+02 -0.33723379870E+02  0.40565747854E+02  0.51100000000E-03 0.  1.
        -12    1    4    4    0    0 -0.23015543906E+01 -0.26542521056E+01  0.85769397497E+01  0.92685544894E+01  0.00000000000E+00 0.  1.
</event>
<event>
 8    1  0.1247338E-006  0.9118800E+02  0.7816164E-02  0.1184000E+00
        -11   -1    0    0    0    0  0.00000000000E+00  0.00000000000E+00  0.45593999997E+02  0.45594000000E+02  0.51100000000E-03 0. -1.
         11   -1    0    0    0    0 -0.00000000000E+00 -0.00000000000E+00 -0.45593999997E+02  0.45594000000E+02  0.51100000000E-03 0.  1.
         23    2    1    2    0    0  0.00000000000E+00  0.00000000000E+00 -0.35527136788E-14  0.91188000000E+02  0.91188000000E+02 0.  0.
    9900012    2    3    3    0    0 -0.29397132600E+02  0.19394113465E+02 -0.10745105742E+02  0.54367077420E+02  0.39999984595E+02 0.  0.
         12    1    3    3    0    0  0.29397132600E+02 -0.19394113465E+02  0.10745105742E+02  0.36820922580E+02  0.00000000000E+00 0. -1.
         11    1    4    4    0    0 -0.76303616036E+01  0.17012573368E+01  0.12432615803E+02  0.14686273547E+02  0.51100000000E-03 0. -1.
        -11    1    4    4    0    0 -0.18425771675E+02  0.13746211960E+02 -0.25216563522E+02  0.34122463000E+02  0.51100000000E-03 0.  1.
        -12    1    4    4    0    0 -0.33409993213E+01  0.39466441683E+01  0.20388419759E+01  0.55583408728E+01  0.00000000000E+00 0.  1.
</event>
<event>
 8    1  0.1247338E-006  0.9118800E+02  0.7816164E-02  0.1184000E+00
        -11   -1    0    0    0    0  0.00000000000E+00  0.00000000000E+00  0.45593999997E+02  0.45594000000E+02  0.51100000000E-03 0.  1.
         11   -1    0    0    0    0 -0.00000000000E+00 -0.00000000000E+00 -0.45593999997E+02  0.45594000000E+02  0.51100000000E-03 0. -1.
         23    2    1    2    0    0  0.00000000000E+00  0.00000000000E+00  0.17763568394E-14  0.91188000000E+02  0.91188000000E+02 0.  0.
    9900012    2    3    3    0    0  0.20464102353E+02 -0.28176337770E+02 -0.11962039270E+02  0.54367137995E+02  0.40000122688E+02 0.  0.
        -12    1    3    3    0    0 -0.20464102353E+02  0.28176337770E+02  0.11962039270E+02  0.36820862005E+02  0.00000000000E+00 0.  1.
         11    1    4    4    0    0  0.11890534737E+01 -0.63246305444E+01 -0.11124366695E+02  0.12851705503E+02  0.51100000000E-03 0. -1.
        -11    1    4    4    0    0 -0.30738391464E-01 -0.13123702000E+02  0.11107286759E+02  0.17193147426E+02  0.51100000000E-03 0.  1.
        -12    1    4    4    0    0  0.19305787271E+02 -0.87280052262E+01 -0.11944959333E+02  0.24322285067E+02  0.00000000000E+00 0.  1.
</event>
<event>
 8    1  0.1247338E-006  0.9118800E+02  0.7816164E-02  0.1184000E+00
        -11   -1    0    0    0    0  0.00000000000E+00  0.00000000000E+00  0.45593999997E+02  0.45594000000E+02  0.51100000000E-03 0.  1.
         11   -1    0    0    0    0 -0.00000000000E+00 -0.00000000000E+00 -0.45593999997E+02  0.45594000000E+02  0.51100000000E-03 0. -1.
         23    2    1    2    0    0 -0.17763568394E-14  0.00000000000E+00  0.00000000000E+00  0.91188000000E+02  0.91188000000E+02 0.  0.
    9900012    2    3    3    0    0 -0.57045784745E+01  0.21659142030E+02 -0.29225344039E+02  0.54367063248E+02  0.39999952287E+02 0.  0.
        -12    1    3    3    0    0  0.57045784745E+01 -0.21659142030E+02  0.29225344039E+02  0.36820936752E+02  0.00000000000E+00 0.  1.
         11    1    4    4    0    0  0.37495036297E+01  0.11321334785E+02 -0.17517529728E+02  0.21191867469E+02  0.51100000000E-03 0. -1.
        -11    1    4    4    0    0  0.72233678166E+01 -0.29361959319E+01  0.17177300257E+01  0.79842899413E+01  0.51100000000E-03 0.  1.
        -12    1    4    4    0    0 -0.16677449921E+02  0.13274003177E+02 -0.13425544337E+02  0.25190905838E+02  0.00000000000E+00 0.  1.
</event>
<event>
 8    1  0.1247338E-006  0.9118800E+02  0.7816164E-02  0.1184000E+00
        -11   -1    0    0    0    0  0.00000000000E+00  0.00000000000E+00  0.45593999997E+02  0.45594000000E+02  0.51100000000E-03 0. -1.
         11   -1    0    0    0    0 -0.00000000000E+00 -0.00000000000E+00 -0.45593999997E+02  0.45594000000E+02  0.51100000000E-03 0.  1.
         23    2    1    2    0    0 -0.26645352591E-14  0.17763568394E-14  0.00000000000E+00  0.91188000000E+02  0.91188000000E+02 0.  0.
    9900012    2    3    3    0    0 -0.75562844331E+01  0.88186150195E+01  0.34941594228E+02  0.54367076430E+02  0.39999982339E+02 0.  0.
        -12    1    3    3    0    0  0.75562844331E+01 -0.88186150195E+01 -0.34941594228E+02  0.36820923570E+02  0.00000000000E+00 0.  1.
         11    1    4    4    0    0  0.62340347267E+01 -0.81654834198E+01  0.57619361537E+00  0.10289329803E+02  0.51100000000E-03 0. -1.
        -11    1    4    4    0    0 -0.16509007865E+02  0.12548078676E+02  0.20043011134E+02  0.28839624039E+02  0.51100000000E-03 0.  1.
         12    1    4    4    0    0  0.27186887056E+01  0.44360197631E+01  0.14322389479E+02  0.15238122588E+02  0.00000000000E+00 0. -1.
</event>
<event>
 8    1  0.1247338E-006  0.9118800E+02  0.7816164E-02  0.1184000E+00
        -11   -1    0    0    0    0  0.00000000000E+00  0.00000000000E+00  0.45593999997E+02  0.45594000000E+02  0.51100000000E-03 0. -1.
         11   -1    0    0    0    0 -0.00000000000E+00 -0.00000000000E+00 -0.45593999997E+02  0.45594000000E+02  0.51100000000E-03 0.  1.
         23    2    1    2    0    0  0.00000000000E+00 -0.88817841970E-15 -0.22204460493E-15  0.91188000000E+02  0.91188000000E+02 0.  0.
    9900012    2    3    3    0    0  0.36232534230E+02  0.65104865138E+01  0.77306101640E+00  0.54367073956E+02  0.39999976698E+02 0.  0.
        -12    1    3    3    0    0 -0.36232534230E+02 -0.65104865138E+01 -0.77306101640E+00  0.36820926044E+02  0.00000000000E+00 0.  1.
         11    1    4    4    0    0  0.91090790664E+01 -0.12066158535E+02  0.69549992373E+00  0.15134438332E+02  0.51100000000E-03 0. -1.
        -11    1    4    4    0    0 -0.26570013909E+01  0.42114659276E+01 -0.33345710604E+01  0.59929513654E+01  0.51100000000E-03 0.  1.
        -12    1    4    4    0    0  0.29780456555E+02  0.14365179121E+02  0.34121321531E+01  0.33239684259E+02  0.00000000000E+00 0.  1.
</event>
<event>
 8    1  0.1247338E-006  0.9118800E+02  0.7816164E-02  0.1184000E+00
        -11   -1    0    0    0    0  0.00000000000E+00  0.00000000000E+00  0.45593999997E+02  0.45594000000E+02  0.51100000000E-03 0. -1.
         11   -1    0    0    0    0 -0.00000000000E+00 -0.00000000000E+00 -0.45593999997E+02  0.45594000000E+02  0.51100000000E-03 0.  1.
         23    2    1    2    0    0  0.35527136788E-14  0.00000000000E+00 -0.17763568394E-14  0.91188000000E+02  0.91188000000E+02 0.  0.
    9900012    2    3    3    0    0  0.22371524599E+02 -0.26420481476E+02 -0.12540035671E+02  0.54367089515E+02  0.40000012168E+02 0.  0.
        -12    1    3    3    0    0 -0.22371524599E+02  0.26420481476E+02  0.12540035671E+02  0.36820910485E+02  0.00000000000E+00 0.  1.
         11    1    4    4    0    0  0.16289554583E+02 -0.50084258128E+01  0.15024038533E-01  0.17042128495E+02  0.51100000000E-03 0. -1.
        -11    1    4    4    0    0  0.31434170346E+01  0.13982558833E+01  0.65679873130E+01  0.74144890433E+01  0.51100000000E-03 0.  1.
        -12    1    4    4    0    0  0.29385529805E+01 -0.22810311547E+02 -0.19123047022E+02  0.29910471977E+02  0.00000000000E+00 0.  1.
</event>
<event>
 8    1  0.1247338E-006  0.9118800E+02  0.7816164E-02  0.1184000E+00
        -11   -1    0    0    0    0  0.00000000000E+00  0.00000000000E+00  0.45593999997E+02  0.45594000000E+02  0.51100000000E-03 0. -1.
         11   -1    0    0    0    0 -0.00000000000E+00 -0.00000000000E+00 -0.45593999997E+02  0.45594000000E+02  0.51100000000E-03 0.  1.
         23    2    1    2    0    0  0.00000000000E+00  0.00000000000E+00  0.00000000000E+00  0.91188000000E+02  0.91188000000E+02 0.  0.
    9900012    2    3    3    0    0  0.93951392940E+01  0.25751660918E+02 -0.24583804306E+02  0.54367080450E+02  0.39999991502E+02 0.  0.
         12    1    3    3    0    0 -0.93951392940E+01 -0.25751660918E+02  0.24583804306E+02  0.36820919550E+02  0.00000000000E+00 0. -1.
         11    1    4    4    0    0  0.17928157314E+02 -0.10097531987E+00 -0.11792731793E+02  0.21459206511E+02  0.51100000000E-03 0. -1.
        -11    1    4    4    0    0 -0.13513791690E-01  0.16440546553E+02 -0.26355877253E+01  0.16650467756E+02  0.51100000000E-03 0.  1.
         12    1    4    4    0    0 -0.85195042282E+01  0.94120896850E+01 -0.10155484787E+02  0.16257406183E+02  0.00000000000E+00 0. -1.
</event>
<event>
 8    1  0.1247338E-006  0.9118800E+02  0.7816164E-02  0.1184000E+00
        -11   -1    0    0    0    0  0.00000000000E+00  0.00000000000E+00  0.45593999997E+02  0.45594000000E+02  0.51100000000E-03 0. -1.
         11   -1    0    0    0    0 -0.00000000000E+00 -0.00000000000E+00 -0.45593999997E+02  0.45594000000E+02  0.51100000000E-03 0.  1.
         23    2    1    2    0    0  0.88817841970E-15  0.00000000000E+00  0.00000000000E+00  0.91188000000E+02  0.91188000000E+02 0.  0.
    9900012    2    3    3    0    0  0.53628218977E+01  0.61319547476E+01 -0.35908489542E+02  0.54367077294E+02  0.39999984308E+02 0.  0.
         12    1    3    3    0    0 -0.53628218977E+01 -0.61319547476E+01  0.35908489542E+02  0.36820922706E+02  0.00000000000E+00 0. -1.
         11    1    4    4    0    0  0.13921755856E+02 -0.12046208150E+00  0.21079847234E+00  0.13923872791E+02  0.51100000000E-03 0. -1.
        -11    1    4    4    0    0 -0.99117329197E+01 -0.12313188270E+01 -0.25460084827E+02  0.27349122750E+02  0.51100000000E-03 0.  1.
        -12    1    4    4    0    0  0.13527989610E+01  0.74837356561E+01 -0.10659203187E+02  0.13094081754E+02  0.00000000000E+00 0.  1.
</event>
<event>
 8    1  0.1247338E-006  0.9118800E+02  0.7816164E-02  0.1184000E+00
        -11   -1    0    0    0    0  0.00000000000E+00  0.00000000000E+00  0.45593999997E+02  0.45594000000E+02  0.51100000000E-03 0. -1.
         11   -1    0    0    0    0 -0.00000000000E+00 -0.00000000000E+00 -0.45593999997E+02  0.45594000000E+02  0.51100000000E-03 0.  1.
         23    2    1    2    0    0  0.00000000000E+00 -0.35527136788E-14  0.00000000000E+00  0.91188000000E+02  0.91188000000E+02 0.  0.
    9900012    2    3    3    0    0  0.22187742378E+02  0.29091410393E+02 -0.41438865755E+01  0.54367111004E+02  0.40000061156E+02 0.  0.
         12    1    3    3    0    0 -0.22187742378E+02 -0.29091410393E+02  0.41438865755E+01  0.36820888996E+02  0.00000000000E+00 0. -1.
         11    1    4    4    0    0 -0.50991053311E+01  0.77047033977E+01  0.69815461704E+01  0.11580385003E+02  0.51100000000E-03 0. -1.
        -11    1    4    4    0    0 -0.18288900628E+00  0.19580594578E+01 -0.88477148125E+01  0.90636362953E+01  0.51100000000E-03 0.  1.
         12    1    4    4    0    0  0.27469736715E+02  0.19428647538E+02 -0.22777179334E+01  0.33723089706E+02  0.00000000000E+00 0. -1.
</event>
<event>
 8    1  0.1247338E-006  0.9118800E+02  0.7816164E-02  0.1184000E+00
        -11   -1    0    0    0    0  0.00000000000E+00  0.00000000000E+00  0.45593999997E+02  0.45594000000E+02  0.51100000000E-03 0.  1.
         11   -1    0    0    0    0 -0.00000000000E+00 -0.00000000000E+00 -0.45593999997E+02  0.45594000000E+02  0.51100000000E-03 0. -1.
         23    2    1    2    0    0  0.88817841970E-15  0.00000000000E+00  0.35527136788E-14  0.91188000000E+02  0.91188000000E+02 0.  0.
    9900012    2    3    3    0    0  0.21656908801E+01  0.29525367487E+02 -0.21893861379E+02  0.54367099572E+02  0.40000035095E+02 0.  0.
        -12    1    3    3    0    0 -0.21656908801E+01 -0.29525367487E+02  0.21893861379E+02  0.36820900428E+02  0.00000000000E+00 0.  1.
         11    1    4    4    0    0 -0.29769483468E+01  0.11019896368E+01 -0.88439094539E+01  0.93963470194E+01  0.51100000000E-03 0. -1.
        -11    1    4    4    0    0 -0.98794909815E+01  0.23000207183E+02 -0.11587694857E+01  0.25059062622E+02  0.51100000000E-03 0.  1.
        -12    1    4    4    0    0  0.15022130208E+02  0.54231706672E+01 -0.11891182439E+02  0.19911689931E+02  0.00000000000E+00 0.  1.
</event>
<event>
 8    1  0.1247338E-006  0.9118800E+02  0.7816164E-02  0.1184000E+00
        -11   -1    0    0    0    0  0.00000000000E+00  0.00000000000E+00  0.45593999997E+02  0.45594000000E+02  0.51100000000E-03 0.  1.
         11   -1    0    0    0    0 -0.00000000000E+00 -0.00000000000E+00 -0.45593999997E+02  0.45594000000E+02  0.51100000000E-03 0. -1.
         23    2    1    2    0    0  0.00000000000E+00  0.00000000000E+00  0.71054273576E-14  0.91188000000E+02  0.91188000000E+02 0.  0.
    9900012    2    3    3    0    0  0.14524314500E+02  0.35030444087E+01 -0.33653421087E+02  0.54367084983E+02  0.40000001836E+02 0.  0.
        -12    1    3    3    0    0 -0.14524314500E+02 -0.35030444087E+01  0.33653421087E+02  0.36820915017E+02  0.00000000000E+00 0.  1.
         11    1    4    4    0    0 -0.25806035611E+01  0.76017941227E+01 -0.18246878639E+02  0.19934777876E+02  0.51100000000E-03 0. -1.
        -11    1    4    4    0    0  0.30819173963E+01 -0.42655476525E+01  0.65358957064E+01  0.83911289205E+01  0.51100000000E-03 0.  1.
        -12    1    4    4    0    0  0.14023000665E+02  0.16679793855E+00 -0.21942438154E+02  0.26041178187E+02  0.00000000000E+00 0.  1.
</event>
<event>
 8    1  0.1247338E-006  0.9118800E+02  0.7816164E-02  0.1184000E+00
        -11   -1    0    0    0    0  0.00000000000E+00  0.00000000000E+00  0.45593999997E+02  0.45594000000E+02  0.51100000000E-03 0. -1.
         11   -1    0    0    0    0 -0.00000000000E+00 -0.00000000000E+00 -0.45593999997E+02  0.45594000000E+02  0.51100000000E-03 0.  1.
         23    2    1    2    0    0 -0.35527136788E-14  0.00000000000E+00  0.00000000000E+00  0.91188000000E+02  0.91188000000E+02 0.  0.
    9900012    2    3    3    0    0  0.19731862241E+02  0.58460087003E+01  0.30532926692E+02  0.54367057350E+02  0.39999938841E+02 0.  0.
        -12    1    3    3    0    0 -0.19731862241E+02 -0.58460087003E+01 -0.30532926692E+02  0.36820942650E+02  0.00000000000E+00 0.  1.
         11    1    4    4    0    0 -0.39987507771E+01 -0.36524672845E+01  0.51632899555E+01  0.74826525021E+01  0.51100000000E-03 0. -1.
        -11    1    4    4    0    0  0.18275402042E+02  0.20243106447E+02  0.15990898101E+02  0.31614593161E+02  0.51100000000E-03 0.  1.
         12    1    4    4    0    0  0.54552109766E+01 -0.10744630462E+02  0.93787386351E+01  0.15269811687E+02  0.00000000000E+00 0. -1.
</event>
<event>
 8    1  0.1247338E-006  0.9118800E+02  0.7816164E-02  0.1184000E+00
        -11   -1    0    0    0    0  0.00000000000E+00  0.00000000000E+00  0.45593999997E+02  0.45594000000E+02  0.51100000000E-03 0.  1.
         11   -1    0    0    0    0 -0.00000000000E+00 -0.00000000000E+00 -0.45593999997E+02  0.45594000000E+02  0.51100000000E-03 0. -1.
         23    2    1    2    0    0  0.00000000000E+00  0.33306690739E-15 -0.17763568394E-14  0.91188000000E+02  0.91188000000E+02 0.  0.
    9900012    2    3    3    0    0  0.33166180365E+02 -0.89488456833E+00 -0.15968163839E+02  0.54367101114E+02  0.40000038610E+02 0.  0.
        -12    1    3    3    0    0 -0.33166180365E+02  0.89488456833E+00  0.15968163839E+02  0.36820898886E+02  0.00000000000E+00 0.  1.
         11    1    4    4    0    0  0.17454388694E+02  0.39667587753E+01  0.74482187752E+01  0.19387285087E+02  0.51100000000E-03 0. -1.
        -11    1    4    4    0    0  0.15341056502E+02 -0.68933255796E+01 -0.66481898573E+01  0.18084921366E+02  0.51100000000E-03 0.  1.
         12    1    4    4    0    0  0.37073516797E+00  0.20316822359E+01 -0.16768192757E+02  0.16894894661E+02  0.00000000000E+00 0. -1.
</event>
<event>
 8    1  0.1247338E-006  0.9118800E+02  0.7816164E-02  0.1184000E+00
        -11   -1    0    0    0    0  0.00000000000E+00  0.00000000000E+00  0.45593999997E+02  0.45594000000E+02  0.51100000000E-03 0.  1.
         11   -1    0    0    0    0 -0.00000000000E+00 -0.00000000000E+00 -0.45593999997E+02  0.45594000000E+02  0.51100000000E-03 0. -1.
         23    2    1    2    0    0  0.00000000000E+00 -0.17763568394E-14  0.00000000000E+00  0.91188000000E+02  0.91188000000E+02 0.  0.
    9900012    2    3    3    0    0 -0.26319539455E+02  0.15661527198E+02  0.20439623972E+02  0.54367084484E+02  0.40000000699E+02 0.  0.
         12    1    3    3    0    0  0.26319539455E+02 -0.15661527198E+02 -0.20439623972E+02  0.36820915516E+02  0.00000000000E+00 0. -1.
         11    1    4    4    0    0  0.24420504911E+01  0.64526518175E+01 -0.26993898937E+01  0.74085782805E+01  0.51100000000E-03 0. -1.
        -11    1    4    4    0    0 -0.52541811580E+01  0.63689176346E+01  0.21721529656E+02  0.23237779204E+02  0.51100000000E-03 0.  1.
        -12    1    4    4    0    0 -0.23507408788E+02  0.28399577458E+01  0.14174842100E+01  0.23720727000E+02  0.00000000000E+00 0.  1.
</event>
<event>
 8    1  0.1247338E-006  0.9118800E+02  0.7816164E-02  0.1184000E+00
        -11   -1    0    0    0    0  0.00000000000E+00  0.00000000000E+00  0.45593999997E+02  0.45594000000E+02  0.51100000000E-03 0.  1.
         11   -1    0    0    0    0 -0.00000000000E+00 -0.00000000000E+00 -0.45593999997E+02  0.45594000000E+02  0.51100000000E-03 0. -1.
         23    2    1    2    0    0 -0.14210854715E-13  0.88817841970E-15 -0.35527136788E-14  0.91188000000E+02  0.91188000000E+02 0.  0.
    9900012    2    3    3    0    0 -0.33907701768E+02  0.59219145401E+01 -0.13075871773E+02  0.54367085649E+02  0.40000003354E+02 0.  0.
        -12    1    3    3    0    0  0.33907701768E+02 -0.59219145401E+01  0.13075871773E+02  0.36820914351E+02  0.00000000000E+00 0.  1.
         11    1    4    4    0    0  0.18124407644E+01 -0.58350043668E+01  0.84116403158E+01  0.10396533583E+02  0.51100000000E-03 0. -1.
        -11    1    4    4    0    0 -0.70534716168E+01 -0.56712208673E+00 -0.51246611795E+01  0.87370041648E+01  0.51100000000E-03 0.  1.
         12    1    4    4    0    0 -0.28666670916E+02  0.12324040994E+02 -0.16362850910E+02  0.35233547901E+02  0.00000000000E+00 0. -1.
</event>
<event>
 8    1  0.1247338E-006  0.9118800E+02  0.7816164E-02  0.1184000E+00
        -11   -1    0    0    0    0  0.00000000000E+00  0.00000000000E+00  0.45593999997E+02  0.45594000000E+02  0.51100000000E-03 0.  1.
         11   -1    0    0    0    0 -0.00000000000E+00 -0.00000000000E+00 -0.45593999997E+02  0.45594000000E+02  0.51100000000E-03 0. -1.
         23    2    1    2    0    0  0.71054273576E-14  0.17763568394E-14  0.00000000000E+00  0.91188000000E+02  0.91188000000E+02 0.  0.
    9900012    2    3    3    0    0  0.33710279685E+02  0.12109353910E+02  0.85298708907E+01  0.54367107752E+02  0.40000053742E+02 0.  0.
        -12    1    3    3    0    0 -0.33710279685E+02 -0.12109353910E+02 -0.85298708907E+01  0.36820892248E+02  0.00000000000E+00 0.  1.
         11    1    4    4    0    0  0.19829542011E+02  0.82608168203E+01 -0.16491873408E+01  0.21544643187E+02  0.51100000000E-03 0. -1.
        -11    1    4    4    0    0  0.21535770545E+02  0.73907075294E+01  0.75237026881E+01  0.23979534465E+02  0.51100000000E-03 0.  1.
        -12    1    4    4    0    0 -0.76550328717E+01 -0.35421704393E+01  0.26553555434E+01  0.88429300998E+01  0.00000000000E+00 0.  1.
</event>
<event>
 8    1  0.1247338E-006  0.9118800E+02  0.7816164E-02  0.1184000E+00
        -11   -1    0    0    0    0  0.00000000000E+00  0.00000000000E+00  0.45593999997E+02  0.45594000000E+02  0.51100000000E-03 0.  1.
         11   -1    0    0    0    0 -0.00000000000E+00 -0.00000000000E+00 -0.45593999997E+02  0.45594000000E+02  0.51100000000E-03 0. -1.
         23    2    1    2    0    0  0.00000000000E+00  0.17763568394E-14  0.00000000000E+00  0.91188000000E+02  0.91188000000E+02 0.  0.
    9900012    2    3    3    0    0 -0.36276101697E+02 -0.44113242067E+01 -0.45130167667E+01  0.54367045966E+02  0.39999912890E+02 0.  0.
        -12    1    3    3    0    0  0.36276101697E+02  0.44113242067E+01  0.45130167667E+01  0.36820954034E+02  0.00000000000E+00 0.  1.
         11    1    4    4    0    0 -0.65161771148E+00  0.42523184420E+01 -0.27125105429E+01  0.50857183839E+01  0.51100000000E-03 0. -1.
        -11    1    4    4    0    0 -0.32688317147E+02  0.40259972533E+01 -0.93369291050E+01  0.34233214532E+02  0.51100000000E-03 0.  1.
        -12    1    4    4    0    0 -0.29361668385E+01 -0.12689639902E+02  0.75364228811E+01  0.15048113051E+02  0.00000000000E+00 0.  1.
</event>
<event>
 8    1  0.1247338E-006  0.9118800E+02  0.7816164E-02  0.1184000E+00
        -11   -1    0    0    0    0  0.00000000000E+00  0.00000000000E+00  0.45593999997E+02  0.45594000000E+02  0.51100000000E-03 0.  1.
         11   -1    0    0    0    0 -0.00000000000E+00 -0.00000000000E+00 -0.45593999997E+02  0.45594000000E+02  0.51100000000E-03 0. -1.
         23    2    1    2    0    0 -0.88817841970E-15 -0.17763568394E-14  0.71054273576E-14  0.91188000000E+02  0.91188000000E+02 0.  0.
    9900012    2    3    3    0    0 -0.50720434323E+01 -0.80339830546E+01  0.35573997569E+02  0.54367084594E+02  0.40000000950E+02 0.  0.
         12    1    3    3    0    0  0.50720434323E+01  0.80339830546E+01 -0.35573997569E+02  0.36820915406E+02  0.00000000000E+00 0. -1.
         11    1    4    4    0    0  0.40463076928E+00  0.15371299372E+01 -0.12500219776E+01  0.20221398836E+01  0.51100000000E-03 0. -1.
        -11    1    4    4    0    0 -0.19079574974E+02 -0.72181122866E+01  0.11282672148E+02  0.23311585472E+02  0.51100000000E-03 0.  1.
         12    1    4    4    0    0  0.13602900772E+02 -0.23530007052E+01  0.25541347399E+02  0.29033359239E+02  0.00000000000E+00 0. -1.
</event>
<event>
 8    1  0.1247338E-006  0.9118800E+02  0.7816164E-02  0.1184000E+00
        -11   -1    0    0    0    0  0.00000000000E+00  0.00000000000E+00  0.45593999997E+02  0.45594000000E+02  0.51100000000E-03 0. -1.
         11   -1    0    0    0    0 -0.00000000000E+00 -0.00000000000E+00 -0.45593999997E+02  0.45594000000E+02  0.51100000000E-03 0.  1.
         23    2    1    2    0    0  0.00000000000E+00  0.00000000000E+00  0.17763568394E-14  0.91188000000E+02  0.91188000000E+02 0.  0.
    9900012    2    3    3    0    0  0.35286761709E+02 -0.35788250232E+01  0.98902853365E+01  0.54367064590E+02  0.39999955346E+02 0.  0.
        -12    1    3    3    0    0 -0.35286761709E+02  0.35788250232E+01 -0.98902853365E+01  0.36820935410E+02  0.00000000000E+00 0.  1.
         11    1    4    4    0    0  0.15335547204E+02 -0.25199430514E+01  0.91705276982E+01  0.18045157233E+02  0.51100000000E-03 0. -1.
        -11    1    4    4    0    0  0.26152377890E+02 -0.12071036439E+01 -0.63270819727E+01  0.26933917930E+02  0.51100000000E-03 0.  1.
        -12    1    4    4    0    0 -0.62011633851E+01  0.14822167216E+00  0.70468396111E+01  0.93879894278E+01  0.00000000000E+00 0.  1.
</event>
<event>
 8    1  0.1247338E-006  0.9118800E+02  0.7816164E-02  0.1184000E+00
        -11   -1    0    0    0    0  0.00000000000E+00  0.00000000000E+00  0.45593999997E+02  0.45594000000E+02  0.51100000000E-03 0. -1.
         11   -1    0    0    0    0 -0.00000000000E+00 -0.00000000000E+00 -0.45593999997E+02  0.45594000000E+02  0.51100000000E-03 0.  1.
         23    2    1    2    0    0 -0.88817841970E-15  0.00000000000E+00 -0.35527136788E-14  0.91188000000E+02  0.91188000000E+02 0.  0.
    9900012    2    3    3    0    0 -0.41325719707E+01 -0.18627295505E+02 -0.31491675956E+02  0.54367082800E+02  0.39999996859E+02 0.  0.
         12    1    3    3    0    0  0.41325719707E+01  0.18627295505E+02  0.31491675956E+02  0.36820917200E+02  0.00000000000E+00 0. -1.
         11    1    4    4    0    0  0.63220908458E+00  0.39401596932E+01 -0.13445007848E+02  0.14024720426E+02  0.51100000000E-03 0. -1.
        -11    1    4    4    0    0  0.11115299582E+02 -0.10551418354E+02 -0.36079499733E+01  0.15744828273E+02  0.51100000000E-03 0.  1.
         12    1    4    4    0    0 -0.15880080637E+02 -0.12016036845E+02 -0.14438718135E+02  0.24597534101E+02  0.00000000000E+00 0. -1.
</event>
<event>
 8    1  0.1247338E-006  0.9118800E+02  0.7816164E-02  0.1184000E+00
        -11   -1    0    0    0    0  0.00000000000E+00  0.00000000000E+00  0.45593999997E+02  0.45594000000E+02  0.51100000000E-03 0.  1.
         11   -1    0    0    0    0 -0.00000000000E+00 -0.00000000000E+00 -0.45593999997E+02  0.45594000000E+02  0.51100000000E-03 0. -1.
         23    2    1    2    0    0  0.00000000000E+00  0.00000000000E+00 -0.71054273576E-14  0.91188000000E+02  0.91188000000E+02 0.  0.
    9900012    2    3    3    0    0  0.12293199843E+02 -0.11485677012E+02  0.32752667651E+02  0.54367071480E+02  0.39999971054E+02 0.  0.
         12    1    3    3    0    0 -0.12293199843E+02  0.11485677012E+02 -0.32752667651E+02  0.36820928520E+02  0.00000000000E+00 0. -1.
         11    1    4    4    0    0  0.17216900242E+02 -0.79671354796E+01  0.14465573431E+02  0.23856858901E+02  0.51100000000E-03 0. -1.
        -11    1    4    4    0    0 -0.23489897920E+01 -0.13010004580E+02  0.15324837863E+02  0.20239284276E+02  0.51100000000E-03 0.  1.
         12    1    4    4    0    0 -0.25747106071E+01  0.94914630471E+01  0.29622563563E+01  0.10270928303E+02  0.00000000000E+00 0. -1.
</event>
<event>
 8    1  0.1247338E-006  0.9118800E+02  0.7816164E-02  0.1184000E+00
        -11   -1    0    0    0    0  0.00000000000E+00  0.00000000000E+00  0.45593999997E+02  0.45594000000E+02  0.51100000000E-03 0. -1.
         11   -1    0    0    0    0 -0.00000000000E+00 -0.00000000000E+00 -0.45593999997E+02  0.45594000000E+02  0.51100000000E-03 0.  1.
         23    2    1    2    0    0  0.88817841970E-15 -0.13322676296E-14  0.71054273576E-14  0.91188000000E+02  0.91188000000E+02 0.  0.
    9900012    2    3    3    0    0  0.65718609920E+01 -0.15643370561E+01  0.36195868574E+02  0.54367117214E+02  0.40000075313E+02 0.  0.
        -12    1    3    3    0    0 -0.65718609920E+01  0.15643370561E+01 -0.36195868574E+02  0.36820882786E+02  0.00000000000E+00 0.  1.
         11    1    4    4    0    0  0.99618789973E+01  0.66480330782E+00 -0.79879210381E+00  0.10015940579E+02  0.51100000000E-03 0. -1.
        -11    1    4    4    0    0 -0.10015612027E+02  0.66740167042E+01  0.26372591511E+02  0.28989111172E+02  0.51100000000E-03 0.  1.
         12    1    4    4    0    0  0.66255940220E+01 -0.89031570682E+01  0.10622069166E+02  0.15362065463E+02  0.00000000000E+00 0. -1.
</event>
<event>
 8    1  0.1247338E-006  0.9118800E+02  0.7816164E-02  0.1184000E+00
        -11   -1    0    0    0    0  0.00000000000E+00  0.00000000000E+00  0.45593999997E+02  0.45594000000E+02  0.51100000000E-03 0. -1.
         11   -1    0    0    0    0 -0.00000000000E+00 -0.00000000000E+00 -0.45593999997E+02  0.45594000000E+02  0.51100000000E-03 0.  1.
         23    2    1    2    0    0  0.00000000000E+00 -0.15543122345E-14  0.00000000000E+00  0.91188000000E+02  0.91188000000E+02 0.  0.
    9900012    2    3    3    0    0 -0.23244113904E+02  0.16217115575E+01  0.28510735173E+02  0.54367071173E+02  0.39999970354E+02 0.  0.
        -12    1    3    3    0    0  0.23244113904E+02 -0.16217115575E+01 -0.28510735173E+02  0.36820928827E+02  0.00000000000E+00 0.  1.
         11    1    4    4    0    0 -0.17973808122E+02  0.67633155812E+01  0.17558329492E+02  0.26021052070E+02  0.51100000000E-03 0. -1.
        -11    1    4    4    0    0  0.89152238235E+01 -0.60762855174E+01  0.88922691752E+01  0.13981234311E+02  0.51100000000E-03 0.  1.
        -12    1    4    4    0    0 -0.14185529606E+02  0.93468149374E+00  0.20601365059E+01  0.14364784792E+02  0.00000000000E+00 0.  1.
</event>
<event>
 8    1  0.1247338E-006  0.9118800E+02  0.7816164E-02  0.1184000E+00
        -11   -1    0    0    0    0  0.00000000000E+00  0.00000000000E+00  0.45593999997E+02  0.45594000000E+02  0.51100000000E-03 0. -1.
         11   -1    0    0    0    0 -0.00000000000E+00 -0.00000000000E+00 -0.45593999997E+02  0.45594000000E+02  0.51100000000E-03 0.  1.
         23    2    1    2    0    0  0.17763568394E-14  0.35527136788E-14  0.00000000000E+00  0.91188000000E+02  0.91188000000E+02 0.  0.
    9900012    2    3    3    0    0  0.96153853175E+01 -0.27566648122E+02  0.22436677588E+02  0.54367078981E+02  0.39999988153E+02 0.  0.
         12    1    3    3    0    0 -0.96153853175E+01  0.27566648122E+02 -0.22436677588E+02  0.36820921019E+02  0.00000000000E+00 0. -1.
         11    1    4    4    0    0  0.14897526745E+02 -0.11595558921E+02  0.90807533542E+01  0.20948827451E+02  0.51100000000E-03 0. -1.
        -11    1    4    4    0    0  0.38525210228E+01 -0.11432963313E+02 -0.44818577157E+01  0.12870183262E+02  0.51100000000E-03 0.  1.
        -12    1    4    4    0    0 -0.91346624507E+01 -0.45381258878E+01  0.17837781949E+02  0.20548068268E+02  0.00000000000E+00 0.  1.
</event>
<event>
 8    1  0.1247338E-006  0.9118800E+02  0.7816164E-02  0.1184000E+00
        -11   -1    0    0    0    0  0.00000000000E+00  0.00000000000E+00  0.45593999997E+02  0.45594000000E+02  0.51100000000E-03 0. -1.
         11   -1    0    0    0    0 -0.00000000000E+00 -0.00000000000E+00 -0.45593999997E+02  0.45594000000E+02  0.51100000000E-03 0.  1.
         23    2    1    2    0    0 -0.35527136788E-14  0.00000000000E+00  0.00000000000E+00  0.91188000000E+02  0.91188000000E+02 0.  0.
    9900012    2    3    3    0    0 -0.30823460967E+02 -0.20009656773E+02  0.23039912688E+01  0.54367075433E+02  0.39999980066E+02 0.  0.
         12    1    3    3    0    0  0.30823460967E+02  0.20009656773E+02 -0.23039912688E+01  0.36820924567E+02  0.00000000000E+00 0. -1.
         11    1    4    4    0    0 -0.14110652039E+01 -0.22304390698E+01 -0.75114466784E+01  0.79616452393E+01  0.51100000000E-03 0. -1.
        -11    1    4    4    0    0 -0.52742587946E+01  0.72029212953E+01 -0.29401803283E+01  0.93991777110E+01  0.51100000000E-03 0.  1.
        -12    1    4    4    0    0 -0.24138136968E+02 -0.24982138999E+02  0.12755618275E+02  0.37006252483E+02  0.00000000000E+00 0.  1.
</event>
<event>
 8    1  0.1247338E-006  0.9118800E+02  0.7816164E-02  0.1184000E+00
        -11   -1    0    0    0    0  0.00000000000E+00  0.00000000000E+00  0.45593999997E+02  0.45594000000E+02  0.51100000000E-03 0.  1.
         11   -1    0    0    0    0 -0.00000000000E+00 -0.00000000000E+00 -0.45593999997E+02  0.45594000000E+02  0.51100000000E-03 0. -1.
         23    2    1    2    0    0  0.00000000000E+00  0.00000000000E+00 -0.35527136788E-14  0.91188000000E+02  0.91188000000E+02 0.  0.
    9900012    2    3    3    0    0  0.64316976999E+01  0.31949245704E+02 -0.17136488647E+02  0.54367078237E+02  0.39999986456E+02 0.  0.
        -12    1    3    3    0    0 -0.64316976999E+01 -0.31949245704E+02  0.17136488647E+02  0.36820921763E+02  0.00000000000E+00 0.  1.
         11    1    4    4    0    0 -0.25725041317E+01  0.11614517880E+02  0.73443396073E+00  0.11918649109E+02  0.51100000000E-03 0. -1.
        -11    1    4    4    0    0  0.12169392707E+01  0.15060083912E+02 -0.25964047466E+02  0.30040286778E+02  0.51100000000E-03 0.  1.
         12    1    4    4    0    0  0.77872625608E+01  0.52746439121E+01  0.80931248585E+01  0.12408142350E+02  0.00000000000E+00 0. -1.
</event>
<event>
 8    1  0.1247338E-006  0.9118800E+02  0.7816164E-02  0.1184000E+00
        -11   -1    0    0    0    0  0.00000000000E+00  0.00000000000E+00  0.45593999997E+02  0.45594000000E+02  0.51100000000E-03 0. -1.
         11   -1    0    0    0    0 -0.00000000000E+00 -0.00000000000E+00 -0.45593999997E+02  0.45594000000E+02  0.51100000000E-03 0.  1.
         23    2    1    2    0    0  0.00000000000E+00 -0.66613381478E-15  0.00000000000E+00  0.91188000000E+02  0.91188000000E+02 0.  0.
    9900012    2    3    3    0    0  0.18119706756E+02 -0.16206976530E+01 -0.32012947952E+02  0.54367091939E+02  0.40000017694E+02 0.  0.
         12    1    3    3    0    0 -0.18119706756E+02  0.16206976530E+01  0.32012947952E+02  0.36820908061E+02  0.00000000000E+00 0. -1.
         11    1    4    4    0    0 -0.33319531986E+00 -0.91005804917E+01  0.24175988878E+01  0.94221212606E+01  0.51100000000E-03 0. -1.
        -11    1    4    4    0    0  0.48534382334E+01 -0.59541995663E+01 -0.31852399914E+01  0.83158949744E+01  0.51100000000E-03 0.  1.
         12    1    4    4    0    0  0.13599463843E+02  0.13434082405E+02 -0.31245306849E+02  0.36629075704E+02  0.00000000000E+00 0. -1.
</event>
<event>
 8    1  0.1247338E-006  0.9118800E+02  0.7816164E-02  0.1184000E+00
        -11   -1    0    0    0    0  0.00000000000E+00  0.00000000000E+00  0.45593999997E+02  0.45594000000E+02  0.51100000000E-03 0. -1.
         11   -1    0    0    0    0 -0.00000000000E+00 -0.00000000000E+00 -0.45593999997E+02  0.45594000000E+02  0.51100000000E-03 0.  1.
         23    2    1    2    0    0  0.88817841970E-15  0.00000000000E+00  0.00000000000E+00  0.91188000000E+02  0.91188000000E+02 0.  0.
    9900012    2    3    3    0    0  0.37522895426E+01  0.82113087622E+01  0.35696970554E+02  0.54367095949E+02  0.40000026836E+02 0.  0.
        -12    1    3    3    0    0 -0.37522895426E+01 -0.82113087622E+01 -0.35696970554E+02  0.36820904051E+02  0.00000000000E+00 0.  1.
         11    1    4    4    0    0  0.41130152498E+01 -0.73362763728E+01  0.27746327484E+02  0.28993042865E+02  0.51100000000E-03 0. -1.
        -11    1    4    4    0    0 -0.83766852446E+01  0.13248695718E+02  0.41825338187E+01  0.16223143447E+02  0.51100000000E-03 0.  1.
        -12    1    4    4    0    0  0.80159595374E+01  0.22988894171E+01  0.37681092514E+01  0.91509096372E+01  0.00000000000E+00 0.  1.
</event>
<event>
 8    1  0.1247338E-006  0.9118800E+02  0.7816164E-02  0.1184000E+00
        -11   -1    0    0    0    0  0.00000000000E+00  0.00000000000E+00  0.45593999997E+02  0.45594000000E+02  0.51100000000E-03 0.  1.
         11   -1    0    0    0    0 -0.00000000000E+00 -0.00000000000E+00 -0.45593999997E+02  0.45594000000E+02  0.51100000000E-03 0. -1.
         23    2    1    2    0    0  0.35527136788E-14  0.17763568394E-14  0.35527136788E-14  0.91188000000E+02  0.91188000000E+02 0.  0.
    9900012    2    3    3    0    0  0.16584895692E+02  0.10437189913E+02  0.31173386127E+02  0.54367167568E+02  0.40000190104E+02 0.  0.
         12    1    3    3    0    0 -0.16584895692E+02 -0.10437189913E+02 -0.31173386127E+02  0.36820832432E+02  0.00000000000E+00 0. -1.
         11    1    4    4    0    0  0.76957992097E+01  0.10559714488E+01  0.20131797378E+02  0.21578453770E+02  0.51100000000E-03 0.  1.
        -11    1    4    4    0    0  0.14811923419E+02  0.51109042592E+01  0.17178054995E+02  0.23250806253E+02  0.51100000000E-03 0. -1.
         12    1    4    4    0    0 -0.59228269364E+01  0.42703142048E+01 -0.61364662470E+01  0.95379075445E+01  0.00000000000E+00 0. -1.
</event>
<event>
 8    1  0.1247338E-006  0.9118800E+02  0.7816164E-02  0.1184000E+00
        -11   -1    0    0    0    0  0.00000000000E+00  0.00000000000E+00  0.45593999997E+02  0.45594000000E+02  0.51100000000E-03 0.  1.
         11   -1    0    0    0    0 -0.00000000000E+00 -0.00000000000E+00 -0.45593999997E+02  0.45594000000E+02  0.51100000000E-03 0. -1.
         23    2    1    2    0    0  0.00000000000E+00  0.00000000000E+00  0.00000000000E+00  0.91188000000E+02  0.91188000000E+02 0.  0.
    9900012    2    3    3    0    0  0.33512503693E+02 -0.86998557223E+01 -0.12530177145E+02  0.54367072084E+02  0.39999972429E+02 0.  0.
        -12    1    3    3    0    0 -0.33512503693E+02  0.86998557223E+01  0.12530177145E+02  0.36820927916E+02  0.00000000000E+00 0.  1.
         11    1    4    4    0    0  0.34672784879E+01  0.44498338020E+01 -0.14921693310E+02  0.15952428419E+02  0.51100000000E-03 0. -1.
        -11    1    4    4    0    0  0.18691743686E+02  0.24723759329E+01  0.30074614329E+01  0.19092897876E+02  0.51100000000E-03 0.  1.
        -12    1    4    4    0    0  0.11353481519E+02 -0.15622065457E+02 -0.61594526850E+00  0.19321745789E+02  0.00000000000E+00 0.  1.
</event>
<event>
 8    1  0.1247338E-006  0.9118800E+02  0.7816164E-02  0.1184000E+00
        -11   -1    0    0    0    0  0.00000000000E+00  0.00000000000E+00  0.45593999997E+02  0.45594000000E+02  0.51100000000E-03 0.  1.
         11   -1    0    0    0    0 -0.00000000000E+00 -0.00000000000E+00 -0.45593999997E+02  0.45594000000E+02  0.51100000000E-03 0. -1.
         23    2    1    2    0    0  0.71054273576E-14 -0.88817841970E-15  0.17763568394E-14  0.91188000000E+02  0.91188000000E+02 0.  0.
    9900012    2    3    3    0    0  0.35641218304E+02 -0.27286340861E+01  0.88334448408E+01  0.54367195637E+02  0.40000254094E+02 0.  0.
        -12    1    3    3    0    0 -0.35641218304E+02  0.27286340861E+01 -0.88334448408E+01  0.36820804363E+02  0.00000000000E+00 0.  1.
         11    1    4    4    0    0  0.16184599082E+02  0.33198954288E+01 -0.29003739258E+01  0.16774239842E+02  0.51100000000E-03 0. -1.
        -11    1    4    4    0    0  0.13732489201E+02  0.38809305742E+01 -0.67952648910E+01  0.15805647946E+02  0.51100000000E-03 0.  1.
         12    1    4    4    0    0  0.57241300210E+01 -0.99294600892E+01  0.18529083658E+02  0.21787307850E+02  0.00000000000E+00 0. -1.
</event>
<event>
 8    1  0.1247338E-006  0.9118800E+02  0.7816164E-02  0.1184000E+00
        -11   -1    0    0    0    0  0.00000000000E+00  0.00000000000E+00  0.45593999997E+02  0.45594000000E+02  0.51100000000E-03 0.  1.
         11   -1    0    0    0    0 -0.00000000000E+00 -0.00000000000E+00 -0.45593999997E+02  0.45594000000E+02  0.51100000000E-03 0. -1.
         23    2    1    2    0    0  0.17763568394E-14  0.00000000000E+00  0.19984014443E-14  0.91188000000E+02  0.91188000000E+02 0.  0.
    9900012    2    3    3    0    0  0.10763270351E+02 -0.35192211456E+02 -0.12001511021E+01  0.54367080694E+02  0.39999992059E+02 0.  0.
         12    1    3    3    0    0 -0.10763270351E+02  0.35192211456E+02  0.12001511021E+01  0.36820919306E+02  0.00000000000E+00 0. -1.
         11    1    4    4    0    0 -0.12713974495E+01  0.33368293191E-01 -0.67271247651E+00  0.14387867301E+01  0.51100000000E-03 0. -1.
        -11    1    4    4    0    0  0.46561018215E+01 -0.31208135559E+02 -0.15957612724E+02  0.35359191356E+02  0.51100000000E-03 0.  1.
        -12    1    4    4    0    0  0.73785659794E+01 -0.40174441902E+01  0.15430174099E+02  0.17569102608E+02  0.00000000000E+00 0.  1.
</event>
<event>
 8    1  0.1247338E-006  0.9118800E+02  0.7816164E-02  0.1184000E+00
        -11   -1    0    0    0    0  0.00000000000E+00  0.00000000000E+00  0.45593999997E+02  0.45594000000E+02  0.51100000000E-03 0.  1.
         11   -1    0    0    0    0 -0.00000000000E+00 -0.00000000000E+00 -0.45593999997E+02  0.45594000000E+02  0.51100000000E-03 0. -1.
         23    2    1    2    0    0  0.00000000000E+00 -0.35527136788E-14  0.35527136788E-14  0.91188000000E+02  0.91188000000E+02 0.  0.
    9900012    2    3    3    0    0  0.20631133742E+02  0.24672222769E+02 -0.17928165192E+02  0.54367063524E+02  0.39999952915E+02 0.  0.
         12    1    3    3    0    0 -0.20631133742E+02 -0.24672222769E+02  0.17928165192E+02  0.36820936476E+02  0.00000000000E+00 0. -1.
         11    1    4    4    0    0  0.33488080208E+01  0.23425165121E+01  0.54515617703E+01  0.68133269969E+01  0.51100000000E-03 0. -1.
        -11    1    4    4    0    0 -0.19723675212E+01  0.18736206842E+02 -0.26351126711E+01  0.19023130644E+02  0.51100000000E-03 0.  1.
        -12    1    4    4    0    0  0.19254693242E+02  0.35934994145E+01 -0.20744614291E+02  0.28530605882E+02  0.00000000000E+00 0.  1.
</event>
<event>
 8    1  0.1247338E-006  0.9118800E+02  0.7816164E-02  0.1184000E+00
        -11   -1    0    0    0    0  0.00000000000E+00  0.00000000000E+00  0.45593999997E+02  0.45594000000E+02  0.51100000000E-03 0.  1.
         11   -1    0    0    0    0 -0.00000000000E+00 -0.00000000000E+00 -0.45593999997E+02  0.45594000000E+02  0.51100000000E-03 0. -1.
         23    2    1    2    0    0  0.00000000000E+00  0.00000000000E+00  0.35527136788E-14  0.91188000000E+02  0.91188000000E+02 0.  0.
    9900012    2    3    3    0    0  0.74139204736E+01 -0.23684118507E+02 -0.27200666537E+02  0.54367082761E+02  0.39999996770E+02 0.  0.
        -12    1    3    3    0    0 -0.74139204736E+01  0.23684118507E+02  0.27200666537E+02  0.36820917239E+02  0.00000000000E+00 0.  1.
         11    1    4    4    0    0 -0.85538297466E+00 -0.19234232658E+01  0.40181872061E+01  0.45361950771E+01  0.51100000000E-03 0. -1.
        -11    1    4    4    0    0  0.13406974466E+02 -0.14339097922E+02 -0.25752426645E+01  0.19798701185E+02  0.51100000000E-03 0.  1.
         12    1    4    4    0    0 -0.51376710181E+01 -0.74215973189E+01 -0.28643611079E+02  0.30032186499E+02  0.00000000000E+00 0. -1.
</event>
<event>
 8    1  0.1247338E-006  0.9118800E+02  0.7816164E-02  0.1184000E+00
        -11   -1    0    0    0    0  0.00000000000E+00  0.00000000000E+00  0.45593999997E+02  0.45594000000E+02  0.51100000000E-03 0.  1.
         11   -1    0    0    0    0 -0.00000000000E+00 -0.00000000000E+00 -0.45593999997E+02  0.45594000000E+02  0.51100000000E-03 0. -1.
         23    2    1    2    0    0 -0.35527136788E-14  0.00000000000E+00  0.00000000000E+00  0.91188000000E+02  0.91188000000E+02 0.  0.
    9900012    2    3    3    0    0  0.13443557260E+02 -0.13521338264E+02  0.31499615242E+02  0.54367060568E+02  0.39999946177E+02 0.  0.
         12    1    3    3    0    0 -0.13443557260E+02  0.13521338264E+02 -0.31499615242E+02  0.36820939432E+02  0.00000000000E+00 0. -1.
         11    1    4    4    0    0  0.54036548098E+01 -0.68576315281E+01 -0.53729742455E+01  0.10251607093E+02  0.51100000000E-03 0. -1.
        -11    1    4    4    0    0 -0.59232230710E+01 -0.81201097563E+01  0.13167885365E+02  0.16565444735E+02  0.51100000000E-03 0.  1.
         12    1    4    4    0    0  0.13963125521E+02  0.14564030206E+01  0.23704704123E+02  0.27550008741E+02  0.00000000000E+00 0. -1.
</event>
<event>
 8    1  0.1247338E-006  0.9118800E+02  0.7816164E-02  0.1184000E+00
        -11   -1    0    0    0    0  0.00000000000E+00  0.00000000000E+00  0.45593999997E+02  0.45594000000E+02  0.51100000000E-03 0.  1.
         11   -1    0    0    0    0 -0.00000000000E+00 -0.00000000000E+00 -0.45593999997E+02  0.45594000000E+02  0.51100000000E-03 0. -1.
         23    2    1    2    0    0  0.00000000000E+00  0.00000000000E+00 -0.35527136788E-14  0.91188000000E+02  0.91188000000E+02 0.  0.
    9900012    2    3    3    0    0  0.18324060869E+02 -0.27625135589E+02 -0.16026855049E+02  0.54367090101E+02  0.40000013504E+02 0.  0.
        -12    1    3    3    0    0 -0.18324060869E+02  0.27625135589E+02  0.16026855049E+02  0.36820909899E+02  0.00000000000E+00 0.  1.
         11    1    4    4    0    0  0.45529091133E+01 -0.22334555520E+02  0.80568405622E+01  0.24175897745E+02  0.51100000000E-03 0. -1.
        -11    1    4    4    0    0  0.10668280003E+02 -0.12062742622E+01 -0.22318708141E+02  0.24766752495E+02  0.51100000000E-03 0.  1.
         12    1    4    4    0    0  0.31028717528E+01 -0.40843058062E+01 -0.17649874699E+01  0.54244398607E+01  0.00000000000E+00 0. -1.
</event>
<event>
 8    1  0.1247338E-006  0.9118800E+02  0.7816164E-02  0.1184000E+00
        -11   -1    0    0    0    0  0.00000000000E+00  0.00000000000E+00  0.45593999997E+02  0.45594000000E+02  0.51100000000E-03 0. -1.
         11   -1    0    0    0    0 -0.00000000000E+00 -0.00000000000E+00 -0.45593999997E+02  0.45594000000E+02  0.51100000000E-03 0.  1.
         23    2    1    2    0    0  0.71054273576E-14 -0.12628786905E-14  0.22204460493E-14  0.91188000000E+02  0.91188000000E+02 0.  0.
    9900012    2    3    3    0    0 -0.36736643604E+02 -0.12091759296E+00 -0.24866874135E+01  0.54367092642E+02  0.40000019296E+02 0.  0.
         12    1    3    3    0    0  0.36736643604E+02  0.12091759296E+00  0.24866874135E+01  0.36820907358E+02  0.00000000000E+00 0. -1.
         11    1    4    4    0    0  0.20981049727E+01 -0.39551156972E+01  0.80979017447E+01  0.92531614912E+01  0.51100000000E-03 0. -1.
        -11    1    4    4    0    0 -0.97540027900E+01 -0.78229954723E+01 -0.23923124815E+01  0.12730396218E+02  0.51100000000E-03 0.  1.
         12    1    4    4    0    0 -0.29080745787E+02  0.11657193577E+02 -0.81922766766E+01  0.32383534933E+02  0.00000000000E+00 0. -1.
</event>
<event>
 8    1  0.1247338E-006  0.9118800E+02  0.7816164E-02  0.1184000E+00
        -11   -1    0    0    0    0  0.00000000000E+00  0.00000000000E+00  0.45593999997E+02  0.45594000000E+02  0.51100000000E-03 0.  1.
         11   -1    0    0    0    0 -0.00000000000E+00 -0.00000000000E+00 -0.45593999997E+02  0.45594000000E+02  0.51100000000E-03 0. -1.
         23    2    1    2    0    0  0.00000000000E+00 -0.17763568394E-14  0.88817841970E-15  0.91188000000E+02  0.91188000000E+02 0.  0.
    9900012    2    3    3    0    0 -0.33936546143E+02 -0.12042934597E+02  0.76848696460E+01  0.54367100238E+02  0.40000036613E+02 0.  0.
        -12    1    3    3    0    0  0.33936546143E+02  0.12042934597E+02 -0.76848696460E+01  0.36820899762E+02  0.00000000000E+00 0.  1.
         11    1    4    4    0    0 -0.12470989928E+02 -0.14334887991E+02  0.18077955134E+01  0.19086192087E+02  0.51100000000E-03 0. -1.
        -11    1    4    4    0    0 -0.39364817715E+01 -0.11495567273E+02  0.44267597291E+01  0.12932136622E+02  0.51100000000E-03 0.  1.
        -12    1    4    4    0    0 -0.17529074443E+02  0.13787520667E+02  0.14503144035E+01  0.22348771529E+02  0.00000000000E+00 0.  1.
</event>
<event>
 8    1  0.1247338E-006  0.9118800E+02  0.7816164E-02  0.1184000E+00
        -11   -1    0    0    0    0  0.00000000000E+00  0.00000000000E+00  0.45593999997E+02  0.45594000000E+02  0.51100000000E-03 0.  1.
         11   -1    0    0    0    0 -0.00000000000E+00 -0.00000000000E+00 -0.45593999997E+02  0.45594000000E+02  0.51100000000E-03 0. -1.
         23    2    1    2    0    0  0.00000000000E+00 -0.35527136788E-14  0.00000000000E+00  0.91188000000E+02  0.91188000000E+02 0.  0.
    9900012    2    3    3    0    0  0.20106632026E+02  0.30575039856E+02 -0.40829489741E+01  0.54367079507E+02  0.39999989352E+02 0.  0.
        -12    1    3    3    0    0 -0.20106632026E+02 -0.30575039856E+02  0.40829489741E+01  0.36820920493E+02  0.00000000000E+00 0.  1.
         11    1    4    4    0    0  0.14713770006E+02 -0.64372976518E+01  0.26690823438E+01  0.16280596723E+02  0.51100000000E-03 0. -1.
        -11    1    4    4    0    0  0.72704442269E+00  0.11455483439E+02 -0.14245654451E+01  0.11566593335E+02  0.51100000000E-03 0.  1.
         12    1    4    4    0    0  0.46658175972E+01  0.25556854069E+02 -0.53274658728E+01  0.26519889449E+02  0.00000000000E+00 0. -1.
</event>
<event>
 8    1  0.1247338E-006  0.9118800E+02  0.7816164E-02  0.1184000E+00
        -11   -1    0    0    0    0  0.00000000000E+00  0.00000000000E+00  0.45593999997E+02  0.45594000000E+02  0.51100000000E-03 0.  1.
         11   -1    0    0    0    0 -0.00000000000E+00 -0.00000000000E+00 -0.45593999997E+02  0.45594000000E+02  0.51100000000E-03 0. -1.
         23    2    1    2    0    0 -0.88817841970E-15  0.00000000000E+00  0.00000000000E+00  0.91188000000E+02  0.91188000000E+02 0.  0.
    9900012    2    3    3    0    0 -0.70230242100E+01 -0.74560010469E+01 -0.35367584008E+02  0.54367070908E+02  0.39999969749E+02 0.  0.
        -12    1    3    3    0    0  0.70230242100E+01  0.74560010469E+01  0.35367584008E+02  0.36820929092E+02  0.00000000000E+00 0.  1.
         11    1    4    4    0    0  0.45669440751E+01 -0.84348139900E+01 -0.24067479748E+02  0.25908428105E+02  0.51100000000E-03 0. -1.
        -11    1    4    4    0    0 -0.90287476716E+01 -0.61826676871E+01 -0.16098725130E+02  0.19465677880E+02  0.51100000000E-03 0.  1.
         12    1    4    4    0    0 -0.25612206135E+01  0.71614806301E+01  0.47986208699E+01  0.89929649227E+01  0.00000000000E+00 0. -1.
</event>
<event>
 8    1  0.1247338E-006  0.9118800E+02  0.7816164E-02  0.1184000E+00
        -11   -1    0    0    0    0  0.00000000000E+00  0.00000000000E+00  0.45593999997E+02  0.45594000000E+02  0.51100000000E-03 0. -1.
         11   -1    0    0    0    0 -0.00000000000E+00 -0.00000000000E+00 -0.45593999997E+02  0.45594000000E+02  0.51100000000E-03 0.  1.
         23    2    1    2    0    0  0.35527136788E-14 -0.88817841970E-15 -0.35527136788E-14  0.91188000000E+02  0.91188000000E+02 0.  0.
    9900012    2    3    3    0    0  0.29152069528E+02  0.35159639800E+01 -0.22216542819E+02  0.54367082911E+02  0.39999997113E+02 0.  0.
        -12    1    3    3    0    0 -0.29152069528E+02 -0.35159639800E+01  0.22216542819E+02  0.36820917089E+02  0.00000000000E+00 0.  1.
         11    1    4    4    0    0  0.12237026858E+02  0.44583596057E+01 -0.12653052340E+02  0.18158235886E+02  0.51100000000E-03 0. -1.
        -11    1    4    4    0    0 -0.38611607166E+01  0.10356908300E+02 -0.11764388227E+01  0.11115670028E+02  0.51100000000E-03 0.  1.
         12    1    4    4    0    0  0.20776203386E+02 -0.11299303926E+02 -0.83870516558E+01  0.25093176997E+02  0.00000000000E+00 0. -1.
</event>
<event>
 8    1  0.1247338E-006  0.9118800E+02  0.7816164E-02  0.1184000E+00
        -11   -1    0    0    0    0  0.00000000000E+00  0.00000000000E+00  0.45593999997E+02  0.45594000000E+02  0.51100000000E-03 0.  1.
         11   -1    0    0    0    0 -0.00000000000E+00 -0.00000000000E+00 -0.45593999997E+02  0.45594000000E+02  0.51100000000E-03 0. -1.
         23    2    1    2    0    0  0.00000000000E+00  0.00000000000E+00  0.00000000000E+00  0.91188000000E+02  0.91188000000E+02 0.  0.
    9900012    2    3    3    0    0  0.20863473126E+02 -0.25462578561E+02 -0.16497060096E+02  0.54367076469E+02  0.39999982426E+02 0.  0.
        -12    1    3    3    0    0 -0.20863473126E+02  0.25462578561E+02  0.16497060096E+02  0.36820923531E+02  0.00000000000E+00 0.  1.
         11    1    4    4    0    0  0.89650681393E+01 -0.82804384019E+01 -0.49548468737E+01  0.13171507684E+02  0.51100000000E-03 0.  1.
        -11    1    4    4    0    0  0.18634983825E+02 -0.20641006291E+02 -0.16318037467E+02  0.32242706305E+02  0.51100000000E-03 0. -1.
         12    1    4    4    0    0 -0.67365788386E+01  0.34588661314E+01  0.47758242445E+01  0.89528624796E+01  0.00000000000E+00 0. -1.
</event>
<event>
 8    1  0.1247338E-006  0.9118800E+02  0.7816164E-02  0.1184000E+00
        -11   -1    0    0    0    0  0.00000000000E+00  0.00000000000E+00  0.45593999997E+02  0.45594000000E+02  0.51100000000E-03 0.  1.
         11   -1    0    0    0    0 -0.00000000000E+00 -0.00000000000E+00 -0.45593999997E+02  0.45594000000E+02  0.51100000000E-03 0. -1.
         23    2    1    2    0    0  0.00000000000E+00  0.00000000000E+00 -0.35527136788E-14  0.91188000000E+02  0.91188000000E+02 0.  0.
    9900012    2    3    3    0    0 -0.31522483048E+02 -0.10453111411E+02  0.15901100616E+02  0.54367089141E+02  0.40000011314E+02 0.  0.
         12    1    3    3    0    0  0.31522483048E+02  0.10453111411E+02 -0.15901100616E+02  0.36820910859E+02  0.00000000000E+00 0. -1.
         11    1    4    4    0    0 -0.18324647022E+02  0.44867816709E+01  0.15208428902E+01  0.18927146155E+02  0.51100000000E-03 0.  1.
        -11    1    4    4    0    0 -0.15844285403E+02 -0.11039582553E+02  0.20203577585E+02  0.27948136080E+02  0.51100000000E-03 0. -1.
         12    1    4    4    0    0  0.26464493763E+01 -0.39003105297E+01 -0.58233198588E+01  0.74918069054E+01  0.00000000000E+00 0. -1.
</event>
<event>
 8    1  0.1247338E-006  0.9118800E+02  0.7816164E-02  0.1184000E+00
        -11   -1    0    0    0    0  0.00000000000E+00  0.00000000000E+00  0.45593999997E+02  0.45594000000E+02  0.51100000000E-03 0.  1.
         11   -1    0    0    0    0 -0.00000000000E+00 -0.00000000000E+00 -0.45593999997E+02  0.45594000000E+02  0.51100000000E-03 0. -1.
         23    2    1    2    0    0  0.17763568394E-14 -0.35527136788E-14 -0.35527136788E-14  0.91188000000E+02  0.91188000000E+02 0.  0.
    9900012    2    3    3    0    0 -0.89841559407E+01  0.25568455515E+02  0.24926278864E+02  0.54367077234E+02  0.39999984170E+02 0.  0.
         12    1    3    3    0    0  0.89841559407E+01 -0.25568455515E+02 -0.24926278864E+02  0.36820922766E+02  0.00000000000E+00 0. -1.
         11    1    4    4    0    0  0.59708698518E+01  0.89235437762E+01  0.18904280458E+01  0.10902047458E+02  0.51100000000E-03 0. -1.
        -11    1    4    4    0    0  0.70158085853E+01  0.86837221667E+01  0.77509718857E+00  0.11190593223E+02  0.51100000000E-03 0.  1.
        -12    1    4    4    0    0 -0.21970834378E+02  0.79611895720E+01  0.22260753629E+02  0.32274436553E+02  0.00000000000E+00 0.  1.
</event>
<event>
 8    1  0.1247338E-006  0.9118800E+02  0.7816164E-02  0.1184000E+00
        -11   -1    0    0    0    0  0.00000000000E+00  0.00000000000E+00  0.45593999997E+02  0.45594000000E+02  0.51100000000E-03 0. -1.
         11   -1    0    0    0    0 -0.00000000000E+00 -0.00000000000E+00 -0.45593999997E+02  0.45594000000E+02  0.51100000000E-03 0.  1.
         23    2    1    2    0    0 -0.17763568394E-14 -0.35527136788E-14  0.35527136788E-14  0.91188000000E+02  0.91188000000E+02 0.  0.
    9900012    2    3    3    0    0  0.13894565501E+02  0.17484697285E+02  0.29274665245E+02  0.54367087263E+02  0.40000007033E+02 0.  0.
        -12    1    3    3    0    0 -0.13894565501E+02 -0.17484697285E+02 -0.29274665245E+02  0.36820912737E+02  0.00000000000E+00 0.  1.
         11    1    4    4    0    0  0.91865010892E+01  0.46155627266E+01  0.54076601086E+01  0.11616282093E+02  0.51100000000E-03 0. -1.
        -11    1    4    4    0    0  0.10539488276E+02  0.12432323377E+02 -0.18261674359E+01  0.16400559913E+02  0.51100000000E-03 0.  1.
         12    1    4    4    0    0 -0.58314238647E+01  0.43681118092E+00  0.25693172572E+02  0.26350245257E+02  0.00000000000E+00 0. -1.
</event>
<event>
 8    1  0.1247338E-006  0.9118800E+02  0.7816164E-02  0.1184000E+00
        -11   -1    0    0    0    0  0.00000000000E+00  0.00000000000E+00  0.45593999997E+02  0.45594000000E+02  0.51100000000E-03 0.  1.
         11   -1    0    0    0    0 -0.00000000000E+00 -0.00000000000E+00 -0.45593999997E+02  0.45594000000E+02  0.51100000000E-03 0. -1.
         23    2    1    2    0    0  0.00000000000E+00 -0.44408920985E-15  0.00000000000E+00  0.91188000000E+02  0.91188000000E+02 0.  0.
    9900012    2    3    3    0    0 -0.35917552397E+02  0.32110485176E+01 -0.74429989755E+01  0.54367086968E+02  0.40000006361E+02 0.  0.
        -12    1    3    3    0    0  0.35917552397E+02 -0.32110485176E+01  0.74429989755E+01  0.36820913032E+02  0.00000000000E+00 0.  1.
         11    1    4    4    0    0 -0.57304514386E+01  0.10729828312E+02 -0.15679601392E+02  0.19844827774E+02  0.51100000000E-03 0. -1.
        -11    1    4    4    0    0 -0.10830195910E+01 -0.37831126015E+01 -0.34524675102E+00  0.39501984723E+01  0.51100000000E-03 0.  1.
        -12    1    4    4    0    0 -0.29104081367E+02 -0.37356671934E+01  0.85818491679E+01  0.30572060721E+02  0.00000000000E+00 0.  1.
</event>
<event>
 8    1  0.1247338E-006  0.9118800E+02  0.7816164E-02  0.1184000E+00
        -11   -1    0    0    0    0  0.00000000000E+00  0.00000000000E+00  0.45593999997E+02  0.45594000000E+02  0.51100000000E-03 0. -1.
         11   -1    0    0    0    0 -0.00000000000E+00 -0.00000000000E+00 -0.45593999997E+02  0.45594000000E+02  0.51100000000E-03 0.  1.
         23    2    1    2    0    0  0.00000000000E+00 -0.35527136788E-14  0.00000000000E+00  0.91188000000E+02  0.91188000000E+02 0.  0.
    9900012    2    3    3    0    0  0.58653669182E+01 -0.28282418988E+02  0.22835981499E+02  0.54367084694E+02  0.40000001178E+02 0.  0.
        -12    1    3    3    0    0 -0.58653669182E+01  0.28282418988E+02 -0.22835981499E+02  0.36820915306E+02  0.00000000000E+00 0.  1.
         11    1    4    4    0    0  0.13572672310E+02 -0.15884303978E+02  0.11089186142E+02  0.23653722667E+02  0.51100000000E-03 0. -1.
        -11    1    4    4    0    0  0.64684293600E+00 -0.16627020051E+02  0.13197745012E+02  0.21238094906E+02  0.51100000000E-03 0.  1.
        -12    1    4    4    0    0 -0.83541483273E+01  0.42289050407E+01 -0.14509496546E+01  0.94752671212E+01  0.00000000000E+00 0.  1.
</event>
<event>
 8    1  0.1247338E-006  0.9118800E+02  0.7816164E-02  0.1184000E+00
        -11   -1    0    0    0    0  0.00000000000E+00  0.00000000000E+00  0.45593999997E+02  0.45594000000E+02  0.51100000000E-03 0.  1.
         11   -1    0    0    0    0 -0.00000000000E+00 -0.00000000000E+00 -0.45593999997E+02  0.45594000000E+02  0.51100000000E-03 0. -1.
         23    2    1    2    0    0  0.17763568394E-14  0.00000000000E+00 -0.88817841970E-15  0.91188000000E+02  0.91188000000E+02 0.  0.
    9900012    2    3    3    0    0 -0.11348078280E+02 -0.34421876263E+02 -0.64911856012E+01  0.54367082893E+02  0.39999997072E+02 0.  0.
         12    1    3    3    0    0  0.11348078280E+02  0.34421876263E+02  0.64911856012E+01  0.36820917107E+02  0.00000000000E+00 0. -1.
         11    1    4    4    0    0  0.76815754205E+01 -0.75635843449E+01  0.12873111118E+01  0.10856867838E+02  0.51100000000E-03 0. -1.
        -11    1    4    4    0    0 -0.72685816371E+01 -0.23874237168E+02  0.54661545428E+01  0.25547804702E+02  0.51100000000E-03 0.  1.
         12    1    4    4    0    0 -0.11761072063E+02 -0.29840547502E+01 -0.13244651256E+02  0.17962410354E+02  0.00000000000E+00 0. -1.
</event>
<event>
 8    1  0.1247338E-006  0.9118800E+02  0.7816164E-02  0.1184000E+00
        -11   -1    0    0    0    0  0.00000000000E+00  0.00000000000E+00  0.45593999997E+02  0.45594000000E+02  0.51100000000E-03 0. -1.
         11   -1    0    0    0    0 -0.00000000000E+00 -0.00000000000E+00 -0.45593999997E+02  0.45594000000E+02  0.51100000000E-03 0.  1.
         23    2    1    2    0    0  0.00000000000E+00  0.00000000000E+00  0.00000000000E+00  0.91188000000E+02  0.91188000000E+02 0.  0.
    9900012    2    3    3    0    0  0.19147317528E+02 -0.26271802022E+02  0.17290237346E+02  0.54367086683E+02  0.40000005711E+02 0.  0.
        -12    1    3    3    0    0 -0.19147317528E+02  0.26271802022E+02 -0.17290237346E+02  0.36820913317E+02  0.00000000000E+00 0.  1.
         11    1    4    4    0    0  0.15360179788E+02 -0.11097525605E+02  0.11677813073E+02  0.22258964848E+02  0.51100000000E-03 0. -1.
        -11    1    4    4    0    0 -0.51354994423E+01 -0.16201231375E+02 -0.54597907178E+01  0.17851122305E+02  0.51100000000E-03 0.  1.
        -12    1    4    4    0    0  0.89226371830E+01  0.10269549584E+01  0.11072214991E+02  0.14256999530E+02  0.00000000000E+00 0.  1.
</event>
<event>
 8    1  0.1247338E-006  0.9118800E+02  0.7816164E-02  0.1184000E+00
        -11   -1    0    0    0    0  0.00000000000E+00  0.00000000000E+00  0.45593999997E+02  0.45594000000E+02  0.51100000000E-03 0. -1.
         11   -1    0    0    0    0 -0.00000000000E+00 -0.00000000000E+00 -0.45593999997E+02  0.45594000000E+02  0.51100000000E-03 0.  1.
         23    2    1    2    0    0  0.00000000000E+00 -0.35527136788E-14  0.17763568394E-14  0.91188000000E+02  0.91188000000E+02 0.  0.
    9900012    2    3    3    0    0 -0.24019187429E+02  0.25976915776E+02  0.10200908448E+02  0.54367081338E+02  0.39999993526E+02 0.  0.
        -12    1    3    3    0    0  0.24019187429E+02 -0.25976915776E+02 -0.10200908448E+02  0.36820918662E+02  0.00000000000E+00 0.  1.
         11    1    4    4    0    0 -0.15376659409E+02  0.25006283468E+02  0.19527079950E+02  0.35257094593E+02  0.51100000000E-03 0. -1.
        -11    1    4    4    0    0  0.96355134305E+00 -0.32908727339E+01  0.17432018822E+01  0.38466904742E+01  0.51100000000E-03 0.  1.
        -12    1    4    4    0    0 -0.96060793629E+01  0.42615050412E+01 -0.11069373384E+02  0.15263296271E+02  0.00000000000E+00 0.  1.
</event>
<event>
 8    1  0.1247338E-006  0.9118800E+02  0.7816164E-02  0.1184000E+00
        -11   -1    0    0    0    0  0.00000000000E+00  0.00000000000E+00  0.45593999997E+02  0.45594000000E+02  0.51100000000E-03 0. -1.
         11   -1    0    0    0    0 -0.00000000000E+00 -0.00000000000E+00 -0.45593999997E+02  0.45594000000E+02  0.51100000000E-03 0.  1.
         23    2    1    2    0    0  0.35527136788E-14  0.26645352591E-14  0.00000000000E+00  0.91188000000E+02  0.91188000000E+02 0.  0.
    9900012    2    3    3    0    0 -0.19154845958E+02 -0.33331539161E+01 -0.31269185353E+02  0.54367082150E+02  0.39999995378E+02 0.  0.
         12    1    3    3    0    0  0.19154845958E+02  0.33331539161E+01  0.31269185353E+02  0.36820917850E+02  0.00000000000E+00 0. -1.
         11    1    4    4    0    0  0.51450322195E+01  0.10337260580E+02 -0.28614692916E+01  0.11896147259E+02  0.51100000000E-03 0. -1.
        -11    1    4    4    0    0 -0.11260732947E+02 -0.85236091605E+01 -0.23872858416E+02  0.27737508699E+02  0.51100000000E-03 0.  1.
         12    1    4    4    0    0 -0.13039145230E+02 -0.51468053360E+01 -0.45348576454E+01  0.14733426192E+02  0.00000000000E+00 0. -1.
</event>
<event>
 8    1  0.1247338E-006  0.9118800E+02  0.7816164E-02  0.1184000E+00
        -11   -1    0    0    0    0  0.00000000000E+00  0.00000000000E+00  0.45593999997E+02  0.45594000000E+02  0.51100000000E-03 0. -1.
         11   -1    0    0    0    0 -0.00000000000E+00 -0.00000000000E+00 -0.45593999997E+02  0.45594000000E+02  0.51100000000E-03 0.  1.
         23    2    1    2    0    0  0.00000000000E+00  0.00000000000E+00  0.35527136788E-14  0.91188000000E+02  0.91188000000E+02 0.  0.
    9900012    2    3    3    0    0 -0.16531593876E+02 -0.26955204983E+02  0.18865397478E+02  0.54367083475E+02  0.39999998398E+02 0.  0.
        -12    1    3    3    0    0  0.16531593876E+02  0.26955204983E+02 -0.18865397478E+02  0.36820916525E+02  0.00000000000E+00 0.  1.
         11    1    4    4    0    0 -0.14813529810E+02 -0.12274139996E+02  0.80026895962E+01  0.20835983757E+02  0.51100000000E-03 0. -1.
        -11    1    4    4    0    0 -0.13759967784E+02 -0.15678734272E+01  0.36486785906E+01  0.14321584976E+02  0.51100000000E-03 0.  1.
        -12    1    4    4    0    0  0.12041903718E+02 -0.13113191559E+02  0.72140292908E+01  0.19209514743E+02  0.00000000000E+00 0.  1.
</event>
<event>
 8    1  0.1247338E-006  0.9118800E+02  0.7816164E-02  0.1184000E+00
        -11   -1    0    0    0    0  0.00000000000E+00  0.00000000000E+00  0.45593999997E+02  0.45594000000E+02  0.51100000000E-03 0.  1.
         11   -1    0    0    0    0 -0.00000000000E+00 -0.00000000000E+00 -0.45593999997E+02  0.45594000000E+02  0.51100000000E-03 0. -1.
         23    2    1    2    0    0  0.00000000000E+00 -0.35527136788E-14  0.00000000000E+00  0.91188000000E+02  0.91188000000E+02 0.  0.
    9900012    2    3    3    0    0 -0.21684323498E+02 -0.17706441832E+02  0.23917653958E+02  0.54367052989E+02  0.39999928900E+02 0.  0.
         12    1    3    3    0    0  0.21684323498E+02  0.17706441832E+02 -0.23917653958E+02  0.36820947011E+02  0.00000000000E+00 0. -1.
         11    1    4    4    0    0 -0.11859260666E+02 -0.70687555644E+01  0.74927249242E+01  0.15708287488E+02  0.51100000000E-03 0. -1.
        -11    1    4    4    0    0 -0.79291461333E+01 -0.20408258492E+02  0.18294730939E+02  0.28531834036E+02  0.51100000000E-03 0.  1.
         12    1    4    4    0    0 -0.18959166990E+01  0.97705722245E+01 -0.18698019054E+01  0.10126931465E+02  0.00000000000E+00 0. -1.
</event>
<event>
 8    1  0.1247338E-006  0.9118800E+02  0.7816164E-02  0.1184000E+00
        -11   -1    0    0    0    0  0.00000000000E+00  0.00000000000E+00  0.45593999997E+02  0.45594000000E+02  0.51100000000E-03 0.  1.
         11   -1    0    0    0    0 -0.00000000000E+00 -0.00000000000E+00 -0.45593999997E+02  0.45594000000E+02  0.51100000000E-03 0. -1.
         23    2    1    2    0    0  0.17763568394E-14  0.00000000000E+00  0.00000000000E+00  0.91188000000E+02  0.91188000000E+02 0.  0.
    9900012    2    3    3    0    0 -0.11747471188E+02 -0.64432584659E+01 -0.34296665055E+02  0.54367083487E+02  0.39999998425E+02 0.  0.
        -12    1    3    3    0    0  0.11747471188E+02  0.64432584659E+01  0.34296665055E+02  0.36820916513E+02  0.00000000000E+00 0.  1.
         11    1    4    4    0    0  0.19695444088E+01 -0.68839305360E+01 -0.99840220115E+01  0.12286101928E+02  0.51100000000E-03 0. -1.
        -11    1    4    4    0    0  0.50725137795E+01  0.78484530070E+01  0.13303726054E+01  0.94392002932E+01  0.51100000000E-03 0.  1.
         12    1    4    4    0    0 -0.18789529376E+02 -0.74077809369E+01 -0.25643015649E+02  0.32641781265E+02  0.00000000000E+00 0. -1.
</event>
<event>
 8    1  0.1247338E-006  0.9118800E+02  0.7816164E-02  0.1184000E+00
        -11   -1    0    0    0    0  0.00000000000E+00  0.00000000000E+00  0.45593999997E+02  0.45594000000E+02  0.51100000000E-03 0.  1.
         11   -1    0    0    0    0 -0.00000000000E+00 -0.00000000000E+00 -0.45593999997E+02  0.45594000000E+02  0.51100000000E-03 0. -1.
         23    2    1    2    0    0  0.35527136788E-14  0.00000000000E+00  0.00000000000E+00  0.91188000000E+02  0.91188000000E+02 0.  0.
    9900012    2    3    3    0    0  0.18112392186E+02  0.31092253490E+02 -0.78098569668E+01  0.54367070576E+02  0.39999968992E+02 0.  0.
        -12    1    3    3    0    0 -0.18112392186E+02 -0.31092253490E+02  0.78098569668E+01  0.36820929424E+02  0.00000000000E+00 0.  1.
         11    1    4    4    0    0  0.17857093355E+01 -0.35909096450E+01 -0.66650938938E+01  0.77786159941E+01  0.51100000000E-03 0. -1.
        -11    1    4    4    0    0 -0.41591474808E+01  0.20618387793E+02 -0.45116128889E+01  0.21512114588E+02  0.51100000000E-03 0.  1.
        -12    1    4    4    0    0  0.20485830331E+02  0.14064775343E+02  0.33668498159E+01  0.25076339994E+02  0.00000000000E+00 0.  1.
</event>
<event>
 8    1  0.1247338E-006  0.9118800E+02  0.7816164E-02  0.1184000E+00
        -11   -1    0    0    0    0  0.00000000000E+00  0.00000000000E+00  0.45593999997E+02  0.45594000000E+02  0.51100000000E-03 0. -1.
         11   -1    0    0    0    0 -0.00000000000E+00 -0.00000000000E+00 -0.45593999997E+02  0.45594000000E+02  0.51100000000E-03 0.  1.
         23    2    1    2    0    0  0.00000000000E+00 -0.53290705182E-14 -0.71054273576E-14  0.91188000000E+02  0.91188000000E+02 0.  0.
    9900012    2    3    3    0    0 -0.13055320440E+02  0.10731177730E+02 -0.32713676428E+02  0.54367025098E+02  0.39999865316E+02 0.  0.
         12    1    3    3    0    0  0.13055320440E+02 -0.10731177730E+02  0.32713676428E+02  0.36820974902E+02  0.00000000000E+00 0. -1.
         11    1    4    4    0    0 -0.39430170603E+01 -0.43040366430E+01  0.40379511519E+01  0.70976872803E+01  0.51100000000E-03 0. -1.
        -11    1    4    4    0    0 -0.77033607917E+01 -0.30083296515E+01 -0.26872883671E+01  0.86955927808E+01  0.51100000000E-03 0.  1.
        -12    1    4    4    0    0 -0.14089425877E+01  0.18043544025E+02 -0.34064339213E+02  0.38573745037E+02  0.00000000000E+00 0.  1.
</event>
<event>
 8    1  0.1247338E-006  0.9118800E+02  0.7816164E-02  0.1184000E+00
        -11   -1    0    0    0    0  0.00000000000E+00  0.00000000000E+00  0.45593999997E+02  0.45594000000E+02  0.51100000000E-03 0.  1.
         11   -1    0    0    0    0 -0.00000000000E+00 -0.00000000000E+00 -0.45593999997E+02  0.45594000000E+02  0.51100000000E-03 0. -1.
         23    2    1    2    0    0  0.71054273576E-14 -0.17763568394E-14 -0.17763568394E-14  0.91188000000E+02  0.91188000000E+02 0.  0.
    9900012    2    3    3    0    0  0.33979618948E+02 -0.11042401390E+02 -0.89010988364E+01  0.54367099783E+02  0.40000035576E+02 0.  0.
         12    1    3    3    0    0 -0.33979618948E+02  0.11042401390E+02  0.89010988364E+01  0.36820900217E+02  0.00000000000E+00 0. -1.
         11    1    4    4    0    0  0.14612005255E+02 -0.13722704863E+01  0.37015160405E+00  0.14680968508E+02  0.51100000000E-03 0. -1.
        -11    1    4    4    0    0  0.16829089752E+02 -0.19691277504E+02 -0.15561929965E+00  0.25903453231E+02  0.51100000000E-03 0.  1.
         12    1    4    4    0    0  0.25385239401E+01  0.10021146600E+02 -0.91156311408E+01  0.13782678044E+02  0.00000000000E+00 0. -1.
</event>
<event>
 8    1  0.1247338E-006  0.9118800E+02  0.7816164E-02  0.1184000E+00
        -11   -1    0    0    0    0  0.00000000000E+00  0.00000000000E+00  0.45593999997E+02  0.45594000000E+02  0.51100000000E-03 0.  1.
         11   -1    0    0    0    0 -0.00000000000E+00 -0.00000000000E+00 -0.45593999997E+02  0.45594000000E+02  0.51100000000E-03 0. -1.
         23    2    1    2    0    0  0.00000000000E+00 -0.88817841970E-15  0.00000000000E+00  0.91188000000E+02  0.91188000000E+02 0.  0.
    9900012    2    3    3    0    0  0.15843400966E+02 -0.61755565751E+01  0.32659267404E+02  0.54367101036E+02  0.40000038432E+02 0.  0.
         12    1    3    3    0    0 -0.15843400966E+02  0.61755565751E+01 -0.32659267404E+02  0.36820898964E+02  0.00000000000E+00 0. -1.
         11    1    4    4    0    0  0.74669741033E+01 -0.10784480798E+02  0.59812068918E+01  0.14416503199E+02  0.51100000000E-03 0. -1.
        -11    1    4    4    0    0  0.12741538806E+02 -0.64732114537E+01  0.23695924364E+02  0.27672117906E+02  0.51100000000E-03 0.  1.
         12    1    4    4    0    0 -0.43651119430E+01  0.11082135676E+02  0.29821361476E+01  0.12278479932E+02  0.00000000000E+00 0. -1.
</event>
<event>
 8    1  0.1247338E-006  0.9118800E+02  0.7816164E-02  0.1184000E+00
        -11   -1    0    0    0    0  0.00000000000E+00  0.00000000000E+00  0.45593999997E+02  0.45594000000E+02  0.51100000000E-03 0.  1.
         11   -1    0    0    0    0 -0.00000000000E+00 -0.00000000000E+00 -0.45593999997E+02  0.45594000000E+02  0.51100000000E-03 0. -1.
         23    2    1    2    0    0  0.35527136788E-14  0.00000000000E+00 -0.35527136788E-14  0.91188000000E+02  0.91188000000E+02 0.  0.
    9900012    2    3    3    0    0 -0.25742545102E+02  0.18290078617E+02  0.18936025270E+02  0.54367100266E+02  0.40000036677E+02 0.  0.
         12    1    3    3    0    0  0.25742545102E+02 -0.18290078617E+02 -0.18936025270E+02  0.36820899734E+02  0.00000000000E+00 0. -1.
         11    1    4    4    0    0 -0.16691090230E+02  0.13377024038E+02  0.21293414949E+02  0.30181894997E+02  0.51100000000E-03 0. -1.
        -11    1    4    4    0    0 -0.22014899915E+01  0.10325108462E+02  0.59633905772E+01  0.12125034036E+02  0.51100000000E-03 0.  1.
         12    1    4    4    0    0 -0.68499648809E+01 -0.54120538824E+01 -0.83207802566E+01  0.12060171233E+02  0.00000000000E+00 0. -1.
</event>
<event>
 8    1  0.1247338E-006  0.9118800E+02  0.7816164E-02  0.1184000E+00
        -11   -1    0    0    0    0  0.00000000000E+00  0.00000000000E+00  0.45593999997E+02  0.45594000000E+02  0.51100000000E-03 0.  1.
         11   -1    0    0    0    0 -0.00000000000E+00 -0.00000000000E+00 -0.45593999997E+02  0.45594000000E+02  0.51100000000E-03 0. -1.
         23    2    1    2    0    0  0.00000000000E+00  0.35527136788E-14 -0.35527136788E-14  0.91188000000E+02  0.91188000000E+02 0.  0.
    9900012    2    3    3    0    0  0.90351571987E+01 -0.20301884158E+02  0.29359500285E+02  0.54367070857E+02  0.39999969633E+02 0.  0.
         12    1    3    3    0    0 -0.90351571987E+01  0.20301884158E+02 -0.29359500285E+02  0.36820929143E+02  0.00000000000E+00 0. -1.
         11    1    4    4    0    0 -0.90584164345E+00 -0.49722939239E-01 -0.94616286380E+00  0.13108187822E+01  0.51100000000E-03 0. -1.
        -11    1    4    4    0    0 -0.74931845744E+01 -0.22776255675E+02  0.94898927647E+01  0.25786890130E+02  0.51100000000E-03 0.  1.
        -12    1    4    4    0    0  0.17434183417E+02  0.25240944560E+01  0.20815770384E+02  0.27269361945E+02  0.00000000000E+00 0.  1.
</event>
<event>
 8    1  0.1247338E-006  0.9118800E+02  0.7816164E-02  0.1184000E+00
        -11   -1    0    0    0    0  0.00000000000E+00  0.00000000000E+00  0.45593999997E+02  0.45594000000E+02  0.51100000000E-03 0.  1.
         11   -1    0    0    0    0 -0.00000000000E+00 -0.00000000000E+00 -0.45593999997E+02  0.45594000000E+02  0.51100000000E-03 0. -1.
         23    2    1    2    0    0  0.00000000000E+00  0.00000000000E+00  0.00000000000E+00  0.91188000000E+02  0.91188000000E+02 0.  0.
    9900012    2    3    3    0    0 -0.31565896931E+02 -0.16760731810E+02 -0.88573789492E+01  0.54367066529E+02  0.39999959765E+02 0.  0.
         12    1    3    3    0    0  0.31565896931E+02  0.16760731810E+02  0.88573789492E+01  0.36820933471E+02  0.00000000000E+00 0. -1.
         11    1    4    4    0    0 -0.34738424527E+02 -0.51156616018E+01 -0.58003494975E+01  0.35588933487E+02  0.51100000000E-03 0. -1.
        -11    1    4    4    0    0 -0.12219008309E+01 -0.10730348122E+02  0.30285025159E+01  0.11216293515E+02  0.51100000000E-03 0.  1.
        -12    1    4    4    0    0  0.43944284268E+01 -0.91472208626E+00 -0.60855319676E+01  0.75618395263E+01  0.00000000000E+00 0.  1.
</event>
<event>
 8    1  0.1247338E-006  0.9118800E+02  0.7816164E-02  0.1184000E+00
        -11   -1    0    0    0    0  0.00000000000E+00  0.00000000000E+00  0.45593999997E+02  0.45594000000E+02  0.51100000000E-03 0. -1.
         11   -1    0    0    0    0 -0.00000000000E+00 -0.00000000000E+00 -0.45593999997E+02  0.45594000000E+02  0.51100000000E-03 0.  1.
         23    2    1    2    0    0 -0.12212453271E-14 -0.17763568394E-14 -0.71054273576E-14  0.91188000000E+02  0.91188000000E+02 0.  0.
    9900012    2    3    3    0    0  0.61482909093E+00 -0.15100197562E+02 -0.33576567109E+02  0.54367084204E+02  0.40000000059E+02 0.  0.
         12    1    3    3    0    0 -0.61482909093E+00  0.15100197562E+02  0.33576567109E+02  0.36820915796E+02  0.00000000000E+00 0. -1.
         11    1    4    4    0    0  0.31755037825E+01  0.27333305877E+01  0.81710353581E+00  0.42687912603E+01  0.51100000000E-03 0.  1.
        -11    1    4    4    0    0  0.55753279778E+01 -0.99580579249E+01  0.23477588758E+01  0.11651573786E+02  0.51100000000E-03 0. -1.
        -12    1    4    4    0    0 -0.81360026694E+01 -0.78754702251E+01 -0.36741429521E+02  0.38446719157E+02  0.00000000000E+00 0.  1.
</event>
<event>
 8    1  0.1247338E-006  0.9118800E+02  0.7816164E-02  0.1184000E+00
        -11   -1    0    0    0    0  0.00000000000E+00  0.00000000000E+00  0.45593999997E+02  0.45594000000E+02  0.51100000000E-03 0. -1.
         11   -1    0    0    0    0 -0.00000000000E+00 -0.00000000000E+00 -0.45593999997E+02  0.45594000000E+02  0.51100000000E-03 0.  1.
         23    2    1    2    0    0  0.88817841970E-15  0.71054273576E-14  0.00000000000E+00  0.91188000000E+02  0.91188000000E+02 0.  0.
    9900012    2    3    3    0    0  0.64467529369E+01  0.34526778260E+02  0.11050922244E+02  0.54367055920E+02  0.39999935581E+02 0.  0.
         12    1    3    3    0    0 -0.64467529369E+01 -0.34526778260E+02 -0.11050922244E+02  0.36820944080E+02  0.00000000000E+00 0. -1.
         11    1    4    4    0    0  0.18586091891E+01 -0.49119928122E+01  0.56787829597E+01  0.77350292610E+01  0.51100000000E-03 0. -1.
        -11    1    4    4    0    0 -0.29136669121E+01  0.21513640984E+02  0.13504266094E+02  0.25567389508E+02  0.51100000000E-03 0.  1.
        -12    1    4    4    0    0  0.75018106599E+01  0.17925130089E+02 -0.81321268094E+01  0.21064637151E+02  0.00000000000E+00 0.  1.
</event>
<event>
 8    1  0.1247338E-006  0.9118800E+02  0.7816164E-02  0.1184000E+00
        -11   -1    0    0    0    0  0.00000000000E+00  0.00000000000E+00  0.45593999997E+02  0.45594000000E+02  0.51100000000E-03 0.  1.
         11   -1    0    0    0    0 -0.00000000000E+00 -0.00000000000E+00 -0.45593999997E+02  0.45594000000E+02  0.51100000000E-03 0. -1.
         23    2    1    2    0    0  0.88817841970E-15  0.35527136788E-14 -0.35527136788E-14  0.91188000000E+02  0.91188000000E+02 0.  0.
    9900012    2    3    3    0    0 -0.52605409950E+01  0.18365480103E+02 -0.31477221498E+02  0.54367087135E+02  0.40000006742E+02 0.  0.
        -12    1    3    3    0    0  0.52605409950E+01 -0.18365480103E+02  0.31477221498E+02  0.36820912865E+02  0.00000000000E+00 0.  1.
         11    1    4    4    0    0  0.13866940905E+01  0.29887674799E+00  0.30528469272E+01  0.33663217958E+01  0.51100000000E-03 0. -1.
        -11    1    4    4    0    0 -0.57803298541E+01 -0.16402550430E+01  0.43398716899E+01  0.74119590106E+01  0.51100000000E-03 0.  1.
         12    1    4    4    0    0 -0.86690523136E+00  0.19706858398E+02 -0.38869940115E+02  0.43588806329E+02  0.00000000000E+00 0. -1.
</event>
<event>
 8    1  0.1247338E-006  0.9118800E+02  0.7816164E-02  0.1184000E+00
        -11   -1    0    0    0    0  0.00000000000E+00  0.00000000000E+00  0.45593999997E+02  0.45594000000E+02  0.51100000000E-03 0.  1.
         11   -1    0    0    0    0 -0.00000000000E+00 -0.00000000000E+00 -0.45593999997E+02  0.45594000000E+02  0.51100000000E-03 0. -1.
         23    2    1    2    0    0 -0.35527136788E-14  0.17763568394E-14  0.00000000000E+00  0.91188000000E+02  0.91188000000E+02 0.  0.
    9900012    2    3    3    0    0  0.30995260004E+02  0.11251437153E+02 -0.16385305975E+02  0.54367092452E+02  0.40000018864E+02 0.  0.
        -12    1    3    3    0    0 -0.30995260004E+02 -0.11251437153E+02  0.16385305975E+02  0.36820907548E+02  0.00000000000E+00 0.  1.
         11    1    4    4    0    0  0.24349596224E+02  0.14527501579E+02 -0.55486446811E+01  0.28891843078E+02  0.51100000000E-03 0. -1.
        -11    1    4    4    0    0 -0.17128828300E+01  0.80784676578E+01 -0.70963661326E+01  0.10888251459E+02  0.51100000000E-03 0.  1.
        -12    1    4    4    0    0  0.83585466105E+01 -0.11354532084E+02 -0.37402951616E+01  0.14586997915E+02  0.00000000000E+00 0.  1.
</event>
<event>
 8    1  0.1247338E-006  0.9118800E+02  0.7816164E-02  0.1184000E+00
        -11   -1    0    0    0    0  0.00000000000E+00  0.00000000000E+00  0.45593999997E+02  0.45594000000E+02  0.51100000000E-03 0.  1.
         11   -1    0    0    0    0 -0.00000000000E+00 -0.00000000000E+00 -0.45593999997E+02  0.45594000000E+02  0.51100000000E-03 0. -1.
         23    2    1    2    0    0  0.00000000000E+00  0.00000000000E+00 -0.53290705182E-14  0.91188000000E+02  0.91188000000E+02 0.  0.
    9900012    2    3    3    0    0  0.31536340760E+02 -0.13959877380E+02 -0.12898134017E+02  0.54367070814E+02  0.39999969534E+02 0.  0.
        -12    1    3    3    0    0 -0.31536340760E+02  0.13959877380E+02  0.12898134017E+02  0.36820929186E+02  0.00000000000E+00 0.  1.
         11    1    4    4    0    0  0.25320738667E+01 -0.52089754723E+01 -0.22047413477E+01  0.61972339159E+01  0.51100000000E-03 0. -1.
        -11    1    4    4    0    0  0.26903558759E+02 -0.13856068325E+02  0.57685126476E+01  0.30806944700E+02  0.51100000000E-03 0.  1.
         12    1    4    4    0    0  0.21007081345E+01  0.51051664167E+01 -0.16461905317E+02  0.17362892198E+02  0.00000000000E+00 0. -1.
</event>
<event>
 8    1  0.1247338E-006  0.9118800E+02  0.7816164E-02  0.1184000E+00
        -11   -1    0    0    0    0  0.00000000000E+00  0.00000000000E+00  0.45593999997E+02  0.45594000000E+02  0.51100000000E-03 0. -1.
         11   -1    0    0    0    0 -0.00000000000E+00 -0.00000000000E+00 -0.45593999997E+02  0.45594000000E+02  0.51100000000E-03 0.  1.
         23    2    1    2    0    0  0.00000000000E+00 -0.35527136788E-14  0.00000000000E+00  0.91188000000E+02  0.91188000000E+02 0.  0.
    9900012    2    3    3    0    0 -0.20926043515E+02  0.25341289948E+02  0.16604212624E+02  0.54367079991E+02  0.39999990456E+02 0.  0.
        -12    1    3    3    0    0  0.20926043515E+02 -0.25341289948E+02 -0.16604212624E+02  0.36820920009E+02  0.00000000000E+00 0.  1.
         11    1    4    4    0    0  0.15337294799E+01  0.49981797445E+01  0.85974358371E+00  0.52984229887E+01  0.51100000000E-03 0. -1.
        -11    1    4    4    0    0 -0.12592117884E+02  0.14453385802E+02 -0.94537601361E+01  0.21373707561E+02  0.51100000000E-03 0.  1.
        -12    1    4    4    0    0 -0.98676551115E+01  0.58897244020E+01  0.25198229177E+02  0.27694949442E+02  0.00000000000E+00 0.  1.
</event>
<event>
 8    1  0.1247338E-006  0.9118800E+02  0.7816164E-02  0.1184000E+00
        -11   -1    0    0    0    0  0.00000000000E+00  0.00000000000E+00  0.45593999997E+02  0.45594000000E+02  0.51100000000E-03 0.  1.
         11   -1    0    0    0    0 -0.00000000000E+00 -0.00000000000E+00 -0.45593999997E+02  0.45594000000E+02  0.51100000000E-03 0. -1.
         23    2    1    2    0    0 -0.17763568394E-14  0.00000000000E+00  0.00000000000E+00  0.91188000000E+02  0.91188000000E+02 0.  0.
    9900012    2    3    3    0    0 -0.11057169795E+02 -0.25110395714E+02  0.24555793892E+02  0.54367082162E+02  0.39999995404E+02 0.  0.
         12    1    3    3    0    0  0.11057169795E+02  0.25110395714E+02 -0.24555793892E+02  0.36820917838E+02  0.00000000000E+00 0. -1.
         11    1    4    4    0    0 -0.20547627299E+02 -0.72293729771E+01  0.43367443848E+01  0.22209821552E+02  0.51100000000E-03 0. -1.
        -11    1    4    4    0    0  0.58087080782E+01 -0.17347854522E+02  0.21493223519E+02  0.28224950019E+02  0.51100000000E-03 0.  1.
        -12    1    4    4    0    0  0.36817494253E+01 -0.53316821420E+00 -0.12741740115E+01  0.39323105913E+01  0.00000000000E+00 0.  1.
</event>
<event>
 8    1  0.1247338E-006  0.9118800E+02  0.7816164E-02  0.1184000E+00
        -11   -1    0    0    0    0  0.00000000000E+00  0.00000000000E+00  0.45593999997E+02  0.45594000000E+02  0.51100000000E-03 0.  1.
         11   -1    0    0    0    0 -0.00000000000E+00 -0.00000000000E+00 -0.45593999997E+02  0.45594000000E+02  0.51100000000E-03 0. -1.
         23    2    1    2    0    0  0.00000000000E+00  0.00000000000E+00 -0.71054273576E-14  0.91188000000E+02  0.91188000000E+02 0.  0.
    9900012    2    3    3    0    0 -0.72373117249E+01 -0.25178263405E+01  0.36014820454E+02  0.54367008394E+02  0.39999827236E+02 0.  0.
         12    1    3    3    0    0  0.72373117249E+01  0.25178263405E+01 -0.36014820454E+02  0.36820991606E+02  0.00000000000E+00 0. -1.
         11    1    4    4    0    0 -0.89818780892E+01 -0.11678187643E+02  0.65314152017E+01  0.16115631710E+02  0.51100000000E-03 0. -1.
        -11    1    4    4    0    0  0.98829237723E+01 -0.82089638785E+00  0.63530833021E+01  0.11777424204E+02  0.51100000000E-03 0.  1.
        -12    1    4    4    0    0 -0.81383574080E+01  0.99812576900E+01  0.23130321951E+02  0.26473952480E+02  0.00000000000E+00 0.  1.
</event>
<event>
 8    1  0.1247338E-006  0.9118800E+02  0.7816164E-02  0.1184000E+00
        -11   -1    0    0    0    0  0.00000000000E+00  0.00000000000E+00  0.45593999997E+02  0.45594000000E+02  0.51100000000E-03 0. -1.
         11   -1    0    0    0    0 -0.00000000000E+00 -0.00000000000E+00 -0.45593999997E+02  0.45594000000E+02  0.51100000000E-03 0.  1.
         23    2    1    2    0    0  0.00000000000E+00  0.00000000000E+00  0.00000000000E+00  0.91188000000E+02  0.91188000000E+02 0.  0.
    9900012    2    3    3    0    0 -0.99137695148E+01  0.32884499406E+02  0.13270556194E+02  0.54367071319E+02  0.39999970687E+02 0.  0.
        -12    1    3    3    0    0  0.99137695148E+01 -0.32884499406E+02 -0.13270556194E+02  0.36820928681E+02  0.00000000000E+00 0.  1.
         11    1    4    4    0    0 -0.14817985642E+02  0.59154400349E+01  0.17606077677E+02  0.23760031581E+02  0.51100000000E-03 0. -1.
        -11    1    4    4    0    0  0.24717491259E+01  0.43611778890E+01 -0.59872656682E+01  0.78087621787E+01  0.51100000000E-03 0.  1.
         12    1    4    4    0    0  0.24324670018E+01  0.22607881483E+02  0.16517441857E+01  0.22798277560E+02  0.00000000000E+00 0. -1.
</event>
<event>
 8    1  0.1247338E-006  0.9118800E+02  0.7816164E-02  0.1184000E+00
        -11   -1    0    0    0    0  0.00000000000E+00  0.00000000000E+00  0.45593999997E+02  0.45594000000E+02  0.51100000000E-03 0. -1.
         11   -1    0    0    0    0 -0.00000000000E+00 -0.00000000000E+00 -0.45593999997E+02  0.45594000000E+02  0.51100000000E-03 0.  1.
         23    2    1    2    0    0  0.00000000000E+00  0.00000000000E+00  0.77715611724E-15  0.91188000000E+02  0.91188000000E+02 0.  0.
    9900012    2    3    3    0    0  0.36142960447E+02 -0.70140970287E+01 -0.51673449136E+00  0.54367106997E+02  0.40000052022E+02 0.  0.
         12    1    3    3    0    0 -0.36142960447E+02  0.70140970287E+01  0.51673449136E+00  0.36820893003E+02  0.00000000000E+00 0. -1.
         11    1    4    4    0    0  0.99438828804E+01  0.15400855582E+01  0.14068490412E+02  0.17296678670E+02  0.51100000000E-03 0. -1.
        -11    1    4    4    0    0  0.16308881440E+01  0.26619669685E+01  0.34051890627E+01  0.46196511874E+01  0.51100000000E-03 0.  1.
        -12    1    4    4    0    0  0.24568189422E+02 -0.11216149555E+02 -0.17990413966E+02  0.32450777140E+02  0.00000000000E+00 0.  1.
</event>
<event>
 8    1  0.1247338E-006  0.9118800E+02  0.7816164E-02  0.1184000E+00
        -11   -1    0    0    0    0  0.00000000000E+00  0.00000000000E+00  0.45593999997E+02  0.45594000000E+02  0.51100000000E-03 0. -1.
         11   -1    0    0    0    0 -0.00000000000E+00 -0.00000000000E+00 -0.45593999997E+02  0.45594000000E+02  0.51100000000E-03 0.  1.
         23    2    1    2    0    0  0.17763568394E-14  0.00000000000E+00 -0.17763568394E-14  0.91188000000E+02  0.91188000000E+02 0.  0.
    9900012    2    3    3    0    0  0.15107833582E+02  0.32497800500E+02  0.84512498593E+01  0.54367118736E+02  0.40000078783E+02 0.  0.
        -12    1    3    3    0    0 -0.15107833582E+02 -0.32497800500E+02 -0.84512498593E+01  0.36820881264E+02  0.00000000000E+00 0.  1.
         11    1    4    4    0    0 -0.70820332043E+01  0.23304967229E+02 -0.53200221044E+01  0.24931492681E+02  0.51100000000E-03 0. -1.
        -11    1    4    4    0    0  0.80843344245E+01 -0.16157402042E+01  0.42566804889E+01  0.92782761621E+01  0.51100000000E-03 0.  1.
         12    1    4    4    0    0  0.14105532362E+02  0.10808573475E+02  0.95145914748E+01  0.20157349893E+02  0.00000000000E+00 0. -1.
</event>
<event>
 8    1  0.1247338E-006  0.9118800E+02  0.7816164E-02  0.1184000E+00
        -11   -1    0    0    0    0  0.00000000000E+00  0.00000000000E+00  0.45593999997E+02  0.45594000000E+02  0.51100000000E-03 0.  1.
         11   -1    0    0    0    0 -0.00000000000E+00 -0.00000000000E+00 -0.45593999997E+02  0.45594000000E+02  0.51100000000E-03 0. -1.
         23    2    1    2    0    0  0.00000000000E+00  0.00000000000E+00  0.00000000000E+00  0.91188000000E+02  0.91188000000E+02 0.  0.
    9900012    2    3    3    0    0 -0.29598175261E+02  0.14836877946E+02 -0.16111661164E+02  0.54367210336E+02  0.40000287603E+02 0.  0.
        -12    1    3    3    0    0  0.29598175261E+02 -0.14836877946E+02  0.16111661164E+02  0.36820789664E+02  0.00000000000E+00 0.  1.
         11    1    4    4    0    0 -0.22665832195E+02 -0.22994358432E+01  0.40660421880E+01  0.23142170460E+02  0.51100000000E-03 0. -1.
        -11    1    4    4    0    0 -0.54938350427E+01  0.38283385810E+01 -0.15769598865E+02  0.17132385952E+02  0.51100000000E-03 0.  1.
        -12    1    4    4    0    0 -0.14385080239E+01  0.13307975208E+02 -0.44081044870E+01  0.14092653924E+02  0.00000000000E+00 0.  1.
</event>
<event>
 8    1  0.1247338E-006  0.9118800E+02  0.7816164E-02  0.1184000E+00
        -11   -1    0    0    0    0  0.00000000000E+00  0.00000000000E+00  0.45593999997E+02  0.45594000000E+02  0.51100000000E-03 0.  1.
         11   -1    0    0    0    0 -0.00000000000E+00 -0.00000000000E+00 -0.45593999997E+02  0.45594000000E+02  0.51100000000E-03 0. -1.
         23    2    1    2    0    0  0.35527136788E-14  0.00000000000E+00 -0.35527136788E-14  0.91188000000E+02  0.91188000000E+02 0.  0.
    9900012    2    3    3    0    0  0.17654267707E+02 -0.57957011563E+01 -0.31788621889E+02  0.54367084724E+02  0.40000001244E+02 0.  0.
        -12    1    3    3    0    0 -0.17654267707E+02  0.57957011563E+01  0.31788621889E+02  0.36820915276E+02  0.00000000000E+00 0.  1.
         11    1    4    4    0    0  0.51816008007E+01  0.38053930042E+01 -0.12914289286E+01  0.65572701418E+01  0.51100000000E-03 0. -1.
        -11    1    4    4    0    0 -0.10597776395E+02 -0.17905510845E+01 -0.16575524304E+02  0.19755175117E+02  0.51100000000E-03 0.  1.
         12    1    4    4    0    0  0.23070443302E+02 -0.78105430760E+01 -0.13921668657E+02  0.28054639465E+02  0.00000000000E+00 0. -1.
</event>
<event>
 8    1  0.1247338E-006  0.9118800E+02  0.7816164E-02  0.1184000E+00
        -11   -1    0    0    0    0  0.00000000000E+00  0.00000000000E+00  0.45593999997E+02  0.45594000000E+02  0.51100000000E-03 0. -1.
         11   -1    0    0    0    0 -0.00000000000E+00 -0.00000000000E+00 -0.45593999997E+02  0.45594000000E+02  0.51100000000E-03 0.  1.
         23    2    1    2    0    0  0.71054273576E-14 -0.88817841970E-15  0.00000000000E+00  0.91188000000E+02  0.91188000000E+02 0.  0.
    9900012    2    3    3    0    0  0.36017074790E+02  0.67712088225E+01  0.35638426272E+01  0.54367083123E+02  0.39999997596E+02 0.  0.
         12    1    3    3    0    0 -0.36017074790E+02 -0.67712088225E+01 -0.35638426272E+01  0.36820916877E+02  0.00000000000E+00 0. -1.
         11    1    4    4    0    0 -0.76294640591E-01  0.12516005972E+02 -0.35802140205E+01  0.13018224113E+02  0.51100000000E-03 0. -1.
        -11    1    4    4    0    0  0.46476963838E+01  0.17277106881E+01 -0.47904492266E+01  0.68945246357E+01  0.51100000000E-03 0.  1.
         12    1    4    4    0    0  0.31445673047E+02 -0.74725078371E+01  0.11934505874E+02  0.34454334375E+02  0.00000000000E+00 0. -1.
</event>
<event>
 8    1  0.1247338E-006  0.9118800E+02  0.7816164E-02  0.1184000E+00
        -11   -1    0    0    0    0  0.00000000000E+00  0.00000000000E+00  0.45593999997E+02  0.45594000000E+02  0.51100000000E-03 0. -1.
         11   -1    0    0    0    0 -0.00000000000E+00 -0.00000000000E+00 -0.45593999997E+02  0.45594000000E+02  0.51100000000E-03 0.  1.
         23    2    1    2    0    0 -0.44408920985E-15  0.00000000000E+00  0.00000000000E+00  0.91188000000E+02  0.91188000000E+02 0.  0.
    9900012    2    3    3    0    0  0.20983313405E+00 -0.11870785372E+02  0.34854230834E+02  0.54367123010E+02  0.40000088526E+02 0.  0.
        -12    1    3    3    0    0 -0.20983313405E+00  0.11870785372E+02 -0.34854230834E+02  0.36820876990E+02  0.00000000000E+00 0.  1.
         11    1    4    4    0    0 -0.54941402091E+01  0.94133872221E+00  0.35414173544E+02  0.35850179683E+02  0.51100000000E-03 0.  1.
        -11    1    4    4    0    0  0.19452376967E+01 -0.11332999792E+02  0.42292032136E+01  0.12251815950E+02  0.51100000000E-03 0. -1.
         12    1    4    4    0    0  0.37587356464E+01 -0.14791243022E+01 -0.47891459244E+01  0.62651273767E+01  0.00000000000E+00 0. -1.
</event>
<event>
 8    1  0.1247338E-006  0.9118800E+02  0.7816164E-02  0.1184000E+00
        -11   -1    0    0    0    0  0.00000000000E+00  0.00000000000E+00  0.45593999997E+02  0.45594000000E+02  0.51100000000E-03 0.  1.
         11   -1    0    0    0    0 -0.00000000000E+00 -0.00000000000E+00 -0.45593999997E+02  0.45594000000E+02  0.51100000000E-03 0. -1.
         23    2    1    2    0    0  0.00000000000E+00 -0.88817841970E-15  0.00000000000E+00  0.91188000000E+02  0.91188000000E+02 0.  0.
    9900012    2    3    3    0    0  0.32472092551E+02 -0.41909172620E+01  0.16845775729E+02  0.54367071955E+02  0.39999972137E+02 0.  0.
         12    1    3    3    0    0 -0.32472092551E+02  0.41909172620E+01 -0.16845775729E+02  0.36820928045E+02  0.00000000000E+00 0. -1.
         11    1    4    4    0    0 -0.22035492149E+01 -0.76036048469E-01  0.33345228424E+01  0.39975559371E+01  0.51100000000E-03 0. -1.
        -11    1    4    4    0    0  0.18558793918E+02  0.13277876762E+02  0.13777181014E+02  0.26655985443E+02  0.51100000000E-03 0.  1.
        -12    1    4    4    0    0  0.16116847848E+02 -0.17392757976E+02 -0.26592812736E+00  0.23713530575E+02  0.00000000000E+00 0.  1.
</event>
<event>
 8    1  0.1247338E-006  0.9118800E+02  0.7816164E-02  0.1184000E+00
        -11   -1    0    0    0    0  0.00000000000E+00  0.00000000000E+00  0.45593999997E+02  0.45594000000E+02  0.51100000000E-03 0. -1.
         11   -1    0    0    0    0 -0.00000000000E+00 -0.00000000000E+00 -0.45593999997E+02  0.45594000000E+02  0.51100000000E-03 0.  1.
         23    2    1    2    0    0  0.00000000000E+00 -0.35527136788E-14  0.00000000000E+00  0.91188000000E+02  0.91188000000E+02 0.  0.
    9900012    2    3    3    0    0  0.16962061209E+02 -0.24013747136E+02 -0.22167778640E+02  0.54367055121E+02  0.39999933758E+02 0.  0.
         12    1    3    3    0    0 -0.16962061209E+02  0.24013747136E+02  0.22167778640E+02  0.36820944879E+02  0.00000000000E+00 0. -1.
         11    1    4    4    0    0  0.73517682091E+01 -0.62450117369E+01  0.10442845707E+01  0.97025356439E+01  0.51100000000E-03 0. -1.
        -11    1    4    4    0    0  0.10040175123E+02 -0.26858806931E+02 -0.20215147739E+02  0.35083512148E+02  0.51100000000E-03 0.  1.
         12    1    4    4    0    0 -0.42988212289E+00  0.90900715316E+01 -0.29969154713E+01  0.95810073286E+01  0.00000000000E+00 0. -1.
</event>
<event>
 8    1  0.1247338E-006  0.9118800E+02  0.7816164E-02  0.1184000E+00
        -11   -1    0    0    0    0  0.00000000000E+00  0.00000000000E+00  0.45593999997E+02  0.45594000000E+02  0.51100000000E-03 0.  1.
         11   -1    0    0    0    0 -0.00000000000E+00 -0.00000000000E+00 -0.45593999997E+02  0.45594000000E+02  0.51100000000E-03 0. -1.
         23    2    1    2    0    0 -0.88817841970E-15  0.71054273576E-14  0.00000000000E+00  0.91188000000E+02  0.91188000000E+02 0.  0.
    9900012    2    3    3    0    0  0.61050843309E+01 -0.36088880411E+02  0.40124600804E+01  0.54367093169E+02  0.40000020497E+02 0.  0.
         12    1    3    3    0    0 -0.61050843309E+01  0.36088880411E+02 -0.40124600804E+01  0.36820906831E+02  0.00000000000E+00 0. -1.
         11    1    4    4    0    0  0.94403489521E+01 -0.16176399639E+02  0.27098499216E+01  0.18924570814E+02  0.51100000000E-03 0. -1.
        -11    1    4    4    0    0 -0.57013724446E+01 -0.22092973550E+02  0.10924256649E+02  0.25297124572E+02  0.51100000000E-03 0.  1.
        -12    1    4    4    0    0  0.23661078235E+01  0.21804927790E+01 -0.96216464898E+01  0.10145397783E+02  0.00000000000E+00 0.  1.
</event>
<event>
 8    1  0.1247338E-006  0.9118800E+02  0.7816164E-02  0.1184000E+00
        -11   -1    0    0    0    0  0.00000000000E+00  0.00000000000E+00  0.45593999997E+02  0.45594000000E+02  0.51100000000E-03 0.  1.
         11   -1    0    0    0    0 -0.00000000000E+00 -0.00000000000E+00 -0.45593999997E+02  0.45594000000E+02  0.51100000000E-03 0. -1.
         23    2    1    2    0    0  0.35527136788E-14 -0.44408920985E-15  0.00000000000E+00  0.91188000000E+02  0.91188000000E+02 0.  0.
    9900012    2    3    3    0    0 -0.17298644793E+02 -0.21750798093E+01  0.32431557531E+02  0.54367081926E+02  0.39999994868E+02 0.  0.
         12    1    3    3    0    0  0.17298644793E+02  0.21750798093E+01 -0.32431557531E+02  0.36820918074E+02  0.00000000000E+00 0. -1.
         11    1    4    4    0    0 -0.21308100565E+02  0.74927563850E+01  0.27506317653E+01  0.22753956212E+02  0.51100000000E-03 0. -1.
        -11    1    4    4    0    0  0.42260287287E+01 -0.75617214210E+01  0.25414504591E+02  0.26850251275E+02  0.51100000000E-03 0.  1.
         12    1    4    4    0    0 -0.21657295740E+00 -0.21061147734E+01  0.42664211756E+01  0.47628744401E+01  0.00000000000E+00 0. -1.
</event>
<event>
 8    1  0.1247338E-006  0.9118800E+02  0.7816164E-02  0.1184000E+00
        -11   -1    0    0    0    0  0.00000000000E+00  0.00000000000E+00  0.45593999997E+02  0.45594000000E+02  0.51100000000E-03 0. -1.
         11   -1    0    0    0    0 -0.00000000000E+00 -0.00000000000E+00 -0.45593999997E+02  0.45594000000E+02  0.51100000000E-03 0.  1.
         23    2    1    2    0    0 -0.35527136788E-14 -0.35527136788E-14  0.00000000000E+00  0.91188000000E+02  0.91188000000E+02 0.  0.
    9900012    2    3    3    0    0  0.27660735201E+02  0.14325936483E+02  0.19632397076E+02  0.54367085523E+02  0.40000003067E+02 0.  0.
        -12    1    3    3    0    0 -0.27660735201E+02 -0.14325936483E+02 -0.19632397076E+02  0.36820914477E+02  0.00000000000E+00 0.  1.
         11    1    4    4    0    0  0.29412708592E+02  0.24093125798E+02  0.20543331767E+02  0.43215906999E+02  0.51100000000E-03 0. -1.
        -11    1    4    4    0    0 -0.13818677682E+01 -0.61534932696E+00  0.97504826421E+00  0.17997035038E+01  0.51100000000E-03 0.  1.
         12    1    4    4    0    0 -0.37010562279E+00 -0.91518399883E+01 -0.18859829548E+01  0.93514750200E+01  0.00000000000E+00 0. -1.
</event>
<event>
 8    1  0.1247338E-006  0.9118800E+02  0.7816164E-02  0.1184000E+00
        -11   -1    0    0    0    0  0.00000000000E+00  0.00000000000E+00  0.45593999997E+02  0.45594000000E+02  0.51100000000E-03 0.  1.
         11   -1    0    0    0    0 -0.00000000000E+00 -0.00000000000E+00 -0.45593999997E+02  0.45594000000E+02  0.51100000000E-03 0. -1.
         23    2    1    2    0    0  0.00000000000E+00  0.00000000000E+00 -0.35527136788E-14  0.91188000000E+02  0.91188000000E+02 0.  0.
    9900012    2    3    3    0    0  0.49421477021E+01 -0.25442649164E+02 -0.26153900020E+02  0.54367086015E+02  0.40000004189E+02 0.  0.
        -12    1    3    3    0    0 -0.49421477021E+01  0.25442649164E+02  0.26153900020E+02  0.36820913985E+02  0.00000000000E+00 0.  1.
         11    1    4    4    0    0  0.11833681825E+02 -0.62455326078E+01  0.22582808331E+01  0.13569912884E+02  0.51100000000E-03 0. -1.
        -11    1    4    4    0    0  0.43591693587E+01 -0.15985560226E+02 -0.11255086920E+02  0.20030413752E+02  0.51100000000E-03 0.  1.
         12    1    4    4    0    0 -0.11250703482E+02 -0.32115563301E+01 -0.17157093933E+02  0.20766759379E+02  0.00000000000E+00 0. -1.
</event>
<event>
 8    1  0.1247338E-006  0.9118800E+02  0.7816164E-02  0.1184000E+00
        -11   -1    0    0    0    0  0.00000000000E+00  0.00000000000E+00  0.45593999997E+02  0.45594000000E+02  0.51100000000E-03 0.  1.
         11   -1    0    0    0    0 -0.00000000000E+00 -0.00000000000E+00 -0.45593999997E+02  0.45594000000E+02  0.51100000000E-03 0. -1.
         23    2    1    2    0    0 -0.17763568394E-14  0.00000000000E+00  0.00000000000E+00  0.91188000000E+02  0.91188000000E+02 0.  0.
    9900012    2    3    3    0    0 -0.12415065966E+02 -0.12731184876E+02  0.32242220640E+02  0.54367112950E+02  0.40000065593E+02 0.  0.
         12    1    3    3    0    0  0.12415065966E+02  0.12731184876E+02 -0.32242220640E+02  0.36820887050E+02  0.00000000000E+00 0. -1.
         11    1    4    4    0    0 -0.12932608584E+02  0.30313328379E+01  0.10795882065E+02  0.17117021160E+02  0.51100000000E-03 0. -1.
        -11    1    4    4    0    0 -0.60045505588E+01 -0.26532706683E+01  0.21632724782E+02  0.22606840877E+02  0.51100000000E-03 0.  1.
         12    1    4    4    0    0  0.65220931772E+01 -0.13109247046E+02 -0.18638620638E+00  0.14643250914E+02  0.00000000000E+00 0. -1.
</event>
<event>
 8    1  0.1247338E-006  0.9118800E+02  0.7816164E-02  0.1184000E+00
        -11   -1    0    0    0    0  0.00000000000E+00  0.00000000000E+00  0.45593999997E+02  0.45594000000E+02  0.51100000000E-03 0.  1.
         11   -1    0    0    0    0 -0.00000000000E+00 -0.00000000000E+00 -0.45593999997E+02  0.45594000000E+02  0.51100000000E-03 0. -1.
         23    2    1    2    0    0 -0.71054273576E-14  0.88817841970E-15  0.00000000000E+00  0.91188000000E+02  0.91188000000E+02 0.  0.
    9900012    2    3    3    0    0  0.33679143372E+02  0.17281225971E+01  0.14782010076E+02  0.54367096591E+02  0.40000028298E+02 0.  0.
        -12    1    3    3    0    0 -0.33679143372E+02 -0.17281225971E+01 -0.14782010076E+02  0.36820903409E+02  0.00000000000E+00 0.  1.
         11    1    4    4    0    0  0.33269512696E+02  0.38386874629E+01  0.11410545136E+02  0.35380736807E+02  0.51100000000E-03 0. -1.
        -11    1    4    4    0    0 -0.12951778550E+01  0.42629139000E+01  0.91749868548E+01  0.10199524726E+02  0.51100000000E-03 0.  1.
        -12    1    4    4    0    0  0.17048085313E+01 -0.63734787658E+01 -0.58035219148E+01  0.87868350572E+01  0.00000000000E+00 0.  1.
</event>
<event>
 8    1  0.1247338E-006  0.9118800E+02  0.7816164E-02  0.1184000E+00
        -11   -1    0    0    0    0  0.00000000000E+00  0.00000000000E+00  0.45593999997E+02  0.45594000000E+02  0.51100000000E-03 0.  1.
         11   -1    0    0    0    0 -0.00000000000E+00 -0.00000000000E+00 -0.45593999997E+02  0.45594000000E+02  0.51100000000E-03 0. -1.
         23    2    1    2    0    0  0.19984014443E-14  0.00000000000E+00  0.00000000000E+00  0.91188000000E+02  0.91188000000E+02 0.  0.
    9900012    2    3    3    0    0  0.12271521718E+01 -0.76198448791E+01 -0.36002909257E+02  0.54367117156E+02  0.40000075180E+02 0.  0.
        -12    1    3    3    0    0 -0.12271521718E+01  0.76198448791E+01  0.36002909257E+02  0.36820882844E+02  0.00000000000E+00 0.  1.
         11    1    4    4    0    0 -0.12608117632E+02 -0.42029674575E+01 -0.23541609933E+02  0.27033996452E+02  0.51100000000E-03 0. -1.
        -11    1    4    4    0    0 -0.37478937223E+01 -0.48381669774E+01 -0.76574863725E+00  0.61677336430E+01  0.51100000000E-03 0.  1.
         12    1    4    4    0    0  0.17583163526E+02  0.14212895558E+01 -0.11695550687E+02  0.21165387061E+02  0.00000000000E+00 0. -1.
</event>
<event>
 8    1  0.1247338E-006  0.9118800E+02  0.7816164E-02  0.1184000E+00
        -11   -1    0    0    0    0  0.00000000000E+00  0.00000000000E+00  0.45593999997E+02  0.45594000000E+02  0.51100000000E-03 0. -1.
         11   -1    0    0    0    0 -0.00000000000E+00 -0.00000000000E+00 -0.45593999997E+02  0.45594000000E+02  0.51100000000E-03 0.  1.
         23    2    1    2    0    0  0.00000000000E+00  0.00000000000E+00 -0.88817841970E-15  0.91188000000E+02  0.91188000000E+02 0.  0.
    9900012    2    3    3    0    0  0.14103331095E+02  0.33306057165E+02 -0.68979885260E+01  0.54367086954E+02  0.40000006329E+02 0.  0.
         12    1    3    3    0    0 -0.14103331095E+02 -0.33306057165E+02  0.68979885260E+01  0.36820913046E+02  0.00000000000E+00 0. -1.
         11    1    4    4    0    0  0.10562477682E+02  0.15335546693E+02  0.72601903723E+01  0.19986377653E+02  0.51100000000E-03 0. -1.
        -11    1    4    4    0    0 -0.47034745340E+01  0.15769286248E+02  0.15250980070E+01  0.16526311919E+02  0.51100000000E-03 0.  1.
        -12    1    4    4    0    0  0.82443279472E+01  0.22012242233E+01 -0.15683276905E+02  0.17854397382E+02  0.00000000000E+00 0.  1.
</event>
<event>
 8    1  0.1247338E-006  0.9118800E+02  0.7816164E-02  0.1184000E+00
        -11   -1    0    0    0    0  0.00000000000E+00  0.00000000000E+00  0.45593999997E+02  0.45594000000E+02  0.51100000000E-03 0. -1.
         11   -1    0    0    0    0 -0.00000000000E+00 -0.00000000000E+00 -0.45593999997E+02  0.45594000000E+02  0.51100000000E-03 0.  1.
         23    2    1    2    0    0  0.00000000000E+00  0.35527136788E-14  0.00000000000E+00  0.91188000000E+02  0.91188000000E+02 0.  0.
    9900012    2    3    3    0    0 -0.21502501993E+02  0.24100871834E+02  0.17679654964E+02  0.54367084548E+02  0.40000000844E+02 0.  0.
        -12    1    3    3    0    0  0.21502501993E+02 -0.24100871834E+02 -0.17679654964E+02  0.36820915452E+02  0.00000000000E+00 0.  1.
         11    1    4    4    0    0 -0.89712261593E+01  0.76113333871E+01  0.11999566174E+02  0.16804906527E+02  0.51100000000E-03 0. -1.
        -11    1    4    4    0    0  0.10350536049E+02  0.59130300392E+01  0.16496844930E+01  0.12034075782E+02  0.51100000000E-03 0.  1.
        -12    1    4    4    0    0 -0.22881811883E+02  0.10576508407E+02  0.40304042968E+01  0.25528102239E+02  0.00000000000E+00 0.  1.
</event>
<event>
 8    1  0.1247338E-006  0.9118800E+02  0.7816164E-02  0.1184000E+00
        -11   -1    0    0    0    0  0.00000000000E+00  0.00000000000E+00  0.45593999997E+02  0.45594000000E+02  0.51100000000E-03 0. -1.
         11   -1    0    0    0    0 -0.00000000000E+00 -0.00000000000E+00 -0.45593999997E+02  0.45594000000E+02  0.51100000000E-03 0.  1.
         23    2    1    2    0    0  0.00000000000E+00 -0.17763568394E-14  0.00000000000E+00  0.91188000000E+02  0.91188000000E+02 0.  0.
    9900012    2    3    3    0    0 -0.17514188662E+01  0.13037392700E+02  0.34390975540E+02  0.54367078297E+02  0.39999986594E+02 0.  0.
        -12    1    3    3    0    0  0.17514188662E+01 -0.13037392700E+02 -0.34390975540E+02  0.36820921703E+02  0.00000000000E+00 0.  1.
         11    1    4    4    0    0 -0.40959753604E+01  0.66735329386E+00  0.32036459373E+01  0.52426827221E+01  0.51100000000E-03 0. -1.
        -11    1    4    4    0    0 -0.74678106572E+00  0.23024235668E+02  0.30205474574E+02  0.37987416397E+02  0.51100000000E-03 0.  1.
        -12    1    4    4    0    0  0.30913375599E+01 -0.10654196262E+02  0.98185502937E+00  0.11136979178E+02  0.00000000000E+00 0.  1.
</event>
<event>
 8    1  0.1247338E-006  0.9118800E+02  0.7816164E-02  0.1184000E+00
        -11   -1    0    0    0    0  0.00000000000E+00  0.00000000000E+00  0.45593999997E+02  0.45594000000E+02  0.51100000000E-03 0.  1.
         11   -1    0    0    0    0 -0.00000000000E+00 -0.00000000000E+00 -0.45593999997E+02  0.45594000000E+02  0.51100000000E-03 0. -1.
         23    2    1    2    0    0  0.00000000000E+00  0.00000000000E+00  0.88817841970E-15  0.91188000000E+02  0.91188000000E+02 0.  0.
    9900012    2    3    3    0    0  0.11175595335E+02  0.35000830022E+02  0.24140764330E+01  0.54367084770E+02  0.40000001351E+02 0.  0.
         12    1    3    3    0    0 -0.11175595335E+02 -0.35000830022E+02 -0.24140764330E+01  0.36820915230E+02  0.00000000000E+00 0. -1.
         11    1    4    4    0    0  0.10057215265E+02  0.48859103687E+01  0.62446186149E+01  0.12806832588E+02  0.51100000000E-03 0. -1.
        -11    1    4    4    0    0  0.13380471484E+02  0.24438742892E+02 -0.29911940273E+01  0.28022070110E+02  0.51100000000E-03 0.  1.
         12    1    4    4    0    0 -0.12262091415E+02  0.56761767619E+01 -0.83934815465E+00  0.13538182072E+02  0.00000000000E+00 0. -1.
</event>
<event>
 8    1  0.1247338E-006  0.9118800E+02  0.7816164E-02  0.1184000E+00
        -11   -1    0    0    0    0  0.00000000000E+00  0.00000000000E+00  0.45593999997E+02  0.45594000000E+02  0.51100000000E-03 0.  1.
         11   -1    0    0    0    0 -0.00000000000E+00 -0.00000000000E+00 -0.45593999997E+02  0.45594000000E+02  0.51100000000E-03 0. -1.
         23    2    1    2    0    0  0.00000000000E+00  0.00000000000E+00 -0.53290705182E-14  0.91188000000E+02  0.91188000000E+02 0.  0.
    9900012    2    3    3    0    0 -0.13096081889E+02  0.33262494771E+02 -0.88248780947E+01  0.54367090279E+02  0.40000013910E+02 0.  0.
        -12    1    3    3    0    0  0.13096081889E+02 -0.33262494771E+02  0.88248780947E+01  0.36820909721E+02  0.00000000000E+00 0.  1.
         11    1    4    4    0    0  0.97412786588E+01  0.29438456177E+01 -0.79890853311E+01  0.12937705423E+02  0.51100000000E-03 0. -1.
        -11    1    4    4    0    0 -0.10235913391E+02  0.70625185348E+01  0.64284710251E+01  0.13999226085E+02  0.51100000000E-03 0.  1.
        -12    1    4    4    0    0 -0.12601447157E+02  0.23256130619E+02 -0.72642637888E+01  0.27430158771E+02  0.00000000000E+00 0.  1.
</event>
<event>
 8    1  0.1247338E-006  0.9118800E+02  0.7816164E-02  0.1184000E+00
        -11   -1    0    0    0    0  0.00000000000E+00  0.00000000000E+00  0.45593999997E+02  0.45594000000E+02  0.51100000000E-03 0. -1.
         11   -1    0    0    0    0 -0.00000000000E+00 -0.00000000000E+00 -0.45593999997E+02  0.45594000000E+02  0.51100000000E-03 0.  1.
         23    2    1    2    0    0  0.00000000000E+00  0.00000000000E+00 -0.71054273576E-14  0.91188000000E+02  0.91188000000E+02 0.  0.
    9900012    2    3    3    0    0  0.12121106929E+02  0.69191296102E+01  0.34073226783E+02  0.54367076993E+02  0.39999983620E+02 0.  0.
        -12    1    3    3    0    0 -0.12121106929E+02 -0.69191296102E+01 -0.34073226783E+02  0.36820923007E+02  0.00000000000E+00 0.  1.
         11    1    4    4    0    0  0.10880194135E+02  0.98596380150E+01  0.38731485304E+02  0.41421239000E+02  0.51100000000E-03 0. -1.
        -11    1    4    4    0    0  0.13036474698E+00 -0.73388543527E+01 -0.17131441842E+01  0.75372834254E+01  0.51100000000E-03 0.  1.
         12    1    4    4    0    0  0.11105480464E+01  0.43983459479E+01 -0.29451143374E+01  0.54085545667E+01  0.00000000000E+00 0. -1.
</event>
<event>
 8    1  0.1247338E-006  0.9118800E+02  0.7816164E-02  0.1184000E+00
        -11   -1    0    0    0    0  0.00000000000E+00  0.00000000000E+00  0.45593999997E+02  0.45594000000E+02  0.51100000000E-03 0. -1.
         11   -1    0    0    0    0 -0.00000000000E+00 -0.00000000000E+00 -0.45593999997E+02  0.45594000000E+02  0.51100000000E-03 0.  1.
         23    2    1    2    0    0  0.00000000000E+00  0.44408920985E-15  0.00000000000E+00  0.91188000000E+02  0.91188000000E+02 0.  0.
    9900012    2    3    3    0    0 -0.16670749416E+02  0.30778538293E+01  0.32686273611E+02  0.54367088104E+02  0.40000008951E+02 0.  0.
        -12    1    3    3    0    0  0.16670749416E+02 -0.30778538293E+01 -0.32686273611E+02  0.36820911896E+02  0.00000000000E+00 0.  1.
         11    1    4    4    0    0  0.14835725276E+01 -0.11716221060E+02  0.22672484596E+02  0.25563888229E+02  0.51100000000E-03 0. -1.
        -11    1    4    4    0    0 -0.70139223848E+01 -0.13809929077E+01  0.10921557356E+01  0.72315318600E+01  0.51100000000E-03 0.  1.
         12    1    4    4    0    0 -0.11140399559E+02  0.16175067797E+02  0.89216332794E+01  0.21571668015E+02  0.00000000000E+00 0. -1.
</event>
<event>
 8    1  0.1247338E-006  0.9118800E+02  0.7816164E-02  0.1184000E+00
        -11   -1    0    0    0    0  0.00000000000E+00  0.00000000000E+00  0.45593999997E+02  0.45594000000E+02  0.51100000000E-03 0.  1.
         11   -1    0    0    0    0 -0.00000000000E+00 -0.00000000000E+00 -0.45593999997E+02  0.45594000000E+02  0.51100000000E-03 0. -1.
         23    2    1    2    0    0  0.00000000000E+00  0.00000000000E+00 -0.44408920985E-15  0.91188000000E+02  0.91188000000E+02 0.  0.
    9900012    2    3    3    0    0  0.34017838195E+02  0.13940915475E+02  0.20533649409E+01  0.54367099043E+02  0.40000033887E+02 0.  0.
        -12    1    3    3    0    0 -0.34017838195E+02 -0.13940915475E+02 -0.20533649409E+01  0.36820900957E+02  0.00000000000E+00 0.  1.
         11    1    4    4    0    0  0.55443960495E+01  0.60665639659E+01 -0.14016320691E+02  0.16248100562E+02  0.51100000000E-03 0. -1.
        -11    1    4    4    0    0  0.14640635386E+02  0.13058319238E+02  0.72541621440E+01  0.20916280130E+02  0.51100000000E-03 0.  1.
        -12    1    4    4    0    0  0.13832806760E+02 -0.51839677290E+01  0.88155234877E+01  0.17202718350E+02  0.00000000000E+00 0.  1.
</event>
<event>
 8    1  0.1247338E-006  0.9118800E+02  0.7816164E-02  0.1184000E+00
        -11   -1    0    0    0    0  0.00000000000E+00  0.00000000000E+00  0.45593999997E+02  0.45594000000E+02  0.51100000000E-03 0. -1.
         11   -1    0    0    0    0 -0.00000000000E+00 -0.00000000000E+00 -0.45593999997E+02  0.45594000000E+02  0.51100000000E-03 0.  1.
         23    2    1    2    0    0  0.35527136788E-14 -0.80317696938E-15  0.00000000000E+00  0.91188000000E+02  0.91188000000E+02 0.  0.
    9900012    2    3    3    0    0 -0.27368331627E+02  0.63177311281E-02  0.24632387175E+02  0.54367080486E+02  0.39999991583E+02 0.  0.
        -12    1    3    3    0    0  0.27368331627E+02 -0.63177311281E-02 -0.24632387175E+02  0.36820919514E+02  0.00000000000E+00 0.  1.
         11    1    4    4    0    0 -0.15566977001E+01 -0.34010789611E+01  0.12570455147E+02  0.13115143487E+02  0.51100000000E-03 0. -1.
        -11    1    4    4    0    0  0.48982725367E+01  0.68206522143E+01  0.11144881506E+01  0.84709181658E+01  0.51100000000E-03 0.  1.
        -12    1    4    4    0    0 -0.30709906463E+02 -0.34132555221E+01  0.10947443878E+02  0.32781018833E+02  0.00000000000E+00 0.  1.
</event>
<event>
 8    1  0.1247338E-006  0.9118800E+02  0.7816164E-02  0.1184000E+00
        -11   -1    0    0    0    0  0.00000000000E+00  0.00000000000E+00  0.45593999997E+02  0.45594000000E+02  0.51100000000E-03 0. -1.
         11   -1    0    0    0    0 -0.00000000000E+00 -0.00000000000E+00 -0.45593999997E+02  0.45594000000E+02  0.51100000000E-03 0.  1.
         23    2    1    2    0    0  0.22204460493E-15  0.00000000000E+00 -0.71054273576E-14  0.91188000000E+02  0.91188000000E+02 0.  0.
    9900012    2    3    3    0    0 -0.14234446649E+01  0.20029802280E+02  0.30863573171E+02  0.54367091226E+02  0.40000016067E+02 0.  0.
        -12    1    3    3    0    0  0.14234446649E+01 -0.20029802280E+02 -0.30863573171E+02  0.36820908774E+02  0.00000000000E+00 0.  1.
         11    1    4    4    0    0 -0.31308279010E+01  0.31252592824E+01  0.11282992075E+02  0.12119209518E+02  0.51100000000E-03 0. -1.
        -11    1    4    4    0    0  0.21872359106E+01  0.98041895840E+01 -0.85746234486E+01  0.13207206437E+02  0.51100000000E-03 0.  1.
        -12    1    4    4    0    0 -0.47985267460E+00  0.71003534137E+01  0.28155204545E+02  0.29040675270E+02  0.00000000000E+00 0.  1.
</event>
<event>
 8    1  0.1247338E-006  0.9118800E+02  0.7816164E-02  0.1184000E+00
        -11   -1    0    0    0    0  0.00000000000E+00  0.00000000000E+00  0.45593999997E+02  0.45594000000E+02  0.51100000000E-03 0.  1.
         11   -1    0    0    0    0 -0.00000000000E+00 -0.00000000000E+00 -0.45593999997E+02  0.45594000000E+02  0.51100000000E-03 0. -1.
         23    2    1    2    0    0  0.00000000000E+00  0.00000000000E+00  0.13322676296E-14  0.91188000000E+02  0.91188000000E+02 0.  0.
    9900012    2    3    3    0    0  0.33836263737E+02  0.14471602397E+02  0.12101672305E+01  0.54367020595E+02  0.39999855050E+02 0.  0.
         12    1    3    3    0    0 -0.33836263737E+02 -0.14471602397E+02 -0.12101672305E+01  0.36820979405E+02  0.00000000000E+00 0. -1.
         11    1    4    4    0    0  0.45974299701E+01  0.96858748168E+01 -0.85434343803E+00  0.10755576984E+02  0.51100000000E-03 0. -1.
        -11    1    4    4    0    0  0.17831800967E+02  0.12365860352E+02  0.13680938131E+02  0.25652596289E+02  0.51100000000E-03 0.  1.
         12    1    4    4    0    0  0.11407032800E+02 -0.75801327715E+01 -0.11616427462E+02  0.17958847322E+02  0.00000000000E+00 0. -1.
</event>
<event>
 8    1  0.1247338E-006  0.9118800E+02  0.7816164E-02  0.1184000E+00
        -11   -1    0    0    0    0  0.00000000000E+00  0.00000000000E+00  0.45593999997E+02  0.45594000000E+02  0.51100000000E-03 0.  1.
         11   -1    0    0    0    0 -0.00000000000E+00 -0.00000000000E+00 -0.45593999997E+02  0.45594000000E+02  0.51100000000E-03 0. -1.
         23    2    1    2    0    0 -0.17763568394E-14  0.00000000000E+00  0.88817841970E-15  0.91188000000E+02  0.91188000000E+02 0.  0.
    9900012    2    3    3    0    0  0.15451301575E+02  0.32674120446E+02 -0.70313081012E+01  0.54367079848E+02  0.39999990129E+02 0.  0.
        -12    1    3    3    0    0 -0.15451301575E+02 -0.32674120446E+02  0.70313081012E+01  0.36820920152E+02  0.00000000000E+00 0.  1.
         11    1    4    4    0    0  0.61299326838E+01  0.53773475483E+01  0.33711911853E+01  0.88236540975E+01  0.51100000000E-03 0. -1.
        -11    1    4    4    0    0  0.91901173460E+01 -0.25597218646E+01  0.62032818152E+01  0.11379417314E+02  0.51100000000E-03 0.  1.
        -12    1    4    4    0    0  0.13125154481E+00  0.29856494762E+02 -0.16605781102E+02  0.34164008436E+02  0.00000000000E+00 0.  1.
</event>
<event>
 8    1  0.1247338E-006  0.9118800E+02  0.7816164E-02  0.1184000E+00
        -11   -1    0    0    0    0  0.00000000000E+00  0.00000000000E+00  0.45593999997E+02  0.45594000000E+02  0.51100000000E-03 0. -1.
         11   -1    0    0    0    0 -0.00000000000E+00 -0.00000000000E+00 -0.45593999997E+02  0.45594000000E+02  0.51100000000E-03 0.  1.
         23    2    1    2    0    0  0.00000000000E+00  0.00000000000E+00  0.00000000000E+00  0.91188000000E+02  0.91188000000E+02 0.  0.
    9900012    2    3    3    0    0  0.99728891392E+01 -0.81398805514E+01  0.34497315121E+02  0.54367069488E+02  0.39999966513E+02 0.  0.
        -12    1    3    3    0    0 -0.99728891392E+01  0.81398805514E+01 -0.34497315121E+02  0.36820930512E+02  0.00000000000E+00 0.  1.
         11    1    4    4    0    0  0.10500323923E+02 -0.82389312758E+00  0.23496394201E+02  0.25749099850E+02  0.51100000000E-03 0. -1.
        -11    1    4    4    0    0 -0.34968921319E+01 -0.15868008435E+02  0.10897122431E+02  0.19564488847E+02  0.51100000000E-03 0.  1.
        -12    1    4    4    0    0  0.29694573481E+01  0.85520210115E+01  0.10379848897E+00  0.90534807919E+01  0.00000000000E+00 0.  1.
</event>
<event>
 8    1  0.1247338E-006  0.9118800E+02  0.7816164E-02  0.1184000E+00
        -11   -1    0    0    0    0  0.00000000000E+00  0.00000000000E+00  0.45593999997E+02  0.45594000000E+02  0.51100000000E-03 0. -1.
         11   -1    0    0    0    0 -0.00000000000E+00 -0.00000000000E+00 -0.45593999997E+02  0.45594000000E+02  0.51100000000E-03 0.  1.
         23    2    1    2    0    0  0.00000000000E+00  0.00000000000E+00 -0.35527136788E-14  0.91188000000E+02  0.91188000000E+02 0.  0.
    9900012    2    3    3    0    0 -0.41803348593E+01 -0.22110627764E+02  0.29144877646E+02  0.54367096254E+02  0.40000027531E+02 0.  0.
         12    1    3    3    0    0  0.41803348593E+01  0.22110627764E+02 -0.29144877646E+02  0.36820903746E+02  0.00000000000E+00 0. -1.
         11    1    4    4    0    0 -0.19533874749E+02 -0.21625157249E+02  0.20416837726E+02  0.35581834575E+02  0.51100000000E-03 0. -1.
        -11    1    4    4    0    0  0.10399297372E+01  0.16504795974E+01  0.21041139053E+01  0.28692912622E+01  0.51100000000E-03 0.  1.
         12    1    4    4    0    0  0.14313610152E+02 -0.21359501123E+01  0.66239260146E+01  0.15915970417E+02  0.00000000000E+00 0. -1.
</event>
<event>
 8    1  0.1247338E-006  0.9118800E+02  0.7816164E-02  0.1184000E+00
        -11   -1    0    0    0    0  0.00000000000E+00  0.00000000000E+00  0.45593999997E+02  0.45594000000E+02  0.51100000000E-03 0.  1.
         11   -1    0    0    0    0 -0.00000000000E+00 -0.00000000000E+00 -0.45593999997E+02  0.45594000000E+02  0.51100000000E-03 0. -1.
         23    2    1    2    0    0  0.00000000000E+00  0.00000000000E+00  0.00000000000E+00  0.91188000000E+02  0.91188000000E+02 0.  0.
    9900012    2    3    3    0    0  0.10890171975E+02  0.32729636241E+02  0.12882364448E+02  0.54367078666E+02  0.39999987435E+02 0.  0.
         12    1    3    3    0    0 -0.10890171975E+02 -0.32729636241E+02 -0.12882364448E+02  0.36820921334E+02  0.00000000000E+00 0. -1.
         11    1    4    4    0    0  0.98353189018E+01  0.44189923775E+01  0.29434846013E+01  0.11176989460E+02  0.51100000000E-03 0. -1.
        -11    1    4    4    0    0  0.15462863723E+01  0.29282980160E+02 -0.36567290506E+01  0.29550898399E+02  0.51100000000E-03 0.  1.
        -12    1    4    4    0    0 -0.49143329959E+00 -0.97233629656E+00  0.13595608898E+02  0.13639190807E+02  0.00000000000E+00 0.  1.
</event>
<event>
 8    1  0.1247338E-006  0.9118800E+02  0.7816164E-02  0.1184000E+00
        -11   -1    0    0    0    0  0.00000000000E+00  0.00000000000E+00  0.45593999997E+02  0.45594000000E+02  0.51100000000E-03 0.  1.
         11   -1    0    0    0    0 -0.00000000000E+00 -0.00000000000E+00 -0.45593999997E+02  0.45594000000E+02  0.51100000000E-03 0. -1.
         23    2    1    2    0    0 -0.35527136788E-14 -0.71054273576E-14 -0.11102230246E-15  0.91188000000E+02  0.91188000000E+02 0.  0.
    9900012    2    3    3    0    0  0.17939910840E+02  0.32154527889E+02  0.15603077746E+00  0.54367103619E+02  0.40000044319E+02 0.  0.
         12    1    3    3    0    0 -0.17939910840E+02 -0.32154527889E+02 -0.15603077746E+00  0.36820896381E+02  0.00000000000E+00 0. -1.
         11    1    4    4    0    0 -0.93092880834E+01  0.83345232872E+00 -0.55431339187E+01  0.10866637995E+02  0.51100000000E-03 0. -1.
        -11    1    4    4    0    0  0.11829369906E+02  0.22345897806E+02  0.33386313323E+01  0.25503325285E+02  0.51100000000E-03 0.  1.
         12    1    4    4    0    0  0.15419829017E+02  0.89751777541E+01  0.23605333638E+01  0.17997140339E+02  0.00000000000E+00 0. -1.
</event>
<event>
 8    1  0.1247338E-006  0.9118800E+02  0.7816164E-02  0.1184000E+00
        -11   -1    0    0    0    0  0.00000000000E+00  0.00000000000E+00  0.45593999997E+02  0.45594000000E+02  0.51100000000E-03 0. -1.
         11   -1    0    0    0    0 -0.00000000000E+00 -0.00000000000E+00 -0.45593999997E+02  0.45594000000E+02  0.51100000000E-03 0.  1.
         23    2    1    2    0    0  0.00000000000E+00  0.00000000000E+00  0.00000000000E+00  0.91188000000E+02  0.91188000000E+02 0.  0.
    9900012    2    3    3    0    0 -0.15497818074E+02 -0.16526564228E+02  0.29025326044E+02  0.54367092323E+02  0.40000018568E+02 0.  0.
        -12    1    3    3    0    0  0.15497818074E+02  0.16526564228E+02 -0.29025326044E+02  0.36820907677E+02  0.00000000000E+00 0.  1.
         11    1    4    4    0    0 -0.49991119304E+01  0.67087071792E+01  0.17864478438E+02  0.19726567421E+02  0.51100000000E-03 0.  1.
        -11    1    4    4    0    0 -0.12957218342E+02 -0.54189866575E+01  0.12368514197E+01  0.14099103704E+02  0.51100000000E-03 0. -1.
         12    1    4    4    0    0  0.24585121992E+01 -0.17816284749E+02  0.99239961865E+01  0.20541421198E+02  0.00000000000E+00 0. -1.
</event>
<event>
 8    1  0.1247338E-006  0.9118800E+02  0.7816164E-02  0.1184000E+00
        -11   -1    0    0    0    0  0.00000000000E+00  0.00000000000E+00  0.45593999997E+02  0.45594000000E+02  0.51100000000E-03 0.  1.
         11   -1    0    0    0    0 -0.00000000000E+00 -0.00000000000E+00 -0.45593999997E+02  0.45594000000E+02  0.51100000000E-03 0. -1.
         23    2    1    2    0    0 -0.17763568394E-14 -0.35527136788E-14  0.00000000000E+00  0.91188000000E+02  0.91188000000E+02 0.  0.
    9900012    2    3    3    0    0 -0.91229345282E+01 -0.28164813191E+02  0.21892823478E+02  0.54367077194E+02  0.39999984079E+02 0.  0.
         12    1    3    3    0    0  0.91229345282E+01  0.28164813191E+02 -0.21892823478E+02  0.36820922806E+02  0.00000000000E+00 0. -1.
         11    1    4    4    0    0  0.22889969232E-01  0.46273441513E+01  0.88758068472E+01  0.10009634623E+02  0.51100000000E-03 0. -1.
        -11    1    4    4    0    0 -0.90519621786E+01 -0.14217972467E+02  0.18464647371E+02  0.25000639255E+02  0.51100000000E-03 0.  1.
         12    1    4    4    0    0 -0.93862318838E-01 -0.18574184875E+02 -0.54476307403E+01  0.19356803315E+02  0.00000000000E+00 0. -1.
</event>
<event>
 8    1  0.1247338E-006  0.9118800E+02  0.7816164E-02  0.1184000E+00
        -11   -1    0    0    0    0  0.00000000000E+00  0.00000000000E+00  0.45593999997E+02  0.45594000000E+02  0.51100000000E-03 0.  1.
         11   -1    0    0    0    0 -0.00000000000E+00 -0.00000000000E+00 -0.45593999997E+02  0.45594000000E+02  0.51100000000E-03 0. -1.
         23    2    1    2    0    0  0.00000000000E+00  0.00000000000E+00  0.00000000000E+00  0.91188000000E+02  0.91188000000E+02 0.  0.
    9900012    2    3    3    0    0  0.26598159735E+02 -0.22132841455E+02  0.12587786870E+02  0.54367120727E+02  0.40000083321E+02 0.  0.
        -12    1    3    3    0    0 -0.26598159735E+02  0.22132841455E+02 -0.12587786870E+02  0.36820879273E+02  0.00000000000E+00 0.  1.
         11    1    4    4    0    0  0.82497704039E+01  0.51374281239E+01 -0.57517118800E+00  0.97356407905E+01  0.51100000000E-03 0. -1.
        -11    1    4    4    0    0  0.31988901187E+01 -0.24699169692E+02  0.81499204999E+00  0.24918789974E+02  0.51100000000E-03 0.  1.
        -12    1    4    4    0    0  0.15149499213E+02 -0.25710998872E+01  0.12347966008E+02  0.19712689962E+02  0.00000000000E+00 0.  1.
</event>
<event>
 8    1  0.1247338E-006  0.9118800E+02  0.7816164E-02  0.1184000E+00
        -11   -1    0    0    0    0  0.00000000000E+00  0.00000000000E+00  0.45593999997E+02  0.45594000000E+02  0.51100000000E-03 0. -1.
         11   -1    0    0    0    0 -0.00000000000E+00 -0.00000000000E+00 -0.45593999997E+02  0.45594000000E+02  0.51100000000E-03 0.  1.
         23    2    1    2    0    0 -0.71054273576E-14 -0.17763568394E-14  0.00000000000E+00  0.91188000000E+02  0.91188000000E+02 0.  0.
    9900012    2    3    3    0    0  0.34983453411E+02  0.82994418197E+01 -0.79407623686E+01  0.54367103025E+02  0.40000042965E+02 0.  0.
        -12    1    3    3    0    0 -0.34983453411E+02 -0.82994418197E+01  0.79407623686E+01  0.36820896975E+02  0.00000000000E+00 0.  1.
         11    1    4    4    0    0  0.25238726195E+02  0.14870518936E+02 -0.75114036734E+01  0.30241475142E+02  0.51100000000E-03 0. -1.
        -11    1    4    4    0    0 -0.10366185954E+01 -0.88874800357E+01  0.65377614121E+01  0.11081705827E+02  0.51100000000E-03 0.  1.
         12    1    4    4    0    0  0.10781345812E+02  0.23164029194E+01 -0.69671201072E+01  0.13043922056E+02  0.00000000000E+00 0. -1.
</event>
<event>
 8    1  0.1247338E-006  0.9118800E+02  0.7816164E-02  0.1184000E+00
        -11   -1    0    0    0    0  0.00000000000E+00  0.00000000000E+00  0.45593999997E+02  0.45594000000E+02  0.51100000000E-03 0.  1.
         11   -1    0    0    0    0 -0.00000000000E+00 -0.00000000000E+00 -0.45593999997E+02  0.45594000000E+02  0.51100000000E-03 0. -1.
         23    2    1    2    0    0  0.00000000000E+00  0.35527136788E-14  0.35527136788E-14  0.91188000000E+02  0.91188000000E+02 0.  0.
    9900012    2    3    3    0    0 -0.48346040720E+01  0.27777179444E+02  0.23681918781E+02  0.54367104146E+02  0.40000045521E+02 0.  0.
         12    1    3    3    0    0  0.48346040720E+01 -0.27777179444E+02 -0.23681918781E+02  0.36820895854E+02  0.00000000000E+00 0. -1.
         11    1    4    4    0    0 -0.60041580977E+01  0.26923955386E+02  0.18269813330E+02  0.33086785391E+02  0.51100000000E-03 0.  1.
        -11    1    4    4    0    0  0.10837618815E+02  0.86906173995E+00  0.22012295088E+01  0.11093000564E+02  0.51100000000E-03 0. -1.
        -12    1    4    4    0    0 -0.96680647898E+01 -0.15837682357E-01  0.32108759413E+01  0.10187318191E+02  0.00000000000E+00 0.  1.
</event>
<event>
 8    1  0.1247338E-006  0.9118800E+02  0.7816164E-02  0.1184000E+00
        -11   -1    0    0    0    0  0.00000000000E+00  0.00000000000E+00  0.45593999997E+02  0.45594000000E+02  0.51100000000E-03 0.  1.
         11   -1    0    0    0    0 -0.00000000000E+00 -0.00000000000E+00 -0.45593999997E+02  0.45594000000E+02  0.51100000000E-03 0. -1.
         23    2    1    2    0    0  0.35527136788E-14 -0.44408920985E-15  0.00000000000E+00  0.91188000000E+02  0.91188000000E+02 0.  0.
    9900012    2    3    3    0    0  0.18107050025E+02  0.32144462207E+01 -0.31899556647E+02  0.54367086929E+02  0.40000006271E+02 0.  0.
        -12    1    3    3    0    0 -0.18107050025E+02 -0.32144462207E+01  0.31899556647E+02  0.36820913071E+02  0.00000000000E+00 0.  1.
         11    1    4    4    0    0  0.12087510545E+02  0.81612343763E+00 -0.28860180778E+02  0.31299904208E+02  0.51100000000E-03 0. -1.
        -11    1    4    4    0    0 -0.37437857926E+01 -0.25218738476E+01 -0.93935087565E+01  0.10421793837E+02  0.51100000000E-03 0.  1.
        -12    1    4    4    0    0  0.97633252732E+01  0.49201966307E+01  0.63541328870E+01  0.12645388884E+02  0.00000000000E+00 0.  1.
</event>
<event>
 8    1  0.1247338E-006  0.9118800E+02  0.7816164E-02  0.1184000E+00
        -11   -1    0    0    0    0  0.00000000000E+00  0.00000000000E+00  0.45593999997E+02  0.45594000000E+02  0.51100000000E-03 0.  1.
         11   -1    0    0    0    0 -0.00000000000E+00 -0.00000000000E+00 -0.45593999997E+02  0.45594000000E+02  0.51100000000E-03 0. -1.
         23    2    1    2    0    0  0.00000000000E+00 -0.35527136788E-14  0.00000000000E+00  0.91188000000E+02  0.91188000000E+02 0.  0.
    9900012    2    3    3    0    0 -0.10820458870E+02 -0.27701956922E+02  0.21709348683E+02  0.54367128640E+02  0.40000101361E+02 0.  0.
         12    1    3    3    0    0  0.10820458870E+02  0.27701956922E+02 -0.21709348683E+02  0.36820871360E+02  0.00000000000E+00 0. -1.
         11    1    4    4    0    0 -0.10490527724E+02 -0.19057765724E+01  0.43744509871E+01  0.11524711622E+02  0.51100000000E-03 0. -1.
        -11    1    4    4    0    0 -0.14204813611E+02 -0.18794334375E+02  0.91088873526E+01  0.25258178148E+02  0.51100000000E-03 0.  1.
         12    1    4    4    0    0  0.13874882465E+02 -0.70018459747E+01  0.82260103433E+01  0.17584238870E+02  0.00000000000E+00 0. -1.
</event>
<event>
 8    1  0.1247338E-006  0.9118800E+02  0.7816164E-02  0.1184000E+00
        -11   -1    0    0    0    0  0.00000000000E+00  0.00000000000E+00  0.45593999997E+02  0.45594000000E+02  0.51100000000E-03 0.  1.
         11   -1    0    0    0    0 -0.00000000000E+00 -0.00000000000E+00 -0.45593999997E+02  0.45594000000E+02  0.51100000000E-03 0. -1.
         23    2    1    2    0    0 -0.35527136788E-14  0.00000000000E+00  0.00000000000E+00  0.91188000000E+02  0.91188000000E+02 0.  0.
    9900012    2    3    3    0    0  0.22721954103E+02 -0.28446424771E+02 -0.55039728212E+01  0.54367082068E+02  0.39999995191E+02 0.  0.
        -12    1    3    3    0    0 -0.22721954103E+02  0.28446424771E+02  0.55039728212E+01  0.36820917932E+02  0.00000000000E+00 0.  1.
         11    1    4    4    0    0  0.25057768845E+02 -0.25705817919E+02 -0.16952773817E+02  0.39699841243E+02  0.51100000000E-03 0. -1.
        -11    1    4    4    0    0 -0.32339525986E+01 -0.53355847574E+01  0.65144008319E+01  0.90202179892E+01  0.51100000000E-03 0.  1.
         12    1    4    4    0    0  0.89813785649E+00  0.25949779052E+01  0.49344001635E+01  0.56470228361E+01  0.00000000000E+00 0. -1.
</event>
<event>
 8    1  0.1247338E-006  0.9118800E+02  0.7816164E-02  0.1184000E+00
        -11   -1    0    0    0    0  0.00000000000E+00  0.00000000000E+00  0.45593999997E+02  0.45594000000E+02  0.51100000000E-03 0. -1.
         11   -1    0    0    0    0 -0.00000000000E+00 -0.00000000000E+00 -0.45593999997E+02  0.45594000000E+02  0.51100000000E-03 0.  1.
         23    2    1    2    0    0  0.71054273576E-14  0.00000000000E+00 -0.11102230246E-15  0.91188000000E+02  0.91188000000E+02 0.  0.
    9900012    2    3    3    0    0  0.36213000810E+02  0.66055241615E+01 -0.87469421582E+00  0.54367089269E+02  0.40000011606E+02 0.  0.
        -12    1    3    3    0    0 -0.36213000810E+02 -0.66055241615E+01  0.87469421582E+00  0.36820910731E+02  0.00000000000E+00 0.  1.
         11    1    4    4    0    0  0.35916011312E+01  0.11637882068E+01  0.75309409844E+01  0.84243144556E+01  0.51100000000E-03 0. -1.
        -11    1    4    4    0    0  0.33790080321E+02  0.23217437236E+01  0.30554160677E+01  0.34007287302E+02  0.51100000000E-03 0.  1.
        -12    1    4    4    0    0 -0.11686806426E+01  0.31199922311E+01 -0.11461051268E+02  0.11935487511E+02  0.00000000000E+00 0.  1.
</event>
<event>
 8    1  0.1247338E-006  0.9118800E+02  0.7816164E-02  0.1184000E+00
        -11   -1    0    0    0    0  0.00000000000E+00  0.00000000000E+00  0.45593999997E+02  0.45594000000E+02  0.51100000000E-03 0.  1.
         11   -1    0    0    0    0 -0.00000000000E+00 -0.00000000000E+00 -0.45593999997E+02  0.45594000000E+02  0.51100000000E-03 0. -1.
         23    2    1    2    0    0 -0.24424906542E-14 -0.35527136788E-14  0.35527136788E-14  0.91188000000E+02  0.91188000000E+02 0.  0.
    9900012    2    3    3    0    0 -0.11091106803E+01 -0.30604131642E+02 -0.20443503222E+02  0.54367084421E+02  0.40000000555E+02 0.  0.
         12    1    3    3    0    0  0.11091106803E+01  0.30604131642E+02  0.20443503222E+02  0.36820915579E+02  0.00000000000E+00 0. -1.
         11    1    4    4    0    0 -0.92879050422E+01  0.36790317025E+01  0.31247065204E+00  0.99949033267E+01  0.51100000000E-03 0. -1.
        -11    1    4    4    0    0 -0.38161553607E+01 -0.80559642513E+01 -0.12922870523E+00  0.89150604078E+01  0.51100000000E-03 0.  1.
         12    1    4    4    0    0  0.11994949722E+02 -0.26227199093E+02 -0.20626745169E+02  0.35457120687E+02  0.00000000000E+00 0. -1.
</event>
<event>
 8    1  0.1247338E-006  0.9118800E+02  0.7816164E-02  0.1184000E+00
        -11   -1    0    0    0    0  0.00000000000E+00  0.00000000000E+00  0.45593999997E+02  0.45594000000E+02  0.51100000000E-03 0.  1.
         11   -1    0    0    0    0 -0.00000000000E+00 -0.00000000000E+00 -0.45593999997E+02  0.45594000000E+02  0.51100000000E-03 0. -1.
         23    2    1    2    0    0  0.35527136788E-14  0.35527136788E-14  0.88817841970E-15  0.91188000000E+02  0.91188000000E+02 0.  0.
    9900012    2    3    3    0    0  0.24631473588E+02 -0.27187491027E+02  0.31481871643E+01  0.54367078748E+02  0.39999987621E+02 0.  0.
         12    1    3    3    0    0 -0.24631473588E+02  0.27187491027E+02 -0.31481871643E+01  0.36820921252E+02  0.00000000000E+00 0. -1.
         11    1    4    4    0    0 -0.27116124003E+01  0.28055080396E+01  0.44635665897E+01  0.59285026888E+01  0.51100000000E-03 0. -1.
        -11    1    4    4    0    0  0.43076954559E+01 -0.12618187655E+02  0.10786569624E+02  0.17150072430E+02  0.51100000000E-03 0.  1.
         12    1    4    4    0    0  0.23035390532E+02 -0.17374811412E+02 -0.12101949049E+02  0.31288503629E+02  0.00000000000E+00 0. -1.
</event>
<event>
 8    1  0.1247338E-006  0.9118800E+02  0.7816164E-02  0.1184000E+00
        -11   -1    0    0    0    0  0.00000000000E+00  0.00000000000E+00  0.45593999997E+02  0.45594000000E+02  0.51100000000E-03 0. -1.
         11   -1    0    0    0    0 -0.00000000000E+00 -0.00000000000E+00 -0.45593999997E+02  0.45594000000E+02  0.51100000000E-03 0.  1.
         23    2    1    2    0    0  0.17763568394E-14  0.00000000000E+00  0.00000000000E+00  0.91188000000E+02  0.91188000000E+02 0.  0.
    9900012    2    3    3    0    0  0.12120093829E+02 -0.31223947840E+02  0.15295482206E+02  0.54367036283E+02  0.39999890814E+02 0.  0.
        -12    1    3    3    0    0 -0.12120093829E+02  0.31223947840E+02 -0.15295482206E+02  0.36820963717E+02  0.00000000000E+00 0.  1.
         11    1    4    4    0    0  0.14125541835E+02 -0.11058364158E+02  0.15546313559E+01  0.18006532950E+02  0.51100000000E-03 0. -1.
        -11    1    4    4    0    0  0.33446202398E+01  0.60069476054E+01  0.38111640781E+01  0.78609716940E+01  0.51100000000E-03 0.  1.
        -12    1    4    4    0    0 -0.53500682454E+01 -0.26172531287E+02  0.99296867718E+01  0.28499531638E+02  0.00000000000E+00 0.  1.
</event>
<event>
 8    1  0.1247338E-006  0.9118800E+02  0.7816164E-02  0.1184000E+00
        -11   -1    0    0    0    0  0.00000000000E+00  0.00000000000E+00  0.45593999997E+02  0.45594000000E+02  0.51100000000E-03 0. -1.
         11   -1    0    0    0    0 -0.00000000000E+00 -0.00000000000E+00 -0.45593999997E+02  0.45594000000E+02  0.51100000000E-03 0.  1.
         23    2    1    2    0    0  0.00000000000E+00 -0.44408920985E-15  0.00000000000E+00  0.91188000000E+02  0.91188000000E+02 0.  0.
    9900012    2    3    3    0    0 -0.16808226647E+02  0.29535810260E+01  0.32627264200E+02  0.54367102495E+02  0.40000041758E+02 0.  0.
        -12    1    3    3    0    0  0.16808226647E+02 -0.29535810260E+01 -0.32627264200E+02  0.36820897505E+02  0.00000000000E+00 0.  1.
         11    1    4    4    0    0 -0.19339721290E+02  0.31262465095E+01  0.23099825636E+02  0.30288614717E+02  0.51100000000E-03 0. -1.
        -11    1    4    4    0    0  0.69858400274E+01 -0.86079097378E+01  0.74301624803E+00  0.11110812047E+02  0.51100000000E-03 0.  1.
        -12    1    4    4    0    0 -0.44543453847E+01  0.84352442543E+01  0.87844223159E+01  0.12967675731E+02  0.00000000000E+00 0.  1.
</event>
<event>
 8    1  0.1247338E-006  0.9118800E+02  0.7816164E-02  0.1184000E+00
        -11   -1    0    0    0    0  0.00000000000E+00  0.00000000000E+00  0.45593999997E+02  0.45594000000E+02  0.51100000000E-03 0. -1.
         11   -1    0    0    0    0 -0.00000000000E+00 -0.00000000000E+00 -0.45593999997E+02  0.45594000000E+02  0.51100000000E-03 0.  1.
         23    2    1    2    0    0  0.00000000000E+00  0.35527136788E-14  0.00000000000E+00  0.91188000000E+02  0.91188000000E+02 0.  0.
    9900012    2    3    3    0    0 -0.22326529600E+02 -0.19729494135E+02 -0.21634521686E+02  0.54367090297E+02  0.40000013949E+02 0.  0.
         12    1    3    3    0    0  0.22326529600E+02  0.19729494135E+02  0.21634521686E+02  0.36820909703E+02  0.00000000000E+00 0. -1.
         11    1    4    4    0    0  0.75151410058E+01 -0.39005236668E+01  0.49314149992E+00  0.84814278287E+01  0.51100000000E-03 0. -1.
        -11    1    4    4    0    0 -0.13152437583E+02 -0.39895902806E+01 -0.21371457501E+02  0.25409499030E+02  0.51100000000E-03 0.  1.
        -12    1    4    4    0    0 -0.16689233023E+02 -0.11839380187E+02 -0.75620568574E+00  0.20476163438E+02  0.00000000000E+00 0.  1.
</event>
<event>
 8    1  0.1247338E-006  0.9118800E+02  0.7816164E-02  0.1184000E+00
        -11   -1    0    0    0    0  0.00000000000E+00  0.00000000000E+00  0.45593999997E+02  0.45594000000E+02  0.51100000000E-03 0.  1.
         11   -1    0    0    0    0 -0.00000000000E+00 -0.00000000000E+00 -0.45593999997E+02  0.45594000000E+02  0.51100000000E-03 0. -1.
         23    2    1    2    0    0  0.15543122345E-14  0.00000000000E+00  0.35527136788E-14  0.91188000000E+02  0.91188000000E+02 0.  0.
    9900012    2    3    3    0    0  0.13021068010E+01 -0.18590888891E+02 -0.31756306659E+02  0.54367086859E+02  0.40000006113E+02 0.  0.
        -12    1    3    3    0    0 -0.13021068010E+01  0.18590888891E+02  0.31756306659E+02  0.36820913141E+02  0.00000000000E+00 0.  1.
         11    1    4    4    0    0  0.37311871395E+01 -0.79892029517E+01 -0.30174403859E+02  0.31436344727E+02  0.51100000000E-03 0. -1.
        -11    1    4    4    0    0  0.70537856392E+01 -0.41932498379E+01 -0.65050279972E+01  0.10471610456E+02  0.51100000000E-03 0.  1.
        -12    1    4    4    0    0 -0.94828659777E+01 -0.64084361014E+01  0.49231251966E+01  0.12459131676E+02  0.00000000000E+00 0.  1.
</event>
<event>
 8    1  0.1247338E-006  0.9118800E+02  0.7816164E-02  0.1184000E+00
        -11   -1    0    0    0    0  0.00000000000E+00  0.00000000000E+00  0.45593999997E+02  0.45594000000E+02  0.51100000000E-03 0.  1.
         11   -1    0    0    0    0 -0.00000000000E+00 -0.00000000000E+00 -0.45593999997E+02  0.45594000000E+02  0.51100000000E-03 0. -1.
         23    2    1    2    0    0  0.00000000000E+00 -0.17763568394E-14  0.00000000000E+00  0.91188000000E+02  0.91188000000E+02 0.  0.
    9900012    2    3    3    0    0 -0.16512222210E+02 -0.11818586174E+02 -0.30715580506E+02  0.54367090895E+02  0.40000015314E+02 0.  0.
        -12    1    3    3    0    0  0.16512222210E+02  0.11818586174E+02  0.30715580506E+02  0.36820909105E+02  0.00000000000E+00 0.  1.
         11    1    4    4    0    0 -0.77041319350E+01  0.78985245468E-01 -0.13021177355E+02  0.15129803288E+02  0.51100000000E-03 0. -1.
        -11    1    4    4    0    0  0.51932785334E+01 -0.40519147100E+01  0.71106079457E+01  0.96927240940E+01  0.51100000000E-03 0.  1.
        -12    1    4    4    0    0 -0.14001368808E+02 -0.78456567095E+01 -0.24805011097E+02  0.29544563514E+02  0.00000000000E+00 0.  1.
</event>
<event>
 8    1  0.1247338E-006  0.9118800E+02  0.7816164E-02  0.1184000E+00
        -11   -1    0    0    0    0  0.00000000000E+00  0.00000000000E+00  0.45593999997E+02  0.45594000000E+02  0.51100000000E-03 0. -1.
         11   -1    0    0    0    0 -0.00000000000E+00 -0.00000000000E+00 -0.45593999997E+02  0.45594000000E+02  0.51100000000E-03 0.  1.
         23    2    1    2    0    0  0.00000000000E+00  0.35527136788E-14  0.00000000000E+00  0.91188000000E+02  0.91188000000E+02 0.  0.
    9900012    2    3    3    0    0  0.22870931016E+02 -0.22182025277E+02  0.18456944168E+02  0.54367074985E+02  0.39999979044E+02 0.  0.
        -12    1    3    3    0    0 -0.22870931016E+02  0.22182025277E+02 -0.18456944168E+02  0.36820925015E+02  0.00000000000E+00 0.  1.
         11    1    4    4    0    0  0.22470565411E+02 -0.24405790969E+01  0.10284666004E+02  0.24832581245E+02  0.51100000000E-03 0. -1.
        -11    1    4    4    0    0 -0.38638506202E+01 -0.68515622383E+01 -0.60114693174E+01  0.99000510269E+01  0.51100000000E-03 0.  1.
         12    1    4    4    0    0  0.42642162250E+01 -0.12889883942E+02  0.14183747481E+02  0.19634442713E+02  0.00000000000E+00 0. -1.
</event>
<event>
 8    1  0.1247338E-006  0.9118800E+02  0.7816164E-02  0.1184000E+00
        -11   -1    0    0    0    0  0.00000000000E+00  0.00000000000E+00  0.45593999997E+02  0.45594000000E+02  0.51100000000E-03 0. -1.
         11   -1    0    0    0    0 -0.00000000000E+00 -0.00000000000E+00 -0.45593999997E+02  0.45594000000E+02  0.51100000000E-03 0.  1.
         23    2    1    2    0    0  0.00000000000E+00  0.35527136788E-14  0.00000000000E+00  0.91188000000E+02  0.91188000000E+02 0.  0.
    9900012    2    3    3    0    0 -0.10548585067E+01  0.27396296109E+02 -0.24578644384E+02  0.54367088459E+02  0.40000009761E+02 0.  0.
         12    1    3    3    0    0  0.10548585067E+01 -0.27396296109E+02  0.24578644384E+02  0.36820911541E+02  0.00000000000E+00 0. -1.
         11    1    4    4    0    0  0.77687930086E+01 -0.60988686056E+01  0.18145433077E+01  0.10042057098E+02  0.51100000000E-03 0. -1.
        -11    1    4    4    0    0 -0.67711196648E+01  0.21359516701E+02 -0.21580960742E+02  0.31109723271E+02  0.51100000000E-03 0.  1.
        -12    1    4    4    0    0 -0.20525318506E+01  0.12135648014E+02 -0.48122269498E+01  0.13215308091E+02  0.00000000000E+00 0.  1.
</event>
<event>
 8    1  0.1247338E-006  0.9118800E+02  0.7816164E-02  0.1184000E+00
        -11   -1    0    0    0    0  0.00000000000E+00  0.00000000000E+00  0.45593999997E+02  0.45594000000E+02  0.51100000000E-03 0.  1.
         11   -1    0    0    0    0 -0.00000000000E+00 -0.00000000000E+00 -0.45593999997E+02  0.45594000000E+02  0.51100000000E-03 0. -1.
         23    2    1    2    0    0  0.00000000000E+00  0.00000000000E+00 -0.88817841970E-15  0.91188000000E+02  0.91188000000E+02 0.  0.
    9900012    2    3    3    0    0 -0.35869658692E+02  0.58251452554E+01 -0.59341240976E+01  0.54367101576E+02  0.40000039664E+02 0.  0.
        -12    1    3    3    0    0  0.35869658692E+02 -0.58251452554E+01  0.59341240976E+01  0.36820898424E+02  0.00000000000E+00 0.  1.
         11    1    4    4    0    0 -0.93331820957E+01 -0.11117838018E+02  0.39553855851E+01  0.15045254588E+02  0.51100000000E-03 0. -1.
        -11    1    4    4    0    0 -0.74918390414E+00  0.33312748491E+01 -0.95699371970E+01  0.10160825107E+02  0.51100000000E-03 0.  1.
        -12    1    4    4    0    0 -0.25787292692E+02  0.13611708424E+02 -0.31957248574E+00  0.29161021882E+02  0.00000000000E+00 0.  1.
</event>
<event>
 8    1  0.1247338E-006  0.9118800E+02  0.7816164E-02  0.1184000E+00
        -11   -1    0    0    0    0  0.00000000000E+00  0.00000000000E+00  0.45593999997E+02  0.45594000000E+02  0.51100000000E-03 0.  1.
         11   -1    0    0    0    0 -0.00000000000E+00 -0.00000000000E+00 -0.45593999997E+02  0.45594000000E+02  0.51100000000E-03 0. -1.
         23    2    1    2    0    0  0.17763568394E-14  0.35527136788E-14  0.00000000000E+00  0.91188000000E+02  0.91188000000E+02 0.  0.
    9900012    2    3    3    0    0 -0.90135260814E+01 -0.30666002200E+02  0.18279326091E+02  0.54367067018E+02  0.39999960880E+02 0.  0.
         12    1    3    3    0    0  0.90135260814E+01  0.30666002200E+02 -0.18279326091E+02  0.36820932982E+02  0.00000000000E+00 0. -1.
         11    1    4    4    0    0 -0.12036340354E+02  0.26815060172E+01 -0.31720066118E+01  0.12732854741E+02  0.51100000000E-03 0.  1.
        -11    1    4    4    0    0  0.76987221666E+00 -0.29163668870E+02  0.13001327212E+02  0.31939736923E+02  0.51100000000E-03 0. -1.
        -12    1    4    4    0    0  0.22529420560E+01 -0.41838393469E+01  0.84500054907E+01  0.96944753536E+01  0.00000000000E+00 0.  1.
</event>
<event>
 8    1  0.1247338E-006  0.9118800E+02  0.7816164E-02  0.1184000E+00
        -11   -1    0    0    0    0  0.00000000000E+00  0.00000000000E+00  0.45593999997E+02  0.45594000000E+02  0.51100000000E-03 0. -1.
         11   -1    0    0    0    0 -0.00000000000E+00 -0.00000000000E+00 -0.45593999997E+02  0.45594000000E+02  0.51100000000E-03 0.  1.
         23    2    1    2    0    0  0.35527136788E-14 -0.35527136788E-14  0.17763568394E-14  0.91188000000E+02  0.91188000000E+02 0.  0.
    9900012    2    3    3    0    0  0.18817400667E+02 -0.28170169196E+02  0.14426580790E+02  0.54367092438E+02  0.40000018831E+02 0.  0.
        -12    1    3    3    0    0 -0.18817400667E+02  0.28170169196E+02 -0.14426580790E+02  0.36820907562E+02  0.00000000000E+00 0.  1.
         11    1    4    4    0    0  0.17412440326E+02  0.49121485588E+01  0.11070601565E+01  0.18125889331E+02  0.51100000000E-03 0. -1.
        -11    1    4    4    0    0 -0.17749000041E+01 -0.32634642692E+01  0.13450267815E+01  0.39508943753E+01  0.51100000000E-03 0.  1.
        -12    1    4    4    0    0  0.31798603446E+01 -0.29818853486E+02  0.11974493852E+02  0.32290308732E+02  0.00000000000E+00 0.  1.
</event>
<event>
 8    1  0.1247338E-006  0.9118800E+02  0.7816164E-02  0.1184000E+00
        -11   -1    0    0    0    0  0.00000000000E+00  0.00000000000E+00  0.45593999997E+02  0.45594000000E+02  0.51100000000E-03 0.  1.
         11   -1    0    0    0    0 -0.00000000000E+00 -0.00000000000E+00 -0.45593999997E+02  0.45594000000E+02  0.51100000000E-03 0. -1.
         23    2    1    2    0    0 -0.88817841970E-15  0.00000000000E+00  0.00000000000E+00  0.91188000000E+02  0.91188000000E+02 0.  0.
    9900012    2    3    3    0    0  0.13491177349E+01 -0.32031817667E+02 -0.18108799229E+02  0.54366999589E+02  0.39999807163E+02 0.  0.
        -12    1    3    3    0    0 -0.13491177349E+01  0.32031817667E+02  0.18108799229E+02  0.36821000411E+02  0.00000000000E+00 0.  1.
         11    1    4    4    0    0  0.17800882190E+01 -0.31687726863E+01 -0.83835507128E+00  0.37299696904E+01  0.51100000000E-03 0. -1.
        -11    1    4    4    0    0  0.18696902648E+02 -0.13703538372E+02 -0.90069719906E+01  0.24869392377E+02  0.51100000000E-03 0.  1.
        -12    1    4    4    0    0 -0.19127873132E+02 -0.15159506609E+02 -0.82634721674E+01  0.25767637521E+02  0.00000000000E+00 0.  1.
</event>
<event>
 8    1  0.1247338E-006  0.9118800E+02  0.7816164E-02  0.1184000E+00
        -11   -1    0    0    0    0  0.00000000000E+00  0.00000000000E+00  0.45593999997E+02  0.45594000000E+02  0.51100000000E-03 0.  1.
         11   -1    0    0    0    0 -0.00000000000E+00 -0.00000000000E+00 -0.45593999997E+02  0.45594000000E+02  0.51100000000E-03 0. -1.
         23    2    1    2    0    0  0.00000000000E+00 -0.88817841970E-15  0.00000000000E+00  0.91188000000E+02  0.91188000000E+02 0.  0.
    9900012    2    3    3    0    0  0.21483193540E+02 -0.60740935690E+01 -0.29280700244E+02  0.54367059977E+02  0.39999944830E+02 0.  0.
        -12    1    3    3    0    0 -0.21483193540E+02  0.60740935690E+01  0.29280700244E+02  0.36820940023E+02  0.00000000000E+00 0.  1.
         11    1    4    4    0    0  0.14428518555E+02 -0.66343645922E+01  0.55032183098E+01  0.16807211347E+02  0.51100000000E-03 0. -1.
        -11    1    4    4    0    0  0.63017613843E+01 -0.79044401811E-02 -0.35695859800E+02  0.36247850504E+02  0.51100000000E-03 0.  1.
        -12    1    4    4    0    0  0.75291360099E+00  0.56817546338E+00  0.91194124621E+00  0.13119981266E+01  0.00000000000E+00 0.  1.
</event>
<event>
 8    1  0.1247338E-006  0.9118800E+02  0.7816164E-02  0.1184000E+00
        -11   -1    0    0    0    0  0.00000000000E+00  0.00000000000E+00  0.45593999997E+02  0.45594000000E+02  0.51100000000E-03 0.  1.
         11   -1    0    0    0    0 -0.00000000000E+00 -0.00000000000E+00 -0.45593999997E+02  0.45594000000E+02  0.51100000000E-03 0. -1.
         23    2    1    2    0    0  0.00000000000E+00  0.00000000000E+00 -0.22204460493E-15  0.91188000000E+02  0.91188000000E+02 0.  0.
    9900012    2    3    3    0    0 -0.18298750094E+02 -0.31920901620E+02 -0.14109302097E+01  0.54367096436E+02  0.40000027945E+02 0.  0.
        -12    1    3    3    0    0  0.18298750094E+02  0.31920901620E+02  0.14109302097E+01  0.36820903564E+02  0.00000000000E+00 0.  1.
         11    1    4    4    0    0  0.60366113218E+01 -0.16145906358E+02 -0.58044279351E+01  0.18188522543E+02  0.51100000000E-03 0. -1.
        -11    1    4    4    0    0 -0.15573243932E+02 -0.19419317643E+02  0.78156494500E+01  0.26090615187E+02  0.51100000000E-03 0.  1.
        -12    1    4    4    0    0 -0.87621174842E+01  0.36443223810E+01 -0.34221517246E+01  0.10087958706E+02  0.00000000000E+00 0.  1.
</event>
<event>
 8    1  0.1247338E-006  0.9118800E+02  0.7816164E-02  0.1184000E+00
        -11   -1    0    0    0    0  0.00000000000E+00  0.00000000000E+00  0.45593999997E+02  0.45594000000E+02  0.51100000000E-03 0. -1.
         11   -1    0    0    0    0 -0.00000000000E+00 -0.00000000000E+00 -0.45593999997E+02  0.45594000000E+02  0.51100000000E-03 0.  1.
         23    2    1    2    0    0  0.66613381478E-15  0.00000000000E+00 -0.17763568394E-14  0.91188000000E+02  0.91188000000E+02 0.  0.
    9900012    2    3    3    0    0  0.10667081638E+01 -0.33216980974E+02 -0.15851605992E+02  0.54367094201E+02  0.40000022849E+02 0.  0.
        -12    1    3    3    0    0 -0.10667081638E+01  0.33216980974E+02  0.15851605992E+02  0.36820905799E+02  0.00000000000E+00 0.  1.
         11    1    4    4    0    0  0.48253242839E+01 -0.27431187467E+01 -0.10820149429E+02  0.12160760208E+02  0.51100000000E-03 0. -1.
        -11    1    4    4    0    0  0.69873397365E+01 -0.19852944462E+01 -0.89284587834E+01  0.11510068946E+02  0.51100000000E-03 0.  1.
         12    1    4    4    0    0 -0.10745955857E+02 -0.28488567782E+02  0.38970022210E+01  0.30696265047E+02  0.00000000000E+00 0. -1.
</event>
<event>
 8    1  0.1247338E-006  0.9118800E+02  0.7816164E-02  0.1184000E+00
        -11   -1    0    0    0    0  0.00000000000E+00  0.00000000000E+00  0.45593999997E+02  0.45594000000E+02  0.51100000000E-03 0.  1.
         11   -1    0    0    0    0 -0.00000000000E+00 -0.00000000000E+00 -0.45593999997E+02  0.45594000000E+02  0.51100000000E-03 0. -1.
         23    2    1    2    0    0 -0.17763568394E-14  0.00000000000E+00  0.00000000000E+00  0.91188000000E+02  0.91188000000E+02 0.  0.
    9900012    2    3    3    0    0 -0.12818087381E+02  0.14455387369E+02  0.31345150348E+02  0.54367081511E+02  0.39999993920E+02 0.  0.
         12    1    3    3    0    0  0.12818087381E+02 -0.14455387369E+02 -0.31345150348E+02  0.36820918489E+02  0.00000000000E+00 0. -1.
         11    1    4    4    0    0 -0.18614390834E+02  0.11238692806E+01  0.14060795036E+02  0.23355183270E+02  0.51100000000E-03 0. -1.
        -11    1    4    4    0    0 -0.53781113307E+01  0.10827768407E+02  0.25587174824E+01  0.12357656962E+02  0.51100000000E-03 0.  1.
        -12    1    4    4    0    0  0.11174414784E+02  0.25037496810E+01  0.14725637830E+02  0.18654241279E+02  0.00000000000E+00 0.  1.
</event>
<event>
 8    1  0.1247338E-006  0.9118800E+02  0.7816164E-02  0.1184000E+00
        -11   -1    0    0    0    0  0.00000000000E+00  0.00000000000E+00  0.45593999997E+02  0.45594000000E+02  0.51100000000E-03 0.  1.
         11   -1    0    0    0    0 -0.00000000000E+00 -0.00000000000E+00 -0.45593999997E+02  0.45594000000E+02  0.51100000000E-03 0. -1.
         23    2    1    2    0    0  0.00000000000E+00 -0.35527136788E-14  0.00000000000E+00  0.91188000000E+02  0.91188000000E+02 0.  0.
    9900012    2    3    3    0    0 -0.20509867145E+02 -0.21286189557E+02  0.21955038839E+02  0.54367078684E+02  0.39999987476E+02 0.  0.
        -12    1    3    3    0    0  0.20509867145E+02  0.21286189557E+02 -0.21955038839E+02  0.36820921316E+02  0.00000000000E+00 0.  1.
         11    1    4    4    0    0 -0.86952274456E+01 -0.12709144681E+02 -0.19565600844E+01  0.15522804723E+02  0.51100000000E-03 0. -1.
        -11    1    4    4    0    0  0.36884975799E+01 -0.14468134143E+01 -0.43165073002E+01  0.58592251182E+01  0.51100000000E-03 0.  1.
         12    1    4    4    0    0 -0.15503137279E+02 -0.71302314615E+01  0.28228106223E+02  0.32985048842E+02  0.00000000000E+00 0. -1.
</event>
<event>
 8    1  0.1247338E-006  0.9118800E+02  0.7816164E-02  0.1184000E+00
        -11   -1    0    0    0    0  0.00000000000E+00  0.00000000000E+00  0.45593999997E+02  0.45594000000E+02  0.51100000000E-03 0.  1.
         11   -1    0    0    0    0 -0.00000000000E+00 -0.00000000000E+00 -0.45593999997E+02  0.45594000000E+02  0.51100000000E-03 0. -1.
         23    2    1    2    0    0  0.00000000000E+00  0.13322676296E-14 -0.35527136788E-14  0.91188000000E+02  0.91188000000E+02 0.  0.
    9900012    2    3    3    0    0  0.21650318572E+02 -0.34828267762E+01  0.29578927168E+02  0.54367091415E+02  0.40000016498E+02 0.  0.
         12    1    3    3    0    0 -0.21650318572E+02  0.34828267762E+01 -0.29578927168E+02  0.36820908585E+02  0.00000000000E+00 0. -1.
         11    1    4    4    0    0  0.70350651039E+01 -0.15425722166E+01 -0.12698892691E+00  0.72033184372E+01  0.51100000000E-03 0. -1.
        -11    1    4    4    0    0  0.23306623972E+02 -0.82461972293E+01  0.25811993197E+02  0.35741537219E+02  0.51100000000E-03 0.  1.
         12    1    4    4    0    0 -0.86913705036E+01  0.63059426697E+01  0.38939228977E+01  0.11422235758E+02  0.00000000000E+00 0. -1.
</event>
<event>
 8    1  0.1247338E-006  0.9118800E+02  0.7816164E-02  0.1184000E+00
        -11   -1    0    0    0    0  0.00000000000E+00  0.00000000000E+00  0.45593999997E+02  0.45594000000E+02  0.51100000000E-03 0.  1.
         11   -1    0    0    0    0 -0.00000000000E+00 -0.00000000000E+00 -0.45593999997E+02  0.45594000000E+02  0.51100000000E-03 0. -1.
         23    2    1    2    0    0  0.00000000000E+00  0.00000000000E+00  0.00000000000E+00  0.91188000000E+02  0.91188000000E+02 0.  0.
    9900012    2    3    3    0    0 -0.65606180327E+01  0.17794115091E+02 -0.31561194329E+02  0.54367065353E+02  0.39999957085E+02 0.  0.
         12    1    3    3    0    0  0.65606180327E+01 -0.17794115091E+02  0.31561194329E+02  0.36820934647E+02  0.00000000000E+00 0. -1.
         11    1    4    4    0    0 -0.14311720234E+02 -0.30065789089E+01  0.69572303087E+00  0.14640658578E+02  0.51100000000E-03 0. -1.
        -11    1    4    4    0    0  0.80013566441E+01  0.14715690687E+02 -0.20389976560E+02  0.26387959469E+02  0.51100000000E-03 0.  1.
         12    1    4    4    0    0 -0.25025444272E+00  0.60850033128E+01 -0.11866940799E+02  0.13338447306E+02  0.00000000000E+00 0. -1.
</event>
<event>
 8    1  0.1247338E-006  0.9118800E+02  0.7816164E-02  0.1184000E+00
        -11   -1    0    0    0    0  0.00000000000E+00  0.00000000000E+00  0.45593999997E+02  0.45594000000E+02  0.51100000000E-03 0. -1.
         11   -1    0    0    0    0 -0.00000000000E+00 -0.00000000000E+00 -0.45593999997E+02  0.45594000000E+02  0.51100000000E-03 0.  1.
         23    2    1    2    0    0 -0.35527136788E-14  0.00000000000E+00  0.00000000000E+00  0.91188000000E+02  0.91188000000E+02 0.  0.
    9900012    2    3    3    0    0  0.20897637458E+02 -0.90217037800E+01 -0.28942641077E+02  0.54367097473E+02  0.40000030309E+02 0.  0.
         12    1    3    3    0    0 -0.20897637458E+02  0.90217037800E+01  0.28942641077E+02  0.36820902527E+02  0.00000000000E+00 0. -1.
         11    1    4    4    0    0  0.23343466921E+02 -0.44210600077E+00 -0.18177652491E+00  0.23348360725E+02  0.51100000000E-03 0. -1.
        -11    1    4    4    0    0  0.22666320239E+01 -0.54838382667E+01 -0.13370890523E+02  0.14628424950E+02  0.51100000000E-03 0.  1.
         12    1    4    4    0    0 -0.47124614870E+01 -0.30957595125E+01 -0.15389974029E+02  0.16390311798E+02  0.00000000000E+00 0. -1.
</event>
<event>
 8    1  0.1247338E-006  0.9118800E+02  0.7816164E-02  0.1184000E+00
        -11   -1    0    0    0    0  0.00000000000E+00  0.00000000000E+00  0.45593999997E+02  0.45594000000E+02  0.51100000000E-03 0.  1.
         11   -1    0    0    0    0 -0.00000000000E+00 -0.00000000000E+00 -0.45593999997E+02  0.45594000000E+02  0.51100000000E-03 0. -1.
         23    2    1    2    0    0 -0.88817841970E-15 -0.17763568394E-14  0.00000000000E+00  0.91188000000E+02  0.91188000000E+02 0.  0.
    9900012    2    3    3    0    0 -0.62955314897E+01 -0.10675388835E+02 -0.34672505349E+02  0.54367078356E+02  0.39999986728E+02 0.  0.
        -12    1    3    3    0    0  0.62955314897E+01  0.10675388835E+02  0.34672505349E+02  0.36820921644E+02  0.00000000000E+00 0.  1.
         11    1    4    4    0    0  0.97951195945E+01 -0.62625016167E+01 -0.15481537530E+02  0.19360818653E+02  0.51100000000E-03 0. -1.
        -11    1    4    4    0    0 -0.66502324735E+01 -0.11472372875E+02 -0.19058071776E+02  0.23217472546E+02  0.51100000000E-03 0.  1.
        -12    1    4    4    0    0 -0.94404186107E+01  0.70594856562E+01 -0.13289604316E+00  0.11788787157E+02  0.00000000000E+00 0.  1.
</event>
<event>
 8    1  0.1247338E-006  0.9118800E+02  0.7816164E-02  0.1184000E+00
        -11   -1    0    0    0    0  0.00000000000E+00  0.00000000000E+00  0.45593999997E+02  0.45594000000E+02  0.51100000000E-03 0.  1.
         11   -1    0    0    0    0 -0.00000000000E+00 -0.00000000000E+00 -0.45593999997E+02  0.45594000000E+02  0.51100000000E-03 0. -1.
         23    2    1    2    0    0  0.71054273576E-14  0.00000000000E+00 -0.35527136788E-14  0.91188000000E+02  0.91188000000E+02 0.  0.
    9900012    2    3    3    0    0 -0.33934431795E+02 -0.48111067397E+01  0.13456867076E+02  0.54367086366E+02  0.40000004989E+02 0.  0.
        -12    1    3    3    0    0  0.33934431795E+02  0.48111067397E+01 -0.13456867076E+02  0.36820913634E+02  0.00000000000E+00 0.  1.
         11    1    4    4    0    0 -0.46442717756E+01 -0.11008085277E+02  0.43375380040E+00  0.11955557052E+02  0.51100000000E-03 0. -1.
        -11    1    4    4    0    0  0.51850313302E+01 -0.39973492682E+00  0.90917442744E+00  0.52792931636E+01  0.51100000000E-03 0.  1.
        -12    1    4    4    0    0 -0.34475191350E+02  0.65967134642E+01  0.12113938848E+02  0.37132236151E+02  0.00000000000E+00 0.  1.
</event>
<event>
 8    1  0.1247338E-006  0.9118800E+02  0.7816164E-02  0.1184000E+00
        -11   -1    0    0    0    0  0.00000000000E+00  0.00000000000E+00  0.45593999997E+02  0.45594000000E+02  0.51100000000E-03 0.  1.
         11   -1    0    0    0    0 -0.00000000000E+00 -0.00000000000E+00 -0.45593999997E+02  0.45594000000E+02  0.51100000000E-03 0. -1.
         23    2    1    2    0    0  0.35527136788E-14  0.00000000000E+00 -0.71054273576E-14  0.91188000000E+02  0.91188000000E+02 0.  0.
    9900012    2    3    3    0    0  0.65151883893E+01  0.76363050088E+01 -0.35426244321E+02  0.54367087183E+02  0.40000006852E+02 0.  0.
        -12    1    3    3    0    0 -0.65151883893E+01 -0.76363050088E+01  0.35426244321E+02  0.36820912817E+02  0.00000000000E+00 0.  1.
         11    1    4    4    0    0  0.97044512982E+01 -0.70390140138E+00 -0.68371712018E+01  0.11891962096E+02  0.51100000000E-03 0. -1.
        -11    1    4    4    0    0 -0.14877397460E+02  0.11712229650E+02 -0.14418767215E+02  0.23799456440E+02  0.51100000000E-03 0.  1.
        -12    1    4    4    0    0  0.11688134551E+02 -0.33720232396E+01 -0.14170305904E+02  0.18675668648E+02  0.00000000000E+00 0.  1.
</event>
<event>
 8    1  0.1247338E-006  0.9118800E+02  0.7816164E-02  0.1184000E+00
        -11   -1    0    0    0    0  0.00000000000E+00  0.00000000000E+00  0.45593999997E+02  0.45594000000E+02  0.51100000000E-03 0. -1.
         11   -1    0    0    0    0 -0.00000000000E+00 -0.00000000000E+00 -0.45593999997E+02  0.45594000000E+02  0.51100000000E-03 0.  1.
         23    2    1    2    0    0  0.00000000000E+00  0.00000000000E+00 -0.17763568394E-14  0.91188000000E+02  0.91188000000E+02 0.  0.
    9900012    2    3    3    0    0 -0.11127238329E+02  0.33145172635E+02  0.11548286559E+02  0.54367070839E+02  0.39999969591E+02 0.  0.
        -12    1    3    3    0    0  0.11127238329E+02 -0.33145172635E+02 -0.11548286559E+02  0.36820929161E+02  0.00000000000E+00 0.  1.
         11    1    4    4    0    0 -0.55212843612E+00  0.20266452423E+01 -0.22116281054E+01  0.30501534201E+01  0.51100000000E-03 0. -1.
        -11    1    4    4    0    0 -0.39624132018E+01 -0.23173571217E+01 -0.91585570094E+01  0.10244512149E+02  0.51100000000E-03 0.  1.
         12    1    4    4    0    0 -0.66126966912E+01  0.33435884514E+02  0.22918471674E+02  0.41072405270E+02  0.00000000000E+00 0. -1.
</event>
<event>
 8    1  0.1247338E-006  0.9118800E+02  0.7816164E-02  0.1184000E+00
        -11   -1    0    0    0    0  0.00000000000E+00  0.00000000000E+00  0.45593999997E+02  0.45594000000E+02  0.51100000000E-03 0. -1.
         11   -1    0    0    0    0 -0.00000000000E+00 -0.00000000000E+00 -0.45593999997E+02  0.45594000000E+02  0.51100000000E-03 0.  1.
         23    2    1    2    0    0 -0.26645352591E-14 -0.27755575616E-15  0.00000000000E+00  0.91188000000E+02  0.91188000000E+02 0.  0.
    9900012    2    3    3    0    0 -0.48107736069E+01 -0.40954407201E+00  0.36502975928E+02  0.54367102120E+02  0.40000040904E+02 0.  0.
        -12    1    3    3    0    0  0.48107736069E+01  0.40954407201E+00 -0.36502975928E+02  0.36820897880E+02  0.00000000000E+00 0.  1.
         11    1    4    4    0    0 -0.12714358527E+02 -0.24117692463E+01  0.11868122642E+02  0.17559153708E+02  0.51100000000E-03 0. -1.
        -11    1    4    4    0    0  0.33927390924E+01 -0.46572222435E+01  0.27630450281E+02  0.28224850408E+02  0.51100000000E-03 0.  1.
        -12    1    4    4    0    0  0.45108458272E+01  0.66594474177E+01 -0.29955969949E+01  0.85830980037E+01  0.00000000000E+00 0.  1.
</event>
<event>
 8    1  0.1247338E-006  0.9118800E+02  0.7816164E-02  0.1184000E+00
        -11   -1    0    0    0    0  0.00000000000E+00  0.00000000000E+00  0.45593999997E+02  0.45594000000E+02  0.51100000000E-03 0. -1.
         11   -1    0    0    0    0 -0.00000000000E+00 -0.00000000000E+00 -0.45593999997E+02  0.45594000000E+02  0.51100000000E-03 0.  1.
         23    2    1    2    0    0 -0.11102230246E-14 -0.35527136788E-14 -0.71054273576E-14  0.91188000000E+02  0.91188000000E+02 0.  0.
    9900012    2    3    3    0    0  0.13422952456E+01 -0.26061828848E+02 -0.25975945257E+02  0.54367212238E+02  0.40000291937E+02 0.  0.
         12    1    3    3    0    0 -0.13422952456E+01  0.26061828848E+02  0.25975945257E+02  0.36820787762E+02  0.00000000000E+00 0. -1.
         11    1    4    4    0    0 -0.11039049805E+02  0.36038881997E+01 -0.95710746165E+01  0.15048391951E+02  0.51100000000E-03 0. -1.
        -11    1    4    4    0    0  0.52009857389E+01 -0.68608691741E+01  0.23585735918E+01  0.89266257975E+01  0.51100000000E-03 0.  1.
         12    1    4    4    0    0  0.71803593116E+01 -0.22804847873E+02 -0.18763444233E+02  0.30392194489E+02  0.00000000000E+00 0. -1.
</event>
<event>
 8    1  0.1247338E-006  0.9118800E+02  0.7816164E-02  0.1184000E+00
        -11   -1    0    0    0    0  0.00000000000E+00  0.00000000000E+00  0.45593999997E+02  0.45594000000E+02  0.51100000000E-03 0.  1.
         11   -1    0    0    0    0 -0.00000000000E+00 -0.00000000000E+00 -0.45593999997E+02  0.45594000000E+02  0.51100000000E-03 0. -1.
         23    2    1    2    0    0  0.00000000000E+00  0.00000000000E+00  0.00000000000E+00  0.91188000000E+02  0.91188000000E+02 0.  0.
    9900012    2    3    3    0    0 -0.10241424507E+02 -0.17067433268E+02 -0.30977339416E+02  0.54367087306E+02  0.40000007132E+02 0.  0.
        -12    1    3    3    0    0  0.10241424507E+02  0.17067433268E+02  0.30977339416E+02  0.36820912694E+02  0.00000000000E+00 0.  1.
         11    1    4    4    0    0  0.10796065557E+01 -0.25876895589E+01 -0.29759912943E+02  0.29891706312E+02  0.51100000000E-03 0. -1.
        -11    1    4    4    0    0 -0.88288815534E+00 -0.13943773891E+02 -0.18856576937E+00  0.13972969589E+02  0.51100000000E-03 0.  1.
        -12    1    4    4    0    0 -0.10438142907E+02 -0.53596981807E+00 -0.10288607037E+01  0.10502411406E+02  0.00000000000E+00 0.  1.
</event>
<event>
 8    1  0.1247338E-006  0.9118800E+02  0.7816164E-02  0.1184000E+00
        -11   -1    0    0    0    0  0.00000000000E+00  0.00000000000E+00  0.45593999997E+02  0.45594000000E+02  0.51100000000E-03 0. -1.
         11   -1    0    0    0    0 -0.00000000000E+00 -0.00000000000E+00 -0.45593999997E+02  0.45594000000E+02  0.51100000000E-03 0.  1.
         23    2    1    2    0    0  0.00000000000E+00  0.00000000000E+00  0.17763568394E-14  0.91188000000E+02  0.91188000000E+02 0.  0.
    9900012    2    3    3    0    0 -0.60126886509E+01  0.32841665661E+02  0.15525885641E+02  0.54367074521E+02  0.39999977985E+02 0.  0.
        -12    1    3    3    0    0  0.60126886509E+01 -0.32841665661E+02 -0.15525885641E+02  0.36820925479E+02  0.00000000000E+00 0.  1.
         11    1    4    4    0    0  0.24761802108E+01  0.19529976827E+02  0.53318063043E+01  0.20395578492E+02  0.51100000000E-03 0. -1.
        -11    1    4    4    0    0  0.43261930346E+01  0.92882260070E+01 -0.68095177869E+01  0.12302707884E+02  0.51100000000E-03 0.  1.
        -12    1    4    4    0    0 -0.12815061896E+02  0.40234628269E+01  0.17003597123E+02  0.21668788144E+02  0.00000000000E+00 0.  1.
</event>
<event>
 8    1  0.1247338E-006  0.9118800E+02  0.7816164E-02  0.1184000E+00
        -11   -1    0    0    0    0  0.00000000000E+00  0.00000000000E+00  0.45593999997E+02  0.45594000000E+02  0.51100000000E-03 0.  1.
         11   -1    0    0    0    0 -0.00000000000E+00 -0.00000000000E+00 -0.45593999997E+02  0.45594000000E+02  0.51100000000E-03 0. -1.
         23    2    1    2    0    0 -0.35527136788E-14  0.00000000000E+00  0.00000000000E+00  0.91188000000E+02  0.91188000000E+02 0.  0.
    9900012    2    3    3    0    0 -0.31361019628E+02 -0.17099361057E+02  0.89374890152E+01  0.54367076456E+02  0.39999982398E+02 0.  0.
         12    1    3    3    0    0  0.31361019628E+02  0.17099361057E+02 -0.89374890152E+01  0.36820923544E+02  0.00000000000E+00 0. -1.
         11    1    4    4    0    0  0.65055732349E+01  0.18396507721E+00  0.60330203477E+01  0.88743259485E+01  0.51100000000E-03 0. -1.
        -11    1    4    4    0    0 -0.88701324882E+01 -0.52076582366E+01 -0.71334168729E+01  0.12517371578E+02  0.51100000000E-03 0.  1.
        -12    1    4    4    0    0 -0.28996460375E+02 -0.12075667898E+02  0.10037885540E+02  0.32975378930E+02  0.00000000000E+00 0.  1.
</event>
<event>
 8    1  0.1247338E-006  0.9118800E+02  0.7816164E-02  0.1184000E+00
        -11   -1    0    0    0    0  0.00000000000E+00  0.00000000000E+00  0.45593999997E+02  0.45594000000E+02  0.51100000000E-03 0. -1.
         11   -1    0    0    0    0 -0.00000000000E+00 -0.00000000000E+00 -0.45593999997E+02  0.45594000000E+02  0.51100000000E-03 0.  1.
         23    2    1    2    0    0  0.44408920985E-15  0.17763568394E-14  0.00000000000E+00  0.91188000000E+02  0.91188000000E+02 0.  0.
    9900012    2    3    3    0    0  0.29005580932E+01  0.74305822510E+01 -0.35946521018E+02  0.54367093396E+02  0.40000021014E+02 0.  0.
         12    1    3    3    0    0 -0.29005580932E+01 -0.74305822510E+01  0.35946521018E+02  0.36820906604E+02  0.00000000000E+00 0. -1.
         11    1    4    4    0    0 -0.27216049336E+01  0.28326235660E+01  0.51288791331E+01  0.64603630783E+01  0.51100000000E-03 0. -1.
        -11    1    4    4    0    0  0.44540509768E+01  0.14186881445E+02 -0.27214662823E+02  0.31011998453E+02  0.51100000000E-03 0.  1.
        -12    1    4    4    0    0  0.11681120500E+01 -0.95889227604E+01 -0.13860737328E+02  0.16894731864E+02  0.00000000000E+00 0.  1.
</event>
<event>
 8    1  0.1247338E-006  0.9118800E+02  0.7816164E-02  0.1184000E+00
        -11   -1    0    0    0    0  0.00000000000E+00  0.00000000000E+00  0.45593999997E+02  0.45594000000E+02  0.51100000000E-03 0.  1.
         11   -1    0    0    0    0 -0.00000000000E+00 -0.00000000000E+00 -0.45593999997E+02  0.45594000000E+02  0.51100000000E-03 0. -1.
         23    2    1    2    0    0  0.00000000000E+00  0.71054273576E-14  0.71054273576E-14  0.91188000000E+02  0.91188000000E+02 0.  0.
    9900012    2    3    3    0    0  0.34042360791E+01  0.21724300475E+02  0.29533804829E+02  0.54367086349E+02  0.40000004950E+02 0.  0.
         12    1    3    3    0    0 -0.34042360791E+01 -0.21724300475E+02 -0.29533804829E+02  0.36820913651E+02  0.00000000000E+00 0. -1.
         11    1    4    4    0    0 -0.96881477494E+01 -0.42918625732E+01  0.59915581304E+01  0.12172882167E+02  0.51100000000E-03 0. -1.
        -11    1    4    4    0    0  0.10656479363E+02  0.23124680646E+01  0.99488946331E+01  0.14761048935E+02  0.51100000000E-03 0.  1.
        -12    1    4    4    0    0  0.24359044652E+01  0.23703694984E+02  0.13593352065E+02  0.27433155247E+02  0.00000000000E+00 0.  1.
</event>
<event>
 8    1  0.1247338E-006  0.9118800E+02  0.7816164E-02  0.1184000E+00
        -11   -1    0    0    0    0  0.00000000000E+00  0.00000000000E+00  0.45593999997E+02  0.45594000000E+02  0.51100000000E-03 0. -1.
         11   -1    0    0    0    0 -0.00000000000E+00 -0.00000000000E+00 -0.45593999997E+02  0.45594000000E+02  0.51100000000E-03 0.  1.
         23    2    1    2    0    0  0.88817841970E-15  0.00000000000E+00  0.00000000000E+00  0.91188000000E+02  0.91188000000E+02 0.  0.
    9900012    2    3    3    0    0  0.53550390435E+01 -0.72235566166E+01 -0.35706076970E+02  0.54367080050E+02  0.39999990591E+02 0.  0.
         12    1    3    3    0    0 -0.53550390435E+01  0.72235566166E+01  0.35706076970E+02  0.36820919950E+02  0.00000000000E+00 0. -1.
         11    1    4    4    0    0  0.10979820980E+02 -0.45279377942E+01 -0.15815635623E+02  0.19778600048E+02  0.51100000000E-03 0. -1.
        -11    1    4    4    0    0  0.87966638231E+01 -0.81137844463E+01 -0.13127858026E+02  0.17763880462E+02  0.51100000000E-03 0.  1.
         12    1    4    4    0    0 -0.14421445760E+02  0.54181656240E+01 -0.67625833211E+01  0.16824599541E+02  0.00000000000E+00 0. -1.
</event>
<event>
 8    1  0.1247338E-006  0.9118800E+02  0.7816164E-02  0.1184000E+00
        -11   -1    0    0    0    0  0.00000000000E+00  0.00000000000E+00  0.45593999997E+02  0.45594000000E+02  0.51100000000E-03 0.  1.
         11   -1    0    0    0    0 -0.00000000000E+00 -0.00000000000E+00 -0.45593999997E+02  0.45594000000E+02  0.51100000000E-03 0. -1.
         23    2    1    2    0    0  0.00000000000E+00  0.00000000000E+00 -0.71054273576E-14  0.91188000000E+02  0.91188000000E+02 0.  0.
    9900012    2    3    3    0    0 -0.24754619191E+02  0.10057589559E+02  0.25334441229E+02  0.54367079433E+02  0.39999989183E+02 0.  0.
         12    1    3    3    0    0  0.24754619191E+02 -0.10057589559E+02 -0.25334441229E+02  0.36820920567E+02  0.00000000000E+00 0. -1.
         11    1    4    4    0    0 -0.12512798119E+02  0.15454817422E+02  0.40357277867E+01  0.20290603671E+02  0.51100000000E-03 0. -1.
        -11    1    4    4    0    0 -0.31323460066E+00  0.83662817876E+01  0.72384161616E+01  0.11067405100E+02  0.51100000000E-03 0.  1.
         12    1    4    4    0    0 -0.11928586471E+02 -0.13763509650E+02  0.14060297281E+02  0.23009070661E+02  0.00000000000E+00 0. -1.
</event>
<event>
 8    1  0.1247338E-006  0.9118800E+02  0.7816164E-02  0.1184000E+00
        -11   -1    0    0    0    0  0.00000000000E+00  0.00000000000E+00  0.45593999997E+02  0.45594000000E+02  0.51100000000E-03 0.  1.
         11   -1    0    0    0    0 -0.00000000000E+00 -0.00000000000E+00 -0.45593999997E+02  0.45594000000E+02  0.51100000000E-03 0. -1.
         23    2    1    2    0    0  0.35527136788E-14 -0.35527136788E-14  0.00000000000E+00  0.91188000000E+02  0.91188000000E+02 0.  0.
    9900012    2    3    3    0    0  0.18770146500E+02 -0.22901884865E+02  0.21885275431E+02  0.54367081887E+02  0.39999994777E+02 0.  0.
         12    1    3    3    0    0 -0.18770146500E+02  0.22901884865E+02 -0.21885275431E+02  0.36820918113E+02  0.00000000000E+00 0. -1.
         11    1    4    4    0    0  0.79203870043E+01  0.58881001057E+01 -0.24717331841E+00  0.98723527116E+01  0.51100000000E-03 0. -1.
        -11    1    4    4    0    0 -0.43661627325E+01 -0.20924431051E+02  0.10722785841E+02  0.23913873134E+02  0.51100000000E-03 0.  1.
        -12    1    4    4    0    0  0.15215922228E+02 -0.78655539203E+01  0.11409662908E+02  0.20580856042E+02  0.00000000000E+00 0.  1.
</event>
<event>
 8    1  0.1247338E-006  0.9118800E+02  0.7816164E-02  0.1184000E+00
        -11   -1    0    0    0    0  0.00000000000E+00  0.00000000000E+00  0.45593999997E+02  0.45594000000E+02  0.51100000000E-03 0.  1.
         11   -1    0    0    0    0 -0.00000000000E+00 -0.00000000000E+00 -0.45593999997E+02  0.45594000000E+02  0.51100000000E-03 0. -1.
         23    2    1    2    0    0  0.35527136788E-14  0.35527136788E-14  0.35527136788E-14  0.91188000000E+02  0.91188000000E+02 0.  0.
    9900012    2    3    3    0    0  0.17167578494E+02  0.26849147084E+02  0.18443917365E+02  0.54367074723E+02  0.39999978447E+02 0.  0.
         12    1    3    3    0    0 -0.17167578494E+02 -0.26849147084E+02 -0.18443917365E+02  0.36820925277E+02  0.00000000000E+00 0. -1.
         11    1    4    4    0    0 -0.85057154503E+01 -0.13826111922E+01 -0.13407045764E+01  0.87210262040E+01  0.51100000000E-03 0. -1.
        -11    1    4    4    0    0  0.24513570488E+02  0.25822635369E+02  0.12253907268E+02  0.37654772327E+02  0.51100000000E-03 0.  1.
        -12    1    4    4    0    0  0.11597234563E+01  0.24091229072E+01  0.75307146736E+01  0.79912761917E+01  0.00000000000E+00 0.  1.
</event>
<event>
 8    1  0.1247338E-006  0.9118800E+02  0.7816164E-02  0.1184000E+00
        -11   -1    0    0    0    0  0.00000000000E+00  0.00000000000E+00  0.45593999997E+02  0.45594000000E+02  0.51100000000E-03 0. -1.
         11   -1    0    0    0    0 -0.00000000000E+00 -0.00000000000E+00 -0.45593999997E+02  0.45594000000E+02  0.51100000000E-03 0.  1.
         23    2    1    2    0    0  0.88817841970E-15 -0.35527136788E-14  0.00000000000E+00  0.91188000000E+02  0.91188000000E+02 0.  0.
    9900012    2    3    3    0    0 -0.31319267191E+01  0.29035148337E+02  0.22426115101E+02  0.54367089603E+02  0.40000012369E+02 0.  0.
        -12    1    3    3    0    0  0.31319267191E+01 -0.29035148337E+02 -0.22426115101E+02  0.36820910397E+02  0.00000000000E+00 0.  1.
         11    1    4    4    0    0 -0.82986300076E+01  0.68114061628E+01  0.22082203039E+02  0.24553741166E+02  0.51100000000E-03 0. -1.
        -11    1    4    4    0    0  0.10675404924E+02  0.16866453181E+02  0.53211333780E+01  0.20658072850E+02  0.51100000000E-03 0.  1.
         12    1    4    4    0    0 -0.55087016354E+01  0.53572889928E+01 -0.49772213155E+01  0.91552755875E+01  0.00000000000E+00 0. -1.
</event>
<event>
 8    1  0.1247338E-006  0.9118800E+02  0.7816164E-02  0.1184000E+00
        -11   -1    0    0    0    0  0.00000000000E+00  0.00000000000E+00  0.45593999997E+02  0.45594000000E+02  0.51100000000E-03 0.  1.
         11   -1    0    0    0    0 -0.00000000000E+00 -0.00000000000E+00 -0.45593999997E+02  0.45594000000E+02  0.51100000000E-03 0. -1.
         23    2    1    2    0    0  0.00000000000E+00  0.00000000000E+00  0.71054273576E-14  0.91188000000E+02  0.91188000000E+02 0.  0.
    9900012    2    3    3    0    0  0.16061434687E+02 -0.59450673094E+01 -0.32595494263E+02  0.54367085349E+02  0.40000002670E+02 0.  0.
        -12    1    3    3    0    0 -0.16061434687E+02  0.59450673094E+01  0.32595494263E+02  0.36820914651E+02  0.00000000000E+00 0.  1.
         11    1    4    4    0    0 -0.19247734733E+01 -0.82739849417E+01 -0.66724594171E+01  0.10802096772E+02  0.51100000000E-03 0. -1.
        -11    1    4    4    0    0 -0.10748415895E+01 -0.21732560713E+01  0.57981244920E+01  0.62846300034E+01  0.51100000000E-03 0.  1.
         12    1    4    4    0    0  0.19061049750E+02  0.45021737037E+01 -0.31721159338E+02  0.37280358573E+02  0.00000000000E+00 0. -1.
</event>
<event>
 8    1  0.1247338E-006  0.9118800E+02  0.7816164E-02  0.1184000E+00
        -11   -1    0    0    0    0  0.00000000000E+00  0.00000000000E+00  0.45593999997E+02  0.45594000000E+02  0.51100000000E-03 0.  1.
         11   -1    0    0    0    0 -0.00000000000E+00 -0.00000000000E+00 -0.45593999997E+02  0.45594000000E+02  0.51100000000E-03 0. -1.
         23    2    1    2    0    0  0.00000000000E+00  0.00000000000E+00  0.00000000000E+00  0.91188000000E+02  0.91188000000E+02 0.  0.
    9900012    2    3    3    0    0  0.17109315642E+02  0.27149037093E+02 -0.18055388421E+02  0.54366865473E+02  0.39999501416E+02 0.  0.
        -12    1    3    3    0    0 -0.17109315642E+02 -0.27149037093E+02  0.18055388421E+02  0.36821134527E+02  0.00000000000E+00 0.  1.
         11    1    4    4    0    0  0.42520114705E+01  0.12151164640E+02 -0.16640370367E+02  0.21038829100E+02  0.51100000000E-03 0. -1.
        -11    1    4    4    0    0  0.15120220610E+02  0.21483566686E+02 -0.24349765373E+01  0.26383589973E+02  0.51100000000E-03 0.  1.
        -12    1    4    4    0    0 -0.22629164385E+01 -0.64856942339E+01  0.10199584833E+01  0.69444464006E+01  0.00000000000E+00 0.  1.
</event>
<event>
 8    1  0.1247338E-006  0.9118800E+02  0.7816164E-02  0.1184000E+00
        -11   -1    0    0    0    0  0.00000000000E+00  0.00000000000E+00  0.45593999997E+02  0.45594000000E+02  0.51100000000E-03 0. -1.
         11   -1    0    0    0    0 -0.00000000000E+00 -0.00000000000E+00 -0.45593999997E+02  0.45594000000E+02  0.51100000000E-03 0.  1.
         23    2    1    2    0    0  0.00000000000E+00  0.00000000000E+00  0.35527136788E-14  0.91188000000E+02  0.91188000000E+02 0.  0.
    9900012    2    3    3    0    0  0.17441631574E+02 -0.16325223180E+02 -0.28019032208E+02  0.54366951811E+02  0.39999698243E+02 0.  0.
         12    1    3    3    0    0 -0.17441631574E+02  0.16325223180E+02  0.28019032208E+02  0.36821048189E+02  0.00000000000E+00 0. -1.
         11    1    4    4    0    0 -0.42925902590E+01 -0.56622121306E+00  0.74442096848E+01  0.86118055997E+01  0.51100000000E-03 0. -1.
        -11    1    4    4    0    0  0.10826201107E+02 -0.29835841367E+01 -0.19927224392E+02  0.22873624045E+02  0.51100000000E-03 0.  1.
         12    1    4    4    0    0  0.10908020726E+02 -0.12775417831E+02 -0.15536017501E+02  0.22881522167E+02  0.00000000000E+00 0. -1.
</event>
<event>
 8    1  0.1247338E-006  0.9118800E+02  0.7816164E-02  0.1184000E+00
        -11   -1    0    0    0    0  0.00000000000E+00  0.00000000000E+00  0.45593999997E+02  0.45594000000E+02  0.51100000000E-03 0. -1.
         11   -1    0    0    0    0 -0.00000000000E+00 -0.00000000000E+00 -0.45593999997E+02  0.45594000000E+02  0.51100000000E-03 0.  1.
         23    2    1    2    0    0 -0.53290705182E-14  0.00000000000E+00 -0.35527136788E-14  0.91188000000E+02  0.91188000000E+02 0.  0.
    9900012    2    3    3    0    0 -0.46882313575E+01  0.26711507139E+02 -0.24905730627E+02  0.54367088211E+02  0.40000009195E+02 0.  0.
         12    1    3    3    0    0  0.46882313575E+01 -0.26711507139E+02  0.24905730627E+02  0.36820911789E+02  0.00000000000E+00 0. -1.
         11    1    4    4    0    0  0.12502053510E+02  0.26488634619E+01  0.79808848350E-01  0.12779835262E+02  0.51100000000E-03 0. -1.
        -11    1    4    4    0    0 -0.49425534427E+01  0.19045378631E+02 -0.12008409771E+02  0.23051186243E+02  0.51100000000E-03 0.  1.
         12    1    4    4    0    0 -0.12247731424E+02  0.50172650464E+01 -0.12977129704E+02  0.18536066707E+02  0.00000000000E+00 0. -1.
</event>
<event>
 8    1  0.1247338E-006  0.9118800E+02  0.7816164E-02  0.1184000E+00
        -11   -1    0    0    0    0  0.00000000000E+00  0.00000000000E+00  0.45593999997E+02  0.45594000000E+02  0.51100000000E-03 0. -1.
         11   -1    0    0    0    0 -0.00000000000E+00 -0.00000000000E+00 -0.45593999997E+02  0.45594000000E+02  0.51100000000E-03 0.  1.
         23    2    1    2    0    0 -0.17763568394E-14  0.17763568394E-14  0.00000000000E+00  0.91188000000E+02  0.91188000000E+02 0.  0.
    9900012    2    3    3    0    0 -0.90462697718E+01 -0.10982552185E+02 -0.33960773861E+02  0.54367005845E+02  0.39999821426E+02 0.  0.
         12    1    3    3    0    0  0.90462697718E+01  0.10982552185E+02  0.33960773861E+02  0.36820994155E+02  0.00000000000E+00 0. -1.
         11    1    4    4    0    0 -0.27194389821E+01  0.15346213652E+01  0.10142465223E+01  0.32831550955E+01  0.51100000000E-03 0. -1.
        -11    1    4    4    0    0  0.13080759291E+01  0.11621297614E+02 -0.85393609178E+01  0.14480549230E+02  0.51100000000E-03 0.  1.
         12    1    4    4    0    0 -0.76349067187E+01 -0.24138471164E+02 -0.26435659466E+02  0.36603301520E+02  0.00000000000E+00 0. -1.
</event>
<event>
 8    1  0.1247338E-006  0.9118800E+02  0.7816164E-02  0.1184000E+00
        -11   -1    0    0    0    0  0.00000000000E+00  0.00000000000E+00  0.45593999997E+02  0.45594000000E+02  0.51100000000E-03 0.  1.
         11   -1    0    0    0    0 -0.00000000000E+00 -0.00000000000E+00 -0.45593999997E+02  0.45594000000E+02  0.51100000000E-03 0. -1.
         23    2    1    2    0    0  0.00000000000E+00  0.00000000000E+00  0.00000000000E+00  0.91188000000E+02  0.91188000000E+02 0.  0.
    9900012    2    3    3    0    0 -0.28250484254E+02  0.17838910253E+02  0.15474553632E+02  0.54367103899E+02  0.40000044957E+02 0.  0.
         12    1    3    3    0    0  0.28250484254E+02 -0.17838910253E+02 -0.15474553632E+02  0.36820896101E+02  0.00000000000E+00 0. -1.
         11    1    4    4    0    0 -0.10892651726E+02  0.40247144035E+01 -0.85141575479E+01  0.14399273130E+02  0.51100000000E-03 0. -1.
        -11    1    4    4    0    0 -0.18436554835E+02  0.33132452152E+00  0.13577963756E+02  0.22899288857E+02  0.51100000000E-03 0.  1.
         12    1    4    4    0    0  0.10787223075E+01  0.13482871328E+02  0.10410747423E+02  0.17068541911E+02  0.00000000000E+00 0. -1.
</event>
<event>
 8    1  0.1247338E-006  0.9118800E+02  0.7816164E-02  0.1184000E+00
        -11   -1    0    0    0    0  0.00000000000E+00  0.00000000000E+00  0.45593999997E+02  0.45594000000E+02  0.51100000000E-03 0.  1.
         11   -1    0    0    0    0 -0.00000000000E+00 -0.00000000000E+00 -0.45593999997E+02  0.45594000000E+02  0.51100000000E-03 0. -1.
         23    2    1    2    0    0  0.00000000000E+00  0.44408920985E-15  0.00000000000E+00  0.91188000000E+02  0.91188000000E+02 0.  0.
    9900012    2    3    3    0    0 -0.36669997232E+02 -0.23181602966E+01 -0.23914398146E+01  0.54367061004E+02  0.39999947171E+02 0.  0.
        -12    1    3    3    0    0  0.36669997232E+02  0.23181602966E+01  0.23914398146E+01  0.36820938996E+02  0.00000000000E+00 0.  1.
         11    1    4    4    0    0 -0.19384927242E+02  0.13254773995E+02  0.75582409824E+01  0.24669646224E+02  0.51100000000E-03 0.  1.
        -11    1    4    4    0    0 -0.15556706024E+02 -0.85742593539E+01 -0.44574139258E+00  0.17768728470E+02  0.51100000000E-03 0. -1.
        -12    1    4    4    0    0 -0.17283639660E+01 -0.69986749374E+01 -0.95039394044E+01  0.11928686310E+02  0.00000000000E+00 0.  1.
</event>
<event>
 8    1  0.1247338E-006  0.9118800E+02  0.7816164E-02  0.1184000E+00
        -11   -1    0    0    0    0  0.00000000000E+00  0.00000000000E+00  0.45593999997E+02  0.45594000000E+02  0.51100000000E-03 0.  1.
         11   -1    0    0    0    0 -0.00000000000E+00 -0.00000000000E+00 -0.45593999997E+02  0.45594000000E+02  0.51100000000E-03 0. -1.
         23    2    1    2    0    0  0.00000000000E+00  0.00000000000E+00 -0.88817841970E-15  0.91188000000E+02  0.91188000000E+02 0.  0.
    9900012    2    3    3    0    0  0.36463295715E+02 -0.47229441891E+01  0.19754685605E+01  0.54367073718E+02  0.39999976155E+02 0.  0.
        -12    1    3    3    0    0 -0.36463295715E+02  0.47229441891E+01 -0.19754685605E+01  0.36820926282E+02  0.00000000000E+00 0.  1.
         11    1    4    4    0    0  0.93197534507E+01 -0.72483643236E+01 -0.15781497325E+02  0.19709191963E+02  0.51100000000E-03 0. -1.
        -11    1    4    4    0    0  0.43546284251E+01  0.81679059974E+00  0.92800870322E+01  0.10283479527E+02  0.51100000000E-03 0.  1.
        -12    1    4    4    0    0  0.22788913839E+02  0.17086295347E+01  0.84768788533E+01  0.24374402228E+02  0.00000000000E+00 0.  1.
</event>
<event>
 8    1  0.1247338E-006  0.9118800E+02  0.7816164E-02  0.1184000E+00
        -11   -1    0    0    0    0  0.00000000000E+00  0.00000000000E+00  0.45593999997E+02  0.45594000000E+02  0.51100000000E-03 0. -1.
         11   -1    0    0    0    0 -0.00000000000E+00 -0.00000000000E+00 -0.45593999997E+02  0.45594000000E+02  0.51100000000E-03 0.  1.
         23    2    1    2    0    0  0.35527136788E-14  0.00000000000E+00  0.17763568394E-14  0.91188000000E+02  0.91188000000E+02 0.  0.
    9900012    2    3    3    0    0  0.28006124552E+02  0.18703441967E+02 -0.14886897193E+02  0.54367062181E+02  0.39999949854E+02 0.  0.
         12    1    3    3    0    0 -0.28006124552E+02 -0.18703441967E+02  0.14886897193E+02  0.36820937819E+02  0.00000000000E+00 0. -1.
         11    1    4    4    0    0 -0.56578445266E+00  0.10938599944E+02 -0.65481802792E+01  0.12761337940E+02  0.51100000000E-03 0. -1.
        -11    1    4    4    0    0 -0.96682949936E-01 -0.48805691063E+01  0.54985466370E+01  0.73527761950E+01  0.51100000000E-03 0.  1.
         12    1    4    4    0    0  0.28668591955E+02  0.12645411129E+02 -0.13837263551E+02  0.34252948046E+02  0.00000000000E+00 0. -1.
</event>
<event>
 8    1  0.1247338E-006  0.9118800E+02  0.7816164E-02  0.1184000E+00
        -11   -1    0    0    0    0  0.00000000000E+00  0.00000000000E+00  0.45593999997E+02  0.45594000000E+02  0.51100000000E-03 0. -1.
         11   -1    0    0    0    0 -0.00000000000E+00 -0.00000000000E+00 -0.45593999997E+02  0.45594000000E+02  0.51100000000E-03 0.  1.
         23    2    1    2    0    0 -0.71054273576E-14 -0.26645352591E-14  0.17763568394E-14  0.91188000000E+02  0.91188000000E+02 0.  0.
    9900012    2    3    3    0    0  0.34789956941E+02  0.40679778084E+01 -0.11352944233E+02  0.54367097103E+02  0.40000029465E+02 0.  0.
         12    1    3    3    0    0 -0.34789956941E+02 -0.40679778084E+01  0.11352944233E+02  0.36820902897E+02  0.00000000000E+00 0. -1.
         11    1    4    4    0    0  0.17103514199E+02 -0.13934745918E+02  0.59250855920E+01  0.22843248046E+02  0.51100000000E-03 0. -1.
        -11    1    4    4    0    0  0.10296652083E+02  0.86799587441E+01 -0.13433762461E+02  0.19021795447E+02  0.51100000000E-03 0.  1.
         12    1    4    4    0    0  0.73897906590E+01  0.93227649818E+01 -0.38442673637E+01  0.12502053609E+02  0.00000000000E+00 0. -1.
</event>
<event>
 8    1  0.1247338E-006  0.9118800E+02  0.7816164E-02  0.1184000E+00
        -11   -1    0    0    0    0  0.00000000000E+00  0.00000000000E+00  0.45593999997E+02  0.45594000000E+02  0.51100000000E-03 0. -1.
         11   -1    0    0    0    0 -0.00000000000E+00 -0.00000000000E+00 -0.45593999997E+02  0.45594000000E+02  0.51100000000E-03 0.  1.
         23    2    1    2    0    0  0.00000000000E+00  0.00000000000E+00 -0.35527136788E-14  0.91188000000E+02  0.91188000000E+02 0.  0.
    9900012    2    3    3    0    0  0.40103387853E+01 -0.23242845712E+02 -0.28274845604E+02  0.54367087628E+02  0.40000007866E+02 0.  0.
         12    1    3    3    0    0 -0.40103387853E+01  0.23242845712E+02  0.28274845604E+02  0.36820912372E+02  0.00000000000E+00 0. -1.
         11    1    4    4    0    0  0.24435465448E+01 -0.16394819873E+01 -0.16499719780E+02  0.16760058889E+02  0.51100000000E-03 0.  1.
        -11    1    4    4    0    0 -0.85699824284E+01  0.30131498683E+01 -0.26126445566E+01  0.94524908248E+01  0.51100000000E-03 0. -1.
        -12    1    4    4    0    0  0.10136774669E+02 -0.24616513593E+02 -0.91624812680E+01  0.28154537914E+02  0.00000000000E+00 0.  1.
</event>
<event>
 8    1  0.1247338E-006  0.9118800E+02  0.7816164E-02  0.1184000E+00
        -11   -1    0    0    0    0  0.00000000000E+00  0.00000000000E+00  0.45593999997E+02  0.45594000000E+02  0.51100000000E-03 0. -1.
         11   -1    0    0    0    0 -0.00000000000E+00 -0.00000000000E+00 -0.45593999997E+02  0.45594000000E+02  0.51100000000E-03 0.  1.
         23    2    1    2    0    0  0.00000000000E+00 -0.17763568394E-14  0.17763568394E-14  0.91188000000E+02  0.91188000000E+02 0.  0.
    9900012    2    3    3    0    0  0.29976700116E+02 -0.15639277578E+02 -0.14580473263E+02  0.54367085378E+02  0.40000002737E+02 0.  0.
         12    1    3    3    0    0 -0.29976700116E+02  0.15639277578E+02  0.14580473263E+02  0.36820914622E+02  0.00000000000E+00 0. -1.
         11    1    4    4    0    0  0.46018167363E+01  0.52932724720E+01  0.84693167172E+01  0.10996580225E+02  0.51100000000E-03 0. -1.
        -11    1    4    4    0    0  0.13601571611E+02 -0.66455028991E+01 -0.19219599250E+02  0.24465454311E+02  0.51100000000E-03 0.  1.
        -12    1    4    4    0    0  0.11773311768E+02 -0.14287047151E+02 -0.38301907305E+01  0.18905050842E+02  0.00000000000E+00 0.  1.
</event>
<event>
 8    1  0.1247338E-006  0.9118800E+02  0.7816164E-02  0.1184000E+00
        -11   -1    0    0    0    0  0.00000000000E+00  0.00000000000E+00  0.45593999997E+02  0.45594000000E+02  0.51100000000E-03 0. -1.
         11   -1    0    0    0    0 -0.00000000000E+00 -0.00000000000E+00 -0.45593999997E+02  0.45594000000E+02  0.51100000000E-03 0.  1.
         23    2    1    2    0    0  0.00000000000E+00  0.00000000000E+00 -0.17763568394E-14  0.91188000000E+02  0.91188000000E+02 0.  0.
    9900012    2    3    3    0    0  0.33687547603E+02  0.94905431980E+01 -0.11439589178E+02  0.54367007696E+02  0.39999825644E+02 0.  0.
         12    1    3    3    0    0 -0.33687547603E+02 -0.94905431980E+01  0.11439589178E+02  0.36820992304E+02  0.00000000000E+00 0. -1.
         11    1    4    4    0    0  0.17325832006E+02  0.44849877296E+01 -0.25368966821E+02  0.31046482046E+02  0.51100000000E-03 0. -1.
        -11    1    4    4    0    0  0.15173149642E+02  0.38734930128E+01  0.88608963032E+01  0.17992884753E+02  0.51100000000E-03 0.  1.
         12    1    4    4    0    0  0.11885659554E+01  0.11320624555E+01  0.50684813396E+01  0.53276408966E+01  0.00000000000E+00 0. -1.
</event>
<event>
 8    1  0.1247338E-006  0.9118800E+02  0.7816164E-02  0.1184000E+00
        -11   -1    0    0    0    0  0.00000000000E+00  0.00000000000E+00  0.45593999997E+02  0.45594000000E+02  0.51100000000E-03 0.  1.
         11   -1    0    0    0    0 -0.00000000000E+00 -0.00000000000E+00 -0.45593999997E+02  0.45594000000E+02  0.51100000000E-03 0. -1.
         23    2    1    2    0    0  0.00000000000E+00  0.71054273576E-14  0.11102230246E-14  0.91188000000E+02  0.91188000000E+02 0.  0.
    9900012    2    3    3    0    0 -0.25519724642E+02  0.26494363084E+02 -0.16037313929E+01  0.54367087798E+02  0.40000008253E+02 0.  0.
         12    1    3    3    0    0  0.25519724642E+02 -0.26494363084E+02  0.16037313929E+01  0.36820912202E+02  0.00000000000E+00 0. -1.
         11    1    4    4    0    0 -0.11167897762E+02  0.81569055745E+01 -0.14820594604E+02  0.20270842944E+02  0.51100000000E-03 0. -1.
        -11    1    4    4    0    0 -0.75583819419E+00  0.49652557577E+00  0.11569547138E+02  0.11604837365E+02  0.51100000000E-03 0.  1.
        -12    1    4    4    0    0 -0.13595988685E+02  0.17840931934E+02  0.16473160724E+01  0.22491407489E+02  0.00000000000E+00 0.  1.
</event>
<event>
 8    1  0.1247338E-006  0.9118800E+02  0.7816164E-02  0.1184000E+00
        -11   -1    0    0    0    0  0.00000000000E+00  0.00000000000E+00  0.45593999997E+02  0.45594000000E+02  0.51100000000E-03 0.  1.
         11   -1    0    0    0    0 -0.00000000000E+00 -0.00000000000E+00 -0.45593999997E+02  0.45594000000E+02  0.51100000000E-03 0. -1.
         23    2    1    2    0    0 -0.17763568394E-14  0.17763568394E-14  0.35527136788E-14  0.91188000000E+02  0.91188000000E+02 0.  0.
    9900012    2    3    3    0    0  0.11757557807E+02 -0.15074899615E+02 -0.31468829911E+02  0.54367081761E+02  0.39999994491E+02 0.  0.
        -12    1    3    3    0    0 -0.11757557807E+02  0.15074899615E+02  0.31468829911E+02  0.36820918239E+02  0.00000000000E+00 0.  1.
         11    1    4    4    0    0  0.38306789369E+01 -0.23388171679E+02 -0.28130302504E+02  0.36783074842E+02  0.51100000000E-03 0. -1.
        -11    1    4    4    0    0  0.90072412530E+01  0.24420109873E+01 -0.59501803583E+01  0.11067902204E+02  0.51100000000E-03 0.  1.
        -12    1    4    4    0    0 -0.10803623828E+01  0.58712610773E+01  0.26116529513E+01  0.65161047148E+01  0.00000000000E+00 0.  1.
</event>
<event>
 8    1  0.1247338E-006  0.9118800E+02  0.7816164E-02  0.1184000E+00
        -11   -1    0    0    0    0  0.00000000000E+00  0.00000000000E+00  0.45593999997E+02  0.45594000000E+02  0.51100000000E-03 0. -1.
         11   -1    0    0    0    0 -0.00000000000E+00 -0.00000000000E+00 -0.45593999997E+02  0.45594000000E+02  0.51100000000E-03 0.  1.
         23    2    1    2    0    0  0.00000000000E+00  0.00000000000E+00  0.88817841970E-15  0.91188000000E+02  0.91188000000E+02 0.  0.
    9900012    2    3    3    0    0 -0.33839757665E+02  0.13610819219E+02 -0.50396623825E+01  0.54367057649E+02  0.39999939523E+02 0.  0.
         12    1    3    3    0    0  0.33839757665E+02 -0.13610819219E+02  0.50396623825E+01  0.36820942351E+02  0.00000000000E+00 0. -1.
         11    1    4    4    0    0  0.18308798694E+01 -0.40705058083E+01  0.72198404628E+01  0.84880642787E+01  0.51100000000E-03 0. -1.
        -11    1    4    4    0    0 -0.42808596828E+01  0.73337514600E+01  0.35954235378E+01  0.92215367905E+01  0.51100000000E-03 0.  1.
        -12    1    4    4    0    0 -0.31389777852E+02  0.10347573567E+02 -0.15854926383E+02  0.36657456580E+02  0.00000000000E+00 0.  1.
</event>
<event>
 8    1  0.1247338E-006  0.9118800E+02  0.7816164E-02  0.1184000E+00
        -11   -1    0    0    0    0  0.00000000000E+00  0.00000000000E+00  0.45593999997E+02  0.45594000000E+02  0.51100000000E-03 0.  1.
         11   -1    0    0    0    0 -0.00000000000E+00 -0.00000000000E+00 -0.45593999997E+02  0.45594000000E+02  0.51100000000E-03 0. -1.
         23    2    1    2    0    0  0.00000000000E+00  0.00000000000E+00 -0.35527136788E-14  0.91188000000E+02  0.91188000000E+02 0.  0.
    9900012    2    3    3    0    0  0.17164583858E+02  0.16553398280E+02 -0.28056009674E+02  0.54367114453E+02  0.40000069020E+02 0.  0.
        -12    1    3    3    0    0 -0.17164583858E+02 -0.16553398280E+02  0.28056009674E+02  0.36820885547E+02  0.00000000000E+00 0.  1.
         11    1    4    4    0    0  0.13563150795E+02  0.92099672179E+01 -0.16161746915E+01  0.16474057683E+02  0.51100000000E-03 0. -1.
        -11    1    4    4    0    0 -0.54711071916E+01  0.50461375101E+01  0.22013307432E+01  0.77615961615E+01  0.51100000000E-03 0.  1.
         12    1    4    4    0    0  0.90725402548E+01  0.22972935515E+01 -0.28641165725E+02  0.30131460609E+02  0.00000000000E+00 0. -1.
</event>
<event>
 8    1  0.1247338E-006  0.9118800E+02  0.7816164E-02  0.1184000E+00
        -11   -1    0    0    0    0  0.00000000000E+00  0.00000000000E+00  0.45593999997E+02  0.45594000000E+02  0.51100000000E-03 0.  1.
         11   -1    0    0    0    0 -0.00000000000E+00 -0.00000000000E+00 -0.45593999997E+02  0.45594000000E+02  0.51100000000E-03 0. -1.
         23    2    1    2    0    0  0.71054273576E-14 -0.17763568394E-14 -0.88817841970E-15  0.91188000000E+02  0.91188000000E+02 0.  0.
    9900012    2    3    3    0    0  0.33413664049E+02 -0.13801756461E+02 -0.69871873736E+01  0.54367051968E+02  0.39999926570E+02 0.  0.
         12    1    3    3    0    0 -0.33413664049E+02  0.13801756461E+02  0.69871873736E+01  0.36820948032E+02  0.00000000000E+00 0. -1.
         11    1    4    4    0    0  0.31673561372E+01  0.31100173776E+01 -0.57643242550E+01  0.72754235180E+01  0.51100000000E-03 0. -1.
        -11    1    4    4    0    0  0.14062016195E+01 -0.18100348716E+02 -0.15932256594E+01  0.18224664466E+02  0.51100000000E-03 0.  1.
         12    1    4    4    0    0  0.28840106293E+02  0.11885748772E+01  0.37036254075E+00  0.28866963983E+02  0.00000000000E+00 0. -1.
</event>
<event>
 8    1  0.1247338E-006  0.9118800E+02  0.7816164E-02  0.1184000E+00
        -11   -1    0    0    0    0  0.00000000000E+00  0.00000000000E+00  0.45593999997E+02  0.45594000000E+02  0.51100000000E-03 0.  1.
         11   -1    0    0    0    0 -0.00000000000E+00 -0.00000000000E+00 -0.45593999997E+02  0.45594000000E+02  0.51100000000E-03 0. -1.
         23    2    1    2    0    0  0.00000000000E+00  0.35527136788E-14  0.44408920985E-15  0.91188000000E+02  0.91188000000E+02 0.  0.
    9900012    2    3    3    0    0 -0.36282292647E+02  0.57963652440E+01 -0.24036059180E+01  0.54367082967E+02  0.39999997240E+02 0.  0.
         12    1    3    3    0    0  0.36282292647E+02 -0.57963652440E+01  0.24036059180E+01  0.36820917033E+02  0.00000000000E+00 0. -1.
         11    1    4    4    0    0 -0.36612171497E+00  0.41780974373E+01 -0.44924358031E+01  0.61459354871E+01  0.51100000000E-03 0. -1.
        -11    1    4    4    0    0 -0.20342130619E+02 -0.15077011881E+02  0.18573372381E+01  0.25388349046E+02  0.51100000000E-03 0.  1.
        -12    1    4    4    0    0 -0.15574040312E+02  0.16695279688E+02  0.23149264698E+00  0.22832798434E+02  0.00000000000E+00 0.  1.
</event>
<event>
 8    1  0.1247338E-006  0.9118800E+02  0.7816164E-02  0.1184000E+00
        -11   -1    0    0    0    0  0.00000000000E+00  0.00000000000E+00  0.45593999997E+02  0.45594000000E+02  0.51100000000E-03 0.  1.
         11   -1    0    0    0    0 -0.00000000000E+00 -0.00000000000E+00 -0.45593999997E+02  0.45594000000E+02  0.51100000000E-03 0. -1.
         23    2    1    2    0    0  0.00000000000E+00  0.35527136788E-14  0.35527136788E-14  0.91188000000E+02  0.91188000000E+02 0.  0.
    9900012    2    3    3    0    0  0.37862869270E+01 -0.19196525961E+02 -0.31191937917E+02  0.54367087890E+02  0.40000008462E+02 0.  0.
        -12    1    3    3    0    0 -0.37862869270E+01  0.19196525961E+02  0.31191937917E+02  0.36820912110E+02  0.00000000000E+00 0.  1.
         11    1    4    4    0    0  0.91804395475E+01  0.76283824822E+01 -0.50043351763E+01  0.12942799558E+02  0.51100000000E-03 0. -1.
        -11    1    4    4    0    0  0.59426369500E+01 -0.11343289665E+02 -0.88800534300E+01  0.15583340576E+02  0.51100000000E-03 0.  1.
         12    1    4    4    0    0 -0.11336789570E+02 -0.15481618778E+02 -0.17307549310E+02  0.25840947755E+02  0.00000000000E+00 0. -1.
</event>
<event>
 8    1  0.1247338E-006  0.9118800E+02  0.7816164E-02  0.1184000E+00
        -11   -1    0    0    0    0  0.00000000000E+00  0.00000000000E+00  0.45593999997E+02  0.45594000000E+02  0.51100000000E-03 0. -1.
         11   -1    0    0    0    0 -0.00000000000E+00 -0.00000000000E+00 -0.45593999997E+02  0.45594000000E+02  0.51100000000E-03 0.  1.
         23    2    1    2    0    0 -0.35527136788E-14  0.35527136788E-14 -0.26645352591E-14  0.91188000000E+02  0.91188000000E+02 0.  0.
    9900012    2    3    3    0    0  0.30775630697E+02 -0.20182562700E+02 -0.11423607979E+01  0.54367078364E+02  0.39999986747E+02 0.  0.
         12    1    3    3    0    0 -0.30775630697E+02  0.20182562700E+02  0.11423607979E+01  0.36820921636E+02  0.00000000000E+00 0. -1.
         11    1    4    4    0    0  0.28562161840E+01  0.38554914982E+01  0.10206601110E+02  0.11278186559E+02  0.51100000000E-03 0. -1.
        -11    1    4    4    0    0  0.38536422025E+01 -0.46162471384E+01 -0.10561795702E+02  0.12153675353E+02  0.51100000000E-03 0.  1.
        -12    1    4    4    0    0  0.24065772310E+02 -0.19421807059E+02 -0.78716620599E+00  0.30935216453E+02  0.00000000000E+00 0.  1.
</event>
<event>
 8    1  0.1247338E-006  0.9118800E+02  0.7816164E-02  0.1184000E+00
        -11   -1    0    0    0    0  0.00000000000E+00  0.00000000000E+00  0.45593999997E+02  0.45594000000E+02  0.51100000000E-03 0. -1.
         11   -1    0    0    0    0 -0.00000000000E+00 -0.00000000000E+00 -0.45593999997E+02  0.45594000000E+02  0.51100000000E-03 0.  1.
         23    2    1    2    0    0  0.00000000000E+00  0.00000000000E+00 -0.17763568394E-14  0.91188000000E+02  0.91188000000E+02 0.  0.
    9900012    2    3    3    0    0  0.31608858424E+02  0.15852181400E+02  0.10264823664E+02  0.54367106599E+02  0.40000051113E+02 0.  0.
        -12    1    3    3    0    0 -0.31608858424E+02 -0.15852181400E+02 -0.10264823664E+02  0.36820893401E+02  0.00000000000E+00 0.  1.
         11    1    4    4    0    0 -0.69237752599E+00  0.41697597268E+01 -0.77660680882E+01  0.88418378536E+01  0.51100000000E-03 0.  1.
        -11    1    4    4    0    0 -0.32918903365E+01  0.31643635971E+01  0.47580672868E+01  0.65946147370E+01  0.51100000000E-03 0. -1.
         12    1    4    4    0    0  0.35593126286E+02  0.85180580764E+01  0.13272824466E+02  0.38930654008E+02  0.00000000000E+00 0. -1.
</event>
<event>
 8    1  0.1247338E-006  0.9118800E+02  0.7816164E-02  0.1184000E+00
        -11   -1    0    0    0    0  0.00000000000E+00  0.00000000000E+00  0.45593999997E+02  0.45594000000E+02  0.51100000000E-03 0.  1.
         11   -1    0    0    0    0 -0.00000000000E+00 -0.00000000000E+00 -0.45593999997E+02  0.45594000000E+02  0.51100000000E-03 0. -1.
         23    2    1    2    0    0 -0.17763568394E-14 -0.35527136788E-14 -0.35527136788E-14  0.91188000000E+02  0.91188000000E+02 0.  0.
    9900012    2    3    3    0    0 -0.12610929847E+02 -0.29192230998E+02 -0.18562264784E+02  0.54367087788E+02  0.40000008230E+02 0.  0.
        -12    1    3    3    0    0  0.12610929847E+02  0.29192230998E+02  0.18562264784E+02  0.36820912212E+02  0.00000000000E+00 0.  1.
         11    1    4    4    0    0  0.78930553030E+01 -0.10656280575E+02 -0.96637498503E+01  0.16408677556E+02  0.51100000000E-03 0. -1.
        -11    1    4    4    0    0 -0.20671308090E+01 -0.11147022255E+02 -0.13440432924E+02  0.17583354981E+02  0.51100000000E-03 0.  1.
        -12    1    4    4    0    0 -0.18436854341E+02 -0.73889281681E+01  0.45419179902E+01  0.20375055251E+02  0.00000000000E+00 0.  1.
</event>
<event>
 8    1  0.1247338E-006  0.9118800E+02  0.7816164E-02  0.1184000E+00
        -11   -1    0    0    0    0  0.00000000000E+00  0.00000000000E+00  0.45593999997E+02  0.45594000000E+02  0.51100000000E-03 0.  1.
         11   -1    0    0    0    0 -0.00000000000E+00 -0.00000000000E+00 -0.45593999997E+02  0.45594000000E+02  0.51100000000E-03 0. -1.
         23    2    1    2    0    0  0.00000000000E+00 -0.17763568394E-14  0.22204460493E-15  0.91188000000E+02  0.91188000000E+02 0.  0.
    9900012    2    3    3    0    0  0.36130387609E+02  0.69410430226E+01  0.14802971088E+01  0.54367159888E+02  0.40000172596E+02 0.  0.
         12    1    3    3    0    0 -0.36130387609E+02 -0.69410430226E+01 -0.14802971088E+01  0.36820840112E+02  0.00000000000E+00 0. -1.
         11    1    4    4    0    0 -0.35203678697E+01 -0.34590394496E+01 -0.20799717873E+01  0.53557657482E+01  0.51100000000E-03 0. -1.
        -11    1    4    4    0    0  0.18919637664E+02 -0.69783590157E+01 -0.47397639040E+01  0.20715104296E+02  0.51100000000E-03 0.  1.
        -12    1    4    4    0    0  0.20731117815E+02  0.17378441488E+02  0.83000328002E+01  0.28296289843E+02  0.00000000000E+00 0.  1.
</event>
<event>
 8    1  0.1247338E-006  0.9118800E+02  0.7816164E-02  0.1184000E+00
        -11   -1    0    0    0    0  0.00000000000E+00  0.00000000000E+00  0.45593999997E+02  0.45594000000E+02  0.51100000000E-03 0.  1.
         11   -1    0    0    0    0 -0.00000000000E+00 -0.00000000000E+00 -0.45593999997E+02  0.45594000000E+02  0.51100000000E-03 0. -1.
         23    2    1    2    0    0 -0.35527136788E-14  0.00000000000E+00  0.00000000000E+00  0.91188000000E+02  0.91188000000E+02 0.  0.
    9900012    2    3    3    0    0 -0.29831416345E+02  0.18593516604E+02  0.10961209393E+02  0.54367076978E+02  0.39999983587E+02 0.  0.
         12    1    3    3    0    0  0.29831416345E+02 -0.18593516604E+02 -0.10961209393E+02  0.36820923022E+02  0.00000000000E+00 0. -1.
         11    1    4    4    0    0  0.50395340164E+01  0.20857471129E+01  0.50535004740E+01  0.74353958485E+01  0.51100000000E-03 0. -1.
        -11    1    4    4    0    0 -0.61982628783E+01 -0.55164078595E+01  0.68569846692E+01  0.10764174720E+02  0.51100000000E-03 0.  1.
        -12    1    4    4    0    0 -0.28672687483E+02  0.22024177351E+02 -0.94927575004E+00  0.36167506410E+02  0.00000000000E+00 0.  1.
</event>
<event>
 8    1  0.1247338E-006  0.9118800E+02  0.7816164E-02  0.1184000E+00
        -11   -1    0    0    0    0  0.00000000000E+00  0.00000000000E+00  0.45593999997E+02  0.45594000000E+02  0.51100000000E-03 0.  1.
         11   -1    0    0    0    0 -0.00000000000E+00 -0.00000000000E+00 -0.45593999997E+02  0.45594000000E+02  0.51100000000E-03 0. -1.
         23    2    1    2    0    0 -0.17763568394E-14  0.00000000000E+00  0.00000000000E+00  0.91188000000E+02  0.91188000000E+02 0.  0.
    9900012    2    3    3    0    0  0.15026956503E+02  0.16846405851E+02 -0.29088847603E+02  0.54367192476E+02  0.40000246888E+02 0.  0.
        -12    1    3    3    0    0 -0.15026956503E+02 -0.16846405851E+02  0.29088847603E+02  0.36820807524E+02  0.00000000000E+00 0.  1.
         11    1    4    4    0    0 -0.55570825881E+01  0.29151706334E+01 -0.62032653838E+01  0.88238250433E+01  0.51100000000E-03 0. -1.
        -11    1    4    4    0    0  0.28200241963E+00  0.10060660646E+02 -0.22748174120E+02  0.24875205408E+02  0.51100000000E-03 0.  1.
        -12    1    4    4    0    0  0.20302036672E+02  0.38705745713E+01 -0.13740809854E+00  0.20668162025E+02  0.00000000000E+00 0.  1.
</event>
<event>
 8    1  0.1247338E-006  0.9118800E+02  0.7816164E-02  0.1184000E+00
        -11   -1    0    0    0    0  0.00000000000E+00  0.00000000000E+00  0.45593999997E+02  0.45594000000E+02  0.51100000000E-03 0.  1.
         11   -1    0    0    0    0 -0.00000000000E+00 -0.00000000000E+00 -0.45593999997E+02  0.45594000000E+02  0.51100000000E-03 0. -1.
         23    2    1    2    0    0  0.17763568394E-14  0.71054273576E-14  0.00000000000E+00  0.91188000000E+02  0.91188000000E+02 0.  0.
    9900012    2    3    3    0    0  0.11860395377E+02  0.31810085294E+02  0.14255986061E+02  0.54367032557E+02  0.39999882319E+02 0.  0.
        -12    1    3    3    0    0 -0.11860395377E+02 -0.31810085294E+02 -0.14255986061E+02  0.36820967443E+02  0.00000000000E+00 0.  1.
         11    1    4    4    0    0 -0.46055549436E+01 -0.45411318007E+01 -0.66183024552E+01  0.92539149564E+01  0.51100000000E-03 0. -1.
        -11    1    4    4    0    0  0.14061968429E+02  0.32616983911E+02  0.17964457551E+02  0.39803622083E+02  0.51100000000E-03 0.  1.
         12    1    4    4    0    0  0.24039818914E+01  0.37342331837E+01  0.29098309647E+01  0.53094955172E+01  0.00000000000E+00 0. -1.
</event>
<event>
 8    1  0.1247338E-006  0.9118800E+02  0.7816164E-02  0.1184000E+00
        -11   -1    0    0    0    0  0.00000000000E+00  0.00000000000E+00  0.45593999997E+02  0.45594000000E+02  0.51100000000E-03 0.  1.
         11   -1    0    0    0    0 -0.00000000000E+00 -0.00000000000E+00 -0.45593999997E+02  0.45594000000E+02  0.51100000000E-03 0. -1.
         23    2    1    2    0    0  0.35527136788E-14  0.00000000000E+00  0.00000000000E+00  0.91188000000E+02  0.91188000000E+02 0.  0.
    9900012    2    3    3    0    0  0.23584542516E+02 -0.21906839962E+02 -0.17878509424E+02  0.54367063265E+02  0.39999952324E+02 0.  0.
         12    1    3    3    0    0 -0.23584542516E+02  0.21906839962E+02  0.17878509424E+02  0.36820936735E+02  0.00000000000E+00 0. -1.
         11    1    4    4    0    0  0.17433033256E+02 -0.54104216695E+01 -0.21649475936E+02  0.28317540849E+02  0.51100000000E-03 0. -1.
        -11    1    4    4    0    0 -0.28090700581E+01 -0.12483810005E+02  0.82845750808E+01  0.15243705959E+02  0.51100000000E-03 0.  1.
        -12    1    4    4    0    0  0.89605793181E+01 -0.40126082882E+01 -0.45136085689E+01  0.10805816457E+02  0.00000000000E+00 0.  1.
</event>
<event>
 8    1  0.1247338E-006  0.9118800E+02  0.7816164E-02  0.1184000E+00
        -11   -1    0    0    0    0  0.00000000000E+00  0.00000000000E+00  0.45593999997E+02  0.45594000000E+02  0.51100000000E-03 0. -1.
         11   -1    0    0    0    0 -0.00000000000E+00 -0.00000000000E+00 -0.45593999997E+02  0.45594000000E+02  0.51100000000E-03 0.  1.
         23    2    1    2    0    0 -0.44408920985E-15  0.35527136788E-14 -0.71054273576E-14  0.91188000000E+02  0.91188000000E+02 0.  0.
    9900012    2    3    3    0    0 -0.24849321036E+01  0.13406828098E+02 -0.34203253083E+02  0.54367075939E+02  0.39999981218E+02 0.  0.
         12    1    3    3    0    0  0.24849321036E+01 -0.13406828098E+02  0.34203253083E+02  0.36820924061E+02  0.00000000000E+00 0. -1.
         11    1    4    4    0    0 -0.46360955994E+01  0.78787963599E+01 -0.16463930358E+02  0.18831617498E+02  0.51100000000E-03 0. -1.
        -11    1    4    4    0    0  0.11587910057E+02  0.12324462373E+02 -0.37205748100E+01  0.17320932696E+02  0.51100000000E-03 0.  1.
         12    1    4    4    0    0 -0.94367465612E+01 -0.67964306344E+01 -0.14018747915E+02  0.18214525746E+02  0.00000000000E+00 0. -1.
</event>
<event>
 8    1  0.1247338E-006  0.9118800E+02  0.7816164E-02  0.1184000E+00
        -11   -1    0    0    0    0  0.00000000000E+00  0.00000000000E+00  0.45593999997E+02  0.45594000000E+02  0.51100000000E-03 0. -1.
         11   -1    0    0    0    0 -0.00000000000E+00 -0.00000000000E+00 -0.45593999997E+02  0.45594000000E+02  0.51100000000E-03 0.  1.
         23    2    1    2    0    0  0.00000000000E+00 -0.88817841970E-15  0.35527136788E-14  0.91188000000E+02  0.91188000000E+02 0.  0.
    9900012    2    3    3    0    0 -0.31156812912E+02 -0.48602356004E+01 -0.19010831384E+02  0.54367074009E+02  0.39999976818E+02 0.  0.
        -12    1    3    3    0    0  0.31156812912E+02  0.48602356004E+01  0.19010831384E+02  0.36820925991E+02  0.00000000000E+00 0.  1.
         11    1    4    4    0    0 -0.31196159014E+02 -0.11167090763E+02 -0.16549245307E+02  0.37037572461E+02  0.51100000000E-03 0. -1.
        -11    1    4    4    0    0 -0.22360841653E+01  0.12007441784E+01 -0.86355259218E+01  0.90007870314E+01  0.51100000000E-03 0.  1.
        -12    1    4    4    0    0  0.22754302673E+01  0.51061109843E+01  0.61739398449E+01  0.83287145163E+01  0.00000000000E+00 0.  1.
</event>
<event>
 8    1  0.1247338E-006  0.9118800E+02  0.7816164E-02  0.1184000E+00
        -11   -1    0    0    0    0  0.00000000000E+00  0.00000000000E+00  0.45593999997E+02  0.45594000000E+02  0.51100000000E-03 0.  1.
         11   -1    0    0    0    0 -0.00000000000E+00 -0.00000000000E+00 -0.45593999997E+02  0.45594000000E+02  0.51100000000E-03 0. -1.
         23    2    1    2    0    0  0.35527136788E-14  0.52735593670E-15 -0.35527136788E-14  0.91188000000E+02  0.91188000000E+02 0.  0.
    9900012    2    3    3    0    0 -0.26606703887E+02  0.22249605827E+00 -0.25452185258E+02  0.54367082974E+02  0.39999997256E+02 0.  0.
        -12    1    3    3    0    0  0.26606703887E+02 -0.22249605827E+00  0.25452185258E+02  0.36820917026E+02  0.00000000000E+00 0.  1.
         11    1    4    4    0    0 -0.59148662602E+00 -0.87632143351E+00  0.27805322483E+01  0.29747530197E+01  0.51100000000E-03 0.  1.
        -11    1    4    4    0    0  0.14788714320E+01 -0.77107069282E+01  0.34082699403E+01  0.85591101343E+01  0.51100000000E-03 0. -1.
         12    1    4    4    0    0 -0.27494088693E+02  0.88095244199E+01 -0.31640987447E+02  0.42833219820E+02  0.00000000000E+00 0. -1.
</event>
<event>
 8    1  0.1247338E-006  0.9118800E+02  0.7816164E-02  0.1184000E+00
        -11   -1    0    0    0    0  0.00000000000E+00  0.00000000000E+00  0.45593999997E+02  0.45594000000E+02  0.51100000000E-03 0. -1.
         11   -1    0    0    0    0 -0.00000000000E+00 -0.00000000000E+00 -0.45593999997E+02  0.45594000000E+02  0.51100000000E-03 0.  1.
         23    2    1    2    0    0 -0.71054273576E-14  0.17763568394E-14 -0.72164496601E-15  0.91188000000E+02  0.91188000000E+02 0.  0.
    9900012    2    3    3    0    0 -0.33688773721E+02  0.14859209076E+02  0.22360791091E+00  0.54367087875E+02  0.40000008429E+02 0.  0.
        -12    1    3    3    0    0  0.33688773721E+02 -0.14859209076E+02 -0.22360791091E+00  0.36820912125E+02  0.00000000000E+00 0.  1.
         11    1    4    4    0    0  0.30724636315E+01  0.31597106762E+01 -0.78476172042E+01  0.90004944514E+01  0.51100000000E-03 0. -1.
        -11    1    4    4    0    0  0.21790545843E+01 -0.15313472414E+01 -0.16149301976E+01  0.31146914870E+01  0.51100000000E-03 0.  1.
         12    1    4    4    0    0 -0.38940291937E+02  0.13230845642E+02  0.96861553128E+01  0.42251901937E+02  0.00000000000E+00 0. -1.
</event>
<event>
 8    1  0.1247338E-006  0.9118800E+02  0.7816164E-02  0.1184000E+00
        -11   -1    0    0    0    0  0.00000000000E+00  0.00000000000E+00  0.45593999997E+02  0.45594000000E+02  0.51100000000E-03 0.  1.
         11   -1    0    0    0    0 -0.00000000000E+00 -0.00000000000E+00 -0.45593999997E+02  0.45594000000E+02  0.51100000000E-03 0. -1.
         23    2    1    2    0    0  0.88817841970E-15  0.00000000000E+00  0.00000000000E+00  0.91188000000E+02  0.91188000000E+02 0.  0.
    9900012    2    3    3    0    0  0.17973576524E+01 -0.35560191717E+02 -0.93824637639E+01  0.54366968567E+02  0.39999736441E+02 0.  0.
        -12    1    3    3    0    0 -0.17973576524E+01  0.35560191717E+02  0.93824637639E+01  0.36821031433E+02  0.00000000000E+00 0.  1.
         11    1    4    4    0    0  0.12754725204E+01 -0.19727142377E+02 -0.30880941816E+01  0.20008080929E+02  0.51100000000E-03 0. -1.
        -11    1    4    4    0    0 -0.10061105334E+02 -0.17762093169E+02  0.23637350134E+01  0.20550061747E+02  0.51100000000E-03 0.  1.
        -12    1    4    4    0    0  0.10582990466E+02  0.19290438295E+01 -0.86581045957E+01  0.13808825891E+02  0.00000000000E+00 0.  1.
</event>
<event>
 8    1  0.1247338E-006  0.9118800E+02  0.7816164E-02  0.1184000E+00
        -11   -1    0    0    0    0  0.00000000000E+00  0.00000000000E+00  0.45593999997E+02  0.45594000000E+02  0.51100000000E-03 0.  1.
         11   -1    0    0    0    0 -0.00000000000E+00 -0.00000000000E+00 -0.45593999997E+02  0.45594000000E+02  0.51100000000E-03 0. -1.
         23    2    1    2    0    0  0.17763568394E-14  0.35527136788E-14  0.00000000000E+00  0.91188000000E+02  0.91188000000E+02 0.  0.
    9900012    2    3    3    0    0  0.40873598959E+01  0.17099866624E+02 -0.32352230759E+02  0.54367098536E+02  0.40000032734E+02 0.  0.
        -12    1    3    3    0    0 -0.40873598959E+01 -0.17099866624E+02  0.32352230759E+02  0.36820901464E+02  0.00000000000E+00 0.  1.
         11    1    4    4    0    0  0.41560302298E+00  0.14161856448E+01 -0.34302933071E+02  0.34334669435E+02  0.51100000000E-03 0. -1.
        -11    1    4    4    0    0  0.68817838843E+01  0.13860762343E+02 -0.69499767197E+00  0.15490729621E+02  0.51100000000E-03 0.  1.
         12    1    4    4    0    0 -0.32100270114E+01  0.18229186364E+01  0.26456999839E+01  0.45416994808E+01  0.00000000000E+00 0. -1.
</event>
<event>
 8    1  0.1247338E-006  0.9118800E+02  0.7816164E-02  0.1184000E+00
        -11   -1    0    0    0    0  0.00000000000E+00  0.00000000000E+00  0.45593999997E+02  0.45594000000E+02  0.51100000000E-03 0. -1.
         11   -1    0    0    0    0 -0.00000000000E+00 -0.00000000000E+00 -0.45593999997E+02  0.45594000000E+02  0.51100000000E-03 0.  1.
         23    2    1    2    0    0  0.35527136788E-14 -0.35527136788E-14 -0.17763568394E-14  0.91188000000E+02  0.91188000000E+02 0.  0.
    9900012    2    3    3    0    0 -0.27313663436E+02  0.21492242850E+02  0.12158415124E+02  0.54367085137E+02  0.40000002186E+02 0.  0.
        -12    1    3    3    0    0  0.27313663436E+02 -0.21492242850E+02 -0.12158415124E+02  0.36820914863E+02  0.00000000000E+00 0.  1.
         11    1    4    4    0    0 -0.28106906884E+02  0.26344153859E+01  0.12819902585E+02  0.31004649031E+02  0.51100000000E-03 0. -1.
        -11    1    4    4    0    0 -0.64537963200E+01  0.89239040446E+01 -0.10247208812E+01  0.11060633051E+02  0.51100000000E-03 0.  1.
        -12    1    4    4    0    0  0.72470397673E+01  0.99339234192E+01  0.36323342038E+00  0.12301803055E+02  0.00000000000E+00 0.  1.
</event>
<event>
 8    1  0.1247338E-006  0.9118800E+02  0.7816164E-02  0.1184000E+00
        -11   -1    0    0    0    0  0.00000000000E+00  0.00000000000E+00  0.45593999997E+02  0.45594000000E+02  0.51100000000E-03 0. -1.
         11   -1    0    0    0    0 -0.00000000000E+00 -0.00000000000E+00 -0.45593999997E+02  0.45594000000E+02  0.51100000000E-03 0.  1.
         23    2    1    2    0    0  0.00000000000E+00  0.11102230246E-15  0.11102230246E-14  0.91188000000E+02  0.91188000000E+02 0.  0.
    9900012    2    3    3    0    0  0.36771046300E+02  0.70241340032E+00  0.17826649641E+01  0.54367066756E+02  0.39999960285E+02 0.  0.
        -12    1    3    3    0    0 -0.36771046300E+02 -0.70241340032E+00 -0.17826649641E+01  0.36820933244E+02  0.00000000000E+00 0.  1.
         11    1    4    4    0    0  0.35237748061E+01 -0.72252572378E+00  0.11663668005E+02  0.12205743889E+02  0.51100000000E-03 0. -1.
        -11    1    4    4    0    0 -0.77820965440E+00  0.59718651254E+01 -0.42587278898E+01  0.73760115810E+01  0.51100000000E-03 0.  1.
         12    1    4    4    0    0  0.34025481148E+02 -0.45469260013E+01 -0.56222751507E+01  0.34785311286E+02  0.00000000000E+00 0. -1.
</event>
<event>
 8    1  0.1247338E-006  0.9118800E+02  0.7816164E-02  0.1184000E+00
        -11   -1    0    0    0    0  0.00000000000E+00  0.00000000000E+00  0.45593999997E+02  0.45594000000E+02  0.51100000000E-03 0. -1.
         11   -1    0    0    0    0 -0.00000000000E+00 -0.00000000000E+00 -0.45593999997E+02  0.45594000000E+02  0.51100000000E-03 0.  1.
         23    2    1    2    0    0  0.35527136788E-14  0.35527136788E-14  0.00000000000E+00  0.91188000000E+02  0.91188000000E+02 0.  0.
    9900012    2    3    3    0    0  0.22933090259E+02  0.23968836280E+02  0.15979612542E+02  0.54367085312E+02  0.40000002587E+02 0.  0.
        -12    1    3    3    0    0 -0.22933090259E+02 -0.23968836280E+02 -0.15979612542E+02  0.36820914688E+02  0.00000000000E+00 0.  1.
         11    1    4    4    0    0  0.12519460263E+02 -0.15559070461E+01  0.71765472862E+01  0.14514150448E+02  0.51100000000E-03 0. -1.
        -11    1    4    4    0    0  0.16240594023E+02  0.92082371538E+01 -0.29720517542E+01  0.18904539602E+02  0.51100000000E-03 0.  1.
         12    1    4    4    0    0 -0.58269640273E+01  0.16316506172E+02  0.11775117010E+02  0.20948395262E+02  0.00000000000E+00 0. -1.
</event>
<event>
 8    1  0.1247338E-006  0.9118800E+02  0.7816164E-02  0.1184000E+00
        -11   -1    0    0    0    0  0.00000000000E+00  0.00000000000E+00  0.45593999997E+02  0.45594000000E+02  0.51100000000E-03 0. -1.
         11   -1    0    0    0    0 -0.00000000000E+00 -0.00000000000E+00 -0.45593999997E+02  0.45594000000E+02  0.51100000000E-03 0.  1.
         23    2    1    2    0    0  0.00000000000E+00  0.17763568394E-14  0.00000000000E+00  0.91188000000E+02  0.91188000000E+02 0.  0.
    9900012    2    3    3    0    0  0.17417868371E+02  0.15968877749E+02  0.28238127108E+02  0.54367095371E+02  0.40000025516E+02 0.  0.
         12    1    3    3    0    0 -0.17417868371E+02 -0.15968877749E+02 -0.28238127108E+02  0.36820904629E+02  0.00000000000E+00 0. -1.
         11    1    4    4    0    0  0.85636990850E+01  0.45796916147E+01  0.20451152452E+02  0.22639791390E+02  0.51100000000E-03 0. -1.
        -11    1    4    4    0    0  0.16234057005E+02  0.10526068919E+02 -0.19870552591E+01  0.19449707520E+02  0.51100000000E-03 0.  1.
        -12    1    4    4    0    0 -0.73798877193E+01  0.86311721589E+00  0.97740299152E+01  0.12277596461E+02  0.00000000000E+00 0.  1.
</event>
<event>
 8    1  0.1247338E-006  0.9118800E+02  0.7816164E-02  0.1184000E+00
        -11   -1    0    0    0    0  0.00000000000E+00  0.00000000000E+00  0.45593999997E+02  0.45594000000E+02  0.51100000000E-03 0.  1.
         11   -1    0    0    0    0 -0.00000000000E+00 -0.00000000000E+00 -0.45593999997E+02  0.45594000000E+02  0.51100000000E-03 0. -1.
         23    2    1    2    0    0  0.00000000000E+00  0.00000000000E+00  0.00000000000E+00  0.91188000000E+02  0.91188000000E+02 0.  0.
    9900012    2    3    3    0    0 -0.20058171826E+02 -0.23870688986E+02 -0.19586722349E+02  0.54367085535E+02  0.40000003095E+02 0.  0.
        -12    1    3    3    0    0  0.20058171826E+02  0.23870688986E+02  0.19586722349E+02  0.36820914465E+02  0.00000000000E+00 0.  1.
         11    1    4    4    0    0 -0.41362437308E+01 -0.83648032097E+01 -0.95469167533E+01  0.13349983696E+02  0.51100000000E-03 0. -1.
        -11    1    4    4    0    0 -0.19198400753E+01 -0.20399785310E+02  0.36733851881E+01  0.20816598800E+02  0.51100000000E-03 0.  1.
        -12    1    4    4    0    0 -0.14002088020E+02  0.48938995336E+01 -0.13713190783E+02  0.20200503039E+02  0.00000000000E+00 0.  1.
</event>
<event>
 8    1  0.1247338E-006  0.9118800E+02  0.7816164E-02  0.1184000E+00
        -11   -1    0    0    0    0  0.00000000000E+00  0.00000000000E+00  0.45593999997E+02  0.45594000000E+02  0.51100000000E-03 0.  1.
         11   -1    0    0    0    0 -0.00000000000E+00 -0.00000000000E+00 -0.45593999997E+02  0.45594000000E+02  0.51100000000E-03 0. -1.
         23    2    1    2    0    0 -0.13322676296E-14  0.00000000000E+00  0.44408920985E-15  0.91188000000E+02  0.91188000000E+02 0.  0.
    9900012    2    3    3    0    0  0.39717647610E+01 -0.36389709339E+02 -0.39741110794E+01  0.54367089908E+02  0.40000013064E+02 0.  0.
         12    1    3    3    0    0 -0.39717647610E+01  0.36389709339E+02  0.39741110794E+01  0.36820910092E+02  0.00000000000E+00 0. -1.
         11    1    4    4    0    0  0.81564424988E+01 -0.92439452021E+01 -0.21987916728E+01  0.12522490256E+02  0.51100000000E-03 0.  1.
        -11    1    4    4    0    0 -0.13064864878E+02 -0.10323708091E+00 -0.28040093801E+01  0.13362777444E+02  0.51100000000E-03 0. -1.
        -12    1    4    4    0    0  0.88801871397E+01 -0.27042527056E+02  0.10286899735E+01  0.28481822208E+02  0.00000000000E+00 0.  1.
</event>
<event>
 8    1  0.1247338E-006  0.9118800E+02  0.7816164E-02  0.1184000E+00
        -11   -1    0    0    0    0  0.00000000000E+00  0.00000000000E+00  0.45593999997E+02  0.45594000000E+02  0.51100000000E-03 0. -1.
         11   -1    0    0    0    0 -0.00000000000E+00 -0.00000000000E+00 -0.45593999997E+02  0.45594000000E+02  0.51100000000E-03 0.  1.
         23    2    1    2    0    0 -0.35527136788E-14  0.00000000000E+00 -0.88817841970E-15  0.91188000000E+02  0.91188000000E+02 0.  0.
    9900012    2    3    3    0    0 -0.25665057039E+02  0.26044962426E+02 -0.43294804834E+01  0.54367087167E+02  0.40000006814E+02 0.  0.
        -12    1    3    3    0    0  0.25665057039E+02 -0.26044962426E+02  0.43294804834E+01  0.36820912833E+02  0.00000000000E+00 0.  1.
         11    1    4    4    0    0 -0.29290228830E+02  0.14575499070E+02  0.96731918673E+01  0.34116466981E+02  0.51100000000E-03 0. -1.
        -11    1    4    4    0    0  0.23599348864E+01  0.99656451267E+01 -0.57043455150E+01  0.11722752811E+02  0.51100000000E-03 0.  1.
         12    1    4    4    0    0  0.12652369043E+01  0.15038182292E+01 -0.82983268357E+01  0.85278673748E+01  0.00000000000E+00 0. -1.
</event>
<event>
 8    1  0.1247338E-006  0.9118800E+02  0.7816164E-02  0.1184000E+00
        -11   -1    0    0    0    0  0.00000000000E+00  0.00000000000E+00  0.45593999997E+02  0.45594000000E+02  0.51100000000E-03 0.  1.
         11   -1    0    0    0    0 -0.00000000000E+00 -0.00000000000E+00 -0.45593999997E+02  0.45594000000E+02  0.51100000000E-03 0. -1.
         23    2    1    2    0    0  0.00000000000E+00  0.00000000000E+00  0.35527136788E-14  0.91188000000E+02  0.91188000000E+02 0.  0.
    9900012    2    3    3    0    0  0.24292205864E+02 -0.18380731255E+02  0.20683736675E+02  0.54367088685E+02  0.40000010276E+02 0.  0.
         12    1    3    3    0    0 -0.24292205864E+02  0.18380731255E+02 -0.20683736675E+02  0.36820911315E+02  0.00000000000E+00 0. -1.
         11    1    4    4    0    0  0.80051152951E+01 -0.21555936697E+02  0.18709373581E+01  0.23070342100E+02  0.51100000000E-03 0. -1.
        -11    1    4    4    0    0  0.11277900324E+02  0.87028144354E+01  0.41370214318E+01  0.14833912545E+02  0.51100000000E-03 0.  1.
        -12    1    4    4    0    0  0.50091902452E+01 -0.55276089942E+01  0.14675777885E+02  0.16462834040E+02  0.00000000000E+00 0.  1.
</event>
<event>
 8    1  0.1247338E-006  0.9118800E+02  0.7816164E-02  0.1184000E+00
        -11   -1    0    0    0    0  0.00000000000E+00  0.00000000000E+00  0.45593999997E+02  0.45594000000E+02  0.51100000000E-03 0.  1.
         11   -1    0    0    0    0 -0.00000000000E+00 -0.00000000000E+00 -0.45593999997E+02  0.45594000000E+02  0.51100000000E-03 0. -1.
         23    2    1    2    0    0  0.00000000000E+00  0.00000000000E+00  0.88817841970E-15  0.91188000000E+02  0.91188000000E+02 0.  0.
    9900012    2    3    3    0    0 -0.27851986918E+02  0.22953313168E+02  0.72932969563E+01  0.54367082832E+02  0.39999996931E+02 0.  0.
         12    1    3    3    0    0  0.27851986918E+02 -0.22953313168E+02 -0.72932969563E+01  0.36820917168E+02  0.00000000000E+00 0. -1.
         11    1    4    4    0    0 -0.71355223452E+01  0.14240099870E+02  0.57634030747E+01  0.16938504618E+02  0.51100000000E-03 0. -1.
        -11    1    4    4    0    0 -0.15288283028E+02  0.11044015734E+02  0.14094323827E+02  0.23544677655E+02  0.51100000000E-03 0.  1.
         12    1    4    4    0    0 -0.54281815440E+01 -0.23308024357E+01 -0.12564429945E+02  0.13883900558E+02  0.00000000000E+00 0. -1.
</event>
<event>
 8    1  0.1247338E-006  0.9118800E+02  0.7816164E-02  0.1184000E+00
        -11   -1    0    0    0    0  0.00000000000E+00  0.00000000000E+00  0.45593999997E+02  0.45594000000E+02  0.51100000000E-03 0.  1.
         11   -1    0    0    0    0 -0.00000000000E+00 -0.00000000000E+00 -0.45593999997E+02  0.45594000000E+02  0.51100000000E-03 0. -1.
         23    2    1    2    0    0 -0.17763568394E-14  0.00000000000E+00  0.71054273576E-14  0.91188000000E+02  0.91188000000E+02 0.  0.
    9900012    2    3    3    0    0  0.14506836796E+02  0.11566905835E+02 -0.31804677525E+02  0.54367093753E+02  0.40000021829E+02 0.  0.
        -12    1    3    3    0    0 -0.14506836796E+02 -0.11566905835E+02  0.31804677525E+02  0.36820906247E+02  0.00000000000E+00 0.  1.
         11    1    4    4    0    0 -0.92248939731E-01 -0.21128595077E+01 -0.80061000820E+01  0.82807200140E+01  0.51100000000E-03 0. -1.
        -11    1    4    4    0    0 -0.10443288342E+02  0.50324188782E+01 -0.19699612682E+01  0.11758752435E+02  0.51100000000E-03 0.  1.
        -12    1    4    4    0    0  0.25042374078E+02  0.86473464643E+01 -0.21828616174E+02  0.34327621304E+02  0.00000000000E+00 0.  1.
</event>
<event>
 8    1  0.1247338E-006  0.9118800E+02  0.7816164E-02  0.1184000E+00
        -11   -1    0    0    0    0  0.00000000000E+00  0.00000000000E+00  0.45593999997E+02  0.45594000000E+02  0.51100000000E-03 0. -1.
         11   -1    0    0    0    0 -0.00000000000E+00 -0.00000000000E+00 -0.45593999997E+02  0.45594000000E+02  0.51100000000E-03 0.  1.
         23    2    1    2    0    0 -0.17763568394E-14  0.71054273576E-14 -0.17763568394E-14  0.91188000000E+02  0.91188000000E+02 0.  0.
    9900012    2    3    3    0    0 -0.11816379526E+02  0.34441334293E+02 -0.54723768316E+01  0.54367092336E+02  0.40000018598E+02 0.  0.
         12    1    3    3    0    0  0.11816379526E+02 -0.34441334293E+02  0.54723768316E+01  0.36820907664E+02  0.00000000000E+00 0. -1.
         11    1    4    4    0    0 -0.67905310976E+01  0.20242629907E+02 -0.23997717390E+01  0.21485676224E+02  0.51100000000E-03 0. -1.
        -11    1    4    4    0    0 -0.31011036639E+00  0.13356858280E+02 -0.14964560865E+02  0.20060905107E+02  0.51100000000E-03 0.  1.
         12    1    4    4    0    0 -0.47157380622E+01  0.84184610636E+00  0.11891955772E+02  0.12820511005E+02  0.00000000000E+00 0. -1.
</event>
<event>
 8    1  0.1247338E-006  0.9118800E+02  0.7816164E-02  0.1184000E+00
        -11   -1    0    0    0    0  0.00000000000E+00  0.00000000000E+00  0.45593999997E+02  0.45594000000E+02  0.51100000000E-03 0.  1.
         11   -1    0    0    0    0 -0.00000000000E+00 -0.00000000000E+00 -0.45593999997E+02  0.45594000000E+02  0.51100000000E-03 0. -1.
         23    2    1    2    0    0  0.00000000000E+00  0.00000000000E+00 -0.71054273576E-14  0.91188000000E+02  0.91188000000E+02 0.  0.
    9900012    2    3    3    0    0 -0.72202841889E+01  0.46754238323E+01  0.35802062522E+02  0.54367085119E+02  0.40000002147E+02 0.  0.
         12    1    3    3    0    0  0.72202841889E+01 -0.46754238323E+01 -0.35802062522E+02  0.36820914881E+02  0.00000000000E+00 0. -1.
         11    1    4    4    0    0  0.15068865359E+01  0.18519018582E+02  0.12517580957E+02  0.22403450394E+02  0.51100000000E-03 0. -1.
        -11    1    4    4    0    0  0.96572235015E+00  0.20519932858E+01  0.65458536905E+01  0.69275895448E+01  0.51100000000E-03 0.  1.
        -12    1    4    4    0    0 -0.96928930749E+01 -0.15895588036E+02  0.16738627875E+02  0.25036045181E+02  0.00000000000E+00 0.  1.
</event>
<event>
 8    1  0.1247338E-006  0.9118800E+02  0.7816164E-02  0.1184000E+00
        -11   -1    0    0    0    0  0.00000000000E+00  0.00000000000E+00  0.45593999997E+02  0.45594000000E+02  0.51100000000E-03 0.  1.
         11   -1    0    0    0    0 -0.00000000000E+00 -0.00000000000E+00 -0.45593999997E+02  0.45594000000E+02  0.51100000000E-03 0. -1.
         23    2    1    2    0    0 -0.88817841970E-15  0.00000000000E+00  0.16653345369E-15  0.91188000000E+02  0.91188000000E+02 0.  0.
    9900012    2    3    3    0    0  0.20276727835E+01 -0.36763135442E+02 -0.37904864546E+00  0.54367037733E+02  0.39999894119E+02 0.  0.
        -12    1    3    3    0    0 -0.20276727835E+01  0.36763135442E+02  0.37904864546E+00  0.36820962267E+02  0.00000000000E+00 0.  1.
         11    1    4    4    0    0 -0.11642428627E+02 -0.57253850385E+01 -0.10575511039E+02  0.16738208153E+02  0.51100000000E-03 0. -1.
        -11    1    4    4    0    0  0.46460096740E+00 -0.10815281391E+02  0.78313712885E+01  0.13361008276E+02  0.51100000000E-03 0.  1.
         12    1    4    4    0    0  0.13205500443E+02 -0.20222469012E+02  0.23650911053E+01  0.24267821304E+02  0.00000000000E+00 0. -1.
</event>
<event>
 8    1  0.1247338E-006  0.9118800E+02  0.7816164E-02  0.1184000E+00
        -11   -1    0    0    0    0  0.00000000000E+00  0.00000000000E+00  0.45593999997E+02  0.45594000000E+02  0.51100000000E-03 0.  1.
         11   -1    0    0    0    0 -0.00000000000E+00 -0.00000000000E+00 -0.45593999997E+02  0.45594000000E+02  0.51100000000E-03 0. -1.
         23    2    1    2    0    0 -0.88817841970E-15  0.44408920985E-15  0.00000000000E+00  0.91188000000E+02  0.91188000000E+02 0.  0.
    9900012    2    3    3    0    0  0.74049532727E+01  0.32284043629E+01  0.35923847991E+02  0.54367098569E+02  0.40000032808E+02 0.  0.
         12    1    3    3    0    0 -0.74049532727E+01 -0.32284043629E+01 -0.35923847991E+02  0.36820901431E+02  0.00000000000E+00 0. -1.
         11    1    4    4    0    0 -0.40167226957E+01 -0.11006055835E+02 -0.16560054783E+01  0.11832568642E+02  0.51100000000E-03 0. -1.
        -11    1    4    4    0    0  0.10550757890E+02  0.10826426786E+02  0.22904559048E+02  0.27443557249E+02  0.51100000000E-03 0.  1.
         12    1    4    4    0    0  0.87091807830E+00  0.34080334122E+01  0.14675294421E+02  0.15090972678E+02  0.00000000000E+00 0. -1.
</event>
<event>
 8    1  0.1247338E-006  0.9118800E+02  0.7816164E-02  0.1184000E+00
        -11   -1    0    0    0    0  0.00000000000E+00  0.00000000000E+00  0.45593999997E+02  0.45594000000E+02  0.51100000000E-03 0. -1.
         11   -1    0    0    0    0 -0.00000000000E+00 -0.00000000000E+00 -0.45593999997E+02  0.45594000000E+02  0.51100000000E-03 0.  1.
         23    2    1    2    0    0  0.35527136788E-14  0.00000000000E+00 -0.17763568394E-14  0.91188000000E+02  0.91188000000E+02 0.  0.
    9900012    2    3    3    0    0  0.26592404829E+02  0.21435315361E+02 -0.13753294951E+02  0.54367056758E+02  0.39999937492E+02 0.  0.
         12    1    3    3    0    0 -0.26592404829E+02 -0.21435315361E+02  0.13753294951E+02  0.36820943242E+02  0.00000000000E+00 0. -1.
         11    1    4    4    0    0  0.16153552131E+02  0.23984264039E+02 -0.24407120570E+01  0.29019635483E+02  0.51100000000E-03 0. -1.
        -11    1    4    4    0    0  0.13528965697E+02  0.15352972892E+01 -0.14029086660E+02  0.19550072209E+02  0.51100000000E-03 0.  1.
        -12    1    4    4    0    0 -0.30901129998E+01 -0.40842459679E+01  0.27165037663E+01  0.57973490657E+01  0.00000000000E+00 0.  1.
</event>
<event>
 8    1  0.1247338E-006  0.9118800E+02  0.7816164E-02  0.1184000E+00
        -11   -1    0    0    0    0  0.00000000000E+00  0.00000000000E+00  0.45593999997E+02  0.45594000000E+02  0.51100000000E-03 0.  1.
         11   -1    0    0    0    0 -0.00000000000E+00 -0.00000000000E+00 -0.45593999997E+02  0.45594000000E+02  0.51100000000E-03 0. -1.
         23    2    1    2    0    0  0.00000000000E+00  0.00000000000E+00  0.00000000000E+00  0.91188000000E+02  0.91188000000E+02 0.  0.
    9900012    2    3    3    0    0 -0.16361475739E+02 -0.30470486009E+02 -0.12634523210E+02  0.54367087698E+02  0.40000008026E+02 0.  0.
        -12    1    3    3    0    0  0.16361475739E+02  0.30470486009E+02  0.12634523210E+02  0.36820912302E+02  0.00000000000E+00 0.  1.
         11    1    4    4    0    0  0.95864167780E+01 -0.20447863159E+02 -0.30418028207E+01  0.22787432042E+02  0.51100000000E-03 0. -1.
        -11    1    4    4    0    0 -0.53012689242E+01 -0.75413770428E+01 -0.39771115840E+01  0.10039583493E+02  0.51100000000E-03 0.  1.
        -12    1    4    4    0    0 -0.20646623593E+02 -0.24812458073E+01 -0.56156088057E+01  0.21540072163E+02  0.00000000000E+00 0.  1.
</event>
<event>
 8    1  0.1247338E-006  0.9118800E+02  0.7816164E-02  0.1184000E+00
        -11   -1    0    0    0    0  0.00000000000E+00  0.00000000000E+00  0.45593999997E+02  0.45594000000E+02  0.51100000000E-03 0.  1.
         11   -1    0    0    0    0 -0.00000000000E+00 -0.00000000000E+00 -0.45593999997E+02  0.45594000000E+02  0.51100000000E-03 0. -1.
         23    2    1    2    0    0  0.00000000000E+00  0.00000000000E+00  0.00000000000E+00  0.91188000000E+02  0.91188000000E+02 0.  0.
    9900012    2    3    3    0    0  0.34840571119E+02 -0.73183119698E+01 -0.93997238742E+01  0.54367110618E+02  0.40000060275E+02 0.  0.
        -12    1    3    3    0    0 -0.34840571119E+02  0.73183119698E+01  0.93997238742E+01  0.36820889382E+02  0.00000000000E+00 0.  1.
         11    1    4    4    0    0  0.93607270500E+01  0.68089415355E+01 -0.28922312560E+01  0.11931047634E+02  0.51100000000E-03 0. -1.
        -11    1    4    4    0    0  0.17579227442E+02 -0.15217364420E+01  0.99452732476E+01  0.20254712526E+02  0.51100000000E-03 0.  1.
        -12    1    4    4    0    0  0.79006166268E+01 -0.12605517063E+02 -0.16452765866E+02  0.22181350458E+02  0.00000000000E+00 0.  1.
</event>
<event>
 8    1  0.1247338E-006  0.9118800E+02  0.7816164E-02  0.1184000E+00
        -11   -1    0    0    0    0  0.00000000000E+00  0.00000000000E+00  0.45593999997E+02  0.45594000000E+02  0.51100000000E-03 0.  1.
         11   -1    0    0    0    0 -0.00000000000E+00 -0.00000000000E+00 -0.45593999997E+02  0.45594000000E+02  0.51100000000E-03 0. -1.
         23    2    1    2    0    0 -0.35527136788E-14  0.00000000000E+00  0.00000000000E+00  0.91188000000E+02  0.91188000000E+02 0.  0.
    9900012    2    3    3    0    0 -0.15035270924E+02  0.94309319203E+01 -0.32261131895E+02  0.54367048358E+02  0.39999918343E+02 0.  0.
        -12    1    3    3    0    0  0.15035270924E+02 -0.94309319203E+01  0.32261131895E+02  0.36820951642E+02  0.00000000000E+00 0.  1.
         11    1    4    4    0    0  0.62332767278E+00 -0.15615005976E+01  0.44261808412E+01  0.47347543341E+01  0.51100000000E-03 0. -1.
        -11    1    4    4    0    0 -0.92372461910E+00  0.17346620771E+02 -0.18468218130E+02  0.25354163376E+02  0.51100000000E-03 0.  1.
         12    1    4    4    0    0 -0.14734873978E+02 -0.63541882534E+01 -0.18219094606E+02  0.24278130648E+02  0.00000000000E+00 0. -1.
</event>
<event>
 8    1  0.1247338E-006  0.9118800E+02  0.7816164E-02  0.1184000E+00
        -11   -1    0    0    0    0  0.00000000000E+00  0.00000000000E+00  0.45593999997E+02  0.45594000000E+02  0.51100000000E-03 0. -1.
         11   -1    0    0    0    0 -0.00000000000E+00 -0.00000000000E+00 -0.45593999997E+02  0.45594000000E+02  0.51100000000E-03 0.  1.
         23    2    1    2    0    0 -0.35527136788E-14  0.88817841970E-15  0.35527136788E-14  0.91188000000E+02  0.91188000000E+02 0.  0.
    9900012    2    3    3    0    0  0.21508101420E+02 -0.59604011826E+01 -0.29285762014E+02  0.54367072993E+02  0.39999974502E+02 0.  0.
         12    1    3    3    0    0 -0.21508101420E+02  0.59604011826E+01  0.29285762014E+02  0.36820927007E+02  0.00000000000E+00 0. -1.
         11    1    4    4    0    0 -0.74259388252E+01 -0.77015588930E+00  0.58815025964E+00  0.74889003545E+01  0.51100000000E-03 0. -1.
        -11    1    4    4    0    0  0.18024591982E+02  0.27618586715E+01 -0.27760256510E+02  0.33213636073E+02  0.51100000000E-03 0.  1.
        -12    1    4    4    0    0  0.10909448263E+02 -0.79521039648E+01 -0.21136557637E+01  0.13664536566E+02  0.00000000000E+00 0.  1.
</event>
<event>
 8    1  0.1247338E-006  0.9118800E+02  0.7816164E-02  0.1184000E+00
        -11   -1    0    0    0    0  0.00000000000E+00  0.00000000000E+00  0.45593999997E+02  0.45594000000E+02  0.51100000000E-03 0.  1.
         11   -1    0    0    0    0 -0.00000000000E+00 -0.00000000000E+00 -0.45593999997E+02  0.45594000000E+02  0.51100000000E-03 0. -1.
         23    2    1    2    0    0  0.00000000000E+00  0.71054273576E-14  0.00000000000E+00  0.91188000000E+02  0.91188000000E+02 0.  0.
    9900012    2    3    3    0    0  0.82868987665E+01  0.23024981693E+02  0.27512866037E+02  0.54367078356E+02  0.39999986729E+02 0.  0.
         12    1    3    3    0    0 -0.82868987665E+01 -0.23024981693E+02 -0.27512866037E+02  0.36820921644E+02  0.00000000000E+00 0. -1.
         11    1    4    4    0    0 -0.33543689336E+01  0.11623920179E+02  0.53806055023E+00  0.12110194907E+02  0.51100000000E-03 0. -1.
        -11    1    4    4    0    0  0.96234436789E+01 -0.47881036219E+01  0.19326833316E-01  0.10748812880E+02  0.51100000000E-03 0.  1.
        -12    1    4    4    0    0  0.20178240212E+01  0.16189165136E+02  0.26955478654E+02  0.31508070570E+02  0.00000000000E+00 0.  1.
</event>
<event>
 8    1  0.1247338E-006  0.9118800E+02  0.7816164E-02  0.1184000E+00
        -11   -1    0    0    0    0  0.00000000000E+00  0.00000000000E+00  0.45593999997E+02  0.45594000000E+02  0.51100000000E-03 0. -1.
         11   -1    0    0    0    0 -0.00000000000E+00 -0.00000000000E+00 -0.45593999997E+02  0.45594000000E+02  0.51100000000E-03 0.  1.
         23    2    1    2    0    0  0.00000000000E+00  0.00000000000E+00  0.00000000000E+00  0.91188000000E+02  0.91188000000E+02 0.  0.
    9900012    2    3    3    0    0 -0.28170342164E+02 -0.79879156722E+01  0.22325011375E+02  0.54367066995E+02  0.39999960830E+02 0.  0.
        -12    1    3    3    0    0  0.28170342164E+02  0.79879156722E+01 -0.22325011375E+02  0.36820933005E+02  0.00000000000E+00 0.  1.
         11    1    4    4    0    0 -0.65142909705E+01  0.39717276133E+01  0.47795638523E+01  0.90030460380E+01  0.51100000000E-03 0. -1.
        -11    1    4    4    0    0 -0.92102070836E+01  0.54460483397E+01  0.21114458411E+02  0.23670819827E+02  0.51100000000E-03 0.  1.
         12    1    4    4    0    0 -0.12445844110E+02 -0.17405691625E+02 -0.35690108883E+01  0.21693201131E+02  0.00000000000E+00 0. -1.
</event>
<event>
 8    1  0.1247338E-006  0.9118800E+02  0.7816164E-02  0.1184000E+00
        -11   -1    0    0    0    0  0.00000000000E+00  0.00000000000E+00  0.45593999997E+02  0.45594000000E+02  0.51100000000E-03 0.  1.
         11   -1    0    0    0    0 -0.00000000000E+00 -0.00000000000E+00 -0.45593999997E+02  0.45594000000E+02  0.51100000000E-03 0. -1.
         23    2    1    2    0    0  0.00000000000E+00  0.00000000000E+00  0.35527136788E-14  0.91188000000E+02  0.91188000000E+02 0.  0.
    9900012    2    3    3    0    0  0.29557563510E+02  0.12692923979E+02  0.17917042990E+02  0.54367077832E+02  0.39999985533E+02 0.  0.
         12    1    3    3    0    0 -0.29557563510E+02 -0.12692923979E+02 -0.17917042990E+02  0.36820922168E+02  0.00000000000E+00 0. -1.
         11    1    4    4    0    0 -0.29999144695E+01  0.52722333826E+00 -0.76465361471E+01  0.82308545475E+01  0.51100000000E-03 0.  1.
        -11    1    4    4    0    0  0.21435597672E+01 -0.13116084884E+01  0.82700249921E+01  0.86434066741E+01  0.51100000000E-03 0. -1.
        -12    1    4    4    0    0  0.30413918213E+02  0.13477309129E+02  0.17293554145E+02  0.37492816610E+02  0.00000000000E+00 0.  1.
</event>
<event>
 8    1  0.1247338E-006  0.9118800E+02  0.7816164E-02  0.1184000E+00
        -11   -1    0    0    0    0  0.00000000000E+00  0.00000000000E+00  0.45593999997E+02  0.45594000000E+02  0.51100000000E-03 0. -1.
         11   -1    0    0    0    0 -0.00000000000E+00 -0.00000000000E+00 -0.45593999997E+02  0.45594000000E+02  0.51100000000E-03 0.  1.
         23    2    1    2    0    0  0.00000000000E+00  0.88817841970E-15  0.00000000000E+00  0.91188000000E+02  0.91188000000E+02 0.  0.
    9900012    2    3    3    0    0 -0.22912482083E+02  0.33810397393E+01  0.28624574083E+02  0.54367088735E+02  0.40000010389E+02 0.  0.
        -12    1    3    3    0    0  0.22912482083E+02 -0.33810397393E+01 -0.28624574083E+02  0.36820911265E+02  0.00000000000E+00 0.  1.
         11    1    4    4    0    0  0.46800374365E+01  0.36932505455E+01  0.18557692407E+01  0.62439354365E+01  0.51100000000E-03 0. -1.
        -11    1    4    4    0    0 -0.20550102276E+02 -0.11920857230E+02  0.82270146372E+01  0.25141545512E+02  0.51100000000E-03 0.  1.
        -12    1    4    4    0    0 -0.70424172439E+01  0.11608646423E+02  0.18541790205E+02  0.22981607786E+02  0.00000000000E+00 0.  1.
</event>
<event>
 8    1  0.1247338E-006  0.9118800E+02  0.7816164E-02  0.1184000E+00
        -11   -1    0    0    0    0  0.00000000000E+00  0.00000000000E+00  0.45593999997E+02  0.45594000000E+02  0.51100000000E-03 0.  1.
         11   -1    0    0    0    0 -0.00000000000E+00 -0.00000000000E+00 -0.45593999997E+02  0.45594000000E+02  0.51100000000E-03 0. -1.
         23    2    1    2    0    0 -0.17763568394E-14 -0.71054273576E-14 -0.17763568394E-14  0.91188000000E+02  0.91188000000E+02 0.  0.
    9900012    2    3    3    0    0 -0.94922033233E+01 -0.34330247122E+02 -0.93330641694E+01  0.54367165162E+02  0.40000184619E+02 0.  0.
         12    1    3    3    0    0  0.94922033233E+01  0.34330247122E+02  0.93330641694E+01  0.36820834838E+02  0.00000000000E+00 0. -1.
         11    1    4    4    0    0  0.85405666708E+01 -0.59685879203E+01 -0.28352033151E+01  0.10798319264E+02  0.51100000000E-03 0. -1.
        -11    1    4    4    0    0  0.24934926946E+01 -0.17319126019E+02 -0.97567671443E+01  0.20034074405E+02  0.51100000000E-03 0.  1.
         12    1    4    4    0    0 -0.20526262689E+02 -0.11042533182E+02  0.32589062899E+01  0.23534771494E+02  0.00000000000E+00 0. -1.
</event>
<event>
 8    1  0.1247338E-006  0.9118800E+02  0.7816164E-02  0.1184000E+00
        -11   -1    0    0    0    0  0.00000000000E+00  0.00000000000E+00  0.45593999997E+02  0.45594000000E+02  0.51100000000E-03 0. -1.
         11   -1    0    0    0    0 -0.00000000000E+00 -0.00000000000E+00 -0.45593999997E+02  0.45594000000E+02  0.51100000000E-03 0.  1.
         23    2    1    2    0    0 -0.35527136788E-14  0.17763568394E-14  0.35527136788E-14  0.91188000000E+02  0.91188000000E+02 0.  0.
    9900012    2    3    3    0    0  0.25224892083E+02  0.55908957897E+01  0.26234065358E+02  0.54367089073E+02  0.40000011159E+02 0.  0.
        -12    1    3    3    0    0 -0.25224892083E+02 -0.55908957897E+01 -0.26234065358E+02  0.36820910927E+02  0.00000000000E+00 0.  1.
         11    1    4    4    0    0  0.28102653680E+02  0.83210123813E+01  0.15639973743E+02  0.33220583527E+02  0.51100000000E-03 0. -1.
        -11    1    4    4    0    0 -0.15208744512E+01 -0.46204144364E+01 -0.40433040460E+01  0.63253139472E+01  0.51100000000E-03 0.  1.
         12    1    4    4    0    0 -0.13568871465E+01  0.18902978448E+01  0.14637395660E+02  0.14821191598E+02  0.00000000000E+00 0. -1.
</event>
<event>
 8    1  0.1247338E-006  0.9118800E+02  0.7816164E-02  0.1184000E+00
        -11   -1    0    0    0    0  0.00000000000E+00  0.00000000000E+00  0.45593999997E+02  0.45594000000E+02  0.51100000000E-03 0. -1.
         11   -1    0    0    0    0 -0.00000000000E+00 -0.00000000000E+00 -0.45593999997E+02  0.45594000000E+02  0.51100000000E-03 0.  1.
         23    2    1    2    0    0  0.00000000000E+00  0.00000000000E+00  0.00000000000E+00  0.91188000000E+02  0.91188000000E+02 0.  0.
    9900012    2    3    3    0    0  0.32458909956E+02  0.10309762330E+02  0.13996697499E+02  0.54367087793E+02  0.40000008243E+02 0.  0.
        -12    1    3    3    0    0 -0.32458909956E+02 -0.10309762330E+02 -0.13996697499E+02  0.36820912207E+02  0.00000000000E+00 0.  1.
         11    1    4    4    0    0  0.56069036728E+01  0.15523313834E+02  0.12379053731E+02  0.20631326005E+02  0.51100000000E-03 0. -1.
        -11    1    4    4    0    0  0.12852892926E+02  0.41896958722E+01 -0.65226326525E+01  0.15009834944E+02  0.51100000000E-03 0.  1.
         12    1    4    4    0    0  0.13999113358E+02 -0.94032473754E+01  0.81402764201E+01  0.18725926845E+02  0.00000000000E+00 0. -1.
</event>
<event>
 8    1  0.1247338E-006  0.9118800E+02  0.7816164E-02  0.1184000E+00
        -11   -1    0    0    0    0  0.00000000000E+00  0.00000000000E+00  0.45593999997E+02  0.45594000000E+02  0.51100000000E-03 0.  1.
         11   -1    0    0    0    0 -0.00000000000E+00 -0.00000000000E+00 -0.45593999997E+02  0.45594000000E+02  0.51100000000E-03 0. -1.
         23    2    1    2    0    0  0.88817841970E-15 -0.35527136788E-14  0.35527136788E-14  0.91188000000E+02  0.91188000000E+02 0.  0.
    9900012    2    3    3    0    0 -0.38278523061E+01  0.24166335160E+02 -0.27515740341E+02  0.54367079658E+02  0.39999989695E+02 0.  0.
        -12    1    3    3    0    0  0.38278523061E+01 -0.24166335160E+02  0.27515740341E+02  0.36820920342E+02  0.00000000000E+00 0.  1.
         11    1    4    4    0    0 -0.12449381034E+02  0.21533654104E+02  0.20340185959E+00  0.24874217974E+02  0.51100000000E-03 0. -1.
        -11    1    4    4    0    0  0.90374940401E+00 -0.97344207172E+00 -0.20109388642E+01  0.24100265204E+01  0.51100000000E-03 0.  1.
         12    1    4    4    0    0  0.77177793244E+01  0.36061231277E+01 -0.25708203336E+02  0.27082835163E+02  0.00000000000E+00 0. -1.
</event>
<event>
 8    1  0.1247338E-006  0.9118800E+02  0.7816164E-02  0.1184000E+00
        -11   -1    0    0    0    0  0.00000000000E+00  0.00000000000E+00  0.45593999997E+02  0.45594000000E+02  0.51100000000E-03 0. -1.
         11   -1    0    0    0    0 -0.00000000000E+00 -0.00000000000E+00 -0.45593999997E+02  0.45594000000E+02  0.51100000000E-03 0.  1.
         23    2    1    2    0    0  0.00000000000E+00  0.00000000000E+00  0.00000000000E+00  0.91188000000E+02  0.91188000000E+02 0.  0.
    9900012    2    3    3    0    0  0.33204569425E+02  0.82887575451E+01 -0.13584425974E+02  0.54367033671E+02  0.39999884860E+02 0.  0.
         12    1    3    3    0    0 -0.33204569425E+02 -0.82887575451E+01  0.13584425974E+02  0.36820966329E+02  0.00000000000E+00 0. -1.
         11    1    4    4    0    0 -0.64486578966E+01  0.41682191945E+01  0.25949822719E+01  0.81051325204E+01  0.51100000000E-03 0. -1.
        -11    1    4    4    0    0  0.30547579048E+02 -0.10942495048E+01 -0.50778743236E+01  0.30986073897E+02  0.51100000000E-03 0.  1.
        -12    1    4    4    0    0  0.91056482740E+01  0.52147878553E+01 -0.11101533922E+02  0.15275827254E+02  0.00000000000E+00 0.  1.
</event>
<event>
 8    1  0.1247338E-006  0.9118800E+02  0.7816164E-02  0.1184000E+00
        -11   -1    0    0    0    0  0.00000000000E+00  0.00000000000E+00  0.45593999997E+02  0.45594000000E+02  0.51100000000E-03 0. -1.
         11   -1    0    0    0    0 -0.00000000000E+00 -0.00000000000E+00 -0.45593999997E+02  0.45594000000E+02  0.51100000000E-03 0.  1.
         23    2    1    2    0    0 -0.33306690739E-15  0.00000000000E+00  0.35527136788E-14  0.91188000000E+02  0.91188000000E+02 0.  0.
    9900012    2    3    3    0    0  0.29002252987E+00  0.23287852348E+02 -0.28519658658E+02  0.54367094117E+02  0.40000022659E+02 0.  0.
         12    1    3    3    0    0 -0.29002252987E+00 -0.23287852348E+02  0.28519658658E+02  0.36820905883E+02  0.00000000000E+00 0. -1.
         11    1    4    4    0    0  0.28785097605E+01 -0.48878150001E+01 -0.90429181788E+01  0.10674779781E+02  0.51100000000E-03 0. -1.
        -11    1    4    4    0    0  0.12118309441E+02  0.12801908675E+02 -0.11074074722E+02  0.20817718910E+02  0.51100000000E-03 0.  1.
        -12    1    4    4    0    0 -0.14706796671E+02  0.15373758674E+02 -0.84026657568E+01  0.22874595426E+02  0.00000000000E+00 0.  1.
</event>
<event>
 8    1  0.1247338E-006  0.9118800E+02  0.7816164E-02  0.1184000E+00
        -11   -1    0    0    0    0  0.00000000000E+00  0.00000000000E+00  0.45593999997E+02  0.45594000000E+02  0.51100000000E-03 0.  1.
         11   -1    0    0    0    0 -0.00000000000E+00 -0.00000000000E+00 -0.45593999997E+02  0.45594000000E+02  0.51100000000E-03 0. -1.
         23    2    1    2    0    0  0.88817841970E-15  0.00000000000E+00  0.66613381478E-15  0.91188000000E+02  0.91188000000E+02 0.  0.
    9900012    2    3    3    0    0 -0.30457677161E+01 -0.36658865429E+02 -0.16212788192E+01  0.54367113800E+02  0.40000067530E+02 0.  0.
         12    1    3    3    0    0  0.30457677161E+01  0.36658865429E+02  0.16212788192E+01  0.36820886200E+02  0.00000000000E+00 0. -1.
         11    1    4    4    0    0 -0.10891321162E+02 -0.20945602270E+02 -0.81119456571E+01  0.24962828239E+02  0.51100000000E-03 0.  1.
        -11    1    4    4    0    0  0.82697758912E+01  0.35426667418E+01 -0.24469320617E+00  0.89999753311E+01  0.51100000000E-03 0. -1.
         12    1    4    4    0    0 -0.42422244554E+00 -0.19255929901E+02  0.67353600440E+01  0.20404310230E+02  0.00000000000E+00 0. -1.
</event>
<event>
 8    1  0.1247338E-006  0.9118800E+02  0.7816164E-02  0.1184000E+00
        -11   -1    0    0    0    0  0.00000000000E+00  0.00000000000E+00  0.45593999997E+02  0.45594000000E+02  0.51100000000E-03 0.  1.
         11   -1    0    0    0    0 -0.00000000000E+00 -0.00000000000E+00 -0.45593999997E+02  0.45594000000E+02  0.51100000000E-03 0. -1.
         23    2    1    2    0    0 -0.35527136788E-14 -0.71054273576E-14 -0.17763568394E-14  0.91188000000E+02  0.91188000000E+02 0.  0.
    9900012    2    3    3    0    0  0.17339170932E+02  0.31953548850E+02  0.58398123506E+01  0.54367088265E+02  0.40000009318E+02 0.  0.
        -12    1    3    3    0    0 -0.17339170932E+02 -0.31953548850E+02 -0.58398123506E+01  0.36820911735E+02  0.00000000000E+00 0.  1.
         11    1    4    4    0    0  0.11601595963E+01  0.51420493729E+00 -0.74693960837E+01  0.75764275964E+01  0.51100000000E-03 0. -1.
        -11    1    4    4    0    0 -0.59002176294E+01  0.12082276182E+02 -0.21338262213E+01  0.13614227133E+02  0.51100000000E-03 0.  1.
        -12    1    4    4    0    0  0.22079228965E+02  0.19357067730E+02  0.15443034656E+02  0.33176433536E+02  0.00000000000E+00 0.  1.
</event>
<event>
 8    1  0.1247338E-006  0.9118800E+02  0.7816164E-02  0.1184000E+00
        -11   -1    0    0    0    0  0.00000000000E+00  0.00000000000E+00  0.45593999997E+02  0.45594000000E+02  0.51100000000E-03 0. -1.
         11   -1    0    0    0    0 -0.00000000000E+00 -0.00000000000E+00 -0.45593999997E+02  0.45594000000E+02  0.51100000000E-03 0.  1.
         23    2    1    2    0    0  0.00000000000E+00  0.35527136788E-14 -0.17763568394E-14  0.91188000000E+02  0.91188000000E+02 0.  0.
    9900012    2    3    3    0    0  0.27719238170E+02 -0.23860838589E+02 -0.42525899106E+01  0.54367077906E+02  0.39999985703E+02 0.  0.
        -12    1    3    3    0    0 -0.27719238170E+02  0.23860838589E+02  0.42525899106E+01  0.36820922094E+02  0.00000000000E+00 0.  1.
         11    1    4    4    0    0 -0.18024321445E+01 -0.42482170943E+01  0.38085675104E+01  0.59834184927E+01  0.51100000000E-03 0. -1.
        -11    1    4    4    0    0  0.14321140162E+02 -0.20204011489E+00 -0.16936492995E+02  0.22180637298E+02  0.51100000000E-03 0.  1.
        -12    1    4    4    0    0  0.15200530153E+02 -0.19410581379E+02  0.88753355739E+01  0.26203022115E+02  0.00000000000E+00 0.  1.
</event>
<event>
 8    1  0.1247338E-006  0.9118800E+02  0.7816164E-02  0.1184000E+00
        -11   -1    0    0    0    0  0.00000000000E+00  0.00000000000E+00  0.45593999997E+02  0.45594000000E+02  0.51100000000E-03 0. -1.
         11   -1    0    0    0    0 -0.00000000000E+00 -0.00000000000E+00 -0.45593999997E+02  0.45594000000E+02  0.51100000000E-03 0.  1.
         23    2    1    2    0    0  0.88817841970E-15  0.00000000000E+00  0.00000000000E+00  0.91188000000E+02  0.91188000000E+02 0.  0.
    9900012    2    3    3    0    0 -0.52576469115E+01 -0.22962462653E+02 -0.28299513928E+02  0.54367081615E+02  0.39999994159E+02 0.  0.
         12    1    3    3    0    0  0.52576469115E+01  0.22962462653E+02  0.28299513928E+02  0.36820918385E+02  0.00000000000E+00 0. -1.
         11    1    4    4    0    0  0.47908924462E+01  0.36284010566E+01 -0.19143348917E+02  0.20064539683E+02  0.51100000000E-03 0. -1.
        -11    1    4    4    0    0 -0.51303011458E+01 -0.21823447883E+01 -0.75043957720E+01  0.93487204892E+01  0.51100000000E-03 0.  1.
         12    1    4    4    0    0 -0.49182382118E+01 -0.24408518921E+02 -0.16517692392E+01  0.24953821444E+02  0.00000000000E+00 0. -1.
</event>
<event>
 8    1  0.1247338E-006  0.9118800E+02  0.7816164E-02  0.1184000E+00
        -11   -1    0    0    0    0  0.00000000000E+00  0.00000000000E+00  0.45593999997E+02  0.45594000000E+02  0.51100000000E-03 0.  1.
         11   -1    0    0    0    0 -0.00000000000E+00 -0.00000000000E+00 -0.45593999997E+02  0.45594000000E+02  0.51100000000E-03 0. -1.
         23    2    1    2    0    0  0.00000000000E+00  0.17763568394E-14  0.00000000000E+00  0.91188000000E+02  0.91188000000E+02 0.  0.
    9900012    2    3    3    0    0  0.92599528470E+01 -0.63270826456E+01 -0.35071375750E+02  0.54367080694E+02  0.39999992058E+02 0.  0.
        -12    1    3    3    0    0 -0.92599528470E+01  0.63270826456E+01  0.35071375750E+02  0.36820919306E+02  0.00000000000E+00 0.  1.
         11    1    4    4    0    0  0.86329506145E+01  0.37718846093E+01 -0.55416222455E+01  0.10929982946E+02  0.51100000000E-03 0. -1.
        -11    1    4    4    0    0 -0.14787115364E+01 -0.98099681825E+01  0.33633400758E+01  0.10475405495E+02  0.51100000000E-03 0.  1.
         12    1    4    4    0    0  0.21057137689E+01 -0.28899907241E+00 -0.32893093580E+02  0.32961692254E+02  0.00000000000E+00 0. -1.
</event>
<event>
 8    1  0.1247338E-006  0.9118800E+02  0.7816164E-02  0.1184000E+00
        -11   -1    0    0    0    0  0.00000000000E+00  0.00000000000E+00  0.45593999997E+02  0.45594000000E+02  0.51100000000E-03 0. -1.
         11   -1    0    0    0    0 -0.00000000000E+00 -0.00000000000E+00 -0.45593999997E+02  0.45594000000E+02  0.51100000000E-03 0.  1.
         23    2    1    2    0    0 -0.35527136788E-14 -0.35527136788E-14  0.88817841970E-15  0.91188000000E+02  0.91188000000E+02 0.  0.
    9900012    2    3    3    0    0  0.24819453512E+02  0.26281502321E+02  0.70040816738E+01  0.54367084789E+02  0.40000001393E+02 0.  0.
        -12    1    3    3    0    0 -0.24819453512E+02 -0.26281502321E+02 -0.70040816738E+01  0.36820915211E+02  0.00000000000E+00 0.  1.
         11    1    4    4    0    0  0.33510578248E+02  0.26438918339E+02  0.10398479135E+02  0.43932944655E+02  0.51100000000E-03 0. -1.
        -11    1    4    4    0    0 -0.77713173535E+01  0.10190451371E+00 -0.97508274344E+00  0.78329141804E+01  0.51100000000E-03 0.  1.
         12    1    4    4    0    0 -0.91980738255E+00 -0.25932053161E+00 -0.24193147176E+01  0.26012259537E+01  0.00000000000E+00 0. -1.
</event>
<event>
 8    1  0.1247338E-006  0.9118800E+02  0.7816164E-02  0.1184000E+00
        -11   -1    0    0    0    0  0.00000000000E+00  0.00000000000E+00  0.45593999997E+02  0.45594000000E+02  0.51100000000E-03 0. -1.
         11   -1    0    0    0    0 -0.00000000000E+00 -0.00000000000E+00 -0.45593999997E+02  0.45594000000E+02  0.51100000000E-03 0.  1.
         23    2    1    2    0    0  0.00000000000E+00  0.00000000000E+00  0.00000000000E+00  0.91188000000E+02  0.91188000000E+02 0.  0.
    9900012    2    3    3    0    0 -0.30626092413E+02 -0.85415294102E+01  0.18570307108E+02  0.54367196543E+02  0.40000256158E+02 0.  0.
        -12    1    3    3    0    0  0.30626092413E+02  0.85415294102E+01 -0.18570307108E+02  0.36820803457E+02  0.00000000000E+00 0.  1.
         11    1    4    4    0    0 -0.25226263140E+02 -0.46242020594E+01  0.51280388217E+01  0.26154242086E+02  0.51100000000E-03 0. -1.
        -11    1    4    4    0    0 -0.99360649926E+01 -0.11258466625E+02  0.42523610470E+01  0.15606442036E+02  0.51100000000E-03 0.  1.
        -12    1    4    4    0    0  0.45362357196E+01  0.73411392744E+01  0.91899072395E+01  0.12606512421E+02  0.00000000000E+00 0.  1.
</event>
<event>
 8    1  0.1247338E-006  0.9118800E+02  0.7816164E-02  0.1184000E+00
        -11   -1    0    0    0    0  0.00000000000E+00  0.00000000000E+00  0.45593999997E+02  0.45594000000E+02  0.51100000000E-03 0. -1.
         11   -1    0    0    0    0 -0.00000000000E+00 -0.00000000000E+00 -0.45593999997E+02  0.45594000000E+02  0.51100000000E-03 0.  1.
         23    2    1    2    0    0  0.00000000000E+00 -0.66613381478E-15 -0.17763568394E-14  0.91188000000E+02  0.91188000000E+02 0.  0.
    9900012    2    3    3    0    0 -0.36361099007E+02 -0.11632500175E+01 -0.56830410837E+01  0.54367087090E+02  0.40000006639E+02 0.  0.
         12    1    3    3    0    0  0.36361099007E+02  0.11632500175E+01  0.56830410837E+01  0.36820912910E+02  0.00000000000E+00 0. -1.
         11    1    4    4    0    0 -0.51215199797E+01 -0.19334090188E+01 -0.14445444602E+02  0.15447941848E+02  0.51100000000E-03 0. -1.
        -11    1    4    4    0    0 -0.17118127782E+02 -0.86880883364E+01 -0.11720066516E+01  0.19232440759E+02  0.51100000000E-03 0.  1.
         12    1    4    4    0    0 -0.14121451245E+02  0.94582473377E+01  0.99344101697E+01  0.19686704483E+02  0.00000000000E+00 0. -1.
</event>
<event>
 8    1  0.1247338E-006  0.9118800E+02  0.7816164E-02  0.1184000E+00
        -11   -1    0    0    0    0  0.00000000000E+00  0.00000000000E+00  0.45593999997E+02  0.45594000000E+02  0.51100000000E-03 0. -1.
         11   -1    0    0    0    0 -0.00000000000E+00 -0.00000000000E+00 -0.45593999997E+02  0.45594000000E+02  0.51100000000E-03 0.  1.
         23    2    1    2    0    0  0.00000000000E+00  0.22204460493E-15  0.35527136788E-14  0.91188000000E+02  0.91188000000E+02 0.  0.
    9900012    2    3    3    0    0  0.31564777130E+02 -0.18962821093E+00 -0.18958069805E+02  0.54367088484E+02  0.40000009818E+02 0.  0.
         12    1    3    3    0    0 -0.31564777130E+02  0.18962821093E+00  0.18958069805E+02  0.36820911516E+02  0.00000000000E+00 0. -1.
         11    1    4    4    0    0  0.62276597872E+01 -0.38788019193E+01 -0.52846771099E+01  0.90419391267E+01  0.51100000000E-03 0.  1.
        -11    1    4    4    0    0  0.30519828531E+02  0.88820142516E+01 -0.18274802627E+02  0.36664949503E+02  0.51100000000E-03 0. -1.
         12    1    4    4    0    0 -0.51827111883E+01 -0.51928405432E+01  0.46014099319E+01  0.86601998551E+01  0.00000000000E+00 0. -1.
</event>
<event>
 8    1  0.1247338E-006  0.9118800E+02  0.7816164E-02  0.1184000E+00
        -11   -1    0    0    0    0  0.00000000000E+00  0.00000000000E+00  0.45593999997E+02  0.45594000000E+02  0.51100000000E-03 0.  1.
         11   -1    0    0    0    0 -0.00000000000E+00 -0.00000000000E+00 -0.45593999997E+02  0.45594000000E+02  0.51100000000E-03 0. -1.
         23    2    1    2    0    0  0.35527136788E-14 -0.17763568394E-14 -0.35527136788E-14  0.91188000000E+02  0.91188000000E+02 0.  0.
    9900012    2    3    3    0    0 -0.14093253425E+02  0.11856989610E+02  0.31883730208E+02  0.54367078682E+02  0.39999987471E+02 0.  0.
         12    1    3    3    0    0  0.14093253425E+02 -0.11856989610E+02 -0.31883730208E+02  0.36820921318E+02  0.00000000000E+00 0. -1.
         11    1    4    4    0    0  0.94818735735E-01  0.48561610474E+01 -0.25404513037E+01  0.54813487207E+01  0.51100000000E-03 0. -1.
        -11    1    4    4    0    0  0.44349723291E+01  0.10935088025E+02  0.30480383751E+01  0.12187520989E+02  0.51100000000E-03 0.  1.
         12    1    4    4    0    0 -0.18623044490E+02 -0.39342594620E+01  0.31376143137E+02  0.36698208972E+02  0.00000000000E+00 0. -1.
</event>
<event>
 8    1  0.1247338E-006  0.9118800E+02  0.7816164E-02  0.1184000E+00
        -11   -1    0    0    0    0  0.00000000000E+00  0.00000000000E+00  0.45593999997E+02  0.45594000000E+02  0.51100000000E-03 0. -1.
         11   -1    0    0    0    0 -0.00000000000E+00 -0.00000000000E+00 -0.45593999997E+02  0.45594000000E+02  0.51100000000E-03 0.  1.
         23    2    1    2    0    0  0.88817841970E-15  0.00000000000E+00  0.00000000000E+00  0.91188000000E+02  0.91188000000E+02 0.  0.
    9900012    2    3    3    0    0  0.69410734003E+01 -0.11399878567E+02 -0.34316817772E+02  0.54367085926E+02  0.40000003985E+02 0.  0.
         12    1    3    3    0    0 -0.69410734003E+01  0.11399878567E+02  0.34316817772E+02  0.36820914074E+02  0.00000000000E+00 0. -1.
         11    1    4    4    0    0 -0.82955551106E+00  0.42567363731E+01 -0.24669353682E+02  0.25047654146E+02  0.51100000000E-03 0. -1.
        -11    1    4    4    0    0 -0.14138172777E+01  0.23138276278E+01  0.40892292040E+01  0.49065745006E+01  0.51100000000E-03 0.  1.
        -12    1    4    4    0    0  0.91844461890E+01 -0.17970442567E+02 -0.13736693294E+02  0.24412857279E+02  0.00000000000E+00 0.  1.
</event>
<event>
 8    1  0.1247338E-006  0.9118800E+02  0.7816164E-02  0.1184000E+00
        -11   -1    0    0    0    0  0.00000000000E+00  0.00000000000E+00  0.45593999997E+02  0.45594000000E+02  0.51100000000E-03 0. -1.
         11   -1    0    0    0    0 -0.00000000000E+00 -0.00000000000E+00 -0.45593999997E+02  0.45594000000E+02  0.51100000000E-03 0.  1.
         23    2    1    2    0    0  0.88817841970E-15  0.00000000000E+00 -0.71054273576E-14  0.91188000000E+02  0.91188000000E+02 0.  0.
    9900012    2    3    3    0    0  0.52060731586E+01 -0.89691628677E+01 -0.35330311417E+02  0.54367082235E+02  0.39999995570E+02 0.  0.
         12    1    3    3    0    0 -0.52060731586E+01  0.89691628677E+01  0.35330311417E+02  0.36820917765E+02  0.00000000000E+00 0. -1.
         11    1    4    4    0    0  0.82462775463E+01 -0.12767082686E+02 -0.16450078637E+01  0.15287430942E+02  0.51100000000E-03 0. -1.
        -11    1    4    4    0    0  0.75139377729E+01  0.51681093432E+01 -0.16930338804E+02  0.19230314280E+02  0.51100000000E-03 0.  1.
         12    1    4    4    0    0 -0.10554142161E+02 -0.13701895250E+01 -0.16754964750E+02  0.19849337013E+02  0.00000000000E+00 0. -1.
</event>
<event>
 8    1  0.1247338E-006  0.9118800E+02  0.7816164E-02  0.1184000E+00
        -11   -1    0    0    0    0  0.00000000000E+00  0.00000000000E+00  0.45593999997E+02  0.45594000000E+02  0.51100000000E-03 0.  1.
         11   -1    0    0    0    0 -0.00000000000E+00 -0.00000000000E+00 -0.45593999997E+02  0.45594000000E+02  0.51100000000E-03 0. -1.
         23    2    1    2    0    0  0.88817841970E-15  0.00000000000E+00  0.00000000000E+00  0.91188000000E+02  0.91188000000E+02 0.  0.
    9900012    2    3    3    0    0 -0.58790966722E+01  0.19434689848E+02  0.30716600820E+02  0.54367075064E+02  0.39999979224E+02 0.  0.
         12    1    3    3    0    0  0.58790966722E+01 -0.19434689848E+02 -0.30716600820E+02  0.36820924936E+02  0.00000000000E+00 0. -1.
         11    1    4    4    0    0 -0.10507793081E+00 -0.76660850607E+01 -0.18675173861E+01  0.78909773145E+01  0.51100000000E-03 0. -1.
        -11    1    4    4    0    0  0.41237970582E+01  0.21274567104E+00  0.66633455297E+01  0.78390775482E+01  0.51100000000E-03 0.  1.
         12    1    4    4    0    0 -0.98978157996E+01  0.26888029238E+02  0.25920772677E+02  0.38637020201E+02  0.00000000000E+00 0. -1.
</event>
<event>
 8    1  0.1247338E-006  0.9118800E+02  0.7816164E-02  0.1184000E+00
        -11   -1    0    0    0    0  0.00000000000E+00  0.00000000000E+00  0.45593999997E+02  0.45594000000E+02  0.51100000000E-03 0.  1.
         11   -1    0    0    0    0 -0.00000000000E+00 -0.00000000000E+00 -0.45593999997E+02  0.45594000000E+02  0.51100000000E-03 0. -1.
         23    2    1    2    0    0 -0.35527136788E-14  0.00000000000E+00  0.17763568394E-14  0.91188000000E+02  0.91188000000E+02 0.  0.
    9900012    2    3    3    0    0 -0.26258978793E+02  0.21995172914E+02 -0.13507468126E+02  0.54367173095E+02  0.40000202704E+02 0.  0.
        -12    1    3    3    0    0  0.26258978793E+02 -0.21995172914E+02  0.13507468126E+02  0.36820826905E+02  0.00000000000E+00 0.  1.
         11    1    4    4    0    0 -0.28305274848E+02  0.14530287103E+02 -0.24858501138E+02  0.40376514295E+02  0.51100000000E-03 0. -1.
        -11    1    4    4    0    0  0.68033771059E+00  0.26822993928E+01  0.64003369558E+01  0.69729407599E+01  0.51100000000E-03 0.  1.
         12    1    4    4    0    0  0.13659583440E+01  0.47825864186E+01  0.49506960560E+01  0.70177180399E+01  0.00000000000E+00 0. -1.
</event>
<event>
 8    1  0.1247338E-006  0.9118800E+02  0.7816164E-02  0.1184000E+00
        -11   -1    0    0    0    0  0.00000000000E+00  0.00000000000E+00  0.45593999997E+02  0.45594000000E+02  0.51100000000E-03 0.  1.
         11   -1    0    0    0    0 -0.00000000000E+00 -0.00000000000E+00 -0.45593999997E+02  0.45594000000E+02  0.51100000000E-03 0. -1.
         23    2    1    2    0    0  0.00000000000E+00 -0.35527136788E-14  0.00000000000E+00  0.91188000000E+02  0.91188000000E+02 0.  0.
    9900012    2    3    3    0    0 -0.29895162691E+02  0.21336907716E+02 -0.26065391415E+01  0.54367103358E+02  0.40000043725E+02 0.  0.
         12    1    3    3    0    0  0.29895162691E+02 -0.21336907716E+02  0.26065391415E+01  0.36820896642E+02  0.00000000000E+00 0. -1.
         11    1    4    4    0    0  0.68687024411E+01 -0.16189385142E+01  0.15691495648E+01  0.72292645377E+01  0.51100000000E-03 0.  1.
        -11    1    4    4    0    0 -0.57282697024E+01  0.10933191717E+02 -0.61622504226E+01  0.13795690829E+02  0.51100000000E-03 0. -1.
        -12    1    4    4    0    0 -0.31035595430E+02  0.12022654513E+02  0.19865617163E+01  0.33342147992E+02  0.00000000000E+00 0.  1.
</event>
<event>
 8    1  0.1247338E-006  0.9118800E+02  0.7816164E-02  0.1184000E+00
        -11   -1    0    0    0    0  0.00000000000E+00  0.00000000000E+00  0.45593999997E+02  0.45594000000E+02  0.51100000000E-03 0. -1.
         11   -1    0    0    0    0 -0.00000000000E+00 -0.00000000000E+00 -0.45593999997E+02  0.45594000000E+02  0.51100000000E-03 0.  1.
         23    2    1    2    0    0 -0.88817841970E-15  0.00000000000E+00  0.00000000000E+00  0.91188000000E+02  0.91188000000E+02 0.  0.
    9900012    2    3    3    0    0  0.48545040038E+01  0.35044080756E+02  0.10204171412E+02  0.54367096706E+02  0.40000028561E+02 0.  0.
        -12    1    3    3    0    0 -0.48545040038E+01 -0.35044080756E+02 -0.10204171412E+02  0.36820903294E+02  0.00000000000E+00 0.  1.
         11    1    4    4    0    0 -0.11276133384E+01  0.59454308479E+01  0.10283830174E+02  0.11932175959E+02  0.51100000000E-03 0. -1.
        -11    1    4    4    0    0  0.17418699762E+02  0.10275606380E+02  0.19448687817E+01  0.20317029870E+02  0.51100000000E-03 0.  1.
        -12    1    4    4    0    0 -0.11436582420E+02  0.18823043528E+02 -0.20245275437E+01  0.22117890878E+02  0.00000000000E+00 0.  1.
</event>
<event>
 8    1  0.1247338E-006  0.9118800E+02  0.7816164E-02  0.1184000E+00
        -11   -1    0    0    0    0  0.00000000000E+00  0.00000000000E+00  0.45593999997E+02  0.45594000000E+02  0.51100000000E-03 0.  1.
         11   -1    0    0    0    0 -0.00000000000E+00 -0.00000000000E+00 -0.45593999997E+02  0.45594000000E+02  0.51100000000E-03 0. -1.
         23    2    1    2    0    0  0.00000000000E+00  0.44408920985E-15  0.00000000000E+00  0.91188000000E+02  0.91188000000E+02 0.  0.
    9900012    2    3    3    0    0  0.16950324106E+02  0.25158160214E+01  0.32590442871E+02  0.54367084964E+02  0.40000001793E+02 0.  0.
         12    1    3    3    0    0 -0.16950324106E+02 -0.25158160214E+01 -0.32590442871E+02  0.36820915036E+02  0.00000000000E+00 0. -1.
         11    1    4    4    0    0 -0.48011029929E+01 -0.19989685690E+01  0.38961717422E+01  0.64982012737E+01  0.51100000000E-03 0. -1.
        -11    1    4    4    0    0 -0.57873735826E+01  0.20345468177E+01  0.16585135156E+02  0.17683319320E+02  0.51100000000E-03 0.  1.
         12    1    4    4    0    0  0.27538800682E+02  0.24802377727E+01  0.12109135972E+02  0.30185564371E+02  0.00000000000E+00 0. -1.
</event>
<event>
 8    1  0.1247338E-006  0.9118800E+02  0.7816164E-02  0.1184000E+00
        -11   -1    0    0    0    0  0.00000000000E+00  0.00000000000E+00  0.45593999997E+02  0.45594000000E+02  0.51100000000E-03 0.  1.
         11   -1    0    0    0    0 -0.00000000000E+00 -0.00000000000E+00 -0.45593999997E+02  0.45594000000E+02  0.51100000000E-03 0. -1.
         23    2    1    2    0    0  0.00000000000E+00  0.00000000000E+00  0.00000000000E+00  0.91188000000E+02  0.91188000000E+02 0.  0.
    9900012    2    3    3    0    0 -0.13805551584E+02 -0.32818965083E+02  0.93861279082E+01  0.54367121130E+02  0.40000084239E+02 0.  0.
         12    1    3    3    0    0  0.13805551584E+02  0.32818965083E+02 -0.93861279082E+01  0.36820878870E+02  0.00000000000E+00 0. -1.
         11    1    4    4    0    0 -0.84558116517E+01 -0.32269370972E+02  0.10722043883E+02  0.35039624412E+02  0.51100000000E-03 0. -1.
        -11    1    4    4    0    0 -0.39757901799E+01 -0.43295733687E+01  0.75531392047E+01  0.95708946926E+01  0.51100000000E-03 0.  1.
         12    1    4    4    0    0 -0.13739497523E+01  0.37799792575E+01 -0.88890551792E+01  0.97566020257E+01  0.00000000000E+00 0. -1.
</event>
<event>
 8    1  0.1247338E-006  0.9118800E+02  0.7816164E-02  0.1184000E+00
        -11   -1    0    0    0    0  0.00000000000E+00  0.00000000000E+00  0.45593999997E+02  0.45594000000E+02  0.51100000000E-03 0. -1.
         11   -1    0    0    0    0 -0.00000000000E+00 -0.00000000000E+00 -0.45593999997E+02  0.45594000000E+02  0.51100000000E-03 0.  1.
         23    2    1    2    0    0  0.00000000000E+00  0.00000000000E+00  0.26645352591E-14  0.91188000000E+02  0.91188000000E+02 0.  0.
    9900012    2    3    3    0    0  0.11418190953E+02 -0.34735609933E+02 -0.43406138483E+01  0.54367100899E+02  0.40000038118E+02 0.  0.
         12    1    3    3    0    0 -0.11418190953E+02  0.34735609933E+02  0.43406138483E+01  0.36820899101E+02  0.00000000000E+00 0. -1.
         11    1    4    4    0    0 -0.28263142339E+01 -0.12258055857E+01  0.97036368657E+01  0.10180924328E+02  0.51100000000E-03 0. -1.
        -11    1    4    4    0    0  0.16930068172E+02 -0.25906326942E+02 -0.17340405174E+02  0.35474704168E+02  0.51100000000E-03 0.  1.
        -12    1    4    4    0    0 -0.26855629859E+01 -0.76034774057E+01  0.32961544597E+01  0.87114724032E+01  0.00000000000E+00 0.  1.
</event>
<event>
 8    1  0.1247338E-006  0.9118800E+02  0.7816164E-02  0.1184000E+00
        -11   -1    0    0    0    0  0.00000000000E+00  0.00000000000E+00  0.45593999997E+02  0.45594000000E+02  0.51100000000E-03 0. -1.
         11   -1    0    0    0    0 -0.00000000000E+00 -0.00000000000E+00 -0.45593999997E+02  0.45594000000E+02  0.51100000000E-03 0.  1.
         23    2    1    2    0    0  0.00000000000E+00  0.44408920985E-15 -0.71054273576E-14  0.91188000000E+02  0.91188000000E+02 0.  0.
    9900012    2    3    3    0    0 -0.60870951187E+01 -0.29779364413E+01  0.36191951164E+02  0.54367106997E+02  0.40000052022E+02 0.  0.
        -12    1    3    3    0    0  0.60870951187E+01  0.29779364413E+01 -0.36191951164E+02  0.36820893003E+02  0.00000000000E+00 0.  1.
         11    1    4    4    0    0 -0.81694757504E+01 -0.58116384297E+01 -0.41453892224E+01  0.10848950518E+02  0.51100000000E-03 0. -1.
        -11    1    4    4    0    0  0.72200748560E+01  0.67304250026E+01  0.23543275560E+02  0.25528688294E+02  0.51100000000E-03 0.  1.
         12    1    4    4    0    0 -0.51376942243E+01 -0.38967230142E+01  0.16794064827E+02  0.17989468186E+02  0.00000000000E+00 0. -1.
</event>
<event>
 8    1  0.1247338E-006  0.9118800E+02  0.7816164E-02  0.1184000E+00
        -11   -1    0    0    0    0  0.00000000000E+00  0.00000000000E+00  0.45593999997E+02  0.45594000000E+02  0.51100000000E-03 0. -1.
         11   -1    0    0    0    0 -0.00000000000E+00 -0.00000000000E+00 -0.45593999997E+02  0.45594000000E+02  0.51100000000E-03 0.  1.
         23    2    1    2    0    0 -0.88817841970E-15 -0.35527136788E-14  0.00000000000E+00  0.91188000000E+02  0.91188000000E+02 0.  0.
    9900012    2    3    3    0    0  0.67867261740E+01  0.25621707273E+02 -0.25558720442E+02  0.54367085748E+02  0.40000003579E+02 0.  0.
         12    1    3    3    0    0 -0.67867261740E+01 -0.25621707273E+02  0.25558720442E+02  0.36820914252E+02  0.00000000000E+00 0. -1.
         11    1    4    4    0    0  0.13956301637E+01  0.75619089696E+01 -0.96683259284E+01  0.12353411567E+02  0.51100000000E-03 0.  1.
        -11    1    4    4    0    0 -0.97053316832E+01  0.35286603299E+01  0.58091604593E+01  0.11848681459E+02  0.51100000000E-03 0. -1.
         12    1    4    4    0    0  0.15096427694E+02  0.14531137973E+02 -0.21699554973E+02  0.30164992722E+02  0.00000000000E+00 0. -1.
</event>
<event>
 8    1  0.1247338E-006  0.9118800E+02  0.7816164E-02  0.1184000E+00
        -11   -1    0    0    0    0  0.00000000000E+00  0.00000000000E+00  0.45593999997E+02  0.45594000000E+02  0.51100000000E-03 0. -1.
         11   -1    0    0    0    0 -0.00000000000E+00 -0.00000000000E+00 -0.45593999997E+02  0.45594000000E+02  0.51100000000E-03 0.  1.
         23    2    1    2    0    0  0.00000000000E+00 -0.35527136788E-14 -0.35527136788E-14  0.91188000000E+02  0.91188000000E+02 0.  0.
    9900012    2    3    3    0    0 -0.18005207518E+02 -0.26783618494E+02 -0.17726532462E+02  0.54367086507E+02  0.40000005309E+02 0.  0.
         12    1    3    3    0    0  0.18005207518E+02  0.26783618494E+02  0.17726532462E+02  0.36820913493E+02  0.00000000000E+00 0. -1.
         11    1    4    4    0    0  0.64193620623E+01 -0.96871817331E+01 -0.29382941042E+01  0.11986795724E+02  0.51100000000E-03 0. -1.
        -11    1    4    4    0    0 -0.34929464997E+01  0.12354232783E+01  0.64081096032E+01  0.74020817933E+01  0.51100000000E-03 0.  1.
        -12    1    4    4    0    0 -0.20931623080E+02 -0.18331860039E+02 -0.21196347961E+02  0.34978208990E+02  0.00000000000E+00 0.  1.
</event>
<event>
 8    1  0.1247338E-006  0.9118800E+02  0.7816164E-02  0.1184000E+00
        -11   -1    0    0    0    0  0.00000000000E+00  0.00000000000E+00  0.45593999997E+02  0.45594000000E+02  0.51100000000E-03 0.  1.
         11   -1    0    0    0    0 -0.00000000000E+00 -0.00000000000E+00 -0.45593999997E+02  0.45594000000E+02  0.51100000000E-03 0. -1.
         23    2    1    2    0    0  0.17763568394E-14  0.00000000000E+00 -0.71054273576E-14  0.91188000000E+02  0.91188000000E+02 0.  0.
    9900012    2    3    3    0    0 -0.76788503478E+01 -0.12250157358E+02 -0.33863671328E+02  0.54367091079E+02  0.40000015732E+02 0.  0.
        -12    1    3    3    0    0  0.76788503478E+01  0.12250157358E+02  0.33863671328E+02  0.36820908921E+02  0.00000000000E+00 0.  1.
         11    1    4    4    0    0  0.80114861993E+00  0.71512627117E+01 -0.11324303659E+01  0.72845587566E+01  0.51100000000E-03 0.  1.
        -11    1    4    4    0    0 -0.16761660081E+02 -0.56544722471E+01 -0.15299942671E+02  0.23388342204E+02  0.51100000000E-03 0. -1.
        -12    1    4    4    0    0  0.82816611128E+01 -0.13746947823E+02 -0.17431298291E+02  0.23694190118E+02  0.00000000000E+00 0.  1.
</event>
<event>
 8    1  0.1247338E-006  0.9118800E+02  0.7816164E-02  0.1184000E+00
        -11   -1    0    0    0    0  0.00000000000E+00  0.00000000000E+00  0.45593999997E+02  0.45594000000E+02  0.51100000000E-03 0. -1.
         11   -1    0    0    0    0 -0.00000000000E+00 -0.00000000000E+00 -0.45593999997E+02  0.45594000000E+02  0.51100000000E-03 0.  1.
         23    2    1    2    0    0  0.22204460493E-15  0.00000000000E+00 -0.35527136788E-14  0.91188000000E+02  0.91188000000E+02 0.  0.
    9900012    2    3    3    0    0  0.25581699780E+00  0.26849955907E+02 -0.25195128358E+02  0.54367081115E+02  0.39999993019E+02 0.  0.
         12    1    3    3    0    0 -0.25581699780E+00 -0.26849955907E+02  0.25195128358E+02  0.36820918885E+02  0.00000000000E+00 0. -1.
         11    1    4    4    0    0  0.37237484016E+01  0.34426271663E+01  0.84528425276E+01  0.98574099551E+01  0.51100000000E-03 0. -1.
        -11    1    4    4    0    0  0.24914754859E+01  0.23030635731E+02 -0.26763896581E+02  0.35396663581E+02  0.51100000000E-03 0.  1.
         12    1    4    4    0    0 -0.59594068897E+01  0.37669301027E+00 -0.68840743046E+01  0.91130075788E+01  0.00000000000E+00 0. -1.
</event>
<event>
 8    1  0.1247338E-006  0.9118800E+02  0.7816164E-02  0.1184000E+00
        -11   -1    0    0    0    0  0.00000000000E+00  0.00000000000E+00  0.45593999997E+02  0.45594000000E+02  0.51100000000E-03 0. -1.
         11   -1    0    0    0    0 -0.00000000000E+00 -0.00000000000E+00 -0.45593999997E+02  0.45594000000E+02  0.51100000000E-03 0.  1.
         23    2    1    2    0    0  0.00000000000E+00  0.00000000000E+00 -0.17763568394E-14  0.91188000000E+02  0.91188000000E+02 0.  0.
    9900012    2    3    3    0    0  0.35740319259E+02  0.64067283944E+00  0.88310164377E+01  0.54367248599E+02  0.40000374830E+02 0.  0.
        -12    1    3    3    0    0 -0.35740319259E+02 -0.64067283944E+00 -0.88310164377E+01  0.36820751401E+02  0.00000000000E+00 0.  1.
         11    1    4    4    0    0  0.24740108227E+02 -0.16249956945E+01  0.26838040476E+01  0.24938251152E+02  0.51100000000E-03 0. -1.
        -11    1    4    4    0    0  0.73089966971E+01 -0.48912737091E+01 -0.88058546540E+01  0.12445443651E+02  0.51100000000E-03 0.  1.
         12    1    4    4    0    0  0.36912143342E+01  0.71569422430E+01  0.14953067044E+02  0.16983553796E+02  0.00000000000E+00 0. -1.
</event>
<event>
 8    1  0.1247338E-006  0.9118800E+02  0.7816164E-02  0.1184000E+00
        -11   -1    0    0    0    0  0.00000000000E+00  0.00000000000E+00  0.45593999997E+02  0.45594000000E+02  0.51100000000E-03 0. -1.
         11   -1    0    0    0    0 -0.00000000000E+00 -0.00000000000E+00 -0.45593999997E+02  0.45594000000E+02  0.51100000000E-03 0.  1.
         23    2    1    2    0    0  0.00000000000E+00  0.00000000000E+00  0.35527136788E-14  0.91188000000E+02  0.91188000000E+02 0.  0.
    9900012    2    3    3    0    0  0.14791368735E+02  0.24811425908E+02 -0.22833974213E+02  0.54367057277E+02  0.39999938674E+02 0.  0.
         12    1    3    3    0    0 -0.14791368735E+02 -0.24811425908E+02  0.22833974213E+02  0.36820942723E+02  0.00000000000E+00 0. -1.
         11    1    4    4    0    0 -0.14108041581E+01  0.21321005147E+02 -0.56948531057E+01  0.22113502233E+02  0.51100000000E-03 0. -1.
        -11    1    4    4    0    0  0.13599019958E+02 -0.16099621791E+01  0.50518426455E+00  0.13703303742E+02  0.51100000000E-03 0.  1.
         12    1    4    4    0    0  0.26031529353E+01  0.51003829407E+01 -0.17644305371E+02  0.18550251303E+02  0.00000000000E+00 0. -1.
</event>
<event>
 8    1  0.1247338E-006  0.9118800E+02  0.7816164E-02  0.1184000E+00
        -11   -1    0    0    0    0  0.00000000000E+00  0.00000000000E+00  0.45593999997E+02  0.45594000000E+02  0.51100000000E-03 0.  1.
         11   -1    0    0    0    0 -0.00000000000E+00 -0.00000000000E+00 -0.45593999997E+02  0.45594000000E+02  0.51100000000E-03 0. -1.
         23    2    1    2    0    0 -0.88817841970E-15 -0.35527136788E-14  0.00000000000E+00  0.91188000000E+02  0.91188000000E+02 0.  0.
    9900012    2    3    3    0    0 -0.50563563730E+01  0.24738245155E+02  0.26799853020E+02  0.54367086988E+02  0.40000006407E+02 0.  0.
         12    1    3    3    0    0  0.50563563730E+01 -0.24738245155E+02 -0.26799853020E+02  0.36820913012E+02  0.00000000000E+00 0. -1.
         11    1    4    4    0    0 -0.61923313749E+01  0.31073187589E+01  0.19951059228E+01  0.72097743120E+01  0.51100000000E-03 0. -1.
        -11    1    4    4    0    0 -0.14427079091E+02  0.18941718601E+02  0.11204290010E+02  0.26314737878E+02  0.51100000000E-03 0.  1.
         12    1    4    4    0    0  0.15563054093E+02  0.26892077945E+01  0.13600457087E+02  0.20842574799E+02  0.00000000000E+00 0. -1.
</event>
<event>
 8    1  0.1247338E-006  0.9118800E+02  0.7816164E-02  0.1184000E+00
        -11   -1    0    0    0    0  0.00000000000E+00  0.00000000000E+00  0.45593999997E+02  0.45594000000E+02  0.51100000000E-03 0. -1.
         11   -1    0    0    0    0 -0.00000000000E+00 -0.00000000000E+00 -0.45593999997E+02  0.45594000000E+02  0.51100000000E-03 0.  1.
         23    2    1    2    0    0  0.00000000000E+00  0.88817841970E-15 -0.35527136788E-14  0.91188000000E+02  0.91188000000E+02 0.  0.
    9900012    2    3    3    0    0  0.21163589213E+02 -0.39747802551E+01 -0.29867738829E+02  0.54367106350E+02  0.40000050545E+02 0.  0.
         12    1    3    3    0    0 -0.21163589213E+02  0.39747802551E+01  0.29867738829E+02  0.36820893650E+02  0.00000000000E+00 0. -1.
         11    1    4    4    0    0 -0.43915563168E+01  0.32984168020E+00 -0.18961296849E+02  0.19466004749E+02  0.51100000000E-03 0. -1.
        -11    1    4    4    0    0  0.65512989133E+01  0.73682435195E+01 -0.73932447499E+01  0.12323578953E+02  0.51100000000E-03 0.  1.
         12    1    4    4    0    0  0.19003846616E+02 -0.11672865455E+02 -0.35131972302E+01  0.22577522648E+02  0.00000000000E+00 0. -1.
</event>
<event>
 8    1  0.1247338E-006  0.9118800E+02  0.7816164E-02  0.1184000E+00
        -11   -1    0    0    0    0  0.00000000000E+00  0.00000000000E+00  0.45593999997E+02  0.45594000000E+02  0.51100000000E-03 0.  1.
         11   -1    0    0    0    0 -0.00000000000E+00 -0.00000000000E+00 -0.45593999997E+02  0.45594000000E+02  0.51100000000E-03 0. -1.
         23    2    1    2    0    0  0.00000000000E+00  0.00000000000E+00  0.00000000000E+00  0.91188000000E+02  0.91188000000E+02 0.  0.
    9900012    2    3    3    0    0  0.93153903813E+01  0.10591595231E+02 -0.34012087020E+02  0.54367075908E+02  0.39999981149E+02 0.  0.
        -12    1    3    3    0    0 -0.93153903813E+01 -0.10591595231E+02  0.34012087020E+02  0.36820924092E+02  0.00000000000E+00 0.  1.
         11    1    4    4    0    0  0.99323148685E+01  0.16947025747E+02 -0.90596257633E+01  0.21631675375E+02  0.51100000000E-03 0. -1.
        -11    1    4    4    0    0 -0.70688939816E+01 -0.92064239464E+01 -0.72651664660E+01  0.13693434487E+02  0.51100000000E-03 0.  1.
         12    1    4    4    0    0  0.64519694944E+01  0.28509934307E+01 -0.17687294791E+02  0.19041966046E+02  0.00000000000E+00 0. -1.
</event>
<event>
 8    1  0.1247338E-006  0.9118800E+02  0.7816164E-02  0.1184000E+00
        -11   -1    0    0    0    0  0.00000000000E+00  0.00000000000E+00  0.45593999997E+02  0.45594000000E+02  0.51100000000E-03 0. -1.
         11   -1    0    0    0    0 -0.00000000000E+00 -0.00000000000E+00 -0.45593999997E+02  0.45594000000E+02  0.51100000000E-03 0.  1.
         23    2    1    2    0    0  0.00000000000E+00 -0.74940054162E-15  0.00000000000E+00  0.91188000000E+02  0.91188000000E+02 0.  0.
    9900012    2    3    3    0    0  0.17721443157E+02 -0.22124659368E+00 -0.32275108487E+02  0.54367066749E+02  0.39999960267E+02 0.  0.
         12    1    3    3    0    0 -0.17721443157E+02  0.22124659368E+00  0.32275108487E+02  0.36820933251E+02  0.00000000000E+00 0. -1.
         11    1    4    4    0    0  0.15218827755E+02  0.60201135073E+01 -0.10918705212E+02  0.19674160938E+02  0.51100000000E-03 0. -1.
        -11    1    4    4    0    0 -0.87929060879E+01  0.41185566814E+01 -0.15489923755E+02  0.18281560240E+02  0.51100000000E-03 0.  1.
        -12    1    4    4    0    0  0.11295521491E+02 -0.10359916782E+02 -0.58664795202E+01  0.16411345571E+02  0.00000000000E+00 0.  1.
</event>
<event>
 8    1  0.1247338E-006  0.9118800E+02  0.7816164E-02  0.1184000E+00
        -11   -1    0    0    0    0  0.00000000000E+00  0.00000000000E+00  0.45593999997E+02  0.45594000000E+02  0.51100000000E-03 0. -1.
         11   -1    0    0    0    0 -0.00000000000E+00 -0.00000000000E+00 -0.45593999997E+02  0.45594000000E+02  0.51100000000E-03 0.  1.
         23    2    1    2    0    0  0.00000000000E+00 -0.35527136788E-14  0.88817841970E-15  0.91188000000E+02  0.91188000000E+02 0.  0.
    9900012    2    3    3    0    0  0.29984389948E+02 -0.21110685929E+02 -0.33248466752E+01  0.54367091452E+02  0.40000016582E+02 0.  0.
        -12    1    3    3    0    0 -0.29984389948E+02  0.21110685929E+02  0.33248466752E+01  0.36820908548E+02  0.00000000000E+00 0.  1.
         11    1    4    4    0    0  0.12220361658E+02 -0.20198741249E+02 -0.58211262574E+01  0.24314849337E+02  0.51100000000E-03 0. -1.
        -11    1    4    4    0    0  0.11041288057E+02 -0.92641609616E+01  0.94849450329E+01  0.17253953252E+02  0.51100000000E-03 0.  1.
        -12    1    4    4    0    0  0.67227402324E+01  0.83522162816E+01 -0.69886654506E+01  0.12798288863E+02  0.00000000000E+00 0.  1.
</event>
<event>
 8    1  0.1247338E-006  0.9118800E+02  0.7816164E-02  0.1184000E+00
        -11   -1    0    0    0    0  0.00000000000E+00  0.00000000000E+00  0.45593999997E+02  0.45594000000E+02  0.51100000000E-03 0.  1.
         11   -1    0    0    0    0 -0.00000000000E+00 -0.00000000000E+00 -0.45593999997E+02  0.45594000000E+02  0.51100000000E-03 0. -1.
         23    2    1    2    0    0  0.00000000000E+00  0.00000000000E+00  0.00000000000E+00  0.91188000000E+02  0.91188000000E+02 0.  0.
    9900012    2    3    3    0    0  0.18861383505E+02 -0.24932940563E+02  0.19451868151E+02  0.54367102572E+02  0.40000041933E+02 0.  0.
         12    1    3    3    0    0 -0.18861383505E+02  0.24932940563E+02 -0.19451868151E+02  0.36820897428E+02  0.00000000000E+00 0. -1.
         11    1    4    4    0    0  0.86069021330E+01 -0.29188547398E+02  0.41822460400E+01  0.30717116494E+02  0.51100000000E-03 0. -1.
        -11    1    4    4    0    0 -0.34528634804E+01  0.26841061427E+00  0.13669481756E+01  0.37232859208E+01  0.51100000000E-03 0.  1.
         12    1    4    4    0    0  0.13707344852E+02  0.39871962203E+01  0.13902673935E+02  0.19926700157E+02  0.00000000000E+00 0. -1.
</event>
<event>
 8    1  0.1247338E-006  0.9118800E+02  0.7816164E-02  0.1184000E+00
        -11   -1    0    0    0    0  0.00000000000E+00  0.00000000000E+00  0.45593999997E+02  0.45594000000E+02  0.51100000000E-03 0. -1.
         11   -1    0    0    0    0 -0.00000000000E+00 -0.00000000000E+00 -0.45593999997E+02  0.45594000000E+02  0.51100000000E-03 0.  1.
         23    2    1    2    0    0  0.44408920985E-15 -0.71054273576E-14 -0.17763568394E-14  0.91188000000E+02  0.91188000000E+02 0.  0.
    9900012    2    3    3    0    0 -0.39766949255E+01 -0.34032965121E+02 -0.13480532596E+02  0.54367060624E+02  0.39999946303E+02 0.  0.
         12    1    3    3    0    0  0.39766949255E+01  0.34032965121E+02  0.13480532596E+02  0.36820939376E+02  0.00000000000E+00 0. -1.
         11    1    4    4    0    0 -0.12110052845E+01 -0.21091878048E+02 -0.12906413901E+01  0.21166001248E+02  0.51100000000E-03 0. -1.
        -11    1    4    4    0    0 -0.11326083400E+02 -0.17755889429E+02 -0.82742455939E+01  0.22627746574E+02  0.51100000000E-03 0.  1.
         12    1    4    4    0    0  0.85603937591E+01  0.48148023556E+01 -0.39156456121E+01  0.10573312801E+02  0.00000000000E+00 0. -1.
</event>
<event>
 8    1  0.1247338E-006  0.9118800E+02  0.7816164E-02  0.1184000E+00
        -11   -1    0    0    0    0  0.00000000000E+00  0.00000000000E+00  0.45593999997E+02  0.45594000000E+02  0.51100000000E-03 0. -1.
         11   -1    0    0    0    0 -0.00000000000E+00 -0.00000000000E+00 -0.45593999997E+02  0.45594000000E+02  0.51100000000E-03 0.  1.
         23    2    1    2    0    0  0.00000000000E+00  0.00000000000E+00 -0.35527136788E-14  0.91188000000E+02  0.91188000000E+02 0.  0.
    9900012    2    3    3    0    0  0.23606524031E+02 -0.21090265577E+02  0.18807240690E+02  0.54367087718E+02  0.40000008070E+02 0.  0.
        -12    1    3    3    0    0 -0.23606524031E+02  0.21090265577E+02 -0.18807240690E+02  0.36820912282E+02  0.00000000000E+00 0.  1.
         11    1    4    4    0    0  0.12530543338E+02 -0.45783773474E+01  0.11513759941E+02  0.17622222440E+02  0.51100000000E-03 0. -1.
        -11    1    4    4    0    0 -0.63641481238E+01 -0.15905522680E+02 -0.15126793185E+01  0.17198146181E+02  0.51100000000E-03 0.  1.
        -12    1    4    4    0    0  0.17440128817E+02 -0.60636554930E+00  0.88061600676E+01  0.19546719097E+02  0.00000000000E+00 0.  1.
</event>
<event>
 8    1  0.1247338E-006  0.9118800E+02  0.7816164E-02  0.1184000E+00
        -11   -1    0    0    0    0  0.00000000000E+00  0.00000000000E+00  0.45593999997E+02  0.45594000000E+02  0.51100000000E-03 0.  1.
         11   -1    0    0    0    0 -0.00000000000E+00 -0.00000000000E+00 -0.45593999997E+02  0.45594000000E+02  0.51100000000E-03 0. -1.
         23    2    1    2    0    0  0.00000000000E+00  0.00000000000E+00  0.00000000000E+00  0.91188000000E+02  0.91188000000E+02 0.  0.
    9900012    2    3    3    0    0 -0.35499965010E+02 -0.92500660713E+01  0.31571962718E+01  0.54367093896E+02  0.40000022154E+02 0.  0.
         12    1    3    3    0    0  0.35499965010E+02  0.92500660713E+01 -0.31571962718E+01  0.36820906104E+02  0.00000000000E+00 0. -1.
         11    1    4    4    0    0  0.24775063942E+01 -0.13678037321E+01  0.38976440329E+01  0.48166953662E+01  0.51100000000E-03 0. -1.
        -11    1    4    4    0    0  0.51791487576E+01  0.12570884129E+01 -0.10678260053E+01  0.54354489943E+01  0.51100000000E-03 0.  1.
        -12    1    4    4    0    0 -0.43156620162E+02 -0.91393507521E+01  0.32737824430E+00  0.44114949535E+02  0.00000000000E+00 0.  1.
</event>
<event>
 8    1  0.1247338E-006  0.9118800E+02  0.7816164E-02  0.1184000E+00
        -11   -1    0    0    0    0  0.00000000000E+00  0.00000000000E+00  0.45593999997E+02  0.45594000000E+02  0.51100000000E-03 0.  1.
         11   -1    0    0    0    0 -0.00000000000E+00 -0.00000000000E+00 -0.45593999997E+02  0.45594000000E+02  0.51100000000E-03 0. -1.
         23    2    1    2    0    0  0.35527136788E-14 -0.66613381478E-15  0.00000000000E+00  0.91188000000E+02  0.91188000000E+02 0.  0.
    9900012    2    3    3    0    0  0.26668059502E+02  0.13932064604E+01  0.25350630413E+02  0.54367070025E+02  0.39999967736E+02 0.  0.
         12    1    3    3    0    0 -0.26668059502E+02 -0.13932064604E+01 -0.25350630413E+02  0.36820929975E+02  0.00000000000E+00 0. -1.
         11    1    4    4    0    0 -0.68691265522E+01  0.77502784759E+01  0.35763709412E+01  0.10956374647E+02  0.51100000000E-03 0. -1.
        -11    1    4    4    0    0  0.34050525938E+02 -0.71190933054E+01  0.23128806153E+02  0.41773933027E+02  0.51100000000E-03 0.  1.
        -12    1    4    4    0    0 -0.51333988377E+00  0.76202128987E+00 -0.13545466812E+01  0.16367623511E+01  0.00000000000E+00 0.  1.
</event>
<event>
 8    1  0.1247338E-006  0.9118800E+02  0.7816164E-02  0.1184000E+00
        -11   -1    0    0    0    0  0.00000000000E+00  0.00000000000E+00  0.45593999997E+02  0.45594000000E+02  0.51100000000E-03 0.  1.
         11   -1    0    0    0    0 -0.00000000000E+00 -0.00000000000E+00 -0.45593999997E+02  0.45594000000E+02  0.51100000000E-03 0. -1.
         23    2    1    2    0    0  0.17763568394E-14  0.35527136788E-14 -0.35527136788E-14  0.91188000000E+02  0.91188000000E+02 0.  0.
    9900012    2    3    3    0    0  0.14312789880E+02  0.28426611949E+02 -0.18516245508E+02  0.54367087888E+02  0.40000008458E+02 0.  0.
        -12    1    3    3    0    0 -0.14312789880E+02 -0.28426611949E+02  0.18516245508E+02  0.36820912112E+02  0.00000000000E+00 0.  1.
         11    1    4    4    0    0  0.11785102051E+01  0.65582153733E+01 -0.16788840738E+02  0.18062786296E+02  0.51100000000E-03 0. -1.
        -11    1    4    4    0    0 -0.20176705184E+01 -0.50137972533E+01 -0.20110273948E+00  0.54082899137E+01  0.51100000000E-03 0.  1.
         12    1    4    4    0    0  0.15151950194E+02  0.26882193829E+02 -0.15263020309E+01  0.30896011678E+02  0.00000000000E+00 0. -1.
</event>
<event>
 8    1  0.1247338E-006  0.9118800E+02  0.7816164E-02  0.1184000E+00
        -11   -1    0    0    0    0  0.00000000000E+00  0.00000000000E+00  0.45593999997E+02  0.45594000000E+02  0.51100000000E-03 0.  1.
         11   -1    0    0    0    0 -0.00000000000E+00 -0.00000000000E+00 -0.45593999997E+02  0.45594000000E+02  0.51100000000E-03 0. -1.
         23    2    1    2    0    0  0.00000000000E+00 -0.35527136788E-14 -0.35527136788E-14  0.91188000000E+02  0.91188000000E+02 0.  0.
    9900012    2    3    3    0    0  0.11364245826E+02  0.29984398850E+02 -0.18098936439E+02  0.54367058162E+02  0.39999940693E+02 0.  0.
        -12    1    3    3    0    0 -0.11364245826E+02 -0.29984398850E+02  0.18098936439E+02  0.36820941838E+02  0.00000000000E+00 0.  1.
         11    1    4    4    0    0  0.13007633055E+02  0.22596920690E+02 -0.12134552925E+02  0.28758767660E+02  0.51100000000E-03 0. -1.
        -11    1    4    4    0    0 -0.52615505543E+01  0.22005261824E+01  0.82621653254E+01  0.10039402664E+02  0.51100000000E-03 0.  1.
        -12    1    4    4    0    0  0.36181633253E+01  0.51869519779E+01 -0.14226548839E+02  0.15568887839E+02  0.00000000000E+00 0.  1.
</event>
<event>
 8    1  0.1247338E-006  0.9118800E+02  0.7816164E-02  0.1184000E+00
        -11   -1    0    0    0    0  0.00000000000E+00  0.00000000000E+00  0.45593999997E+02  0.45594000000E+02  0.51100000000E-03 0. -1.
         11   -1    0    0    0    0 -0.00000000000E+00 -0.00000000000E+00 -0.45593999997E+02  0.45594000000E+02  0.51100000000E-03 0.  1.
         23    2    1    2    0    0  0.00000000000E+00 -0.35527136788E-14 -0.35527136788E-14  0.91188000000E+02  0.91188000000E+02 0.  0.
    9900012    2    3    3    0    0 -0.15298636971E+02  0.25680168792E+02  0.21500270645E+02  0.54367068450E+02  0.39999964146E+02 0.  0.
         12    1    3    3    0    0  0.15298636971E+02 -0.25680168792E+02 -0.21500270645E+02  0.36820931550E+02  0.00000000000E+00 0. -1.
         11    1    4    4    0    0 -0.60236978535E+00 -0.25610275557E+00 -0.31132152470E+00  0.72481675793E+00  0.51100000000E-03 0. -1.
        -11    1    4    4    0    0  0.53418511899E+01  0.17475206844E+01  0.21508014672E+02  0.22230247368E+02  0.51100000000E-03 0.  1.
        -12    1    4    4    0    0 -0.20038118375E+02  0.24188750864E+02  0.30357749837E+00  0.31412004324E+02  0.00000000000E+00 0.  1.
</event>
<event>
 8    1  0.1247338E-006  0.9118800E+02  0.7816164E-02  0.1184000E+00
        -11   -1    0    0    0    0  0.00000000000E+00  0.00000000000E+00  0.45593999997E+02  0.45594000000E+02  0.51100000000E-03 0. -1.
         11   -1    0    0    0    0 -0.00000000000E+00 -0.00000000000E+00 -0.45593999997E+02  0.45594000000E+02  0.51100000000E-03 0.  1.
         23    2    1    2    0    0  0.00000000000E+00  0.00000000000E+00  0.00000000000E+00  0.91188000000E+02  0.91188000000E+02 0.  0.
    9900012    2    3    3    0    0  0.30144328372E+02 -0.16783270301E+02 -0.12861602429E+02  0.54367088658E+02  0.40000010213E+02 0.  0.
         12    1    3    3    0    0 -0.30144328372E+02  0.16783270301E+02  0.12861602429E+02  0.36820911342E+02  0.00000000000E+00 0. -1.
         11    1    4    4    0    0  0.10734633370E+02  0.41333009396E+01 -0.36719682230E+01  0.12074762156E+02  0.51100000000E-03 0. -1.
        -11    1    4    4    0    0  0.24160789609E+02 -0.13716678189E+02 -0.15303802990E+02  0.31719038468E+02  0.51100000000E-03 0.  1.
         12    1    4    4    0    0 -0.47510946069E+01 -0.71998930518E+01  0.61141687843E+01  0.10573288034E+02  0.00000000000E+00 0. -1.
</event>
<event>
 8    1  0.1247338E-006  0.9118800E+02  0.7816164E-02  0.1184000E+00
        -11   -1    0    0    0    0  0.00000000000E+00  0.00000000000E+00  0.45593999997E+02  0.45594000000E+02  0.51100000000E-03 0. -1.
         11   -1    0    0    0    0 -0.00000000000E+00 -0.00000000000E+00 -0.45593999997E+02  0.45594000000E+02  0.51100000000E-03 0.  1.
         23    2    1    2    0    0  0.00000000000E+00  0.88817841970E-15  0.00000000000E+00  0.91188000000E+02  0.91188000000E+02 0.  0.
    9900012    2    3    3    0    0 -0.35721588373E+02  0.40099840646E+01 -0.79791597667E+01  0.54367097802E+02  0.40000031060E+02 0.  0.
         12    1    3    3    0    0  0.35721588373E+02 -0.40099840646E+01  0.79791597667E+01  0.36820902198E+02  0.00000000000E+00 0. -1.
         11    1    4    4    0    0 -0.37387708267E+01 -0.72526932161E+01  0.36173664864E+01  0.89255423779E+01  0.51100000000E-03 0. -1.
        -11    1    4    4    0    0  0.37364368087E+01  0.70247045155E+01 -0.17184604202E+01  0.81400577413E+01  0.51100000000E-03 0.  1.
        -12    1    4    4    0    0 -0.35719254355E+02  0.42379727651E+01 -0.98780658328E+01  0.37301497683E+02  0.00000000000E+00 0.  1.
</event>
<event>
 8    1  0.1247338E-006  0.9118800E+02  0.7816164E-02  0.1184000E+00
        -11   -1    0    0    0    0  0.00000000000E+00  0.00000000000E+00  0.45593999997E+02  0.45594000000E+02  0.51100000000E-03 0. -1.
         11   -1    0    0    0    0 -0.00000000000E+00 -0.00000000000E+00 -0.45593999997E+02  0.45594000000E+02  0.51100000000E-03 0.  1.
         23    2    1    2    0    0  0.35527136788E-14  0.17763568394E-14  0.00000000000E+00  0.91188000000E+02  0.91188000000E+02 0.  0.
    9900012    2    3    3    0    0  0.23772368891E+02  0.10939903295E+02 -0.25903169145E+02  0.54367066028E+02  0.39999958625E+02 0.  0.
         12    1    3    3    0    0 -0.23772368891E+02 -0.10939903295E+02  0.25903169145E+02  0.36820933972E+02  0.00000000000E+00 0. -1.
         11    1    4    4    0    0  0.14434518990E+02  0.64255878826E+01 -0.54182476477E+01  0.16703320806E+02  0.51100000000E-03 0. -1.
        -11    1    4    4    0    0  0.12851660150E+02  0.12667094297E+02 -0.33326158584E+01  0.18350116492E+02  0.51100000000E-03 0.  1.
         12    1    4    4    0    0 -0.35138102495E+01 -0.81527788846E+01 -0.17152305638E+02  0.19313628730E+02  0.00000000000E+00 0. -1.
</event>
<event>
 8    1  0.1247338E-006  0.9118800E+02  0.7816164E-02  0.1184000E+00
        -11   -1    0    0    0    0  0.00000000000E+00  0.00000000000E+00  0.45593999997E+02  0.45594000000E+02  0.51100000000E-03 0.  1.
         11   -1    0    0    0    0 -0.00000000000E+00 -0.00000000000E+00 -0.45593999997E+02  0.45594000000E+02  0.51100000000E-03 0. -1.
         23    2    1    2    0    0  0.17763568394E-14  0.00000000000E+00  0.00000000000E+00  0.91188000000E+02  0.91188000000E+02 0.  0.
    9900012    2    3    3    0    0 -0.14916350315E+02 -0.17423556253E+02 -0.28804542435E+02  0.54367089037E+02  0.40000011078E+02 0.  0.
        -12    1    3    3    0    0  0.14916350315E+02  0.17423556253E+02  0.28804542435E+02  0.36820910963E+02  0.00000000000E+00 0.  1.
         11    1    4    4    0    0 -0.97724718850E+01 -0.55397105654E+00 -0.85286827514E+01  0.12982546761E+02  0.51100000000E-03 0. -1.
        -11    1    4    4    0    0 -0.91808180221E+01  0.70780976952E+01 -0.86233301568E+01  0.14448138627E+02  0.51100000000E-03 0.  1.
        -12    1    4    4    0    0  0.40369395916E+01 -0.23947682892E+02 -0.11652529527E+02  0.26936403649E+02  0.00000000000E+00 0.  1.
</event>
<event>
 8    1  0.1247338E-006  0.9118800E+02  0.7816164E-02  0.1184000E+00
        -11   -1    0    0    0    0  0.00000000000E+00  0.00000000000E+00  0.45593999997E+02  0.45594000000E+02  0.51100000000E-03 0. -1.
         11   -1    0    0    0    0 -0.00000000000E+00 -0.00000000000E+00 -0.45593999997E+02  0.45594000000E+02  0.51100000000E-03 0.  1.
         23    2    1    2    0    0  0.00000000000E+00  0.00000000000E+00  0.71054273576E-14  0.91188000000E+02  0.91188000000E+02 0.  0.
    9900012    2    3    3    0    0 -0.65612767634E+01  0.57871697444E+01 -0.35766396241E+02  0.54367125670E+02  0.40000094589E+02 0.  0.
         12    1    3    3    0    0  0.65612767634E+01 -0.57871697444E+01  0.35766396241E+02  0.36820874330E+02  0.00000000000E+00 0. -1.
         11    1    4    4    0    0  0.88454724597E+00 -0.95134750453E+01  0.42872531364E+01  0.10472304951E+02  0.51100000000E-03 0. -1.
        -11    1    4    4    0    0 -0.74021853710E+01  0.95004572130E+01 -0.29252034907E+02  0.31634357620E+02  0.51100000000E-03 0.  1.
         12    1    4    4    0    0 -0.43638638343E-01  0.58001875767E+01 -0.10801614470E+02  0.12260463099E+02  0.00000000000E+00 0. -1.
</event>
<event>
 8    1  0.1247338E-006  0.9118800E+02  0.7816164E-02  0.1184000E+00
        -11   -1    0    0    0    0  0.00000000000E+00  0.00000000000E+00  0.45593999997E+02  0.45594000000E+02  0.51100000000E-03 0.  1.
         11   -1    0    0    0    0 -0.00000000000E+00 -0.00000000000E+00 -0.45593999997E+02  0.45594000000E+02  0.51100000000E-03 0. -1.
         23    2    1    2    0    0  0.00000000000E+00  0.00000000000E+00  0.00000000000E+00  0.91188000000E+02  0.91188000000E+02 0.  0.
    9900012    2    3    3    0    0 -0.46200785701E+01  0.31996604167E+02  0.17625336661E+02  0.54367078004E+02  0.39999985925E+02 0.  0.
         12    1    3    3    0    0  0.46200785701E+01 -0.31996604167E+02 -0.17625336661E+02  0.36820921996E+02  0.00000000000E+00 0. -1.
         11    1    4    4    0    0 -0.14782760248E+02  0.19335797779E+02  0.45071042031E+01  0.24753122325E+02  0.51100000000E-03 0. -1.
        -11    1    4    4    0    0  0.34862626131E+01  0.15311337366E+02  0.12651437246E+01  0.15754100033E+02  0.51100000000E-03 0.  1.
        -12    1    4    4    0    0  0.66764190647E+01 -0.26505309776E+01  0.11853088734E+02  0.13859855646E+02  0.00000000000E+00 0.  1.
</event>
<event>
 8    1  0.1247338E-006  0.9118800E+02  0.7816164E-02  0.1184000E+00
        -11   -1    0    0    0    0  0.00000000000E+00  0.00000000000E+00  0.45593999997E+02  0.45594000000E+02  0.51100000000E-03 0.  1.
         11   -1    0    0    0    0 -0.00000000000E+00 -0.00000000000E+00 -0.45593999997E+02  0.45594000000E+02  0.51100000000E-03 0. -1.
         23    2    1    2    0    0  0.17763568394E-14  0.00000000000E+00 -0.71054273576E-14  0.91188000000E+02  0.91188000000E+02 0.  0.
    9900012    2    3    3    0    0  0.12313327594E+02 -0.45477535381E+01 -0.34401734162E+02  0.54367090016E+02  0.40000013309E+02 0.  0.
        -12    1    3    3    0    0 -0.12313327594E+02  0.45477535381E+01  0.34401734162E+02  0.36820909984E+02  0.00000000000E+00 0.  1.
         11    1    4    4    0    0  0.20078021300E+02  0.50204549130E+01 -0.19377784793E+02  0.28351903827E+02  0.51100000000E-03 0. -1.
        -11    1    4    4    0    0 -0.85756705569E+01 -0.32461202429E+01  0.55145806757E+00  0.91860507506E+01  0.51100000000E-03 0.  1.
         12    1    4    4    0    0  0.81097685091E+00 -0.63220882083E+01 -0.15575407437E+02  0.16829135438E+02  0.00000000000E+00 0. -1.
</event>
<event>
 8    1  0.1247338E-006  0.9118800E+02  0.7816164E-02  0.1184000E+00
        -11   -1    0    0    0    0  0.00000000000E+00  0.00000000000E+00  0.45593999997E+02  0.45594000000E+02  0.51100000000E-03 0. -1.
         11   -1    0    0    0    0 -0.00000000000E+00 -0.00000000000E+00 -0.45593999997E+02  0.45594000000E+02  0.51100000000E-03 0.  1.
         23    2    1    2    0    0  0.00000000000E+00 -0.44408920985E-15  0.35527136788E-14  0.91188000000E+02  0.91188000000E+02 0.  0.
    9900012    2    3    3    0    0  0.21954439858E+02  0.33433488476E+01  0.29370145249E+02  0.54367070585E+02  0.39999969013E+02 0.  0.
        -12    1    3    3    0    0 -0.21954439858E+02 -0.33433488476E+01 -0.29370145249E+02  0.36820929415E+02  0.00000000000E+00 0.  1.
         11    1    4    4    0    0 -0.15151107318E+01  0.34455229891E+01  0.43009089031E+01  0.57153308611E+01  0.51100000000E-03 0. -1.
        -11    1    4    4    0    0  0.18673924093E+02  0.16047117256E+02  0.12365122967E+02  0.27552162882E+02  0.51100000000E-03 0.  1.
         12    1    4    4    0    0  0.47956264977E+01 -0.16149291398E+02  0.12704113379E+02  0.21099576842E+02  0.00000000000E+00 0. -1.
</event>
<event>
 8    1  0.1247338E-006  0.9118800E+02  0.7816164E-02  0.1184000E+00
        -11   -1    0    0    0    0  0.00000000000E+00  0.00000000000E+00  0.45593999997E+02  0.45594000000E+02  0.51100000000E-03 0.  1.
         11   -1    0    0    0    0 -0.00000000000E+00 -0.00000000000E+00 -0.45593999997E+02  0.45594000000E+02  0.51100000000E-03 0. -1.
         23    2    1    2    0    0  0.00000000000E+00  0.00000000000E+00  0.00000000000E+00  0.91188000000E+02  0.91188000000E+02 0.  0.
    9900012    2    3    3    0    0  0.16028944745E+02 -0.33057473794E+02 -0.24608869728E+01  0.54367087356E+02  0.40000007245E+02 0.  0.
        -12    1    3    3    0    0 -0.16028944745E+02  0.33057473794E+02  0.24608869728E+01  0.36820912644E+02  0.00000000000E+00 0.  1.
         11    1    4    4    0    0  0.46359106962E+01 -0.36590855457E+01  0.22619950940E+01  0.63243337262E+01  0.51100000000E-03 0. -1.
        -11    1    4    4    0    0  0.17314364795E+02 -0.69910757025E+01  0.93971074647E+01  0.20903779484E+02  0.51100000000E-03 0.  1.
         12    1    4    4    0    0 -0.59213307465E+01 -0.22407312546E+02 -0.14119989532E+02  0.27138974146E+02  0.00000000000E+00 0. -1.
</event>
<event>
 8    1  0.1247338E-006  0.9118800E+02  0.7816164E-02  0.1184000E+00
        -11   -1    0    0    0    0  0.00000000000E+00  0.00000000000E+00  0.45593999997E+02  0.45594000000E+02  0.51100000000E-03 0.  1.
         11   -1    0    0    0    0 -0.00000000000E+00 -0.00000000000E+00 -0.45593999997E+02  0.45594000000E+02  0.51100000000E-03 0. -1.
         23    2    1    2    0    0 -0.35527136788E-14  0.44408920985E-15  0.71054273576E-14  0.91188000000E+02  0.91188000000E+02 0.  0.
    9900012    2    3    3    0    0  0.24077221609E+02  0.20470280926E+01 -0.27782678790E+02  0.54367079789E+02  0.39999989996E+02 0.  0.
        -12    1    3    3    0    0 -0.24077221609E+02 -0.20470280926E+01  0.27782678790E+02  0.36820920211E+02  0.00000000000E+00 0.  1.
         11    1    4    4    0    0 -0.26663516378E+01  0.73233827177E+01 -0.22264824266E+01  0.81054666580E+01  0.51100000000E-03 0. -1.
        -11    1    4    4    0    0  0.15092895011E+02 -0.54999947009E+01  0.21477302932E+01  0.16206732156E+02  0.51100000000E-03 0.  1.
         12    1    4    4    0    0  0.11650678236E+02  0.22364007583E+00 -0.27703926656E+02  0.30054880975E+02  0.00000000000E+00 0. -1.
</event>
<event>
 8    1  0.1247338E-006  0.9118800E+02  0.7816164E-02  0.1184000E+00
        -11   -1    0    0    0    0  0.00000000000E+00  0.00000000000E+00  0.45593999997E+02  0.45594000000E+02  0.51100000000E-03 0.  1.
         11   -1    0    0    0    0 -0.00000000000E+00 -0.00000000000E+00 -0.45593999997E+02  0.45594000000E+02  0.51100000000E-03 0. -1.
         23    2    1    2    0    0 -0.13322676296E-14  0.00000000000E+00 -0.71054273576E-14  0.91188000000E+02  0.91188000000E+02 0.  0.
    9900012    2    3    3    0    0  0.38698637504E+01 -0.84917373690E+01  0.35618739222E+02  0.54367081588E+02  0.39999994096E+02 0.  0.
         12    1    3    3    0    0 -0.38698637504E+01  0.84917373690E+01 -0.35618739222E+02  0.36820918412E+02  0.00000000000E+00 0. -1.
         11    1    4    4    0    0  0.12260279537E+02  0.71875658249E+01  0.16950160481E+02  0.22119753557E+02  0.51100000000E-03 0.  1.
        -11    1    4    4    0    0 -0.35904492772E+01 -0.27433246065E+01 -0.37841993096E+01  0.58938375092E+01  0.51100000000E-03 0. -1.
        -12    1    4    4    0    0 -0.47999665099E+01 -0.12935978587E+02  0.22452778050E+02  0.26353490522E+02  0.00000000000E+00 0.  1.
</event>
<event>
 8    1  0.1247338E-006  0.9118800E+02  0.7816164E-02  0.1184000E+00
        -11   -1    0    0    0    0  0.00000000000E+00  0.00000000000E+00  0.45593999997E+02  0.45594000000E+02  0.51100000000E-03 0.  1.
         11   -1    0    0    0    0 -0.00000000000E+00 -0.00000000000E+00 -0.45593999997E+02  0.45594000000E+02  0.51100000000E-03 0. -1.
         23    2    1    2    0    0 -0.17763568394E-14 -0.71054273576E-14  0.00000000000E+00  0.91188000000E+02  0.91188000000E+02 0.  0.
    9900012    2    3    3    0    0  0.73601192066E+01  0.30555426166E+02 -0.19182658969E+02  0.54367084367E+02  0.40000000433E+02 0.  0.
        -12    1    3    3    0    0 -0.73601192066E+01 -0.30555426166E+02  0.19182658969E+02  0.36820915633E+02  0.00000000000E+00 0.  1.
         11    1    4    4    0    0  0.18953426897E+02  0.13082698751E+01 -0.89739778902E+01  0.21011336003E+02  0.51100000000E-03 0. -1.
        -11    1    4    4    0    0 -0.24778917436E+01  0.11020862449E+02 -0.25107596831E+01  0.11571658095E+02  0.51100000000E-03 0.  1.
         12    1    4    4    0    0 -0.91154159465E+01  0.18226293842E+02 -0.76979213956E+01  0.21784090270E+02  0.00000000000E+00 0. -1.
</event>
<event>
 8    1  0.1247338E-006  0.9118800E+02  0.7816164E-02  0.1184000E+00
        -11   -1    0    0    0    0  0.00000000000E+00  0.00000000000E+00  0.45593999997E+02  0.45594000000E+02  0.51100000000E-03 0.  1.
         11   -1    0    0    0    0 -0.00000000000E+00 -0.00000000000E+00 -0.45593999997E+02  0.45594000000E+02  0.51100000000E-03 0. -1.
         23    2    1    2    0    0 -0.71054273576E-14 -0.35527136788E-14  0.00000000000E+00  0.91188000000E+02  0.91188000000E+02 0.  0.
    9900012    2    3    3    0    0  0.29606498019E+02  0.20372680511E+02 -0.80118270030E+01  0.54367079206E+02  0.39999988667E+02 0.  0.
         12    1    3    3    0    0 -0.29606498019E+02 -0.20372680511E+02  0.80118270030E+01  0.36820920794E+02  0.00000000000E+00 0. -1.
         11    1    4    4    0    0  0.11002741748E+02 -0.21504954978E+01 -0.93359593413E+00  0.11249735930E+02  0.51100000000E-03 0. -1.
        -11    1    4    4    0    0  0.16880374555E+01 -0.44165760738E+01  0.69055597047E+01  0.83691319600E+01  0.51100000000E-03 0.  1.
        -12    1    4    4    0    0  0.16915718816E+02  0.26939752082E+02 -0.13983790774E+02  0.34748211317E+02  0.00000000000E+00 0.  1.
</event>
<event>
 8    1  0.1247338E-006  0.9118800E+02  0.7816164E-02  0.1184000E+00
        -11   -1    0    0    0    0  0.00000000000E+00  0.00000000000E+00  0.45593999997E+02  0.45594000000E+02  0.51100000000E-03 0. -1.
         11   -1    0    0    0    0 -0.00000000000E+00 -0.00000000000E+00 -0.45593999997E+02  0.45594000000E+02  0.51100000000E-03 0.  1.
         23    2    1    2    0    0  0.00000000000E+00  0.00000000000E+00  0.17763568394E-14  0.91188000000E+02  0.91188000000E+02 0.  0.
    9900012    2    3    3    0    0 -0.24887424789E+01  0.36056153436E+02 -0.70383061637E+01  0.54367111996E+02  0.40000063418E+02 0.  0.
        -12    1    3    3    0    0  0.24887424789E+01 -0.36056153436E+02  0.70383061637E+01  0.36820888004E+02  0.00000000000E+00 0.  1.
         11    1    4    4    0    0 -0.27816253659E+01  0.52087176099E+01 -0.18314835143E+02  0.19243216088E+02  0.51100000000E-03 0.  1.
        -11    1    4    4    0    0  0.20557352241E+01  0.30226881244E+02  0.79728069536E+01  0.31328198927E+02  0.51100000000E-03 0. -1.
        -12    1    4    4    0    0 -0.17628523372E+01  0.62055458208E+00  0.33037220258E+01  0.37956969815E+01  0.00000000000E+00 0.  1.
</event>
<event>
 8    1  0.1247338E-006  0.9118800E+02  0.7816164E-02  0.1184000E+00
        -11   -1    0    0    0    0  0.00000000000E+00  0.00000000000E+00  0.45593999997E+02  0.45594000000E+02  0.51100000000E-03 0.  1.
         11   -1    0    0    0    0 -0.00000000000E+00 -0.00000000000E+00 -0.45593999997E+02  0.45594000000E+02  0.51100000000E-03 0. -1.
         23    2    1    2    0    0  0.00000000000E+00  0.35527136788E-14 -0.35527136788E-14  0.91188000000E+02  0.91188000000E+02 0.  0.
    9900012    2    3    3    0    0 -0.20371747774E+02 -0.25518127482E+02  0.17017561839E+02  0.54367077300E+02  0.39999984321E+02 0.  0.
         12    1    3    3    0    0  0.20371747774E+02  0.25518127482E+02 -0.17017561839E+02  0.36820922700E+02  0.00000000000E+00 0. -1.
         11    1    4    4    0    0 -0.19021565005E+02 -0.92525050623E+01 -0.82137698211E+00  0.21168454020E+02  0.51100000000E-03 0. -1.
        -11    1    4    4    0    0 -0.45126760381E+01  0.30349194350E+01 -0.15539977369E+01  0.56559605929E+01  0.51100000000E-03 0.  1.
         12    1    4    4    0    0  0.31624932698E+01 -0.19300541855E+02  0.19392936558E+02  0.27542662687E+02  0.00000000000E+00 0. -1.
</event>
<event>
 8    1  0.1247338E-006  0.9118800E+02  0.7816164E-02  0.1184000E+00
        -11   -1    0    0    0    0  0.00000000000E+00  0.00000000000E+00  0.45593999997E+02  0.45594000000E+02  0.51100000000E-03 0.  1.
         11   -1    0    0    0    0 -0.00000000000E+00 -0.00000000000E+00 -0.45593999997E+02  0.45594000000E+02  0.51100000000E-03 0. -1.
         23    2    1    2    0    0  0.88817841970E-15  0.00000000000E+00  0.00000000000E+00  0.91188000000E+02  0.91188000000E+02 0.  0.
    9900012    2    3    3    0    0  0.72714486481E+01 -0.15660314030E+02  0.32521641976E+02  0.54367128232E+02  0.40000100430E+02 0.  0.
         12    1    3    3    0    0 -0.72714486481E+01  0.15660314030E+02 -0.32521641976E+02  0.36820871768E+02  0.00000000000E+00 0. -1.
         11    1    4    4    0    0 -0.84190204557E+01  0.22749856155E+01  0.18681054601E+02  0.20616431947E+02  0.51100000000E-03 0. -1.
        -11    1    4    4    0    0  0.16953470294E+02 -0.11970213557E+02  0.17051121293E+02  0.26859763685E+02  0.51100000000E-03 0.  1.
         12    1    4    4    0    0 -0.12630011905E+01 -0.59650860885E+01 -0.32105339181E+01  0.68909325994E+01  0.00000000000E+00 0. -1.
</event>
<event>
 8    1  0.1247338E-006  0.9118800E+02  0.7816164E-02  0.1184000E+00
        -11   -1    0    0    0    0  0.00000000000E+00  0.00000000000E+00  0.45593999997E+02  0.45594000000E+02  0.51100000000E-03 0. -1.
         11   -1    0    0    0    0 -0.00000000000E+00 -0.00000000000E+00 -0.45593999997E+02  0.45594000000E+02  0.51100000000E-03 0.  1.
         23    2    1    2    0    0  0.00000000000E+00  0.35527136788E-14  0.35527136788E-14  0.91188000000E+02  0.91188000000E+02 0.  0.
    9900012    2    3    3    0    0  0.30110036686E+01 -0.24418701600E+02 -0.27394148061E+02  0.54367102688E+02  0.40000042197E+02 0.  0.
         12    1    3    3    0    0 -0.30110036686E+01  0.24418701600E+02  0.27394148061E+02  0.36820897312E+02  0.00000000000E+00 0. -1.
         11    1    4    4    0    0  0.68354590043E+01 -0.16323051378E+01  0.15738022655E+01  0.72017201899E+01  0.51100000000E-03 0. -1.
        -11    1    4    4    0    0  0.10650430116E+02 -0.18119646164E+02 -0.22033727446E+02  0.30450589226E+02  0.51100000000E-03 0.  1.
         12    1    4    4    0    0 -0.14474885451E+02 -0.46667502979E+01 -0.69342228801E+01  0.16714793272E+02  0.00000000000E+00 0. -1.
</event>
<event>
 8    1  0.1247338E-006  0.9118800E+02  0.7816164E-02  0.1184000E+00
        -11   -1    0    0    0    0  0.00000000000E+00  0.00000000000E+00  0.45593999997E+02  0.45594000000E+02  0.51100000000E-03 0. -1.
         11   -1    0    0    0    0 -0.00000000000E+00 -0.00000000000E+00 -0.45593999997E+02  0.45594000000E+02  0.51100000000E-03 0.  1.
         23    2    1    2    0    0  0.00000000000E+00  0.00000000000E+00  0.35527136788E-14  0.91188000000E+02  0.91188000000E+02 0.  0.
    9900012    2    3    3    0    0  0.11109550125E+02 -0.29446449968E+02 -0.19111889486E+02  0.54367084213E+02  0.40000000080E+02 0.  0.
         12    1    3    3    0    0 -0.11109550125E+02  0.29446449968E+02  0.19111889486E+02  0.36820915787E+02  0.00000000000E+00 0. -1.
         11    1    4    4    0    0  0.15321334056E+02 -0.94403240888E+01  0.51127998794E+01  0.18708386329E+02  0.51100000000E-03 0. -1.
        -11    1    4    4    0    0  0.44679658536E+01 -0.15821757003E+02 -0.16683263877E+02  0.23422681473E+02  0.51100000000E-03 0.  1.
         12    1    4    4    0    0 -0.86797497847E+01 -0.41843688760E+01 -0.75414254881E+01  0.12236016411E+02  0.00000000000E+00 0. -1.
</event>
<event>
 8    1  0.1247338E-006  0.9118800E+02  0.7816164E-02  0.1184000E+00
        -11   -1    0    0    0    0  0.00000000000E+00  0.00000000000E+00  0.45593999997E+02  0.45594000000E+02  0.51100000000E-03 0.  1.
         11   -1    0    0    0    0 -0.00000000000E+00 -0.00000000000E+00 -0.45593999997E+02  0.45594000000E+02  0.51100000000E-03 0. -1.
         23    2    1    2    0    0 -0.35527136788E-14  0.35527136788E-14 -0.17763568394E-14  0.91188000000E+02  0.91188000000E+02 0.  0.
    9900012    2    3    3    0    0 -0.17131805268E+02  0.31169182435E+02 -0.95268497206E+01  0.54367115288E+02  0.40000070921E+02 0.  0.
        -12    1    3    3    0    0  0.17131805268E+02 -0.31169182435E+02  0.95268497206E+01  0.36820884712E+02  0.00000000000E+00 0.  1.
         11    1    4    4    0    0  0.68593370346E+01  0.25321277321E+02 -0.59985889589E+01  0.26910976562E+02  0.51100000000E-03 0. -1.
        -11    1    4    4    0    0 -0.13354873496E+02  0.49545616230E+01  0.35104904834E+01  0.14670510238E+02  0.51100000000E-03 0.  1.
        -12    1    4    4    0    0 -0.10636268807E+02  0.89334349040E+00 -0.70387512450E+01  0.12785628487E+02  0.00000000000E+00 0.  1.
</event>
<event>
 8    1  0.1247338E-006  0.9118800E+02  0.7816164E-02  0.1184000E+00
        -11   -1    0    0    0    0  0.00000000000E+00  0.00000000000E+00  0.45593999997E+02  0.45594000000E+02  0.51100000000E-03 0.  1.
         11   -1    0    0    0    0 -0.00000000000E+00 -0.00000000000E+00 -0.45593999997E+02  0.45594000000E+02  0.51100000000E-03 0. -1.
         23    2    1    2    0    0  0.44408920985E-15  0.35527136788E-14  0.00000000000E+00  0.91188000000E+02  0.91188000000E+02 0.  0.
    9900012    2    3    3    0    0  0.16895852617E+01 -0.19295881980E+02  0.31314447694E+02  0.54367076681E+02  0.39999982909E+02 0.  0.
         12    1    3    3    0    0 -0.16895852617E+01  0.19295881980E+02 -0.31314447694E+02  0.36820923319E+02  0.00000000000E+00 0. -1.
         11    1    4    4    0    0  0.57895982245E+01  0.96906758532E+01  0.14221590741E+02  0.18157155326E+02  0.51100000000E-03 0. -1.
        -11    1    4    4    0    0 -0.19077243889E+01 -0.72245500313E+01 -0.13582613867E+01  0.75946303238E+01  0.51100000000E-03 0.  1.
         12    1    4    4    0    0 -0.21922885740E+01 -0.21762007802E+02  0.18451118340E+02  0.28615291030E+02  0.00000000000E+00 0. -1.
</event>
<event>
 8    1  0.1247338E-006  0.9118800E+02  0.7816164E-02  0.1184000E+00
        -11   -1    0    0    0    0  0.00000000000E+00  0.00000000000E+00  0.45593999997E+02  0.45594000000E+02  0.51100000000E-03 0. -1.
         11   -1    0    0    0    0 -0.00000000000E+00 -0.00000000000E+00 -0.45593999997E+02  0.45594000000E+02  0.51100000000E-03 0.  1.
         23    2    1    2    0    0  0.00000000000E+00  0.00000000000E+00  0.00000000000E+00  0.91188000000E+02  0.91188000000E+02 0.  0.
    9900012    2    3    3    0    0  0.11855539719E+02  0.21847077548E+02 -0.27164931919E+02  0.54367052897E+02  0.39999928689E+02 0.  0.
         12    1    3    3    0    0 -0.11855539719E+02 -0.21847077548E+02  0.27164931919E+02  0.36820947103E+02  0.00000000000E+00 0. -1.
         11    1    4    4    0    0 -0.55523914835E+01  0.99080800704E+01 -0.32480648900E+01  0.11813087135E+02  0.51100000000E-03 0. -1.
        -11    1    4    4    0    0  0.14636916443E+02  0.21063816482E+01 -0.27910113802E+02  0.31585607788E+02  0.51100000000E-03 0.  1.
        -12    1    4    4    0    0  0.27710147599E+01  0.98326158298E+01  0.39932467734E+01  0.10968357974E+02  0.00000000000E+00 0.  1.
</event>
<event>
 8    1  0.1247338E-006  0.9118800E+02  0.7816164E-02  0.1184000E+00
        -11   -1    0    0    0    0  0.00000000000E+00  0.00000000000E+00  0.45593999997E+02  0.45594000000E+02  0.51100000000E-03 0. -1.
         11   -1    0    0    0    0 -0.00000000000E+00 -0.00000000000E+00 -0.45593999997E+02  0.45594000000E+02  0.51100000000E-03 0.  1.
         23    2    1    2    0    0 -0.26645352591E-14  0.00000000000E+00  0.17763568394E-14  0.91188000000E+02  0.91188000000E+02 0.  0.
    9900012    2    3    3    0    0 -0.52380351900E+01 -0.34262905623E+02  0.12425695489E+02  0.54367059996E+02  0.39999944873E+02 0.  0.
        -12    1    3    3    0    0  0.52380351900E+01  0.34262905623E+02 -0.12425695489E+02  0.36820940004E+02  0.00000000000E+00 0.  1.
         11    1    4    4    0    0 -0.13328088541E+01 -0.16790371026E+02  0.32208479542E+01  0.17148376029E+02  0.51100000000E-03 0. -1.
        -11    1    4    4    0    0 -0.17110709346E+02 -0.48482731437E+01  0.49592510597E+01  0.18462835593E+02  0.51100000000E-03 0.  1.
        -12    1    4    4    0    0  0.13205483010E+02 -0.12624261454E+02  0.42455964750E+01  0.18755848374E+02  0.00000000000E+00 0.  1.
</event>
<event>
 8    1  0.1247338E-006  0.9118800E+02  0.7816164E-02  0.1184000E+00
        -11   -1    0    0    0    0  0.00000000000E+00  0.00000000000E+00  0.45593999997E+02  0.45594000000E+02  0.51100000000E-03 0. -1.
         11   -1    0    0    0    0 -0.00000000000E+00 -0.00000000000E+00 -0.45593999997E+02  0.45594000000E+02  0.51100000000E-03 0.  1.
         23    2    1    2    0    0 -0.17763568394E-14  0.17763568394E-14  0.35527136788E-14  0.91188000000E+02  0.91188000000E+02 0.  0.
    9900012    2    3    3    0    0 -0.15802343005E+02  0.11194789319E+02  0.31316822880E+02  0.54367071880E+02  0.39999971965E+02 0.  0.
        -12    1    3    3    0    0  0.15802343005E+02 -0.11194789319E+02 -0.31316822880E+02  0.36820928120E+02  0.00000000000E+00 0.  1.
         11    1    4    4    0    0  0.25291383714E+01 -0.22417816533E+01  0.26147574942E+02  0.26365086791E+02  0.51100000000E-03 0. -1.
        -11    1    4    4    0    0 -0.78664949320E+01 -0.24964923389E+00 -0.36174771512E+01  0.86619979483E+01  0.51100000000E-03 0.  1.
        -12    1    4    4    0    0 -0.10464986444E+02  0.13686220206E+02  0.87867250890E+01  0.19339987141E+02  0.00000000000E+00 0.  1.
</event>
<event>
 8    1  0.1247338E-006  0.9118800E+02  0.7816164E-02  0.1184000E+00
        -11   -1    0    0    0    0  0.00000000000E+00  0.00000000000E+00  0.45593999997E+02  0.45594000000E+02  0.51100000000E-03 0.  1.
         11   -1    0    0    0    0 -0.00000000000E+00 -0.00000000000E+00 -0.45593999997E+02  0.45594000000E+02  0.51100000000E-03 0. -1.
         23    2    1    2    0    0  0.17763568394E-14 -0.17763568394E-14  0.00000000000E+00  0.91188000000E+02  0.91188000000E+02 0.  0.
    9900012    2    3    3    0    0  0.85742794287E+01  0.12675752619E+02  0.33490094578E+02  0.54367090084E+02  0.40000013465E+02 0.  0.
         12    1    3    3    0    0 -0.85742794287E+01 -0.12675752619E+02 -0.33490094578E+02  0.36820909916E+02  0.00000000000E+00 0. -1.
         11    1    4    4    0    0  0.98878713563E+00 -0.22678428305E+01 -0.18123858889E+01  0.30668475630E+01  0.51100000000E-03 0. -1.
        -11    1    4    4    0    0  0.17211060040E+02  0.19961470708E+02  0.24464151430E+02  0.35960750910E+02  0.51100000000E-03 0.  1.
        -12    1    4    4    0    0 -0.96255677474E+01 -0.50178752593E+01  0.10838329037E+02  0.15339491611E+02  0.00000000000E+00 0.  1.
</event>
<event>
 8    1  0.1247338E-006  0.9118800E+02  0.7816164E-02  0.1184000E+00
        -11   -1    0    0    0    0  0.00000000000E+00  0.00000000000E+00  0.45593999997E+02  0.45594000000E+02  0.51100000000E-03 0.  1.
         11   -1    0    0    0    0 -0.00000000000E+00 -0.00000000000E+00 -0.45593999997E+02  0.45594000000E+02  0.51100000000E-03 0. -1.
         23    2    1    2    0    0  0.00000000000E+00 -0.22204460493E-14  0.00000000000E+00  0.91188000000E+02  0.91188000000E+02 0.  0.
    9900012    2    3    3    0    0  0.26477633188E+02 -0.19700880727E+01 -0.25511337377E+02  0.54367154803E+02  0.40000161005E+02 0.  0.
        -12    1    3    3    0    0 -0.26477633188E+02  0.19700880727E+01  0.25511337377E+02  0.36820845197E+02  0.00000000000E+00 0.  1.
         11    1    4    4    0    0  0.13761944701E+02  0.39144211050E+01 -0.15919441546E+01  0.14396114093E+02  0.51100000000E-03 0. -1.
        -11    1    4    4    0    0  0.16667806722E+02 -0.12981091369E+02 -0.23831754561E+02  0.31847716398E+02  0.51100000000E-03 0.  1.
        -12    1    4    4    0    0 -0.39521182349E+01  0.70965821916E+01 -0.87638661348E-01  0.81233243121E+01  0.00000000000E+00 0.  1.
</event>
<event>
 8    1  0.1247338E-006  0.9118800E+02  0.7816164E-02  0.1184000E+00
        -11   -1    0    0    0    0  0.00000000000E+00  0.00000000000E+00  0.45593999997E+02  0.45594000000E+02  0.51100000000E-03 0. -1.
         11   -1    0    0    0    0 -0.00000000000E+00 -0.00000000000E+00 -0.45593999997E+02  0.45594000000E+02  0.51100000000E-03 0.  1.
         23    2    1    2    0    0  0.00000000000E+00  0.00000000000E+00  0.00000000000E+00  0.91188000000E+02  0.91188000000E+02 0.  0.
    9900012    2    3    3    0    0  0.90015372791E+01  0.25902809600E+02  0.24572287402E+02  0.54367074880E+02  0.39999978803E+02 0.  0.
        -12    1    3    3    0    0 -0.90015372791E+01 -0.25902809600E+02 -0.24572287402E+02  0.36820925120E+02  0.00000000000E+00 0.  1.
         11    1    4    4    0    0  0.71977059582E+01 -0.75433694975E+01  0.14257183394E+02  0.17662861405E+02  0.51100000000E-03 0. -1.
        -11    1    4    4    0    0  0.18109050996E+01  0.16729882130E+02 -0.42863491175E+00  0.16833064531E+02  0.51100000000E-03 0.  1.
         12    1    4    4    0    0 -0.70737787245E-02  0.16716296968E+02  0.10743738920E+02  0.19871148943E+02  0.00000000000E+00 0. -1.
</event>
<event>
 8    1  0.1247338E-006  0.9118800E+02  0.7816164E-02  0.1184000E+00
        -11   -1    0    0    0    0  0.00000000000E+00  0.00000000000E+00  0.45593999997E+02  0.45594000000E+02  0.51100000000E-03 0.  1.
         11   -1    0    0    0    0 -0.00000000000E+00 -0.00000000000E+00 -0.45593999997E+02  0.45594000000E+02  0.51100000000E-03 0. -1.
         23    2    1    2    0    0 -0.22204460493E-14  0.44408920985E-15  0.71054273576E-14  0.91188000000E+02  0.91188000000E+02 0.  0.
    9900012    2    3    3    0    0 -0.37485960833E+01  0.31027107164E+01  0.36497957820E+02  0.54367085951E+02  0.40000004041E+02 0.  0.
         12    1    3    3    0    0  0.37485960833E+01 -0.31027107164E+01 -0.36497957820E+02  0.36820914049E+02  0.00000000000E+00 0. -1.
         11    1    4    4    0    0 -0.20248557759E+02  0.41176103375E+01  0.27832893751E+02  0.34664517609E+02  0.51100000000E-03 0.  1.
        -11    1    4    4    0    0  0.96528492076E+01 -0.10330845707E+01  0.84205189644E+01  0.12851066160E+02  0.51100000000E-03 0. -1.
         12    1    4    4    0    0  0.68471124681E+01  0.18184949553E-01  0.24454510483E+00  0.68515021821E+01  0.00000000000E+00 0. -1.
</event>
<event>
 8    1  0.1247338E-006  0.9118800E+02  0.7816164E-02  0.1184000E+00
        -11   -1    0    0    0    0  0.00000000000E+00  0.00000000000E+00  0.45593999997E+02  0.45594000000E+02  0.51100000000E-03 0.  1.
         11   -1    0    0    0    0 -0.00000000000E+00 -0.00000000000E+00 -0.45593999997E+02  0.45594000000E+02  0.51100000000E-03 0. -1.
         23    2    1    2    0    0  0.00000000000E+00 -0.88817841970E-15  0.35527136788E-14  0.91188000000E+02  0.91188000000E+02 0.  0.
    9900012    2    3    3    0    0  0.24695834835E+02 -0.78639761386E+01  0.26154407882E+02  0.54367089765E+02  0.40000012737E+02 0.  0.
         12    1    3    3    0    0 -0.24695834835E+02  0.78639761386E+01 -0.26154407882E+02  0.36820910235E+02  0.00000000000E+00 0. -1.
         11    1    4    4    0    0  0.17687873887E+02  0.31169539188E+01  0.59029373408E+00  0.17970106603E+02  0.51100000000E-03 0. -1.
        -11    1    4    4    0    0 -0.60151245799E+00 -0.13113935496E+02  0.25284402117E+02  0.28489263102E+02  0.51100000000E-03 0.  1.
        -12    1    4    4    0    0  0.76094734061E+01  0.21330054390E+01  0.27971203063E+00  0.79077200596E+01  0.00000000000E+00 0.  1.
</event>
<event>
 8    1  0.1247338E-006  0.9118800E+02  0.7816164E-02  0.1184000E+00
        -11   -1    0    0    0    0  0.00000000000E+00  0.00000000000E+00  0.45593999997E+02  0.45594000000E+02  0.51100000000E-03 0. -1.
         11   -1    0    0    0    0 -0.00000000000E+00 -0.00000000000E+00 -0.45593999997E+02  0.45594000000E+02  0.51100000000E-03 0.  1.
         23    2    1    2    0    0  0.35527136788E-14  0.35527136788E-14  0.35527136788E-14  0.91188000000E+02  0.91188000000E+02 0.  0.
    9900012    2    3    3    0    0  0.25377540248E+02  0.17511937846E+02  0.20126931722E+02  0.54367069856E+02  0.39999967350E+02 0.  0.
        -12    1    3    3    0    0 -0.25377540248E+02 -0.17511937846E+02 -0.20126931722E+02  0.36820930144E+02  0.00000000000E+00 0.  1.
         11    1    4    4    0    0  0.15894519540E+02  0.50238075296E+01 -0.61878512828E+00  0.16681045795E+02  0.51100000000E-03 0. -1.
        -11    1    4    4    0    0  0.11772442143E+02  0.84479552738E+01 -0.18594899109E+01  0.14608766044E+02  0.51100000000E-03 0.  1.
         12    1    4    4    0    0 -0.22894214353E+01  0.40401750421E+01  0.22605206761E+02  0.23077258017E+02  0.00000000000E+00 0. -1.
</event>
<event>
 8    1  0.1247338E-006  0.9118800E+02  0.7816164E-02  0.1184000E+00
        -11   -1    0    0    0    0  0.00000000000E+00  0.00000000000E+00  0.45593999997E+02  0.45594000000E+02  0.51100000000E-03 0.  1.
         11   -1    0    0    0    0 -0.00000000000E+00 -0.00000000000E+00 -0.45593999997E+02  0.45594000000E+02  0.51100000000E-03 0. -1.
         23    2    1    2    0    0 -0.35527136788E-14  0.00000000000E+00  0.35527136788E-14  0.91188000000E+02  0.91188000000E+02 0.  0.
    9900012    2    3    3    0    0 -0.16563838396E+02  0.21716899412E+02 -0.24694038822E+02  0.54367081818E+02  0.39999994620E+02 0.  0.
        -12    1    3    3    0    0  0.16563838396E+02 -0.21716899412E+02  0.24694038822E+02  0.36820918182E+02  0.00000000000E+00 0.  1.
         11    1    4    4    0    0 -0.21311592763E+02  0.15139024320E+02 -0.28672519027E+02  0.38800610705E+02  0.51100000000E-03 0. -1.
        -11    1    4    4    0    0 -0.40188681180E+01  0.22359188999E+01  0.34864790455E+01  0.57711498571E+01  0.51100000000E-03 0.  1.
         12    1    4    4    0    0  0.87666224849E+01  0.43419561918E+01  0.49200115966E+00  0.97953212559E+01  0.00000000000E+00 0. -1.
</event>
<event>
 8    1  0.1247338E-006  0.9118800E+02  0.7816164E-02  0.1184000E+00
        -11   -1    0    0    0    0  0.00000000000E+00  0.00000000000E+00  0.45593999997E+02  0.45594000000E+02  0.51100000000E-03 0.  1.
         11   -1    0    0    0    0 -0.00000000000E+00 -0.00000000000E+00 -0.45593999997E+02  0.45594000000E+02  0.51100000000E-03 0. -1.
         23    2    1    2    0    0  0.00000000000E+00  0.17763568394E-14 -0.88817841970E-15  0.91188000000E+02  0.91188000000E+02 0.  0.
    9900012    2    3    3    0    0 -0.35940563730E+02  0.69963745604E+01 -0.38865635893E+01  0.54367098942E+02  0.40000033658E+02 0.  0.
        -12    1    3    3    0    0  0.35940563730E+02 -0.69963745604E+01  0.38865635893E+01  0.36820901058E+02  0.00000000000E+00 0.  1.
         11    1    4    4    0    0 -0.21579352138E+01 -0.10213462389E+02 -0.79484648241E+01  0.13120578938E+02  0.51100000000E-03 0. -1.
        -11    1    4    4    0    0 -0.22321338244E+02  0.56121892322E+01  0.81845919563E+01  0.24427983026E+02  0.51100000000E-03 0.  1.
         12    1    4    4    0    0 -0.11461290272E+02  0.11597647717E+02 -0.41226907216E+01  0.16818536977E+02  0.00000000000E+00 0. -1.
</event>
<event>
 8    1  0.1247338E-006  0.9118800E+02  0.7816164E-02  0.1184000E+00
        -11   -1    0    0    0    0  0.00000000000E+00  0.00000000000E+00  0.45593999997E+02  0.45594000000E+02  0.51100000000E-03 0.  1.
         11   -1    0    0    0    0 -0.00000000000E+00 -0.00000000000E+00 -0.45593999997E+02  0.45594000000E+02  0.51100000000E-03 0. -1.
         23    2    1    2    0    0  0.00000000000E+00 -0.88817841970E-15  0.17763568394E-14  0.91188000000E+02  0.91188000000E+02 0.  0.
    9900012    2    3    3    0    0 -0.34326980560E+02 -0.52085260185E+01  0.12260127181E+02  0.54367067691E+02  0.39999962414E+02 0.  0.
         12    1    3    3    0    0  0.34326980560E+02  0.52085260185E+01 -0.12260127181E+02  0.36820932309E+02  0.00000000000E+00 0. -1.
         11    1    4    4    0    0 -0.15273548767E+02  0.11541438578E+02  0.77759091012E+01  0.20662789236E+02  0.51100000000E-03 0. -1.
        -11    1    4    4    0    0 -0.22817676020E+02 -0.11734391418E+02  0.75194835216E+01  0.26737331834E+02  0.51100000000E-03 0.  1.
         12    1    4    4    0    0  0.37642442271E+01 -0.50155731793E+01 -0.30352654419E+01  0.69669466211E+01  0.00000000000E+00 0. -1.
</event>
<event>
 8    1  0.1247338E-006  0.9118800E+02  0.7816164E-02  0.1184000E+00
        -11   -1    0    0    0    0  0.00000000000E+00  0.00000000000E+00  0.45593999997E+02  0.45594000000E+02  0.51100000000E-03 0. -1.
         11   -1    0    0    0    0 -0.00000000000E+00 -0.00000000000E+00 -0.45593999997E+02  0.45594000000E+02  0.51100000000E-03 0.  1.
         23    2    1    2    0    0 -0.11102230246E-14  0.00000000000E+00 -0.71054273576E-14  0.91188000000E+02  0.91188000000E+02 0.  0.
    9900012    2    3    3    0    0 -0.12663445928E+01 -0.11821814752E+02 -0.34848468367E+02  0.54367154271E+02  0.40000159791E+02 0.  0.
         12    1    3    3    0    0  0.12663445928E+01  0.11821814752E+02  0.34848468367E+02  0.36820845729E+02  0.00000000000E+00 0. -1.
         11    1    4    4    0    0 -0.88048298105E+01 -0.73742156975E+01  0.42597773467E+01  0.12249481150E+02  0.51100000000E-03 0. -1.
        -11    1    4    4    0    0  0.14007738081E+01  0.45387354003E+01 -0.12221719124E+02  0.13112311196E+02  0.51100000000E-03 0.  1.
         12    1    4    4    0    0  0.61377114096E+01 -0.89863344551E+01 -0.26886526590E+02  0.29005361924E+02  0.00000000000E+00 0. -1.
</event>
<event>
 8    1  0.1247338E-006  0.9118800E+02  0.7816164E-02  0.1184000E+00
        -11   -1    0    0    0    0  0.00000000000E+00  0.00000000000E+00  0.45593999997E+02  0.45594000000E+02  0.51100000000E-03 0.  1.
         11   -1    0    0    0    0 -0.00000000000E+00 -0.00000000000E+00 -0.45593999997E+02  0.45594000000E+02  0.51100000000E-03 0. -1.
         23    2    1    2    0    0  0.44408920985E-15  0.35527136788E-14  0.00000000000E+00  0.91188000000E+02  0.91188000000E+02 0.  0.
    9900012    2    3    3    0    0 -0.30529162273E+01  0.30648588825E+02  0.20177295447E+02  0.54367088197E+02  0.40000009162E+02 0.  0.
         12    1    3    3    0    0  0.30529162273E+01 -0.30648588825E+02 -0.20177295447E+02  0.36820911803E+02  0.00000000000E+00 0. -1.
         11    1    4    4    0    0 -0.13577457550E+02  0.10296332005E+02 -0.44905467970E+01  0.17621771111E+02  0.51100000000E-03 0. -1.
        -11    1    4    4    0    0  0.34539997862E+01  0.19354039728E+02  0.20814435795E+02  0.28631271471E+02  0.51100000000E-03 0.  1.
         12    1    4    4    0    0  0.70705415365E+01  0.99821709165E+00  0.38534064497E+01  0.81140456153E+01  0.00000000000E+00 0. -1.
</event>
<event>
 8    1  0.1247338E-006  0.9118800E+02  0.7816164E-02  0.1184000E+00
        -11   -1    0    0    0    0  0.00000000000E+00  0.00000000000E+00  0.45593999997E+02  0.45594000000E+02  0.51100000000E-03 0. -1.
         11   -1    0    0    0    0 -0.00000000000E+00 -0.00000000000E+00 -0.45593999997E+02  0.45594000000E+02  0.51100000000E-03 0.  1.
         23    2    1    2    0    0 -0.66613381478E-15 -0.13322676296E-14  0.71054273576E-14  0.91188000000E+02  0.91188000000E+02 0.  0.
    9900012    2    3    3    0    0 -0.12050235148E+01  0.23495308709E+01 -0.36726095989E+02  0.54367102352E+02  0.40000041433E+02 0.  0.
         12    1    3    3    0    0  0.12050235148E+01 -0.23495308709E+01  0.36726095989E+02  0.36820897648E+02  0.00000000000E+00 0. -1.
         11    1    4    4    0    0  0.23049709612E+01  0.41477150542E+01  0.52360083029E+01  0.70662730284E+01  0.51100000000E-03 0. -1.
        -11    1    4    4    0    0  0.78004511736E+01 -0.28923076161E+01 -0.28472357935E+02  0.29662900204E+02  0.51100000000E-03 0.  1.
        -12    1    4    4    0    0 -0.11310445650E+02  0.10941234327E+01 -0.13489746357E+02  0.17637929120E+02  0.00000000000E+00 0.  1.
</event>
<event>
 8    1  0.1247338E-006  0.9118800E+02  0.7816164E-02  0.1184000E+00
        -11   -1    0    0    0    0  0.00000000000E+00  0.00000000000E+00  0.45593999997E+02  0.45594000000E+02  0.51100000000E-03 0.  1.
         11   -1    0    0    0    0 -0.00000000000E+00 -0.00000000000E+00 -0.45593999997E+02  0.45594000000E+02  0.51100000000E-03 0. -1.
         23    2    1    2    0    0  0.00000000000E+00 -0.35527136788E-14  0.00000000000E+00  0.91188000000E+02  0.91188000000E+02 0.  0.
    9900012    2    3    3    0    0  0.14465021811E+02 -0.10302581961E+02  0.32255235829E+02  0.54367078102E+02  0.39999986148E+02 0.  0.
         12    1    3    3    0    0 -0.14465021811E+02  0.10302581961E+02 -0.32255235829E+02  0.36820921898E+02  0.00000000000E+00 0. -1.
         11    1    4    4    0    0 -0.19869190134E+01 -0.95772848033E+00  0.13622182292E+02  0.13799599330E+02  0.51100000000E-03 0.  1.
        -11    1    4    4    0    0  0.11208781876E+02  0.10555092129E+02  0.68237018990E+01  0.16840714619E+02  0.51100000000E-03 0. -1.
         12    1    4    4    0    0  0.52431589476E+01 -0.19899945610E+02  0.11809351638E+02  0.23726764153E+02  0.00000000000E+00 0. -1.
</event>
<event>
 8    1  0.1247338E-006  0.9118800E+02  0.7816164E-02  0.1184000E+00
        -11   -1    0    0    0    0  0.00000000000E+00  0.00000000000E+00  0.45593999997E+02  0.45594000000E+02  0.51100000000E-03 0. -1.
         11   -1    0    0    0    0 -0.00000000000E+00 -0.00000000000E+00 -0.45593999997E+02  0.45594000000E+02  0.51100000000E-03 0.  1.
         23    2    1    2    0    0  0.35527136788E-14  0.35527136788E-14  0.17763568394E-14  0.91188000000E+02  0.91188000000E+02 0.  0.
    9900012    2    3    3    0    0 -0.20707826964E+02  0.29566111317E+02 -0.72671143264E+01  0.54367082215E+02  0.39999995524E+02 0.  0.
        -12    1    3    3    0    0  0.20707826964E+02 -0.29566111317E+02  0.72671143264E+01  0.36820917785E+02  0.00000000000E+00 0.  1.
         11    1    4    4    0    0  0.42260225271E+01  0.22912505408E+02  0.25846290291E+01  0.23441895784E+02  0.51100000000E-03 0. -1.
        -11    1    4    4    0    0 -0.66839329480E+01 -0.23733559600E+01  0.19963440154E+01  0.73683897736E+01  0.51100000000E-03 0.  1.
         12    1    4    4    0    0 -0.18249916543E+02  0.90269618685E+01 -0.11848087371E+02  0.23556796657E+02  0.00000000000E+00 0. -1.
</event>
<event>
 8    1  0.1247338E-006  0.9118800E+02  0.7816164E-02  0.1184000E+00
        -11   -1    0    0    0    0  0.00000000000E+00  0.00000000000E+00  0.45593999997E+02  0.45594000000E+02  0.51100000000E-03 0.  1.
         11   -1    0    0    0    0 -0.00000000000E+00 -0.00000000000E+00 -0.45593999997E+02  0.45594000000E+02  0.51100000000E-03 0. -1.
         23    2    1    2    0    0  0.71054273576E-14  0.35527136788E-14  0.35527136788E-14  0.91188000000E+02  0.91188000000E+02 0.  0.
    9900012    2    3    3    0    0  0.17510811703E+02  0.21582513528E+02  0.24152557573E+02  0.54367089446E+02  0.40000012010E+02 0.  0.
         12    1    3    3    0    0 -0.17510811703E+02 -0.21582513528E+02 -0.24152557573E+02  0.36820910554E+02  0.00000000000E+00 0. -1.
         11    1    4    4    0    0  0.39062961146E+01 -0.35878938348E+01  0.34563112232E+00  0.53152227271E+01  0.51100000000E-03 0. -1.
        -11    1    4    4    0    0 -0.29913641505E+01 -0.28419551417E+01  0.14663505060E+02  0.15232969159E+02  0.51100000000E-03 0.  1.
        -12    1    4    4    0    0  0.16595879739E+02  0.28012362504E+02  0.91434213913E+01  0.33818897560E+02  0.00000000000E+00 0.  1.
</event>
<event>
 8    1  0.1247338E-006  0.9118800E+02  0.7816164E-02  0.1184000E+00
        -11   -1    0    0    0    0  0.00000000000E+00  0.00000000000E+00  0.45593999997E+02  0.45594000000E+02  0.51100000000E-03 0.  1.
         11   -1    0    0    0    0 -0.00000000000E+00 -0.00000000000E+00 -0.45593999997E+02  0.45594000000E+02  0.51100000000E-03 0. -1.
         23    2    1    2    0    0  0.00000000000E+00  0.00000000000E+00  0.00000000000E+00  0.91188000000E+02  0.91188000000E+02 0.  0.
    9900012    2    3    3    0    0 -0.14799900493E+02 -0.13113440085E+02 -0.31060923493E+02  0.54367077501E+02  0.39999984778E+02 0.  0.
        -12    1    3    3    0    0  0.14799900493E+02  0.13113440085E+02  0.31060923493E+02  0.36820922499E+02  0.00000000000E+00 0.  1.
         11    1    4    4    0    0  0.18757590647E+01 -0.30361182902E+01 -0.12488624785E+02  0.12988542475E+02  0.51100000000E-03 0. -1.
        -11    1    4    4    0    0 -0.15819961077E+02 -0.11183061747E+01 -0.25494295605E+02  0.30024671286E+02  0.51100000000E-03 0.  1.
        -12    1    4    4    0    0 -0.85569848090E+00 -0.89590156204E+01  0.69219968973E+01  0.11353863740E+02  0.00000000000E+00 0.  1.
</event>
<event>
 8    1  0.1247338E-006  0.9118800E+02  0.7816164E-02  0.1184000E+00
        -11   -1    0    0    0    0  0.00000000000E+00  0.00000000000E+00  0.45593999997E+02  0.45594000000E+02  0.51100000000E-03 0.  1.
         11   -1    0    0    0    0 -0.00000000000E+00 -0.00000000000E+00 -0.45593999997E+02  0.45594000000E+02  0.51100000000E-03 0. -1.
         23    2    1    2    0    0 -0.71054273576E-14  0.17763568394E-14 -0.17763568394E-14  0.91188000000E+02  0.91188000000E+02 0.  0.
    9900012    2    3    3    0    0  0.32749062423E+02 -0.14139316288E+02  0.91300764091E+01  0.54367086786E+02  0.40000005946E+02 0.  0.
         12    1    3    3    0    0 -0.32749062423E+02  0.14139316288E+02 -0.91300764091E+01  0.36820913214E+02  0.00000000000E+00 0. -1.
         11    1    4    4    0    0  0.21252491140E+02  0.59047032372E+00  0.80116997470E+01  0.22720131336E+02  0.51100000000E-03 0. -1.
        -11    1    4    4    0    0 -0.67447604344E+01 -0.73976642472E+00  0.48732672732E+01  0.83539081787E+01  0.51100000000E-03 0.  1.
         12    1    4    4    0    0  0.18241331718E+02 -0.13990020187E+02 -0.37548906111E+01  0.23293047271E+02  0.00000000000E+00 0. -1.
</event>
<event>
 8    1  0.1247338E-006  0.9118800E+02  0.7816164E-02  0.1184000E+00
        -11   -1    0    0    0    0  0.00000000000E+00  0.00000000000E+00  0.45593999997E+02  0.45594000000E+02  0.51100000000E-03 0. -1.
         11   -1    0    0    0    0 -0.00000000000E+00 -0.00000000000E+00 -0.45593999997E+02  0.45594000000E+02  0.51100000000E-03 0.  1.
         23    2    1    2    0    0  0.00000000000E+00  0.00000000000E+00 -0.17763568394E-14  0.91188000000E+02  0.91188000000E+02 0.  0.
    9900012    2    3    3    0    0 -0.35428265761E+02 -0.22900227998E+01 -0.97659039484E+01  0.54367094265E+02  0.40000022995E+02 0.  0.
         12    1    3    3    0    0  0.35428265761E+02  0.22900227998E+01  0.97659039484E+01  0.36820905735E+02  0.00000000000E+00 0. -1.
         11    1    4    4    0    0 -0.21611786673E+02 -0.98698328912E+01 -0.43821354717E+01  0.24159595113E+02  0.51100000000E-03 0. -1.
        -11    1    4    4    0    0 -0.19435527265E+02  0.24789943269E+00 -0.73191465795E+01  0.20769474743E+02  0.51100000000E-03 0.  1.
         12    1    4    4    0    0  0.56190481770E+01  0.73319106587E+01  0.19353781027E+01  0.94380244078E+01  0.00000000000E+00 0. -1.
</event>
<event>
 8    1  0.1247338E-006  0.9118800E+02  0.7816164E-02  0.1184000E+00
        -11   -1    0    0    0    0  0.00000000000E+00  0.00000000000E+00  0.45593999997E+02  0.45594000000E+02  0.51100000000E-03 0. -1.
         11   -1    0    0    0    0 -0.00000000000E+00 -0.00000000000E+00 -0.45593999997E+02  0.45594000000E+02  0.51100000000E-03 0.  1.
         23    2    1    2    0    0  0.00000000000E+00  0.17763568394E-14  0.00000000000E+00  0.91188000000E+02  0.91188000000E+02 0.  0.
    9900012    2    3    3    0    0 -0.32628338591E+02 -0.13207808023E+02  0.10803953579E+02  0.54367080878E+02  0.39999992478E+02 0.  0.
         12    1    3    3    0    0  0.32628338591E+02  0.13207808023E+02 -0.10803953579E+02  0.36820919122E+02  0.00000000000E+00 0. -1.
         11    1    4    4    0    0  0.79025338468E+00  0.97564853387E+01  0.25409920443E+01  0.10112870384E+02  0.51100000000E-03 0. -1.
        -11    1    4    4    0    0 -0.88369313910E+01 -0.85607402582E+01  0.97889998512E+01  0.15722663532E+02  0.51100000000E-03 0.  1.
        -12    1    4    4    0    0 -0.24581660585E+02 -0.14403553104E+02 -0.15260383165E+01  0.28531546963E+02  0.00000000000E+00 0.  1.
</event>
<event>
 8    1  0.1247338E-006  0.9118800E+02  0.7816164E-02  0.1184000E+00
        -11   -1    0    0    0    0  0.00000000000E+00  0.00000000000E+00  0.45593999997E+02  0.45594000000E+02  0.51100000000E-03 0. -1.
         11   -1    0    0    0    0 -0.00000000000E+00 -0.00000000000E+00 -0.45593999997E+02  0.45594000000E+02  0.51100000000E-03 0.  1.
         23    2    1    2    0    0  0.00000000000E+00  0.00000000000E+00 -0.17763568394E-14  0.91188000000E+02  0.91188000000E+02 0.  0.
    9900012    2    3    3    0    0 -0.34158528691E+02 -0.52970995677E+01  0.12685282614E+02  0.54367071968E+02  0.39999972165E+02 0.  0.
        -12    1    3    3    0    0  0.34158528691E+02  0.52970995677E+01 -0.12685282614E+02  0.36820928032E+02  0.00000000000E+00 0.  1.
         11    1    4    4    0    0  0.34708320830E+01  0.13350417118E+00  0.68520813760E+01  0.76821558274E+01  0.51100000000E-03 0.  1.
        -11    1    4    4    0    0 -0.98987196219E+01 -0.11539874917E+02 -0.54197356733E+01  0.16140845649E+02  0.51100000000E-03 0. -1.
         12    1    4    4    0    0 -0.27730641152E+02  0.61092711780E+01  0.11252936911E+02  0.30544070491E+02  0.00000000000E+00 0. -1.
</event>
<event>
 8    1  0.1247338E-006  0.9118800E+02  0.7816164E-02  0.1184000E+00
        -11   -1    0    0    0    0  0.00000000000E+00  0.00000000000E+00  0.45593999997E+02  0.45594000000E+02  0.51100000000E-03 0. -1.
         11   -1    0    0    0    0 -0.00000000000E+00 -0.00000000000E+00 -0.45593999997E+02  0.45594000000E+02  0.51100000000E-03 0.  1.
         23    2    1    2    0    0  0.00000000000E+00  0.00000000000E+00  0.00000000000E+00  0.91188000000E+02  0.91188000000E+02 0.  0.
    9900012    2    3    3    0    0 -0.44932559279E+01 -0.31311246279E+02 -0.18846644227E+02  0.54367088944E+02  0.40000010866E+02 0.  0.
         12    1    3    3    0    0  0.44932559279E+01  0.31311246279E+02  0.18846644227E+02  0.36820911056E+02  0.00000000000E+00 0. -1.
         11    1    4    4    0    0  0.14284252342E+01 -0.12292536693E+01  0.52760944215E+01  0.56025561880E+01  0.51100000000E-03 0. -1.
        -11    1    4    4    0    0  0.31876483063E+01 -0.20596196180E+02  0.50249864038E+00  0.20847467567E+02  0.51100000000E-03 0.  1.
        -12    1    4    4    0    0 -0.91093294684E+01 -0.94857964302E+01 -0.24625237289E+02  0.27917065190E+02  0.00000000000E+00 0.  1.
</event>
<event>
 8    1  0.1247338E-006  0.9118800E+02  0.7816164E-02  0.1184000E+00
        -11   -1    0    0    0    0  0.00000000000E+00  0.00000000000E+00  0.45593999997E+02  0.45594000000E+02  0.51100000000E-03 0.  1.
         11   -1    0    0    0    0 -0.00000000000E+00 -0.00000000000E+00 -0.45593999997E+02  0.45594000000E+02  0.51100000000E-03 0. -1.
         23    2    1    2    0    0 -0.44408920985E-15 -0.88817841970E-15  0.00000000000E+00  0.91188000000E+02  0.91188000000E+02 0.  0.
    9900012    2    3    3    0    0  0.15081528173E+01  0.24729884737E+01  0.36706975340E+02  0.54366915883E+02  0.39999616337E+02 0.  0.
         12    1    3    3    0    0 -0.15081528173E+01 -0.24729884737E+01 -0.36706975340E+02  0.36821084117E+02  0.00000000000E+00 0. -1.
         11    1    4    4    0    0  0.27974057177E+01 -0.10853890087E+02  0.16105851964E+02  0.19622203661E+02  0.51100000000E-03 0. -1.
        -11    1    4    4    0    0 -0.93789044229E+01  0.11140305794E+02  0.21864297869E+02  0.26270092937E+02  0.51100000000E-03 0.  1.
         12    1    4    4    0    0  0.80896515225E+01  0.21865727663E+01 -0.12631744933E+01  0.84746192845E+01  0.00000000000E+00 0. -1.
</event>
<event>
 8    1  0.1247338E-006  0.9118800E+02  0.7816164E-02  0.1184000E+00
        -11   -1    0    0    0    0  0.00000000000E+00  0.00000000000E+00  0.45593999997E+02  0.45594000000E+02  0.51100000000E-03 0.  1.
         11   -1    0    0    0    0 -0.00000000000E+00 -0.00000000000E+00 -0.45593999997E+02  0.45594000000E+02  0.51100000000E-03 0. -1.
         23    2    1    2    0    0  0.17763568394E-14  0.00000000000E+00  0.17763568394E-14  0.91188000000E+02  0.91188000000E+02 0.  0.
    9900012    2    3    3    0    0 -0.15053153399E+02  0.31626076555E+02 -0.11356637439E+02  0.54367090731E+02  0.40000014938E+02 0.  0.
        -12    1    3    3    0    0  0.15053153399E+02 -0.31626076555E+02  0.11356637439E+02  0.36820909269E+02  0.00000000000E+00 0.  1.
         11    1    4    4    0    0 -0.89601000038E+01  0.49098771733E+01  0.36092351996E+01  0.10835906281E+02  0.51100000000E-03 0. -1.
        -11    1    4    4    0    0 -0.17809931109E+01 -0.60674207517E+01  0.16357326024E+01  0.65315505393E+01  0.51100000000E-03 0.  1.
        -12    1    4    4    0    0 -0.43120602841E+01  0.32783620133E+02 -0.16601605241E+02  0.36999633911E+02  0.00000000000E+00 0.  1.
</event>
<event>
 8    1  0.1247338E-006  0.9118800E+02  0.7816164E-02  0.1184000E+00
        -11   -1    0    0    0    0  0.00000000000E+00  0.00000000000E+00  0.45593999997E+02  0.45594000000E+02  0.51100000000E-03 0.  1.
         11   -1    0    0    0    0 -0.00000000000E+00 -0.00000000000E+00 -0.45593999997E+02  0.45594000000E+02  0.51100000000E-03 0. -1.
         23    2    1    2    0    0  0.71054273576E-14  0.00000000000E+00  0.33306690739E-15  0.91188000000E+02  0.91188000000E+02 0.  0.
    9900012    2    3    3    0    0 -0.30274591332E+02  0.20948757587E+02 -0.61563684736E+00  0.54367077503E+02  0.39999984785E+02 0.  0.
         12    1    3    3    0    0  0.30274591332E+02 -0.20948757587E+02  0.61563684736E+00  0.36820922497E+02  0.00000000000E+00 0. -1.
         11    1    4    4    0    0 -0.12012405121E+02  0.65451277848E+01 -0.79189108464E+01  0.15806508905E+02  0.51100000000E-03 0. -1.
        -11    1    4    4    0    0  0.94214742626E+00  0.12637055545E+02 -0.70674290878E+01  0.14509699128E+02  0.51100000000E-03 0.  1.
        -12    1    4    4    0    0 -0.19204333638E+02  0.17665742572E+01  0.14370703087E+02  0.24050869470E+02  0.00000000000E+00 0.  1.
</event>
<event>
 8    1  0.1247338E-006  0.9118800E+02  0.7816164E-02  0.1184000E+00
        -11   -1    0    0    0    0  0.00000000000E+00  0.00000000000E+00  0.45593999997E+02  0.45594000000E+02  0.51100000000E-03 0.  1.
         11   -1    0    0    0    0 -0.00000000000E+00 -0.00000000000E+00 -0.45593999997E+02  0.45594000000E+02  0.51100000000E-03 0. -1.
         23    2    1    2    0    0 -0.71054273576E-14 -0.17763568394E-14  0.88817841970E-15  0.91188000000E+02  0.91188000000E+02 0.  0.
    9900012    2    3    3    0    0 -0.35608289040E+02 -0.84527313154E+01 -0.40473638736E+01  0.54367081090E+02  0.39999992962E+02 0.  0.
        -12    1    3    3    0    0  0.35608289040E+02  0.84527313154E+01  0.40473638736E+01  0.36820918910E+02  0.00000000000E+00 0.  1.
         11    1    4    4    0    0 -0.21684842477E+02  0.31792927503E+01  0.56031721869E+01  0.22621578956E+02  0.51100000000E-03 0. -1.
        -11    1    4    4    0    0 -0.55350255218E+01  0.66843332934E+01  0.13642486100E+01  0.87851006617E+01  0.51100000000E-03 0.  1.
         12    1    4    4    0    0 -0.83884210411E+01 -0.18316357359E+02 -0.11014784670E+02  0.22960401473E+02  0.00000000000E+00 0. -1.
</event>
<event>
 8    1  0.1247338E-006  0.9118800E+02  0.7816164E-02  0.1184000E+00
        -11   -1    0    0    0    0  0.00000000000E+00  0.00000000000E+00  0.45593999997E+02  0.45594000000E+02  0.51100000000E-03 0.  1.
         11   -1    0    0    0    0 -0.00000000000E+00 -0.00000000000E+00 -0.45593999997E+02  0.45594000000E+02  0.51100000000E-03 0. -1.
         23    2    1    2    0    0  0.00000000000E+00  0.35527136788E-14 -0.71054273576E-14  0.91188000000E+02  0.91188000000E+02 0.  0.
    9900012    2    3    3    0    0 -0.16243793020E+02 -0.17012545310E+02  0.28328287102E+02  0.54367090727E+02  0.40000014930E+02 0.  0.
         12    1    3    3    0    0  0.16243793020E+02  0.17012545310E+02 -0.28328287102E+02  0.36820909273E+02  0.00000000000E+00 0. -1.
         11    1    4    4    0    0 -0.13316435220E+02  0.43175936838E+00 -0.39728772596E+01  0.13903151337E+02  0.51100000000E-03 0. -1.
        -11    1    4    4    0    0 -0.99634973791E+01 -0.98025496762E+01  0.18992990293E+02  0.23581665351E+02  0.51100000000E-03 0.  1.
         12    1    4    4    0    0  0.70361395793E+01 -0.76417550026E+01  0.13308174068E+02  0.16882274039E+02  0.00000000000E+00 0. -1.
</event>
<event>
 8    1  0.1247338E-006  0.9118800E+02  0.7816164E-02  0.1184000E+00
        -11   -1    0    0    0    0  0.00000000000E+00  0.00000000000E+00  0.45593999997E+02  0.45594000000E+02  0.51100000000E-03 0.  1.
         11   -1    0    0    0    0 -0.00000000000E+00 -0.00000000000E+00 -0.45593999997E+02  0.45594000000E+02  0.51100000000E-03 0. -1.
         23    2    1    2    0    0  0.00000000000E+00  0.35527136788E-14  0.00000000000E+00  0.91188000000E+02  0.91188000000E+02 0.  0.
    9900012    2    3    3    0    0 -0.18437660493E+02  0.30414165314E+02  0.95295073645E+01  0.54367078138E+02  0.39999986231E+02 0.  0.
        -12    1    3    3    0    0  0.18437660493E+02 -0.30414165314E+02 -0.95295073645E+01  0.36820921862E+02  0.00000000000E+00 0.  1.
         11    1    4    4    0    0 -0.18802774194E+02  0.23219211311E+02  0.77245155814E+01  0.30860075057E+02  0.51100000000E-03 0. -1.
        -11    1    4    4    0    0 -0.39496474376E+00  0.14216490725E+02  0.58385460461E+01  0.15373783720E+02  0.51100000000E-03 0.  1.
         12    1    4    4    0    0  0.76007844452E+00 -0.70215367221E+01 -0.40335542630E+01  0.81332193610E+01  0.00000000000E+00 0. -1.
</event>
<event>
 8    1  0.1247338E-006  0.9118800E+02  0.7816164E-02  0.1184000E+00
        -11   -1    0    0    0    0  0.00000000000E+00  0.00000000000E+00  0.45593999997E+02  0.45594000000E+02  0.51100000000E-03 0.  1.
         11   -1    0    0    0    0 -0.00000000000E+00 -0.00000000000E+00 -0.45593999997E+02  0.45594000000E+02  0.51100000000E-03 0. -1.
         23    2    1    2    0    0  0.00000000000E+00  0.00000000000E+00  0.00000000000E+00  0.91188000000E+02  0.91188000000E+02 0.  0.
    9900012    2    3    3    0    0 -0.14500690866E+02 -0.29179272841E+02  0.17148737802E+02  0.54367092796E+02  0.40000019647E+02 0.  0.
         12    1    3    3    0    0  0.14500690866E+02  0.29179272841E+02 -0.17148737802E+02  0.36820907204E+02  0.00000000000E+00 0. -1.
         11    1    4    4    0    0 -0.16712105292E+02 -0.94303896245E+01  0.11611601119E+02  0.22428909750E+02  0.51100000000E-03 0. -1.
        -11    1    4    4    0    0 -0.51588873335E+01  0.25044171749E+01  0.62539294442E+01  0.84851551347E+01  0.51100000000E-03 0.  1.
        -12    1    4    4    0    0  0.73703017599E+01 -0.22253300391E+02 -0.71679276102E+00  0.23453027911E+02  0.00000000000E+00 0.  1.
</event>
<event>
 8    1  0.1247338E-006  0.9118800E+02  0.7816164E-02  0.1184000E+00
        -11   -1    0    0    0    0  0.00000000000E+00  0.00000000000E+00  0.45593999997E+02  0.45594000000E+02  0.51100000000E-03 0. -1.
         11   -1    0    0    0    0 -0.00000000000E+00 -0.00000000000E+00 -0.45593999997E+02  0.45594000000E+02  0.51100000000E-03 0.  1.
         23    2    1    2    0    0 -0.35527136788E-14 -0.66613381478E-15  0.00000000000E+00  0.91188000000E+02  0.91188000000E+02 0.  0.
    9900012    2    3    3    0    0  0.19250120474E+02 -0.81817710343E+00 -0.31377403689E+02  0.54367108997E+02  0.40000056579E+02 0.  0.
         12    1    3    3    0    0 -0.19250120474E+02  0.81817710343E+00  0.31377403689E+02  0.36820891003E+02  0.00000000000E+00 0. -1.
         11    1    4    4    0    0  0.24060192428E+01  0.42636878169E+01  0.95164710721E+00  0.49873434687E+01  0.51100000000E-03 0. -1.
        -11    1    4    4    0    0 -0.14285888806E+01  0.36359956307E+01 -0.28510634530E+02  0.28777032717E+02  0.51100000000E-03 0.  1.
        -12    1    4    4    0    0  0.18272690112E+02 -0.87178605510E+01 -0.38184162661E+01  0.20602732811E+02  0.00000000000E+00 0.  1.
</event>
<event>
 8    1  0.1247338E-006  0.9118800E+02  0.7816164E-02  0.1184000E+00
        -11   -1    0    0    0    0  0.00000000000E+00  0.00000000000E+00  0.45593999997E+02  0.45594000000E+02  0.51100000000E-03 0.  1.
         11   -1    0    0    0    0 -0.00000000000E+00 -0.00000000000E+00 -0.45593999997E+02  0.45594000000E+02  0.51100000000E-03 0. -1.
         23    2    1    2    0    0  0.00000000000E+00 -0.17763568394E-14  0.00000000000E+00  0.91188000000E+02  0.91188000000E+02 0.  0.
    9900012    2    3    3    0    0  0.25655584530E+02 -0.10264005241E+02 -0.24335571523E+02  0.54367097479E+02  0.40000030322E+02 0.  0.
        -12    1    3    3    0    0 -0.25655584530E+02  0.10264005241E+02  0.24335571523E+02  0.36820902521E+02  0.00000000000E+00 0.  1.
         11    1    4    4    0    0  0.58007562341E+01  0.11930567477E+02 -0.16481880123E+02  0.21157494792E+02  0.51100000000E-03 0. -1.
        -11    1    4    4    0    0  0.11294334796E+02 -0.19922989873E+02 -0.29639319733E+01  0.23092691852E+02  0.51100000000E-03 0.  1.
         12    1    4    4    0    0  0.85604935001E+01 -0.22715828446E+01 -0.48897594271E+01  0.10116910835E+02  0.00000000000E+00 0. -1.
</event>
<event>
 8    1  0.1247338E-006  0.9118800E+02  0.7816164E-02  0.1184000E+00
        -11   -1    0    0    0    0  0.00000000000E+00  0.00000000000E+00  0.45593999997E+02  0.45594000000E+02  0.51100000000E-03 0.  1.
         11   -1    0    0    0    0 -0.00000000000E+00 -0.00000000000E+00 -0.45593999997E+02  0.45594000000E+02  0.51100000000E-03 0. -1.
         23    2    1    2    0    0 -0.26645352591E-14  0.00000000000E+00 -0.17763568394E-14  0.91188000000E+02  0.91188000000E+02 0.  0.
    9900012    2    3    3    0    0 -0.47697458440E+01  0.34657695187E+02 -0.11483616807E+02  0.54367085209E+02  0.40000002350E+02 0.  0.
        -12    1    3    3    0    0  0.47697458440E+01 -0.34657695187E+02  0.11483616807E+02  0.36820914791E+02  0.00000000000E+00 0.  1.
         11    1    4    4    0    0  0.70789106163E+01  0.40639312048E+00  0.16984522293E+01  0.72911501917E+01  0.51100000000E-03 0. -1.
        -11    1    4    4    0    0  0.10394228635E+01  0.20580458937E+02  0.47026041638E+01  0.21136465554E+02  0.51100000000E-03 0.  1.
         12    1    4    4    0    0 -0.12888079324E+02  0.13670843130E+02 -0.17884673200E+02  0.25939469463E+02  0.00000000000E+00 0. -1.
</event>
<event>
 8    1  0.1247338E-006  0.9118800E+02  0.7816164E-02  0.1184000E+00
        -11   -1    0    0    0    0  0.00000000000E+00  0.00000000000E+00  0.45593999997E+02  0.45594000000E+02  0.51100000000E-03 0.  1.
         11   -1    0    0    0    0 -0.00000000000E+00 -0.00000000000E+00 -0.45593999997E+02  0.45594000000E+02  0.51100000000E-03 0. -1.
         23    2    1    2    0    0  0.00000000000E+00 -0.35527136788E-14  0.00000000000E+00  0.91188000000E+02  0.91188000000E+02 0.  0.
    9900012    2    3    3    0    0 -0.17069641456E+02  0.17743125715E+02  0.27378621159E+02  0.54367081134E+02  0.39999993061E+02 0.  0.
         12    1    3    3    0    0  0.17069641456E+02 -0.17743125715E+02 -0.27378621159E+02  0.36820918866E+02  0.00000000000E+00 0. -1.
         11    1    4    4    0    0 -0.53079551413E+01  0.51021673740E+01 -0.29476342045E+01  0.79306397825E+01  0.51100000000E-03 0. -1.
        -11    1    4    4    0    0  0.44605348178E+01 -0.72532165899E+01  0.32178457130E+01  0.91027497524E+01  0.51100000000E-03 0.  1.
        -12    1    4    4    0    0 -0.16222221133E+02  0.19894174931E+02  0.27108409650E+02  0.37333691599E+02  0.00000000000E+00 0.  1.
</event>
<event>
 8    1  0.1247338E-006  0.9118800E+02  0.7816164E-02  0.1184000E+00
        -11   -1    0    0    0    0  0.00000000000E+00  0.00000000000E+00  0.45593999997E+02  0.45594000000E+02  0.51100000000E-03 0. -1.
         11   -1    0    0    0    0 -0.00000000000E+00 -0.00000000000E+00 -0.45593999997E+02  0.45594000000E+02  0.51100000000E-03 0.  1.
         23    2    1    2    0    0  0.00000000000E+00 -0.17763568394E-14  0.00000000000E+00  0.91188000000E+02  0.91188000000E+02 0.  0.
    9900012    2    3    3    0    0 -0.26518392760E+02  0.14493449393E+02 -0.21035549989E+02  0.54367087556E+02  0.40000007701E+02 0.  0.
         12    1    3    3    0    0  0.26518392760E+02 -0.14493449393E+02  0.21035549989E+02  0.36820912444E+02  0.00000000000E+00 0. -1.
         11    1    4    4    0    0 -0.12061667533E+02 -0.35387005373E+01  0.62643749163E+01  0.14044522724E+02  0.51100000000E-03 0. -1.
        -11    1    4    4    0    0 -0.18133128346E+02  0.11197556406E+02 -0.16159781375E+02  0.26745731387E+02  0.51100000000E-03 0.  1.
         12    1    4    4    0    0  0.36764031187E+01  0.68345935239E+01 -0.11140143531E+02  0.13576833446E+02  0.00000000000E+00 0. -1.
</event>
<event>
 8    1  0.1247338E-006  0.9118800E+02  0.7816164E-02  0.1184000E+00
        -11   -1    0    0    0    0  0.00000000000E+00  0.00000000000E+00  0.45593999997E+02  0.45594000000E+02  0.51100000000E-03 0.  1.
         11   -1    0    0    0    0 -0.00000000000E+00 -0.00000000000E+00 -0.45593999997E+02  0.45594000000E+02  0.51100000000E-03 0. -1.
         23    2    1    2    0    0  0.44408920985E-15  0.71054273576E-14  0.71054273576E-14  0.91188000000E+02  0.91188000000E+02 0.  0.
    9900012    2    3    3    0    0 -0.84241751051E+00  0.27520257945E+02  0.24447894344E+02  0.54367166190E+02  0.40000186963E+02 0.  0.
         12    1    3    3    0    0  0.84241751051E+00 -0.27520257945E+02 -0.24447894344E+02  0.36820833810E+02  0.00000000000E+00 0. -1.
         11    1    4    4    0    0 -0.10296003871E+01 -0.61485981565E+01 -0.82487181449E+00  0.62885411677E+01  0.51100000000E-03 0. -1.
        -11    1    4    4    0    0 -0.54910098772E+01 -0.93013079973E+00  0.54927418111E+01  0.78221829204E+01  0.51100000000E-03 0.  1.
        -12    1    4    4    0    0  0.56781927538E+01  0.34598986901E+02  0.19780024348E+02  0.40256442102E+02  0.00000000000E+00 0.  1.
</event>
<event>
 8    1  0.1247338E-006  0.9118800E+02  0.7816164E-02  0.1184000E+00
        -11   -1    0    0    0    0  0.00000000000E+00  0.00000000000E+00  0.45593999997E+02  0.45594000000E+02  0.51100000000E-03 0. -1.
         11   -1    0    0    0    0 -0.00000000000E+00 -0.00000000000E+00 -0.45593999997E+02  0.45594000000E+02  0.51100000000E-03 0.  1.
         23    2    1    2    0    0  0.17763568394E-14  0.71054273576E-14  0.00000000000E+00  0.91188000000E+02  0.91188000000E+02 0.  0.
    9900012    2    3    3    0    0  0.11125023505E+02 -0.34946640510E+02 -0.32780066672E+01  0.54367093458E+02  0.40000021155E+02 0.  0.
        -12    1    3    3    0    0 -0.11125023505E+02  0.34946640510E+02  0.32780066672E+01  0.36820906542E+02  0.00000000000E+00 0.  1.
         11    1    4    4    0    0  0.18523657851E+02 -0.16699896539E+02 -0.26106962735E+01  0.25076446716E+02  0.51100000000E-03 0. -1.
        -11    1    4    4    0    0  0.68443613622E+01 -0.31257163337E+01 -0.35483557316E+01  0.83190272097E+01  0.51100000000E-03 0.  1.
         12    1    4    4    0    0 -0.14242995709E+02 -0.15121027636E+02  0.28810453379E+01  0.20971619532E+02  0.00000000000E+00 0. -1.
</event>
<event>
 8    1  0.1247338E-006  0.9118800E+02  0.7816164E-02  0.1184000E+00
        -11   -1    0    0    0    0  0.00000000000E+00  0.00000000000E+00  0.45593999997E+02  0.45594000000E+02  0.51100000000E-03 0.  1.
         11   -1    0    0    0    0 -0.00000000000E+00 -0.00000000000E+00 -0.45593999997E+02  0.45594000000E+02  0.51100000000E-03 0. -1.
         23    2    1    2    0    0 -0.88817841970E-15  0.00000000000E+00  0.17763568394E-14  0.91188000000E+02  0.91188000000E+02 0.  0.
    9900012    2    3    3    0    0 -0.24144883240E+01 -0.34728886138E+02  0.11993910571E+02  0.54367093207E+02  0.40000020584E+02 0.  0.
         12    1    3    3    0    0  0.24144883240E+01  0.34728886138E+02 -0.11993910571E+02  0.36820906793E+02  0.00000000000E+00 0. -1.
         11    1    4    4    0    0  0.10713636038E+02 -0.73205596846E+01 -0.81181536574E+00  0.13001216701E+02  0.51100000000E-03 0. -1.
        -11    1    4    4    0    0 -0.14656482349E+01 -0.20632573835E+02 -0.26485818334E+01  0.20853446089E+02  0.51100000000E-03 0.  1.
        -12    1    4    4    0    0 -0.11662476127E+02 -0.67757526192E+01  0.15454307770E+02  0.20512430417E+02  0.00000000000E+00 0.  1.
</event>
<event>
 8    1  0.1247338E-006  0.9118800E+02  0.7816164E-02  0.1184000E+00
        -11   -1    0    0    0    0  0.00000000000E+00  0.00000000000E+00  0.45593999997E+02  0.45594000000E+02  0.51100000000E-03 0.  1.
         11   -1    0    0    0    0 -0.00000000000E+00 -0.00000000000E+00 -0.45593999997E+02  0.45594000000E+02  0.51100000000E-03 0. -1.
         23    2    1    2    0    0  0.00000000000E+00 -0.71054273576E-14  0.00000000000E+00  0.91188000000E+02  0.91188000000E+02 0.  0.
    9900012    2    3    3    0    0 -0.24649838399E+01  0.36399401983E+02  0.49787579073E+01  0.54367073337E+02  0.39999975286E+02 0.  0.
        -12    1    3    3    0    0  0.24649838399E+01 -0.36399401983E+02 -0.49787579073E+01  0.36820926663E+02  0.00000000000E+00 0.  1.
         11    1    4    4    0    0  0.62483000694E+00 -0.44045143234E-01  0.62725489240E+01  0.63037467254E+01  0.51100000000E-03 0. -1.
        -11    1    4    4    0    0 -0.31211716051E+01 -0.53742592978E+01  0.21257908535E+00  0.62184857737E+01  0.51100000000E-03 0.  1.
         12    1    4    4    0    0  0.31357758342E-01  0.41817706424E+02 -0.15063701020E+01  0.41844840838E+02  0.00000000000E+00 0. -1.
</event>
<event>
 8    1  0.1247338E-006  0.9118800E+02  0.7816164E-02  0.1184000E+00
        -11   -1    0    0    0    0  0.00000000000E+00  0.00000000000E+00  0.45593999997E+02  0.45594000000E+02  0.51100000000E-03 0.  1.
         11   -1    0    0    0    0 -0.00000000000E+00 -0.00000000000E+00 -0.45593999997E+02  0.45594000000E+02  0.51100000000E-03 0. -1.
         23    2    1    2    0    0 -0.35527136788E-14  0.44408920985E-15  0.35527136788E-14  0.91188000000E+02  0.91188000000E+02 0.  0.
    9900012    2    3    3    0    0 -0.24251676128E+02 -0.34792227221E+01 -0.27486949655E+02  0.54367065912E+02  0.39999958360E+02 0.  0.
        -12    1    3    3    0    0  0.24251676128E+02  0.34792227221E+01  0.27486949655E+02  0.36820934088E+02  0.00000000000E+00 0.  1.
         11    1    4    4    0    0 -0.86549524751E+01  0.93213887357E+01 -0.18265865289E+02  0.22258443910E+02  0.51100000000E-03 0. -1.
        -11    1    4    4    0    0  0.39276839084E+01 -0.10688749629E+01 -0.83786272362E+01  0.93150732254E+01  0.51100000000E-03 0.  1.
        -12    1    4    4    0    0 -0.19524407561E+02 -0.11731736495E+02 -0.84245712963E+00  0.22793548777E+02  0.00000000000E+00 0.  1.
</event>
<event>
 8    1  0.1247338E-006  0.9118800E+02  0.7816164E-02  0.1184000E+00
        -11   -1    0    0    0    0  0.00000000000E+00  0.00000000000E+00  0.45593999997E+02  0.45594000000E+02  0.51100000000E-03 0.  1.
         11   -1    0    0    0    0 -0.00000000000E+00 -0.00000000000E+00 -0.45593999997E+02  0.45594000000E+02  0.51100000000E-03 0. -1.
         23    2    1    2    0    0  0.00000000000E+00  0.00000000000E+00  0.00000000000E+00  0.91188000000E+02  0.91188000000E+02 0.  0.
    9900012    2    3    3    0    0 -0.10811142147E+02 -0.45793437938E+01 -0.34898847045E+02  0.54367072402E+02  0.39999973154E+02 0.  0.
        -12    1    3    3    0    0  0.10811142147E+02  0.45793437938E+01  0.34898847045E+02  0.36820927598E+02  0.00000000000E+00 0.  1.
         11    1    4    4    0    0 -0.18409166273E+02 -0.11043180273E+02 -0.28617122605E+02  0.35774137863E+02  0.51100000000E-03 0. -1.
        -11    1    4    4    0    0  0.69618831265E+01 -0.23944419148E+01  0.55807766995E+00  0.73832661944E+01  0.51100000000E-03 0.  1.
         12    1    4    4    0    0  0.63614099938E+00  0.88582783940E+01 -0.68398021103E+01  0.11209668344E+02  0.00000000000E+00 0. -1.
</event>
<event>
 8    1  0.1247338E-006  0.9118800E+02  0.7816164E-02  0.1184000E+00
        -11   -1    0    0    0    0  0.00000000000E+00  0.00000000000E+00  0.45593999997E+02  0.45594000000E+02  0.51100000000E-03 0.  1.
         11   -1    0    0    0    0 -0.00000000000E+00 -0.00000000000E+00 -0.45593999997E+02  0.45594000000E+02  0.51100000000E-03 0. -1.
         23    2    1    2    0    0  0.00000000000E+00  0.35527136788E-14 -0.88817841970E-15  0.91188000000E+02  0.91188000000E+02 0.  0.
    9900012    2    3    3    0    0 -0.22277730046E+02 -0.29277379745E+02  0.15221070853E+01  0.54367095194E+02  0.40000025115E+02 0.  0.
         12    1    3    3    0    0  0.22277730046E+02  0.29277379745E+02 -0.15221070853E+01  0.36820904806E+02  0.00000000000E+00 0. -1.
         11    1    4    4    0    0  0.19298153354E+01  0.32082774610E+01 -0.25328728872E+01  0.45202518535E+01  0.51100000000E-03 0. -1.
        -11    1    4    4    0    0  0.56051226605E+01 -0.12700342236E+01 -0.23504107699E+01  0.62092526134E+01  0.51100000000E-03 0.  1.
        -12    1    4    4    0    0 -0.29812668041E+02 -0.31215622983E+02  0.64053907425E+01  0.43637590727E+02  0.00000000000E+00 0.  1.
</event>
<event>
 8    1  0.1247338E-006  0.9118800E+02  0.7816164E-02  0.1184000E+00
        -11   -1    0    0    0    0  0.00000000000E+00  0.00000000000E+00  0.45593999997E+02  0.45594000000E+02  0.51100000000E-03 0.  1.
         11   -1    0    0    0    0 -0.00000000000E+00 -0.00000000000E+00 -0.45593999997E+02  0.45594000000E+02  0.51100000000E-03 0. -1.
         23    2    1    2    0    0  0.00000000000E+00  0.00000000000E+00  0.00000000000E+00  0.91188000000E+02  0.91188000000E+02 0.  0.
    9900012    2    3    3    0    0  0.25841300882E+02 -0.21880419865E+02 -0.14465636285E+02  0.54367078802E+02  0.39999987745E+02 0.  0.
        -12    1    3    3    0    0 -0.25841300882E+02  0.21880419865E+02  0.14465636285E+02  0.36820921198E+02  0.00000000000E+00 0.  1.
         11    1    4    4    0    0  0.15673937541E+02 -0.18570049315E+02 -0.19962927053E+02  0.31448966699E+02  0.51100000000E-03 0. -1.
        -11    1    4    4    0    0  0.15570288704E+02 -0.53265955511E+01  0.35822338300E+01  0.16841582763E+02  0.51100000000E-03 0.  1.
        -12    1    4    4    0    0 -0.54029253634E+01  0.20162250016E+01  0.19150569384E+01  0.60765293398E+01  0.00000000000E+00 0.  1.
</event>
<event>
 8    1  0.1247338E-006  0.9118800E+02  0.7816164E-02  0.1184000E+00
        -11   -1    0    0    0    0  0.00000000000E+00  0.00000000000E+00  0.45593999997E+02  0.45594000000E+02  0.51100000000E-03 0.  1.
         11   -1    0    0    0    0 -0.00000000000E+00 -0.00000000000E+00 -0.45593999997E+02  0.45594000000E+02  0.51100000000E-03 0. -1.
         23    2    1    2    0    0  0.35527136788E-14  0.00000000000E+00  0.00000000000E+00  0.91188000000E+02  0.91188000000E+02 0.  0.
    9900012    2    3    3    0    0  0.22626223025E+02 -0.96229803759E+01 -0.27408607236E+02  0.54367089225E+02  0.40000011505E+02 0.  0.
        -12    1    3    3    0    0 -0.22626223025E+02  0.96229803759E+01  0.27408607236E+02  0.36820910775E+02  0.00000000000E+00 0.  1.
         11    1    4    4    0    0  0.13508965300E+02 -0.71051477880E+01 -0.14464475519E+02  0.21028464539E+02  0.51100000000E-03 0. -1.
        -11    1    4    4    0    0 -0.73359598848E+01 -0.10167538412E+02 -0.61371649168E+01  0.13959224129E+02  0.51100000000E-03 0.  1.
         12    1    4    4    0    0  0.16453217610E+02  0.76497058244E+01 -0.68069668004E+01  0.19379400557E+02  0.00000000000E+00 0. -1.
</event>
<event>
 8    1  0.1247338E-006  0.9118800E+02  0.7816164E-02  0.1184000E+00
        -11   -1    0    0    0    0  0.00000000000E+00  0.00000000000E+00  0.45593999997E+02  0.45594000000E+02  0.51100000000E-03 0. -1.
         11   -1    0    0    0    0 -0.00000000000E+00 -0.00000000000E+00 -0.45593999997E+02  0.45594000000E+02  0.51100000000E-03 0.  1.
         23    2    1    2    0    0  0.35527136788E-14 -0.17763568394E-14  0.35527136788E-14  0.91188000000E+02  0.91188000000E+02 0.  0.
    9900012    2    3    3    0    0  0.18577900018E+02 -0.93980266349E+01 -0.30369679746E+02  0.54367099392E+02  0.40000034684E+02 0.  0.
         12    1    3    3    0    0 -0.18577900018E+02  0.93980266349E+01  0.30369679746E+02  0.36820900608E+02  0.00000000000E+00 0. -1.
         11    1    4    4    0    0  0.86952657619E+01 -0.17293920141E+01 -0.13705085458E+02  0.16322616551E+02  0.51100000000E-03 0. -1.
        -11    1    4    4    0    0 -0.42895481875E+01  0.94313773471E+01 -0.11026370532E+02  0.15130497338E+02  0.51100000000E-03 0.  1.
         12    1    4    4    0    0  0.14172182443E+02 -0.17100011968E+02 -0.56382237554E+01  0.22913985503E+02  0.00000000000E+00 0. -1.
</event>
<event>
 8    1  0.1247338E-006  0.9118800E+02  0.7816164E-02  0.1184000E+00
        -11   -1    0    0    0    0  0.00000000000E+00  0.00000000000E+00  0.45593999997E+02  0.45594000000E+02  0.51100000000E-03 0.  1.
         11   -1    0    0    0    0 -0.00000000000E+00 -0.00000000000E+00 -0.45593999997E+02  0.45594000000E+02  0.51100000000E-03 0. -1.
         23    2    1    2    0    0 -0.53290705182E-14  0.00000000000E+00  0.71054273576E-14  0.91188000000E+02  0.91188000000E+02 0.  0.
    9900012    2    3    3    0    0 -0.15819107076E+02  0.19397230565E+01  0.33192952747E+02  0.54367098513E+02  0.40000032681E+02 0.  0.
         12    1    3    3    0    0  0.15819107076E+02 -0.19397230565E+01 -0.33192952747E+02  0.36820901487E+02  0.00000000000E+00 0. -1.
         11    1    4    4    0    0  0.58760839925E+01 -0.58941327472E+01  0.30158171293E+01  0.88523622354E+01  0.51100000000E-03 0.  1.
        -11    1    4    4    0    0  0.47242353969E+01  0.32528585306E+01  0.88570875211E+00  0.58037891898E+01  0.51100000000E-03 0. -1.
        -12    1    4    4    0    0 -0.26419426466E+02  0.45809972732E+01  0.29291426866E+02  0.39710947088E+02  0.00000000000E+00 0.  1.
</event>
<event>
 8    1  0.1247338E-006  0.9118800E+02  0.7816164E-02  0.1184000E+00
        -11   -1    0    0    0    0  0.00000000000E+00  0.00000000000E+00  0.45593999997E+02  0.45594000000E+02  0.51100000000E-03 0.  1.
         11   -1    0    0    0    0 -0.00000000000E+00 -0.00000000000E+00 -0.45593999997E+02  0.45594000000E+02  0.51100000000E-03 0. -1.
         23    2    1    2    0    0 -0.17763568394E-14  0.00000000000E+00  0.35527136788E-14  0.91188000000E+02  0.91188000000E+02 0.  0.
    9900012    2    3    3    0    0 -0.12284940768E+02 -0.24902100714E+02  0.24181503861E+02  0.54367088569E+02  0.40000010010E+02 0.  0.
         12    1    3    3    0    0  0.12284940768E+02  0.24902100714E+02 -0.24181503861E+02  0.36820911431E+02  0.00000000000E+00 0. -1.
         11    1    4    4    0    0  0.81423498994E+01 -0.11803286833E+02  0.83974312837E+01  0.16617228841E+02  0.51100000000E-03 0. -1.
        -11    1    4    4    0    0 -0.20203725757E+02  0.71779717345E+00  0.70886825224E+01  0.21423239424E+02  0.51100000000E-03 0.  1.
        -12    1    4    4    0    0 -0.22356490988E+00 -0.13816611055E+02  0.86953900548E+01  0.16326620303E+02  0.00000000000E+00 0.  1.
</event>
<event>
 8    1  0.1247338E-006  0.9118800E+02  0.7816164E-02  0.1184000E+00
        -11   -1    0    0    0    0  0.00000000000E+00  0.00000000000E+00  0.45593999997E+02  0.45594000000E+02  0.51100000000E-03 0.  1.
         11   -1    0    0    0    0 -0.00000000000E+00 -0.00000000000E+00 -0.45593999997E+02  0.45594000000E+02  0.51100000000E-03 0. -1.
         23    2    1    2    0    0  0.00000000000E+00  0.00000000000E+00  0.35527136788E-14  0.91188000000E+02  0.91188000000E+02 0.  0.
    9900012    2    3    3    0    0 -0.29372720026E+02  0.12143535337E+02  0.18589193763E+02  0.54367078543E+02  0.39999987154E+02 0.  0.
         12    1    3    3    0    0  0.29372720026E+02 -0.12143535337E+02 -0.18589193763E+02  0.36820921457E+02  0.00000000000E+00 0. -1.
         11    1    4    4    0    0 -0.19066513437E+02  0.37725600735E+01 -0.95505929794E+01  0.21655899211E+02  0.51100000000E-03 0. -1.
        -11    1    4    4    0    0  0.10119023238E+01  0.28987263049E+01  0.18876365975E+01  0.36041271744E+01  0.51100000000E-03 0.  1.
        -12    1    4    4    0    0 -0.11318108913E+02  0.54722489586E+01  0.26252150145E+02  0.29107052157E+02  0.00000000000E+00 0.  1.
</event>
<event>
 8    1  0.1247338E-006  0.9118800E+02  0.7816164E-02  0.1184000E+00
        -11   -1    0    0    0    0  0.00000000000E+00  0.00000000000E+00  0.45593999997E+02  0.45594000000E+02  0.51100000000E-03 0. -1.
         11   -1    0    0    0    0 -0.00000000000E+00 -0.00000000000E+00 -0.45593999997E+02  0.45594000000E+02  0.51100000000E-03 0.  1.
         23    2    1    2    0    0  0.35527136788E-14  0.71054273576E-14  0.00000000000E+00  0.91188000000E+02  0.91188000000E+02 0.  0.
    9900012    2    3    3    0    0 -0.18740166427E+02  0.25301850435E+02 -0.19089248262E+02  0.54367124504E+02  0.40000091931E+02 0.  0.
         12    1    3    3    0    0  0.18740166427E+02 -0.25301850435E+02  0.19089248262E+02  0.36820875496E+02  0.00000000000E+00 0. -1.
         11    1    4    4    0    0 -0.18690086036E+02  0.76592836517E+01 -0.26215908943E+02  0.33094679694E+02  0.51100000000E-03 0.  1.
        -11    1    4    4    0    0  0.46722262546E-01  0.13637149663E+02  0.64505833927E+00  0.13652477226E+02  0.51100000000E-03 0. -1.
         12    1    4    4    0    0 -0.96802653455E-01  0.40054171202E+01  0.64816023415E+01  0.76199675835E+01  0.00000000000E+00 0. -1.
</event>
<event>
 8    1  0.1247338E-006  0.9118800E+02  0.7816164E-02  0.1184000E+00
        -11   -1    0    0    0    0  0.00000000000E+00  0.00000000000E+00  0.45593999997E+02  0.45594000000E+02  0.51100000000E-03 0. -1.
         11   -1    0    0    0    0 -0.00000000000E+00 -0.00000000000E+00 -0.45593999997E+02  0.45594000000E+02  0.51100000000E-03 0.  1.
         23    2    1    2    0    0  0.00000000000E+00  0.35527136788E-14  0.35527136788E-14  0.91188000000E+02  0.91188000000E+02 0.  0.
    9900012    2    3    3    0    0 -0.16982745403E+02  0.21675952989E+02  0.24444027628E+02  0.54367203348E+02  0.40000271671E+02 0.  0.
         12    1    3    3    0    0  0.16982745403E+02 -0.21675952989E+02 -0.24444027628E+02  0.36820796652E+02  0.00000000000E+00 0. -1.
         11    1    4    4    0    0 -0.13724207504E+02 -0.16425139157E+01  0.16550995688E+02  0.21563561443E+02  0.51100000000E-03 0. -1.
        -11    1    4    4    0    0  0.83582694680E+01  0.61307276749E+01  0.59882975871E+01  0.11971056703E+02  0.51100000000E-03 0.  1.
        -12    1    4    4    0    0 -0.11616807367E+02  0.17187739230E+02  0.19047343531E+01  0.20832585202E+02  0.00000000000E+00 0.  1.
</event>
<event>
 8    1  0.1247338E-006  0.9118800E+02  0.7816164E-02  0.1184000E+00
        -11   -1    0    0    0    0  0.00000000000E+00  0.00000000000E+00  0.45593999997E+02  0.45594000000E+02  0.51100000000E-03 0. -1.
         11   -1    0    0    0    0 -0.00000000000E+00 -0.00000000000E+00 -0.45593999997E+02  0.45594000000E+02  0.51100000000E-03 0.  1.
         23    2    1    2    0    0  0.00000000000E+00  0.00000000000E+00  0.00000000000E+00  0.91188000000E+02  0.91188000000E+02 0.  0.
    9900012    2    3    3    0    0 -0.25585820166E+02  0.15539281181E+02  0.21440072916E+02  0.54367079590E+02  0.39999989542E+02 0.  0.
        -12    1    3    3    0    0  0.25585820166E+02 -0.15539281181E+02 -0.21440072916E+02  0.36820920410E+02  0.00000000000E+00 0.  1.
         11    1    4    4    0    0 -0.44292150116E+01  0.98354974484E+01  0.99134835083E+01  0.14650328024E+02  0.51100000000E-03 0. -1.
        -11    1    4    4    0    0 -0.17394781888E+02  0.17134223998E+02  0.12883456521E+02  0.27606946972E+02  0.51100000000E-03 0.  1.
        -12    1    4    4    0    0 -0.37618232666E+01 -0.11430440265E+02 -0.13568671135E+01  0.12109804594E+02  0.00000000000E+00 0.  1.
</event>
<event>
 8    1  0.1247338E-006  0.9118800E+02  0.7816164E-02  0.1184000E+00
        -11   -1    0    0    0    0  0.00000000000E+00  0.00000000000E+00  0.45593999997E+02  0.45594000000E+02  0.51100000000E-03 0.  1.
         11   -1    0    0    0    0 -0.00000000000E+00 -0.00000000000E+00 -0.45593999997E+02  0.45594000000E+02  0.51100000000E-03 0. -1.
         23    2    1    2    0    0 -0.35527136788E-14  0.00000000000E+00  0.00000000000E+00  0.91188000000E+02  0.91188000000E+02 0.  0.
    9900012    2    3    3    0    0  0.29296672039E+02  0.69751893951E+01  0.21185659826E+02  0.54367076031E+02  0.39999981428E+02 0.  0.
         12    1    3    3    0    0 -0.29296672039E+02 -0.69751893951E+01 -0.21185659826E+02  0.36820923969E+02  0.00000000000E+00 0. -1.
         11    1    4    4    0    0  0.25844431264E+02  0.32257042296E+01 -0.11286464750E+01  0.26069400420E+02  0.51100000000E-03 0. -1.
        -11    1    4    4    0    0  0.10133003963E+02  0.31899416258E+01  0.14934235444E+02  0.18327162504E+02  0.51100000000E-03 0.  1.
        -12    1    4    4    0    0 -0.66807631883E+01  0.55954353971E+00  0.73800708571E+01  0.99705131065E+01  0.00000000000E+00 0.  1.
</event>
<event>
 8    1  0.1247338E-006  0.9118800E+02  0.7816164E-02  0.1184000E+00
        -11   -1    0    0    0    0  0.00000000000E+00  0.00000000000E+00  0.45593999997E+02  0.45594000000E+02  0.51100000000E-03 0.  1.
         11   -1    0    0    0    0 -0.00000000000E+00 -0.00000000000E+00 -0.45593999997E+02  0.45594000000E+02  0.51100000000E-03 0. -1.
         23    2    1    2    0    0  0.15543122345E-14  0.00000000000E+00  0.00000000000E+00  0.91188000000E+02  0.91188000000E+02 0.  0.
    9900012    2    3    3    0    0 -0.16142276297E+01  0.26254327292E+02  0.25765952430E+02  0.54367085603E+02  0.40000003250E+02 0.  0.
         12    1    3    3    0    0  0.16142276297E+01 -0.26254327292E+02 -0.25765952430E+02  0.36820914397E+02  0.00000000000E+00 0. -1.
         11    1    4    4    0    0  0.86252044055E+01  0.42352466386E+01  0.89016494649E+01  0.13098504822E+02  0.51100000000E-03 0. -1.
        -11    1    4    4    0    0  0.69401027302E+01  0.18335578177E+02  0.12196033201E+02  0.23088994762E+02  0.51100000000E-03 0.  1.
        -12    1    4    4    0    0 -0.17179534765E+02  0.36835024759E+01  0.46682697638E+01  0.18179586019E+02  0.00000000000E+00 0.  1.
</event>
<event>
 8    1  0.1247338E-006  0.9118800E+02  0.7816164E-02  0.1184000E+00
        -11   -1    0    0    0    0  0.00000000000E+00  0.00000000000E+00  0.45593999997E+02  0.45594000000E+02  0.51100000000E-03 0.  1.
         11   -1    0    0    0    0 -0.00000000000E+00 -0.00000000000E+00 -0.45593999997E+02  0.45594000000E+02  0.51100000000E-03 0. -1.
         23    2    1    2    0    0  0.00000000000E+00  0.00000000000E+00  0.00000000000E+00  0.91188000000E+02  0.91188000000E+02 0.  0.
    9900012    2    3    3    0    0  0.19198564713E+02  0.11572547380E+02  0.29210811553E+02  0.54367078617E+02  0.39999987323E+02 0.  0.
         12    1    3    3    0    0 -0.19198564713E+02 -0.11572547380E+02 -0.29210811553E+02  0.36820921383E+02  0.00000000000E+00 0. -1.
         11    1    4    4    0    0 -0.21098493435E+00  0.12083971075E+02  0.10337376563E+02  0.15903717366E+02  0.51100000000E-03 0. -1.
        -11    1    4    4    0    0  0.10602443923E+01  0.51034423872E+01 -0.54105170910E+01  0.75128515108E+01  0.51100000000E-03 0.  1.
        -12    1    4    4    0    0  0.18349305255E+02 -0.56148660823E+01  0.24283952081E+02  0.30950509740E+02  0.00000000000E+00 0.  1.
</event>
<event>
 8    1  0.1247338E-006  0.9118800E+02  0.7816164E-02  0.1184000E+00
        -11   -1    0    0    0    0  0.00000000000E+00  0.00000000000E+00  0.45593999997E+02  0.45594000000E+02  0.51100000000E-03 0. -1.
         11   -1    0    0    0    0 -0.00000000000E+00 -0.00000000000E+00 -0.45593999997E+02  0.45594000000E+02  0.51100000000E-03 0.  1.
         23    2    1    2    0    0 -0.17763568394E-14  0.00000000000E+00  0.88817841970E-15  0.91188000000E+02  0.91188000000E+02 0.  0.
    9900012    2    3    3    0    0  0.95198565295E+01  0.35120330062E+02 -0.56313887828E+01  0.54367112020E+02  0.40000063472E+02 0.  0.
         12    1    3    3    0    0 -0.95198565295E+01 -0.35120330062E+02  0.56313887828E+01  0.36820887980E+02  0.00000000000E+00 0. -1.
         11    1    4    4    0    0 -0.37988297188E+01 -0.37089357286E+01 -0.83705808155E+00  0.53747537585E+01  0.51100000000E-03 0. -1.
        -11    1    4    4    0    0  0.19994780760E+02  0.36476879937E+02 -0.30930242146E+01  0.41712358200E+02  0.51100000000E-03 0.  1.
         12    1    4    4    0    0 -0.66760945114E+01  0.23523858533E+01 -0.17013064866E+01  0.72800000611E+01  0.00000000000E+00 0. -1.
</event>
<event>
 8    1  0.1247338E-006  0.9118800E+02  0.7816164E-02  0.1184000E+00
        -11   -1    0    0    0    0  0.00000000000E+00  0.00000000000E+00  0.45593999997E+02  0.45594000000E+02  0.51100000000E-03 0.  1.
         11   -1    0    0    0    0 -0.00000000000E+00 -0.00000000000E+00 -0.45593999997E+02  0.45594000000E+02  0.51100000000E-03 0. -1.
         23    2    1    2    0    0 -0.35527136788E-14  0.00000000000E+00  0.00000000000E+00  0.91188000000E+02  0.91188000000E+02 0.  0.
    9900012    2    3    3    0    0 -0.20975676808E+02 -0.29893765398E+02 -0.47080747916E+01  0.54367052219E+02  0.39999927144E+02 0.  0.
         12    1    3    3    0    0  0.20975676808E+02  0.29893765398E+02  0.47080747916E+01  0.36820947781E+02  0.00000000000E+00 0. -1.
         11    1    4    4    0    0  0.42136318421E+01 -0.14674058955E+02 -0.78638888482E+01  0.17173335366E+02  0.51100000000E-03 0. -1.
        -11    1    4    4    0    0 -0.20480816992E+02 -0.20925906040E+02  0.35367822354E+00  0.29282802065E+02  0.51100000000E-03 0.  1.
         12    1    4    4    0    0 -0.47084916586E+01  0.57061995976E+01  0.28021358331E+01  0.79109147874E+01  0.00000000000E+00 0. -1.
</event>
<event>
 8    1  0.1247338E-006  0.9118800E+02  0.7816164E-02  0.1184000E+00
        -11   -1    0    0    0    0  0.00000000000E+00  0.00000000000E+00  0.45593999997E+02  0.45594000000E+02  0.51100000000E-03 0.  1.
         11   -1    0    0    0    0 -0.00000000000E+00 -0.00000000000E+00 -0.45593999997E+02  0.45594000000E+02  0.51100000000E-03 0. -1.
         23    2    1    2    0    0 -0.44408920985E-15  0.00000000000E+00  0.35527136788E-14  0.91188000000E+02  0.91188000000E+02 0.  0.
    9900012    2    3    3    0    0  0.37943201453E+01  0.31408556451E+02  0.18838623415E+02  0.54366973183E+02  0.39999746963E+02 0.  0.
         12    1    3    3    0    0 -0.37943201453E+01 -0.31408556451E+02 -0.18838623415E+02  0.36821026817E+02  0.00000000000E+00 0. -1.
         11    1    4    4    0    0  0.13751147363E+02  0.11469206799E+02 -0.72063691434E+01  0.19302033957E+02  0.51100000000E-03 0. -1.
        -11    1    4    4    0    0 -0.19714322001E+01  0.11253589363E+02  0.15389995185E+02  0.19167205601E+02  0.51100000000E-03 0.  1.
         12    1    4    4    0    0 -0.79853950172E+01  0.86857602888E+01  0.10654997373E+02  0.15897733625E+02  0.00000000000E+00 0. -1.
</event>
<event>
 8    1  0.1247338E-006  0.9118800E+02  0.7816164E-02  0.1184000E+00
        -11   -1    0    0    0    0  0.00000000000E+00  0.00000000000E+00  0.45593999997E+02  0.45594000000E+02  0.51100000000E-03 0.  1.
         11   -1    0    0    0    0 -0.00000000000E+00 -0.00000000000E+00 -0.45593999997E+02  0.45594000000E+02  0.51100000000E-03 0. -1.
         23    2    1    2    0    0 -0.17763568394E-14  0.88817841970E-15  0.00000000000E+00  0.91188000000E+02  0.91188000000E+02 0.  0.
    9900012    2    3    3    0    0 -0.15273152147E+02 -0.51699620338E+01 -0.33102596145E+02  0.54367088069E+02  0.40000008870E+02 0.  0.
        -12    1    3    3    0    0  0.15273152147E+02  0.51699620338E+01  0.33102596145E+02  0.36820911931E+02  0.00000000000E+00 0.  1.
         11    1    4    4    0    0 -0.20354166026E+02 -0.34389275059E+01 -0.34629472734E+02  0.40315241276E+02  0.51100000000E-03 0. -1.
        -11    1    4    4    0    0  0.22479144432E+01  0.23017785465E+01  0.63735186495E+01  0.71395408856E+01  0.51100000000E-03 0.  1.
         12    1    4    4    0    0  0.28330994355E+01 -0.40328130744E+01 -0.48466420596E+01  0.69123059075E+01  0.00000000000E+00 0. -1.
</event>
<event>
 8    1  0.1247338E-006  0.9118800E+02  0.7816164E-02  0.1184000E+00
        -11   -1    0    0    0    0  0.00000000000E+00  0.00000000000E+00  0.45593999997E+02  0.45594000000E+02  0.51100000000E-03 0.  1.
         11   -1    0    0    0    0 -0.00000000000E+00 -0.00000000000E+00 -0.45593999997E+02  0.45594000000E+02  0.51100000000E-03 0. -1.
         23    2    1    2    0    0  0.17763568394E-14  0.88817841970E-15  0.00000000000E+00  0.91188000000E+02  0.91188000000E+02 0.  0.
    9900012    2    3    3    0    0  0.13848212196E+02  0.25975405066E+01  0.34018519332E+02  0.54367083998E+02  0.39999999590E+02 0.  0.
         12    1    3    3    0    0 -0.13848212196E+02 -0.25975405066E+01 -0.34018519332E+02  0.36820916002E+02  0.00000000000E+00 0. -1.
         11    1    4    4    0    0  0.17247639010E+01 -0.61518599632E+01  0.29793581327E+02  0.30470931723E+02  0.51100000000E-03 0. -1.
        -11    1    4    4    0    0  0.13236208557E+02  0.29353221369E+01 -0.36537047719E+01  0.14041470430E+02  0.51100000000E-03 0.  1.
         12    1    4    4    0    0 -0.11127602619E+01  0.58140783330E+01  0.78786427769E+01  0.98546818451E+01  0.00000000000E+00 0. -1.
</event>
<event>
 8    1  0.1247338E-006  0.9118800E+02  0.7816164E-02  0.1184000E+00
        -11   -1    0    0    0    0  0.00000000000E+00  0.00000000000E+00  0.45593999997E+02  0.45594000000E+02  0.51100000000E-03 0.  1.
         11   -1    0    0    0    0 -0.00000000000E+00 -0.00000000000E+00 -0.45593999997E+02  0.45594000000E+02  0.51100000000E-03 0. -1.
         23    2    1    2    0    0  0.88817841970E-15 -0.17763568394E-14  0.00000000000E+00  0.91188000000E+02  0.91188000000E+02 0.  0.
    9900012    2    3    3    0    0  0.54805667957E+01 -0.60905842425E+01  0.35897735605E+02  0.54367092211E+02  0.40000018314E+02 0.  0.
         12    1    3    3    0    0 -0.54805667957E+01  0.60905842425E+01 -0.35897735605E+02  0.36820907789E+02  0.00000000000E+00 0. -1.
         11    1    4    4    0    0  0.46841835162E+01  0.12963392217E+02  0.24940360293E+02  0.28495836271E+02  0.51100000000E-03 0. -1.
        -11    1    4    4    0    0  0.49805316531E+01 -0.40313776766E+01  0.75616403885E+01  0.99114129741E+01  0.51100000000E-03 0.  1.
         12    1    4    4    0    0 -0.41841483736E+01 -0.15022598783E+02  0.33957349235E+01  0.15959842966E+02  0.00000000000E+00 0. -1.
</event>
<event>
 8    1  0.1247338E-006  0.9118800E+02  0.7816164E-02  0.1184000E+00
        -11   -1    0    0    0    0  0.00000000000E+00  0.00000000000E+00  0.45593999997E+02  0.45594000000E+02  0.51100000000E-03 0. -1.
         11   -1    0    0    0    0 -0.00000000000E+00 -0.00000000000E+00 -0.45593999997E+02  0.45594000000E+02  0.51100000000E-03 0.  1.
         23    2    1    2    0    0  0.00000000000E+00 -0.35527136788E-14 -0.17763568394E-14  0.91188000000E+02  0.91188000000E+02 0.  0.
    9900012    2    3    3    0    0  0.21641789135E+02  0.28264200245E+02  0.94099994401E+01  0.54367080105E+02  0.39999990715E+02 0.  0.
        -12    1    3    3    0    0 -0.21641789135E+02 -0.28264200245E+02 -0.94099994401E+01  0.36820919895E+02  0.00000000000E+00 0.  1.
         11    1    4    4    0    0  0.13213271547E+02  0.24863307464E+02  0.16769222178E+02  0.32771655676E+02  0.51100000000E-03 0. -1.
        -11    1    4    4    0    0 -0.23741050702E+01  0.80498883333E+01 -0.43640410696E+01  0.94594889810E+01  0.51100000000E-03 0.  1.
        -12    1    4    4    0    0  0.10802622659E+02 -0.46489955525E+01 -0.29951816686E+01  0.12135935448E+02  0.00000000000E+00 0.  1.
</event>
<event>
 8    1  0.1247338E-006  0.9118800E+02  0.7816164E-02  0.1184000E+00
        -11   -1    0    0    0    0  0.00000000000E+00  0.00000000000E+00  0.45593999997E+02  0.45594000000E+02  0.51100000000E-03 0.  1.
         11   -1    0    0    0    0 -0.00000000000E+00 -0.00000000000E+00 -0.45593999997E+02  0.45594000000E+02  0.51100000000E-03 0. -1.
         23    2    1    2    0    0  0.00000000000E+00  0.00000000000E+00  0.00000000000E+00  0.91188000000E+02  0.91188000000E+02 0.  0.
    9900012    2    3    3    0    0 -0.13418715017E+02  0.33168142782E+02  0.86944669516E+01  0.54367063511E+02  0.39999952887E+02 0.  0.
         12    1    3    3    0    0  0.13418715017E+02 -0.33168142782E+02 -0.86944669516E+01  0.36820936489E+02  0.00000000000E+00 0. -1.
         11    1    4    4    0    0  0.35738931235E+01  0.25126758017E+02  0.80228813258E+01  0.26617537556E+02  0.51100000000E-03 0. -1.
        -11    1    4    4    0    0 -0.19001230309E+02  0.10009974833E+02  0.54928141108E+01  0.22167935324E+02  0.51100000000E-03 0.  1.
         12    1    4    4    0    0  0.20086221681E+01 -0.19685900684E+01 -0.48212284849E+01  0.55815906313E+01  0.00000000000E+00 0. -1.
</event>
<event>
 8    1  0.1247338E-006  0.9118800E+02  0.7816164E-02  0.1184000E+00
        -11   -1    0    0    0    0  0.00000000000E+00  0.00000000000E+00  0.45593999997E+02  0.45594000000E+02  0.51100000000E-03 0. -1.
         11   -1    0    0    0    0 -0.00000000000E+00 -0.00000000000E+00 -0.45593999997E+02  0.45594000000E+02  0.51100000000E-03 0.  1.
         23    2    1    2    0    0  0.35527136788E-14  0.00000000000E+00 -0.35527136788E-14  0.91188000000E+02  0.91188000000E+02 0.  0.
    9900012    2    3    3    0    0  0.19103970492E+02 -0.24179183683E+02  0.20154046734E+02  0.54367079155E+02  0.39999988549E+02 0.  0.
        -12    1    3    3    0    0 -0.19103970492E+02  0.24179183683E+02 -0.20154046734E+02  0.36820920845E+02  0.00000000000E+00 0.  1.
         11    1    4    4    0    0 -0.95855553828E+01  0.16671608788E+01  0.37258320027E+01  0.10418451025E+02  0.51100000000E-03 0. -1.
        -11    1    4    4    0    0  0.18961142517E+02 -0.17812496200E+02  0.41517485911E+01  0.26344771076E+02  0.51100000000E-03 0.  1.
         12    1    4    4    0    0  0.97283833578E+01 -0.80338483621E+01  0.12276466140E+02  0.17603857053E+02  0.00000000000E+00 0. -1.
</event>
<event>
 8    1  0.1247338E-006  0.9118800E+02  0.7816164E-02  0.1184000E+00
        -11   -1    0    0    0    0  0.00000000000E+00  0.00000000000E+00  0.45593999997E+02  0.45594000000E+02  0.51100000000E-03 0. -1.
         11   -1    0    0    0    0 -0.00000000000E+00 -0.00000000000E+00 -0.45593999997E+02  0.45594000000E+02  0.51100000000E-03 0.  1.
         23    2    1    2    0    0 -0.13322676296E-14  0.35527136788E-14  0.00000000000E+00  0.91188000000E+02  0.91188000000E+02 0.  0.
    9900012    2    3    3    0    0 -0.16702107629E+01 -0.30342274920E+02 -0.20792737894E+02  0.54367065731E+02  0.39999957946E+02 0.  0.
         12    1    3    3    0    0  0.16702107629E+01  0.30342274920E+02  0.20792737894E+02  0.36820934269E+02  0.00000000000E+00 0. -1.
         11    1    4    4    0    0  0.17280150705E+02 -0.76693538113E+01 -0.99478365383E+01  0.21363100157E+02  0.51100000000E-03 0. -1.
        -11    1    4    4    0    0 -0.11311500847E+02 -0.11615407755E+02 -0.81373933083E+00  0.16233604673E+02  0.51100000000E-03 0.  1.
         12    1    4    4    0    0 -0.76388606206E+01 -0.11057513354E+02 -0.10031162025E+02  0.16770360900E+02  0.00000000000E+00 0. -1.
</event>
<event>
 8    1  0.1247338E-006  0.9118800E+02  0.7816164E-02  0.1184000E+00
        -11   -1    0    0    0    0  0.00000000000E+00  0.00000000000E+00  0.45593999997E+02  0.45594000000E+02  0.51100000000E-03 0.  1.
         11   -1    0    0    0    0 -0.00000000000E+00 -0.00000000000E+00 -0.45593999997E+02  0.45594000000E+02  0.51100000000E-03 0. -1.
         23    2    1    2    0    0 -0.12212453271E-14  0.00000000000E+00  0.00000000000E+00  0.91188000000E+02  0.91188000000E+02 0.  0.
    9900012    2    3    3    0    0  0.40812710673E+00 -0.19538801932E+02 -0.31206541877E+02  0.54367087401E+02  0.40000007349E+02 0.  0.
        -12    1    3    3    0    0 -0.40812710673E+00  0.19538801932E+02  0.31206541877E+02  0.36820912599E+02  0.00000000000E+00 0.  1.
         11    1    4    4    0    0  0.15670663873E+02 -0.29453304577E+01 -0.24631198507E+00  0.15946954179E+02  0.51100000000E-03 0.  1.
        -11    1    4    4    0    0 -0.11027177828E+02 -0.12398583722E+02 -0.20426594633E+02  0.26316711378E+02  0.51100000000E-03 0. -1.
        -12    1    4    4    0    0 -0.42353589385E+01 -0.41948877521E+01 -0.10533635259E+02  0.12103421845E+02  0.00000000000E+00 0.  1.
</event>
<event>
 8    1  0.1247338E-006  0.9118800E+02  0.7816164E-02  0.1184000E+00
        -11   -1    0    0    0    0  0.00000000000E+00  0.00000000000E+00  0.45593999997E+02  0.45594000000E+02  0.51100000000E-03 0.  1.
         11   -1    0    0    0    0 -0.00000000000E+00 -0.00000000000E+00 -0.45593999997E+02  0.45594000000E+02  0.51100000000E-03 0. -1.
         23    2    1    2    0    0 -0.35527136788E-14  0.44408920985E-15 -0.71054273576E-14  0.91188000000E+02  0.91188000000E+02 0.  0.
    9900012    2    3    3    0    0  0.30128149670E+02  0.28558429835E+01  0.20974239122E+02  0.54367082733E+02  0.39999996705E+02 0.  0.
         12    1    3    3    0    0 -0.30128149670E+02 -0.28558429835E+01 -0.20974239122E+02  0.36820917267E+02  0.00000000000E+00 0. -1.
         11    1    4    4    0    0 -0.29625167361E+00  0.79309843159E+01 -0.44362254676E+01  0.90922150180E+01  0.51100000000E-03 0. -1.
        -11    1    4    4    0    0  0.43754696592E+01  0.63452021474E+01  0.95909338868E+00  0.77669933320E+01  0.51100000000E-03 0.  1.
         12    1    4    4    0    0  0.26048931684E+02 -0.11420343480E+02  0.24451371201E+02  0.37507874383E+02  0.00000000000E+00 0. -1.
</event>
<event>
 8    1  0.1247338E-006  0.9118800E+02  0.7816164E-02  0.1184000E+00
        -11   -1    0    0    0    0  0.00000000000E+00  0.00000000000E+00  0.45593999997E+02  0.45594000000E+02  0.51100000000E-03 0.  1.
         11   -1    0    0    0    0 -0.00000000000E+00 -0.00000000000E+00 -0.45593999997E+02  0.45594000000E+02  0.51100000000E-03 0. -1.
         23    2    1    2    0    0  0.44408920985E-15  0.00000000000E+00  0.00000000000E+00  0.91188000000E+02  0.91188000000E+02 0.  0.
    9900012    2    3    3    0    0 -0.11139630300E+01  0.14398688589E+02 -0.33870477524E+02  0.54367185310E+02  0.40000230552E+02 0.  0.
        -12    1    3    3    0    0  0.11139630300E+01 -0.14398688589E+02  0.33870477524E+02  0.36820814690E+02  0.00000000000E+00 0.  1.
         11    1    4    4    0    0 -0.61726843541E+01  0.13372252226E+02 -0.60112096084E+01  0.15907664912E+02  0.51100000000E-03 0. -1.
        -11    1    4    4    0    0  0.27930858538E+01  0.96705288145E+01 -0.95613338214E+00  0.10111115045E+02  0.51100000000E-03 0.  1.
         12    1    4    4    0    0  0.22656354703E+01 -0.86440924517E+01 -0.26903134533E+02  0.28348405354E+02  0.00000000000E+00 0. -1.
</event>
<event>
 8    1  0.1247338E-006  0.9118800E+02  0.7816164E-02  0.1184000E+00
        -11   -1    0    0    0    0  0.00000000000E+00  0.00000000000E+00  0.45593999997E+02  0.45594000000E+02  0.51100000000E-03 0. -1.
         11   -1    0    0    0    0 -0.00000000000E+00 -0.00000000000E+00 -0.45593999997E+02  0.45594000000E+02  0.51100000000E-03 0.  1.
         23    2    1    2    0    0  0.44408920985E-15  0.00000000000E+00  0.00000000000E+00  0.91188000000E+02  0.91188000000E+02 0.  0.
    9900012    2    3    3    0    0  0.30687455980E+01  0.16988002301E+02  0.32523385671E+02  0.54367081526E+02  0.39999993956E+02 0.  0.
        -12    1    3    3    0    0 -0.30687455980E+01 -0.16988002301E+02 -0.32523385671E+02  0.36820918474E+02  0.00000000000E+00 0.  1.
         11    1    4    4    0    0  0.12409995210E+02  0.55355759476E+00  0.14266501916E+02  0.18916857147E+02  0.51100000000E-03 0. -1.
        -11    1    4    4    0    0 -0.15330049817E+02  0.12010915814E+02  0.19880424110E+02  0.27829908177E+02  0.51100000000E-03 0.  1.
        -12    1    4    4    0    0  0.59888002048E+01  0.44235288922E+01 -0.16235403544E+01  0.76203162031E+01  0.00000000000E+00 0.  1.
</event>
<event>
 8    1  0.1247338E-006  0.9118800E+02  0.7816164E-02  0.1184000E+00
        -11   -1    0    0    0    0  0.00000000000E+00  0.00000000000E+00  0.45593999997E+02  0.45594000000E+02  0.51100000000E-03 0. -1.
         11   -1    0    0    0    0 -0.00000000000E+00 -0.00000000000E+00 -0.45593999997E+02  0.45594000000E+02  0.51100000000E-03 0.  1.
         23    2    1    2    0    0  0.88817841970E-15  0.74940054162E-15  0.00000000000E+00  0.91188000000E+02  0.91188000000E+02 0.  0.
    9900012    2    3    3    0    0 -0.60933725473E+01  0.19258516183E+00 -0.36312717969E+02  0.54367085232E+02  0.40000002404E+02 0.  0.
         12    1    3    3    0    0  0.60933725473E+01 -0.19258516183E+00  0.36312717969E+02  0.36820914768E+02  0.00000000000E+00 0. -1.
         11    1    4    4    0    0 -0.19463034827E+00 -0.17375409613E+02 -0.53534231069E+01  0.18182460764E+02  0.51100000000E-03 0. -1.
        -11    1    4    4    0    0 -0.40835095837E+01  0.84948104313E+01 -0.14266155542E+02  0.17098539382E+02  0.51100000000E-03 0.  1.
         12    1    4    4    0    0 -0.18152326154E+01  0.90731843439E+01 -0.16693139320E+02  0.19086085087E+02  0.00000000000E+00 0. -1.
</event>
<event>
 8    1  0.1247338E-006  0.9118800E+02  0.7816164E-02  0.1184000E+00
        -11   -1    0    0    0    0  0.00000000000E+00  0.00000000000E+00  0.45593999997E+02  0.45594000000E+02  0.51100000000E-03 0.  1.
         11   -1    0    0    0    0 -0.00000000000E+00 -0.00000000000E+00 -0.45593999997E+02  0.45594000000E+02  0.51100000000E-03 0. -1.
         23    2    1    2    0    0  0.44408920985E-15  0.71054273576E-14  0.00000000000E+00  0.91188000000E+02  0.91188000000E+02 0.  0.
    9900012    2    3    3    0    0  0.23736155252E+01  0.31301557036E+02  0.19244671288E+02  0.54367097016E+02  0.40000029268E+02 0.  0.
         12    1    3    3    0    0 -0.23736155252E+01 -0.31301557036E+02 -0.19244671288E+02  0.36820902984E+02  0.00000000000E+00 0. -1.
         11    1    4    4    0    0 -0.58244468178E+01  0.72522256065E+00  0.61590234296E+01  0.85078609747E+01  0.51100000000E-03 0. -1.
        -11    1    4    4    0    0  0.26228204150E+01  0.25259253473E+02 -0.52844168505E+01  0.25939046526E+02  0.51100000000E-03 0.  1.
         12    1    4    4    0    0  0.55752419281E+01  0.53170810023E+01  0.18370064709E+02  0.19920189516E+02  0.00000000000E+00 0. -1.
</event>
<event>
 8    1  0.1247338E-006  0.9118800E+02  0.7816164E-02  0.1184000E+00
        -11   -1    0    0    0    0  0.00000000000E+00  0.00000000000E+00  0.45593999997E+02  0.45594000000E+02  0.51100000000E-03 0.  1.
         11   -1    0    0    0    0 -0.00000000000E+00 -0.00000000000E+00 -0.45593999997E+02  0.45594000000E+02  0.51100000000E-03 0. -1.
         23    2    1    2    0    0  0.00000000000E+00  0.00000000000E+00  0.44408920985E-15  0.91188000000E+02  0.91188000000E+02 0.  0.
    9900012    2    3    3    0    0  0.97640305556E+01  0.35476404537E+02 -0.13669907889E+01  0.54367078836E+02  0.39999987822E+02 0.  0.
        -12    1    3    3    0    0 -0.97640305556E+01 -0.35476404537E+02  0.13669907889E+01  0.36820921164E+02  0.00000000000E+00 0.  1.
         11    1    4    4    0    0  0.75418231967E+01  0.29125085721E+02 -0.42870998532E+01  0.30389618965E+02  0.51100000000E-03 0. -1.
        -11    1    4    4    0    0 -0.21622260323E+01 -0.60731277428E+01 -0.53877085888E+01  0.84015180827E+01  0.51100000000E-03 0.  1.
         12    1    4    4    0    0  0.43844333912E+01  0.12424446558E+02  0.83078176532E+01  0.15575941788E+02  0.00000000000E+00 0. -1.
</event>
<event>
 8    1  0.1247338E-006  0.9118800E+02  0.7816164E-02  0.1184000E+00
        -11   -1    0    0    0    0  0.00000000000E+00  0.00000000000E+00  0.45593999997E+02  0.45594000000E+02  0.51100000000E-03 0.  1.
         11   -1    0    0    0    0 -0.00000000000E+00 -0.00000000000E+00 -0.45593999997E+02  0.45594000000E+02  0.51100000000E-03 0. -1.
         23    2    1    2    0    0  0.17763568394E-14  0.00000000000E+00  0.00000000000E+00  0.91188000000E+02  0.91188000000E+02 0.  0.
    9900012    2    3    3    0    0 -0.46868385102E+01 -0.35296965160E+02 -0.93774703499E+01  0.54367093508E+02  0.40000021270E+02 0.  0.
        -12    1    3    3    0    0  0.46868385102E+01  0.35296965160E+02  0.93774703499E+01  0.36820906492E+02  0.00000000000E+00 0.  1.
         11    1    4    4    0    0  0.60085248189E+01 -0.26163939157E+02  0.56428214263E+00  0.26850931033E+02  0.51100000000E-03 0. -1.
        -11    1    4    4    0    0  0.49249417894E+01  0.26972214090E+01 -0.16423121797E+00  0.56175641619E+01  0.51100000000E-03 0.  1.
         12    1    4    4    0    0 -0.15620305119E+02 -0.11830247412E+02 -0.97775212746E+01  0.21898598313E+02  0.00000000000E+00 0. -1.
</event>
<event>
 8    1  0.1247338E-006  0.9118800E+02  0.7816164E-02  0.1184000E+00
        -11   -1    0    0    0    0  0.00000000000E+00  0.00000000000E+00  0.45593999997E+02  0.45594000000E+02  0.51100000000E-03 0.  1.
         11   -1    0    0    0    0 -0.00000000000E+00 -0.00000000000E+00 -0.45593999997E+02  0.45594000000E+02  0.51100000000E-03 0. -1.
         23    2    1    2    0    0  0.00000000000E+00  0.00000000000E+00 -0.35527136788E-14  0.91188000000E+02  0.91188000000E+02 0.  0.
    9900012    2    3    3    0    0 -0.11491399311E+01 -0.24253935199E+02 -0.27680420163E+02  0.54367088067E+02  0.40000008866E+02 0.  0.
        -12    1    3    3    0    0  0.11491399311E+01  0.24253935199E+02  0.27680420163E+02  0.36820911933E+02  0.00000000000E+00 0.  1.
         11    1    4    4    0    0  0.59497689066E+01 -0.46177273045E+01 -0.25523972270E+02  0.26611958143E+02  0.51100000000E-03 0. -1.
        -11    1    4    4    0    0  0.50829925289E+00 -0.90841994398E+01  0.73065282620E+01  0.11669036083E+02  0.51100000000E-03 0.  1.
        -12    1    4    4    0    0 -0.76072080906E+01 -0.10552008455E+02 -0.94629761542E+01  0.16086093841E+02  0.00000000000E+00 0.  1.
</event>
<event>
 8    1  0.1247338E-006  0.9118800E+02  0.7816164E-02  0.1184000E+00
        -11   -1    0    0    0    0  0.00000000000E+00  0.00000000000E+00  0.45593999997E+02  0.45594000000E+02  0.51100000000E-03 0. -1.
         11   -1    0    0    0    0 -0.00000000000E+00 -0.00000000000E+00 -0.45593999997E+02  0.45594000000E+02  0.51100000000E-03 0.  1.
         23    2    1    2    0    0  0.17763568394E-14  0.00000000000E+00  0.71054273576E-14  0.91188000000E+02  0.91188000000E+02 0.  0.
    9900012    2    3    3    0    0 -0.10084529304E+02 -0.13402472283E+02 -0.32778902771E+02  0.54367075766E+02  0.39999980824E+02 0.  0.
         12    1    3    3    0    0  0.10084529304E+02  0.13402472283E+02  0.32778902771E+02  0.36820924234E+02  0.00000000000E+00 0. -1.
         11    1    4    4    0    0  0.83851520300E+01 -0.19107169135E+02 -0.15458341744E+02  0.25968346437E+02  0.51100000000E-03 0. -1.
        -11    1    4    4    0    0 -0.23052599082E+01  0.83686555509E+00 -0.94676346381E+01  0.97801162111E+01  0.51100000000E-03 0.  1.
         12    1    4    4    0    0 -0.16164421426E+02  0.48678312973E+01 -0.78529263889E+01  0.18618613118E+02  0.00000000000E+00 0. -1.
</event>
<event>
 8    1  0.1247338E-006  0.9118800E+02  0.7816164E-02  0.1184000E+00
        -11   -1    0    0    0    0  0.00000000000E+00  0.00000000000E+00  0.45593999997E+02  0.45594000000E+02  0.51100000000E-03 0.  1.
         11   -1    0    0    0    0 -0.00000000000E+00 -0.00000000000E+00 -0.45593999997E+02  0.45594000000E+02  0.51100000000E-03 0. -1.
         23    2    1    2    0    0  0.55511151231E-15  0.44408920985E-15  0.00000000000E+00  0.91188000000E+02  0.91188000000E+02 0.  0.
    9900012    2    3    3    0    0  0.60171224574E+00 -0.31071120887E+01 -0.36684713089E+02  0.54367022588E+02  0.39999859593E+02 0.  0.
        -12    1    3    3    0    0 -0.60171224574E+00  0.31071120887E+01  0.36684713089E+02  0.36820977412E+02  0.00000000000E+00 0.  1.
         11    1    4    4    0    0 -0.16919989877E+01  0.17287641926E+01 -0.23711460316E+01  0.33873027577E+01  0.51100000000E-03 0. -1.
        -11    1    4    4    0    0 -0.17275529129E+02 -0.14894010055E+00 -0.19093464227E+02  0.25749300307E+02  0.51100000000E-03 0.  1.
         12    1    4    4    0    0  0.19569240363E+02 -0.46869361808E+01 -0.15220102831E+02  0.25230419523E+02  0.00000000000E+00 0. -1.
</event>
<event>
 8    1  0.1247338E-006  0.9118800E+02  0.7816164E-02  0.1184000E+00
        -11   -1    0    0    0    0  0.00000000000E+00  0.00000000000E+00  0.45593999997E+02  0.45594000000E+02  0.51100000000E-03 0.  1.
         11   -1    0    0    0    0 -0.00000000000E+00 -0.00000000000E+00 -0.45593999997E+02  0.45594000000E+02  0.51100000000E-03 0. -1.
         23    2    1    2    0    0  0.00000000000E+00  0.00000000000E+00  0.00000000000E+00  0.91188000000E+02  0.91188000000E+02 0.  0.
    9900012    2    3    3    0    0  0.10623576100E+02  0.28826300801E+02  0.20296973953E+02  0.54367039411E+02  0.39999897946E+02 0.  0.
         12    1    3    3    0    0 -0.10623576100E+02 -0.28826300801E+02 -0.20296973953E+02  0.36820960589E+02  0.00000000000E+00 0. -1.
         11    1    4    4    0    0 -0.53318020413E+01  0.14398974647E+02  0.20438397375E+01  0.15489863299E+02  0.51100000000E-03 0. -1.
        -11    1    4    4    0    0  0.19661830663E+01 -0.36781825240E+01  0.15238747608E+02  0.15799187683E+02  0.51100000000E-03 0.  1.
        -12    1    4    4    0    0  0.13989195075E+02  0.18105508678E+02  0.30143866083E+01  0.23077988430E+02  0.00000000000E+00 0.  1.
</event>
<event>
 8    1  0.1247338E-006  0.9118800E+02  0.7816164E-02  0.1184000E+00
        -11   -1    0    0    0    0  0.00000000000E+00  0.00000000000E+00  0.45593999997E+02  0.45594000000E+02  0.51100000000E-03 0. -1.
         11   -1    0    0    0    0 -0.00000000000E+00 -0.00000000000E+00 -0.45593999997E+02  0.45594000000E+02  0.51100000000E-03 0.  1.
         23    2    1    2    0    0  0.00000000000E+00 -0.35527136788E-14  0.00000000000E+00  0.91188000000E+02  0.91188000000E+02 0.  0.
    9900012    2    3    3    0    0 -0.19429782651E+02 -0.29844587737E+02  0.93576935576E+01  0.54367050803E+02  0.39999923916E+02 0.  0.
        -12    1    3    3    0    0  0.19429782651E+02  0.29844587737E+02 -0.93576935576E+01  0.36820949197E+02  0.00000000000E+00 0.  1.
         11    1    4    4    0    0  0.23108949113E+01 -0.17670134115E+01  0.12287427451E+02  0.12627091721E+02  0.51100000000E-03 0. -1.
        -11    1    4    4    0    0  0.36609996086E+01 -0.98031222112E+00 -0.26012660771E+01  0.45967940622E+01  0.51100000000E-03 0.  1.
         12    1    4    4    0    0 -0.25401677171E+02 -0.27097262104E+02 -0.32846781653E+00  0.37143165020E+02  0.00000000000E+00 0. -1.
</event>
<event>
 8    1  0.1247338E-006  0.9118800E+02  0.7816164E-02  0.1184000E+00
        -11   -1    0    0    0    0  0.00000000000E+00  0.00000000000E+00  0.45593999997E+02  0.45594000000E+02  0.51100000000E-03 0.  1.
         11   -1    0    0    0    0 -0.00000000000E+00 -0.00000000000E+00 -0.45593999997E+02  0.45594000000E+02  0.51100000000E-03 0. -1.
         23    2    1    2    0    0  0.00000000000E+00 -0.88817841970E-15  0.00000000000E+00  0.91188000000E+02  0.91188000000E+02 0.  0.
    9900012    2    3    3    0    0  0.17704902373E+02  0.11336390662E+01 -0.32264979051E+02  0.54367114911E+02  0.40000070062E+02 0.  0.
        -12    1    3    3    0    0 -0.17704902373E+02 -0.11336390662E+01  0.32264979051E+02  0.36820885089E+02  0.00000000000E+00 0.  1.
         11    1    4    4    0    0  0.14391774612E+02 -0.56254942133E+01 -0.29406924305E+02  0.33219520752E+02  0.51100000000E-03 0. -1.
        -11    1    4    4    0    0  0.81340595497E+01  0.44169937494E+01 -0.90589667416E+01  0.12951356579E+02  0.51100000000E-03 0.  1.
        -12    1    4    4    0    0 -0.48209317890E+01  0.23421395302E+01  0.62009119958E+01  0.81962375803E+01  0.00000000000E+00 0.  1.
</event>
<event>
 8    1  0.1247338E-006  0.9118800E+02  0.7816164E-02  0.1184000E+00
        -11   -1    0    0    0    0  0.00000000000E+00  0.00000000000E+00  0.45593999997E+02  0.45594000000E+02  0.51100000000E-03 0.  1.
         11   -1    0    0    0    0 -0.00000000000E+00 -0.00000000000E+00 -0.45593999997E+02  0.45594000000E+02  0.51100000000E-03 0. -1.
         23    2    1    2    0    0  0.00000000000E+00  0.00000000000E+00  0.35527136788E-14  0.91188000000E+02  0.91188000000E+02 0.  0.
    9900012    2    3    3    0    0 -0.10488871178E+02  0.25143103884E+02 -0.24770486686E+02  0.54367230017E+02  0.40000332468E+02 0.  0.
        -12    1    3    3    0    0  0.10488871178E+02 -0.25143103884E+02  0.24770486686E+02  0.36820769983E+02  0.00000000000E+00 0.  1.
         11    1    4    4    0    0 -0.68176016170E+01  0.79839541286E+01 -0.10975751973E+02  0.15188493900E+02  0.51100000000E-03 0. -1.
        -11    1    4    4    0    0 -0.56694156260E+01  0.18384292840E+02  0.52883743784E+01  0.19952227961E+02  0.51100000000E-03 0.  1.
        -12    1    4    4    0    0  0.19981460653E+01 -0.12251430849E+01 -0.19083109091E+02  0.19226508156E+02  0.00000000000E+00 0.  1.
</event>
<event>
 8    1  0.1247338E-006  0.9118800E+02  0.7816164E-02  0.1184000E+00
        -11   -1    0    0    0    0  0.00000000000E+00  0.00000000000E+00  0.45593999997E+02  0.45594000000E+02  0.51100000000E-03 0. -1.
         11   -1    0    0    0    0 -0.00000000000E+00 -0.00000000000E+00 -0.45593999997E+02  0.45594000000E+02  0.51100000000E-03 0.  1.
         23    2    1    2    0    0  0.00000000000E+00  0.00000000000E+00 -0.17763568394E-14  0.91188000000E+02  0.91188000000E+02 0.  0.
    9900012    2    3    3    0    0  0.98787971777E+01 -0.35402587753E+02  0.22014088047E+01  0.54367081299E+02  0.39999993436E+02 0.  0.
         12    1    3    3    0    0 -0.98787971777E+01  0.35402587753E+02 -0.22014088047E+01  0.36820918701E+02  0.00000000000E+00 0. -1.
         11    1    4    4    0    0 -0.39188725163E+01  0.14618039550E+01 -0.11002062834E+02  0.11770293942E+02  0.51100000000E-03 0. -1.
        -11    1    4    4    0    0  0.12222094989E+02 -0.24173622150E+02  0.54153510397E+01  0.27623715190E+02  0.51100000000E-03 0.  1.
         12    1    4    4    0    0  0.15755747048E+01 -0.12690769558E+02  0.77881205995E+01  0.14973072167E+02  0.00000000000E+00 0. -1.
</event>
<event>
 8    1  0.1247338E-006  0.9118800E+02  0.7816164E-02  0.1184000E+00
        -11   -1    0    0    0    0  0.00000000000E+00  0.00000000000E+00  0.45593999997E+02  0.45594000000E+02  0.51100000000E-03 0.  1.
         11   -1    0    0    0    0 -0.00000000000E+00 -0.00000000000E+00 -0.45593999997E+02  0.45594000000E+02  0.51100000000E-03 0. -1.
         23    2    1    2    0    0  0.00000000000E+00  0.35527136788E-14  0.35527136788E-14  0.91188000000E+02  0.91188000000E+02 0.  0.
    9900012    2    3    3    0    0 -0.14786338354E+02  0.18526981054E+02  0.28176141860E+02  0.54367084761E+02  0.40000001330E+02 0.  0.
        -12    1    3    3    0    0  0.14786338354E+02 -0.18526981054E+02 -0.28176141860E+02  0.36820915239E+02  0.00000000000E+00 0.  1.
         11    1    4    4    0    0  0.40597444304E+01 -0.39328050298E+01  0.40036326154E+01  0.69265831853E+01  0.51100000000E-03 0. -1.
        -11    1    4    4    0    0 -0.18432322615E+01  0.20104245396E+02  0.22444804864E+02  0.30188531825E+02  0.51100000000E-03 0.  1.
         12    1    4    4    0    0 -0.17002850523E+02  0.23555406881E+01  0.17277043802E+01  0.17251969751E+02  0.00000000000E+00 0. -1.
</event>
<event>
 8    1  0.1247338E-006  0.9118800E+02  0.7816164E-02  0.1184000E+00
        -11   -1    0    0    0    0  0.00000000000E+00  0.00000000000E+00  0.45593999997E+02  0.45594000000E+02  0.51100000000E-03 0. -1.
         11   -1    0    0    0    0 -0.00000000000E+00 -0.00000000000E+00 -0.45593999997E+02  0.45594000000E+02  0.51100000000E-03 0.  1.
         23    2    1    2    0    0  0.00000000000E+00  0.35527136788E-14  0.00000000000E+00  0.91188000000E+02  0.91188000000E+02 0.  0.
    9900012    2    3    3    0    0  0.18887662360E+02 -0.27682571148E+02  0.15254877458E+02  0.54367084462E+02  0.40000000647E+02 0.  0.
         12    1    3    3    0    0 -0.18887662360E+02  0.27682571148E+02 -0.15254877458E+02  0.36820915538E+02  0.00000000000E+00 0. -1.
         11    1    4    4    0    0 -0.22877049073E+01 -0.10655178452E+01  0.12064616973E+01  0.27972257881E+01  0.51100000000E-03 0. -1.
        -11    1    4    4    0    0 -0.97403505819E+01 -0.69577497262E+01 -0.89263968304E+00  0.12003396043E+02  0.51100000000E-03 0.  1.
        -12    1    4    4    0    0  0.30915717850E+02 -0.19659303577E+02  0.14941055444E+02  0.39566462630E+02  0.00000000000E+00 0.  1.
</event>
<event>
 8    1  0.1247338E-006  0.9118800E+02  0.7816164E-02  0.1184000E+00
        -11   -1    0    0    0    0  0.00000000000E+00  0.00000000000E+00  0.45593999997E+02  0.45594000000E+02  0.51100000000E-03 0.  1.
         11   -1    0    0    0    0 -0.00000000000E+00 -0.00000000000E+00 -0.45593999997E+02  0.45594000000E+02  0.51100000000E-03 0. -1.
         23    2    1    2    0    0 -0.88817841970E-15 -0.17763568394E-14 -0.71054273576E-14  0.91188000000E+02  0.91188000000E+02 0.  0.
    9900012    2    3    3    0    0  0.16430062615E+01 -0.13898363765E+02  0.34057526694E+02  0.54367094125E+02  0.40000022678E+02 0.  0.
         12    1    3    3    0    0 -0.16430062615E+01  0.13898363765E+02 -0.34057526694E+02  0.36820905875E+02  0.00000000000E+00 0. -1.
         11    1    4    4    0    0  0.14145365806E+01  0.61064639471E+01 -0.46930613919E+01  0.78303666048E+01  0.51100000000E-03 0. -1.
        -11    1    4    4    0    0 -0.29692278297E+01 -0.14503663023E+02  0.12050552903E+02  0.19088959650E+02  0.51100000000E-03 0.  1.
        -12    1    4    4    0    0  0.31976975107E+01 -0.55011646890E+01  0.26700035183E+02  0.27447767871E+02  0.00000000000E+00 0.  1.
</event>
<event>
 8    1  0.1247338E-006  0.9118800E+02  0.7816164E-02  0.1184000E+00
        -11   -1    0    0    0    0  0.00000000000E+00  0.00000000000E+00  0.45593999997E+02  0.45594000000E+02  0.51100000000E-03 0.  1.
         11   -1    0    0    0    0 -0.00000000000E+00 -0.00000000000E+00 -0.45593999997E+02  0.45594000000E+02  0.51100000000E-03 0. -1.
         23    2    1    2    0    0  0.00000000000E+00  0.00000000000E+00 -0.35527136788E-14  0.91188000000E+02  0.91188000000E+02 0.  0.
    9900012    2    3    3    0    0  0.10049851037E+02  0.33807123551E+02 -0.10576323483E+02  0.54367085738E+02  0.40000003558E+02 0.  0.
         12    1    3    3    0    0 -0.10049851037E+02 -0.33807123551E+02  0.10576323483E+02  0.36820914262E+02  0.00000000000E+00 0. -1.
         11    1    4    4    0    0  0.13623864580E+02  0.17200026988E+02 -0.18706169263E+02  0.28833511462E+02  0.51100000000E-03 0. -1.
        -11    1    4    4    0    0  0.46502357219E+01 -0.14294781642E+00 -0.10014625651E+01  0.47589971504E+01  0.51100000000E-03 0.  1.
        -12    1    4    4    0    0 -0.82242492645E+01  0.16750044379E+02  0.91313083450E+01  0.20774577126E+02  0.00000000000E+00 0.  1.
</event>
<event>
 8    1  0.1247338E-006  0.9118800E+02  0.7816164E-02  0.1184000E+00
        -11   -1    0    0    0    0  0.00000000000E+00  0.00000000000E+00  0.45593999997E+02  0.45594000000E+02  0.51100000000E-03 0. -1.
         11   -1    0    0    0    0 -0.00000000000E+00 -0.00000000000E+00 -0.45593999997E+02  0.45594000000E+02  0.51100000000E-03 0.  1.
         23    2    1    2    0    0 -0.52735593670E-15  0.00000000000E+00  0.00000000000E+00  0.91188000000E+02  0.91188000000E+02 0.  0.
    9900012    2    3    3    0    0  0.24520170246E+00 -0.33321036021E+02 -0.15666122757E+02  0.54367096051E+02  0.40000027067E+02 0.  0.
         12    1    3    3    0    0 -0.24520170246E+00  0.33321036021E+02  0.15666122757E+02  0.36820903949E+02  0.00000000000E+00 0. -1.
         11    1    4    4    0    0 -0.26711247590E+01 -0.84265919907E+01 -0.18551756312E+02  0.20550183030E+02  0.51100000000E-03 0. -1.
        -11    1    4    4    0    0 -0.24611167865E+01 -0.25009461289E+02 -0.36047517758E+01  0.25387486789E+02  0.51100000000E-03 0.  1.
         12    1    4    4    0    0  0.53774432480E+01  0.11501725891E+00  0.64903853305E+01  0.84294262316E+01  0.00000000000E+00 0. -1.
</event>
<event>
 8    1  0.1247338E-006  0.9118800E+02  0.7816164E-02  0.1184000E+00
        -11   -1    0    0    0    0  0.00000000000E+00  0.00000000000E+00  0.45593999997E+02  0.45594000000E+02  0.51100000000E-03 0.  1.
         11   -1    0    0    0    0 -0.00000000000E+00 -0.00000000000E+00 -0.45593999997E+02  0.45594000000E+02  0.51100000000E-03 0. -1.
         23    2    1    2    0    0  0.35527136788E-14  0.00000000000E+00 -0.17763568394E-14  0.91188000000E+02  0.91188000000E+02 0.  0.
    9900012    2    3    3    0    0 -0.22829817146E+02 -0.26938074605E+02  0.10436318937E+02  0.54367120498E+02  0.40000082798E+02 0.  0.
         12    1    3    3    0    0  0.22829817146E+02  0.26938074605E+02 -0.10436318937E+02  0.36820879502E+02  0.00000000000E+00 0. -1.
         11    1    4    4    0    0  0.12292131735E+01 -0.16350541568E+02 -0.82546221102E+01  0.18357286320E+02  0.51100000000E-03 0. -1.
        -11    1    4    4    0    0 -0.10010181832E+02  0.15569836393E+01  0.70140200274E+00  0.10154797063E+02  0.51100000000E-03 0.  1.
        -12    1    4    4    0    0 -0.14048848488E+02 -0.12144516676E+02  0.17989539045E+02  0.25855037114E+02  0.00000000000E+00 0.  1.
</event>
<event>
 8    1  0.1247338E-006  0.9118800E+02  0.7816164E-02  0.1184000E+00
        -11   -1    0    0    0    0  0.00000000000E+00  0.00000000000E+00  0.45593999997E+02  0.45594000000E+02  0.51100000000E-03 0.  1.
         11   -1    0    0    0    0 -0.00000000000E+00 -0.00000000000E+00 -0.45593999997E+02  0.45594000000E+02  0.51100000000E-03 0. -1.
         23    2    1    2    0    0  0.00000000000E+00  0.88817841970E-15  0.00000000000E+00  0.91188000000E+02  0.91188000000E+02 0.  0.
    9900012    2    3    3    0    0 -0.34301428927E+02  0.38213923660E+01 -0.12829196699E+02  0.54367090805E+02  0.40000015107E+02 0.  0.
        -12    1    3    3    0    0  0.34301428927E+02 -0.38213923660E+01  0.12829196699E+02  0.36820909195E+02  0.00000000000E+00 0.  1.
         11    1    4    4    0    0 -0.13157642535E+01 -0.83143188946E+00 -0.74664897487E+01  0.76269904934E+01  0.51100000000E-03 0. -1.
        -11    1    4    4    0    0 -0.42788421505E+01 -0.83075167404E+01 -0.11326333306E+02  0.14683635482E+02  0.51100000000E-03 0.  1.
         12    1    4    4    0    0 -0.28706822523E+02  0.12960340996E+02  0.59636263553E+01  0.32056464830E+02  0.00000000000E+00 0. -1.
</event>
<event>
 8    1  0.1247338E-006  0.9118800E+02  0.7816164E-02  0.1184000E+00
        -11   -1    0    0    0    0  0.00000000000E+00  0.00000000000E+00  0.45593999997E+02  0.45594000000E+02  0.51100000000E-03 0. -1.
         11   -1    0    0    0    0 -0.00000000000E+00 -0.00000000000E+00 -0.45593999997E+02  0.45594000000E+02  0.51100000000E-03 0.  1.
         23    2    1    2    0    0 -0.35527136788E-14  0.00000000000E+00 -0.88817841970E-15  0.91188000000E+02  0.91188000000E+02 0.  0.
    9900012    2    3    3    0    0 -0.31610513905E+02 -0.18080384319E+02 -0.54456946008E+01  0.54367075567E+02  0.39999980370E+02 0.  0.
         12    1    3    3    0    0  0.31610513905E+02  0.18080384319E+02  0.54456946008E+01  0.36820924433E+02  0.00000000000E+00 0. -1.
         11    1    4    4    0    0 -0.28643900961E+02 -0.43480453094E+01  0.25368601738E+01  0.29082885346E+02  0.51100000000E-03 0. -1.
        -11    1    4    4    0    0 -0.71592209056E+01 -0.14160609138E+02 -0.11659966455E+02  0.19690914482E+02  0.51100000000E-03 0.  1.
         12    1    4    4    0    0  0.41926079616E+01  0.42827012887E+00  0.36774116804E+01  0.55932757388E+01  0.00000000000E+00 0. -1.
</event>
<event>
 8    1  0.1247338E-006  0.9118800E+02  0.7816164E-02  0.1184000E+00
        -11   -1    0    0    0    0  0.00000000000E+00  0.00000000000E+00  0.45593999997E+02  0.45594000000E+02  0.51100000000E-03 0. -1.
         11   -1    0    0    0    0 -0.00000000000E+00 -0.00000000000E+00 -0.45593999997E+02  0.45594000000E+02  0.51100000000E-03 0.  1.
         23    2    1    2    0    0 -0.88817841970E-15  0.00000000000E+00  0.00000000000E+00  0.91188000000E+02  0.91188000000E+02 0.  0.
    9900012    2    3    3    0    0 -0.62986973585E+01 -0.15766693637E+02 -0.32672934792E+02  0.54367042861E+02  0.39999905810E+02 0.  0.
         12    1    3    3    0    0  0.62986973585E+01  0.15766693637E+02  0.32672934792E+02  0.36820957139E+02  0.00000000000E+00 0. -1.
         11    1    4    4    0    0 -0.11217685897E+02  0.62954877416E+00 -0.13530555724E+02  0.17587175641E+02  0.51100000000E-03 0. -1.
        -11    1    4    4    0    0 -0.16228329575E+01  0.39082213585E+01 -0.14288968932E+02  0.14902429815E+02  0.51100000000E-03 0.  1.
         12    1    4    4    0    0  0.65418214960E+01 -0.20304463770E+02 -0.48534101360E+01  0.21877437405E+02  0.00000000000E+00 0. -1.
</event>
<event>
 8    1  0.1247338E-006  0.9118800E+02  0.7816164E-02  0.1184000E+00
        -11   -1    0    0    0    0  0.00000000000E+00  0.00000000000E+00  0.45593999997E+02  0.45594000000E+02  0.51100000000E-03 0.  1.
         11   -1    0    0    0    0 -0.00000000000E+00 -0.00000000000E+00 -0.45593999997E+02  0.45594000000E+02  0.51100000000E-03 0. -1.
         23    2    1    2    0    0  0.11102230246E-14 -0.71054273576E-14  0.35527136788E-14  0.91188000000E+02  0.91188000000E+02 0.  0.
    9900012    2    3    3    0    0  0.78295223136E+00 -0.34963367061E+02  0.11520875703E+02  0.54367073513E+02  0.39999975687E+02 0.  0.
         12    1    3    3    0    0 -0.78295223136E+00  0.34963367061E+02 -0.11520875703E+02  0.36820926487E+02  0.00000000000E+00 0. -1.
         11    1    4    4    0    0 -0.37129944934E+01  0.18372040556E+01 -0.16173480221E+00  0.41458178031E+01  0.51100000000E-03 0. -1.
        -11    1    4    4    0    0  0.11919081302E+02 -0.58837074616E+01  0.12735130763E+02  0.18408315197E+02  0.51100000000E-03 0.  1.
         12    1    4    4    0    0 -0.74231345769E+01 -0.30916863654E+02 -0.10525202580E+01  0.31812940513E+02  0.00000000000E+00 0. -1.
</event>
<event>
 8    1  0.1247338E-006  0.9118800E+02  0.7816164E-02  0.1184000E+00
        -11   -1    0    0    0    0  0.00000000000E+00  0.00000000000E+00  0.45593999997E+02  0.45594000000E+02  0.51100000000E-03 0. -1.
         11   -1    0    0    0    0 -0.00000000000E+00 -0.00000000000E+00 -0.45593999997E+02  0.45594000000E+02  0.51100000000E-03 0.  1.
         23    2    1    2    0    0  0.00000000000E+00  0.00000000000E+00  0.00000000000E+00  0.91188000000E+02  0.91188000000E+02 0.  0.
    9900012    2    3    3    0    0  0.11893058492E+01  0.13831901016E+02 -0.34103423629E+02  0.54367089672E+02  0.40000012526E+02 0.  0.
         12    1    3    3    0    0 -0.11893058492E+01 -0.13831901016E+02  0.34103423629E+02  0.36820910328E+02  0.00000000000E+00 0. -1.
         11    1    4    4    0    0 -0.28512814722E+00 -0.79621201127E+01 -0.14983012383E+02  0.16969599733E+02  0.51100000000E-03 0. -1.
        -11    1    4    4    0    0 -0.73320288971E+01  0.14529199599E+02 -0.20188574937E+02  0.25931348731E+02  0.51100000000E-03 0.  1.
        -12    1    4    4    0    0  0.88064628935E+01  0.72648215302E+01  0.10681636915E+01  0.11466141209E+02  0.00000000000E+00 0.  1.
</event>
<event>
 8    1  0.1247338E-006  0.9118800E+02  0.7816164E-02  0.1184000E+00
        -11   -1    0    0    0    0  0.00000000000E+00  0.00000000000E+00  0.45593999997E+02  0.45594000000E+02  0.51100000000E-03 0. -1.
         11   -1    0    0    0    0 -0.00000000000E+00 -0.00000000000E+00 -0.45593999997E+02  0.45594000000E+02  0.51100000000E-03 0.  1.
         23    2    1    2    0    0  0.00000000000E+00  0.00000000000E+00  0.00000000000E+00  0.91188000000E+02  0.91188000000E+02 0.  0.
    9900012    2    3    3    0    0 -0.10845338151E+02  0.34819158134E+02  0.50778951058E+01  0.54367079975E+02  0.39999990420E+02 0.  0.
        -12    1    3    3    0    0  0.10845338151E+02 -0.34819158134E+02 -0.50778951058E+01  0.36820920025E+02  0.00000000000E+00 0.  1.
         11    1    4    4    0    0 -0.15564388994E+02  0.27545244215E+02  0.17530544026E+01  0.31686967094E+02  0.51100000000E-03 0. -1.
        -11    1    4    4    0    0  0.78852386708E+01  0.98343103749E+01  0.91477462465E+01  0.15574720257E+02  0.51100000000E-03 0.  1.
        -12    1    4    4    0    0 -0.31661878272E+01 -0.25603964563E+01 -0.58229055433E+01  0.71053926237E+01  0.00000000000E+00 0.  1.
</event>
<event>
 8    1  0.1247338E-006  0.9118800E+02  0.7816164E-02  0.1184000E+00
        -11   -1    0    0    0    0  0.00000000000E+00  0.00000000000E+00  0.45593999997E+02  0.45594000000E+02  0.51100000000E-03 0.  1.
         11   -1    0    0    0    0 -0.00000000000E+00 -0.00000000000E+00 -0.45593999997E+02  0.45594000000E+02  0.51100000000E-03 0. -1.
         23    2    1    2    0    0  0.17763568394E-14 -0.35527136788E-14  0.00000000000E+00  0.91188000000E+02  0.91188000000E+02 0.  0.
    9900012    2    3    3    0    0  0.12996199090E+02 -0.27723193911E+02  0.20452453019E+02  0.54367088742E+02  0.40000010404E+02 0.  0.
         12    1    3    3    0    0 -0.12996199090E+02  0.27723193911E+02 -0.20452453019E+02  0.36820911258E+02  0.00000000000E+00 0. -1.
         11    1    4    4    0    0  0.65012107901E+01 -0.17948637338E+02  0.26581761270E+02  0.32726279295E+02  0.51100000000E-03 0.  1.
        -11    1    4    4    0    0  0.12761242053E+01  0.48399441150E+01 -0.29174341886E+01  0.57935286768E+01  0.51100000000E-03 0. -1.
         12    1    4    4    0    0  0.52188640943E+01 -0.14614500688E+02 -0.32118740628E+01  0.15847280769E+02  0.00000000000E+00 0. -1.
</event>
<event>
 8    1  0.1247338E-006  0.9118800E+02  0.7816164E-02  0.1184000E+00
        -11   -1    0    0    0    0  0.00000000000E+00  0.00000000000E+00  0.45593999997E+02  0.45594000000E+02  0.51100000000E-03 0.  1.
         11   -1    0    0    0    0 -0.00000000000E+00 -0.00000000000E+00 -0.45593999997E+02  0.45594000000E+02  0.51100000000E-03 0. -1.
         23    2    1    2    0    0 -0.17763568394E-14 -0.17763568394E-14 -0.71054273576E-14  0.91188000000E+02  0.91188000000E+02 0.  0.
    9900012    2    3    3    0    0  0.13952641493E+02  0.10474890769E+02  0.32424991135E+02  0.54367087581E+02  0.40000007759E+02 0.  0.
         12    1    3    3    0    0 -0.13952641493E+02 -0.10474890769E+02 -0.32424991135E+02  0.36820912419E+02  0.00000000000E+00 0. -1.
         11    1    4    4    0    0  0.60525753648E+01  0.53583064043E+01 -0.66347959883E+01  0.10457802548E+02  0.51100000000E-03 0. -1.
        -11    1    4    4    0    0  0.27390137681E+01 -0.60188151277E+01  0.21437386467E+02  0.22434122910E+02  0.51100000000E-03 0.  1.
        -12    1    4    4    0    0  0.51610523597E+01  0.11135399492E+02  0.17622400657E+02  0.21475162123E+02  0.00000000000E+00 0.  1.
</event>
<event>
 8    1  0.1247338E-006  0.9118800E+02  0.7816164E-02  0.1184000E+00
        -11   -1    0    0    0    0  0.00000000000E+00  0.00000000000E+00  0.45593999997E+02  0.45594000000E+02  0.51100000000E-03 0.  1.
         11   -1    0    0    0    0 -0.00000000000E+00 -0.00000000000E+00 -0.45593999997E+02  0.45594000000E+02  0.51100000000E-03 0. -1.
         23    2    1    2    0    0  0.00000000000E+00  0.00000000000E+00 -0.17763568394E-14  0.91188000000E+02  0.91188000000E+02 0.  0.
    9900012    2    3    3    0    0 -0.32023393175E+02 -0.11312093913E+02 -0.14223882631E+02  0.54367081812E+02  0.39999994606E+02 0.  0.
        -12    1    3    3    0    0  0.32023393175E+02  0.11312093913E+02  0.14223882631E+02  0.36820918188E+02  0.00000000000E+00 0.  1.
         11    1    4    4    0    0 -0.66639333191E+01 -0.11633877270E+02  0.52527032125E+01  0.14399513843E+02  0.51100000000E-03 0. -1.
        -11    1    4    4    0    0 -0.25825102518E+02  0.78319332191E+01 -0.17580087423E+02  0.32207678775E+02  0.51100000000E-03 0.  1.
        -12    1    4    4    0    0  0.46564266222E+00 -0.75101498619E+01 -0.18964984202E+01  0.77598891935E+01  0.00000000000E+00 0.  1.
</event>
<event>
 8    1  0.1247338E-006  0.9118800E+02  0.7816164E-02  0.1184000E+00
        -11   -1    0    0    0    0  0.00000000000E+00  0.00000000000E+00  0.45593999997E+02  0.45594000000E+02  0.51100000000E-03 0. -1.
         11   -1    0    0    0    0 -0.00000000000E+00 -0.00000000000E+00 -0.45593999997E+02  0.45594000000E+02  0.51100000000E-03 0.  1.
         23    2    1    2    0    0  0.00000000000E+00  0.00000000000E+00  0.00000000000E+00  0.91188000000E+02  0.91188000000E+02 0.  0.
    9900012    2    3    3    0    0  0.21496147035E+02  0.12926100595E+02 -0.26955733337E+02  0.54367082390E+02  0.39999995924E+02 0.  0.
         12    1    3    3    0    0 -0.21496147035E+02 -0.12926100595E+02  0.26955733337E+02  0.36820917610E+02  0.00000000000E+00 0. -1.
         11    1    4    4    0    0 -0.13488963358E+01 -0.10288792116E+02 -0.24801975290E+01  0.10669121078E+02  0.51100000000E-03 0. -1.
        -11    1    4    4    0    0  0.40795615652E+01  0.14458660660E+02 -0.68778579234E+01  0.16522730419E+02  0.51100000000E-03 0.  1.
         12    1    4    4    0    0  0.18765481805E+02  0.87562320513E+01 -0.17597677885E+02  0.27175230892E+02  0.00000000000E+00 0. -1.
</event>
<event>
 8    1  0.1247338E-006  0.9118800E+02  0.7816164E-02  0.1184000E+00
        -11   -1    0    0    0    0  0.00000000000E+00  0.00000000000E+00  0.45593999997E+02  0.45594000000E+02  0.51100000000E-03 0.  1.
         11   -1    0    0    0    0 -0.00000000000E+00 -0.00000000000E+00 -0.45593999997E+02  0.45594000000E+02  0.51100000000E-03 0. -1.
         23    2    1    2    0    0  0.00000000000E+00  0.00000000000E+00  0.00000000000E+00  0.91188000000E+02  0.91188000000E+02 0.  0.
    9900012    2    3    3    0    0  0.16201571381E+02  0.53236697439E+01 -0.32633516494E+02  0.54367098687E+02  0.40000033076E+02 0.  0.
        -12    1    3    3    0    0 -0.16201571381E+02 -0.53236697439E+01  0.32633516494E+02  0.36820901313E+02  0.00000000000E+00 0.  1.
         11    1    4    4    0    0  0.15322125272E+02  0.48756856349E+01 -0.11575638623E+02  0.19812502190E+02  0.51100000000E-03 0. -1.
        -11    1    4    4    0    0 -0.90378813522E+01 -0.72031524260E+00 -0.22691674084E+02  0.24435920821E+02  0.51100000000E-03 0.  1.
        -12    1    4    4    0    0  0.99173274616E+01  0.11682993516E+01  0.16337962128E+01  0.10118675675E+02  0.00000000000E+00 0.  1.
</event>
<event>
 8    1  0.1247338E-006  0.9118800E+02  0.7816164E-02  0.1184000E+00
        -11   -1    0    0    0    0  0.00000000000E+00  0.00000000000E+00  0.45593999997E+02  0.45594000000E+02  0.51100000000E-03 0. -1.
         11   -1    0    0    0    0 -0.00000000000E+00 -0.00000000000E+00 -0.45593999997E+02  0.45594000000E+02  0.51100000000E-03 0.  1.
         23    2    1    2    0    0 -0.17763568394E-14  0.00000000000E+00  0.00000000000E+00  0.91188000000E+02  0.91188000000E+02 0.  0.
    9900012    2    3    3    0    0 -0.81851569991E+01 -0.30625087626E+02 -0.18732012718E+02  0.54367067262E+02  0.39999961437E+02 0.  0.
         12    1    3    3    0    0  0.81851569991E+01  0.30625087626E+02  0.18732012718E+02  0.36820932738E+02  0.00000000000E+00 0. -1.
         11    1    4    4    0    0 -0.13930340489E+02 -0.32063409213E-01 -0.11914724318E+02  0.18330741120E+02  0.51100000000E-03 0. -1.
        -11    1    4    4    0    0 -0.41218508148E+01 -0.22951682225E+01 -0.35209640251E+01  0.58868191102E+01  0.51100000000E-03 0.  1.
         12    1    4    4    0    0  0.98670343042E+01 -0.28297855995E+02 -0.32963243753E+01  0.30149507032E+02  0.00000000000E+00 0. -1.
</event>
<event>
 8    1  0.1247338E-006  0.9118800E+02  0.7816164E-02  0.1184000E+00
        -11   -1    0    0    0    0  0.00000000000E+00  0.00000000000E+00  0.45593999997E+02  0.45594000000E+02  0.51100000000E-03 0.  1.
         11   -1    0    0    0    0 -0.00000000000E+00 -0.00000000000E+00 -0.45593999997E+02  0.45594000000E+02  0.51100000000E-03 0. -1.
         23    2    1    2    0    0  0.44408920985E-15  0.00000000000E+00 -0.71054273576E-14  0.91188000000E+02  0.91188000000E+02 0.  0.
    9900012    2    3    3    0    0  0.69597497791E+00  0.55632472499E+01  0.36391580461E+02  0.54367065335E+02  0.39999957044E+02 0.  0.
         12    1    3    3    0    0 -0.69597497791E+00 -0.55632472499E+01 -0.36391580461E+02  0.36820934665E+02  0.00000000000E+00 0. -1.
         11    1    4    4    0    0  0.87319702077E+01  0.88498290203E+01  0.12726216177E+01  0.12497453478E+02  0.51100000000E-03 0. -1.
        -11    1    4    4    0    0 -0.68987383647E+01  0.82165224652E+01  0.21332814832E+02  0.23878710630E+02  0.51100000000E-03 0.  1.
         12    1    4    4    0    0 -0.11372568651E+01 -0.11503104236E+02  0.13786144012E+02  0.17990901227E+02  0.00000000000E+00 0. -1.
</event>
<event>
 8    1  0.1247338E-006  0.9118800E+02  0.7816164E-02  0.1184000E+00
        -11   -1    0    0    0    0  0.00000000000E+00  0.00000000000E+00  0.45593999997E+02  0.45594000000E+02  0.51100000000E-03 0. -1.
         11   -1    0    0    0    0 -0.00000000000E+00 -0.00000000000E+00 -0.45593999997E+02  0.45594000000E+02  0.51100000000E-03 0.  1.
         23    2    1    2    0    0 -0.35527136788E-14  0.00000000000E+00  0.35527136788E-14  0.91188000000E+02  0.91188000000E+02 0.  0.
    9900012    2    3    3    0    0  0.26565064950E+02 -0.20724094974E+02 -0.14852267842E+02  0.54367073228E+02  0.39999975037E+02 0.  0.
         12    1    3    3    0    0 -0.26565064950E+02  0.20724094974E+02  0.14852267842E+02  0.36820926772E+02  0.00000000000E+00 0. -1.
         11    1    4    4    0    0  0.12128579382E+02  0.51387457059E+01 -0.11964805303E+01  0.13226515458E+02  0.51100000000E-03 0. -1.
        -11    1    4    4    0    0  0.49077008300E+00 -0.16760457224E+01  0.64841756853E+01  0.67152452760E+01  0.51100000000E-03 0.  1.
        -12    1    4    4    0    0  0.13945715486E+02 -0.24186794958E+02 -0.20139962997E+02  0.34425312493E+02  0.00000000000E+00 0.  1.
</event>
<event>
 8    1  0.1247338E-006  0.9118800E+02  0.7816164E-02  0.1184000E+00
        -11   -1    0    0    0    0  0.00000000000E+00  0.00000000000E+00  0.45593999997E+02  0.45594000000E+02  0.51100000000E-03 0.  1.
         11   -1    0    0    0    0 -0.00000000000E+00 -0.00000000000E+00 -0.45593999997E+02  0.45594000000E+02  0.51100000000E-03 0. -1.
         23    2    1    2    0    0  0.35527136788E-14  0.35527136788E-14  0.00000000000E+00  0.91188000000E+02  0.91188000000E+02 0.  0.
    9900012    2    3    3    0    0 -0.20976044197E+02 -0.18293200826E+02 -0.24106902226E+02  0.54367104281E+02  0.40000045830E+02 0.  0.
        -12    1    3    3    0    0  0.20976044197E+02  0.18293200826E+02  0.24106902226E+02  0.36820895719E+02  0.00000000000E+00 0.  1.
         11    1    4    4    0    0 -0.21087748672E+02 -0.11086497348E+02 -0.33633837322E+02  0.41216969573E+02  0.51100000000E-03 0. -1.
        -11    1    4    4    0    0 -0.88741817653E+00 -0.14928341046E-01  0.38008061161E+01  0.39030579382E+01  0.51100000000E-03 0.  1.
         12    1    4    4    0    0  0.99912265157E+00 -0.71917751370E+01  0.57261289799E+01  0.92470767699E+01  0.00000000000E+00 0. -1.
</event>
<event>
 8    1  0.1247338E-006  0.9118800E+02  0.7816164E-02  0.1184000E+00
        -11   -1    0    0    0    0  0.00000000000E+00  0.00000000000E+00  0.45593999997E+02  0.45594000000E+02  0.51100000000E-03 0.  1.
         11   -1    0    0    0    0 -0.00000000000E+00 -0.00000000000E+00 -0.45593999997E+02  0.45594000000E+02  0.51100000000E-03 0. -1.
         23    2    1    2    0    0  0.00000000000E+00 -0.17763568394E-14  0.00000000000E+00  0.91188000000E+02  0.91188000000E+02 0.  0.
    9900012    2    3    3    0    0  0.23404639881E+02 -0.95028448615E+01 -0.26789900922E+02  0.54367081763E+02  0.39999994495E+02 0.  0.
        -12    1    3    3    0    0 -0.23404639881E+02  0.95028448615E+01  0.26789900922E+02  0.36820918237E+02  0.00000000000E+00 0.  1.
         11    1    4    4    0    0  0.14480642738E+02 -0.21601887946E+02 -0.17299962749E+02  0.31234904967E+02  0.51100000000E-03 0. -1.
        -11    1    4    4    0    0 -0.29134741350E+01 -0.40923446580E+00 -0.41780844657E+01  0.51100092414E+01  0.51100000000E-03 0.  1.
        -12    1    4    4    0    0  0.11837471277E+02  0.12508277551E+02 -0.53118537078E+01  0.18022167554E+02  0.00000000000E+00 0.  1.
</event>
<event>
 8    1  0.1247338E-006  0.9118800E+02  0.7816164E-02  0.1184000E+00
        -11   -1    0    0    0    0  0.00000000000E+00  0.00000000000E+00  0.45593999997E+02  0.45594000000E+02  0.51100000000E-03 0.  1.
         11   -1    0    0    0    0 -0.00000000000E+00 -0.00000000000E+00 -0.45593999997E+02  0.45594000000E+02  0.51100000000E-03 0. -1.
         23    2    1    2    0    0  0.35527136788E-14  0.00000000000E+00  0.00000000000E+00  0.91188000000E+02  0.91188000000E+02 0.  0.
    9900012    2    3    3    0    0 -0.27286993061E+02  0.16584092573E+02  0.18334894663E+02  0.54367075527E+02  0.39999980278E+02 0.  0.
        -12    1    3    3    0    0  0.27286993061E+02 -0.16584092573E+02 -0.18334894663E+02  0.36820924473E+02  0.00000000000E+00 0.  1.
         11    1    4    4    0    0 -0.91786990098E+01  0.88365952035E+01  0.71202694867E+01  0.14595621540E+02  0.51100000000E-03 0. -1.
        -11    1    4    4    0    0 -0.25260550376E+02  0.15360303168E+01  0.15170245800E+02  0.29505781676E+02  0.51100000000E-03 0.  1.
        -12    1    4    4    0    0  0.71522563243E+01  0.62114670523E+01 -0.39556206245E+01  0.10265672311E+02  0.00000000000E+00 0.  1.
</event>
<event>
 8    1  0.1247338E-006  0.9118800E+02  0.7816164E-02  0.1184000E+00
        -11   -1    0    0    0    0  0.00000000000E+00  0.00000000000E+00  0.45593999997E+02  0.45594000000E+02  0.51100000000E-03 0. -1.
         11   -1    0    0    0    0 -0.00000000000E+00 -0.00000000000E+00 -0.45593999997E+02  0.45594000000E+02  0.51100000000E-03 0.  1.
         23    2    1    2    0    0 -0.17763568394E-14  0.00000000000E+00  0.00000000000E+00  0.91188000000E+02  0.91188000000E+02 0.  0.
    9900012    2    3    3    0    0 -0.67151368896E+01 -0.16775509906E+01 -0.36164462976E+02  0.54367141467E+02  0.40000130603E+02 0.  0.
         12    1    3    3    0    0  0.67151368896E+01  0.16775509906E+01  0.36164462976E+02  0.36820858533E+02  0.00000000000E+00 0. -1.
         11    1    4    4    0    0  0.16707025903E+01  0.32206144446E+01 -0.38734375266E+01  0.53072707750E+01  0.51100000000E-03 0. -1.
        -11    1    4    4    0    0 -0.19724497437E+02  0.12143586466E+00 -0.30794132594E+02  0.36569784636E+02  0.51100000000E-03 0.  1.
        -12    1    4    4    0    0  0.11338657957E+02 -0.50196012998E+01 -0.14968928546E+01  0.12490086056E+02  0.00000000000E+00 0.  1.
</event>
<event>
 8    1  0.1247338E-006  0.9118800E+02  0.7816164E-02  0.1184000E+00
        -11   -1    0    0    0    0  0.00000000000E+00  0.00000000000E+00  0.45593999997E+02  0.45594000000E+02  0.51100000000E-03 0. -1.
         11   -1    0    0    0    0 -0.00000000000E+00 -0.00000000000E+00 -0.45593999997E+02  0.45594000000E+02  0.51100000000E-03 0.  1.
         23    2    1    2    0    0  0.35527136788E-14  0.00000000000E+00  0.44408920985E-15  0.91188000000E+02  0.91188000000E+02 0.  0.
    9900012    2    3    3    0    0 -0.31767808189E+02 -0.18566190070E+02  0.13720741673E+01  0.54367086943E+02  0.40000006303E+02 0.  0.
        -12    1    3    3    0    0  0.31767808189E+02  0.18566190070E+02 -0.13720741673E+01  0.36820913057E+02  0.00000000000E+00 0.  1.
         11    1    4    4    0    0 -0.59663533446E+01 -0.13336887859E+01  0.99272937629E+01  0.11658784659E+02  0.51100000000E-03 0. -1.
        -11    1    4    4    0    0  0.53176407056E+01 -0.19581235900E+00  0.20145729803E+01  0.56898286185E+01  0.51100000000E-03 0.  1.
        -12    1    4    4    0    0 -0.31119095550E+02 -0.17036688925E+02 -0.10569792576E+02  0.37018473665E+02  0.00000000000E+00 0.  1.
</event>
<event>
 8    1  0.1247338E-006  0.9118800E+02  0.7816164E-02  0.1184000E+00
        -11   -1    0    0    0    0  0.00000000000E+00  0.00000000000E+00  0.45593999997E+02  0.45594000000E+02  0.51100000000E-03 0.  1.
         11   -1    0    0    0    0 -0.00000000000E+00 -0.00000000000E+00 -0.45593999997E+02  0.45594000000E+02  0.51100000000E-03 0. -1.
         23    2    1    2    0    0  0.00000000000E+00  0.00000000000E+00 -0.71054273576E-14  0.91188000000E+02  0.91188000000E+02 0.  0.
    9900012    2    3    3    0    0 -0.96546671128E+01 -0.90406111421E+01 -0.34363266564E+02  0.54367091051E+02  0.40000015669E+02 0.  0.
        -12    1    3    3    0    0  0.96546671128E+01  0.90406111421E+01  0.34363266564E+02  0.36820908949E+02  0.00000000000E+00 0.  1.
         11    1    4    4    0    0  0.81480101364E+01 -0.90633810646E+01 -0.23155776749E+02  0.26167249428E+02  0.51100000000E-03 0. -1.
        -11    1    4    4    0    0 -0.10580621075E+02 -0.75663294465E+01 -0.11994952938E+02  0.17694004065E+02  0.51100000000E-03 0.  1.
        -12    1    4    4    0    0 -0.72220561746E+01  0.75890993690E+01  0.78746312327E+00  0.10505837558E+02  0.00000000000E+00 0.  1.
</event>
<event>
 8    1  0.1247338E-006  0.9118800E+02  0.7816164E-02  0.1184000E+00
        -11   -1    0    0    0    0  0.00000000000E+00  0.00000000000E+00  0.45593999997E+02  0.45594000000E+02  0.51100000000E-03 0.  1.
         11   -1    0    0    0    0 -0.00000000000E+00 -0.00000000000E+00 -0.45593999997E+02  0.45594000000E+02  0.51100000000E-03 0. -1.
         23    2    1    2    0    0  0.71054273576E-14 -0.44408920985E-15  0.53290705182E-14  0.91188000000E+02  0.91188000000E+02 0.  0.
    9900012    2    3    3    0    0 -0.34984762082E+02 -0.22631941353E+01 -0.11257192806E+02  0.54367081822E+02  0.39999994629E+02 0.  0.
        -12    1    3    3    0    0  0.34984762082E+02  0.22631941353E+01  0.11257192806E+02  0.36820918178E+02  0.00000000000E+00 0.  1.
         11    1    4    4    0    0 -0.81824605918E+01 -0.81081500890E+01  0.42953631915E+01  0.12294100390E+02  0.51100000000E-03 0. -1.
        -11    1    4    4    0    0  0.10521752065E+01 -0.58776942847E+01 -0.95481919433E+01  0.11261542186E+02  0.51100000000E-03 0.  1.
         12    1    4    4    0    0 -0.27854476697E+02  0.11722650238E+02 -0.60043640541E+01  0.30811439245E+02  0.00000000000E+00 0. -1.
</event>
<event>
 8    1  0.1247338E-006  0.9118800E+02  0.7816164E-02  0.1184000E+00
        -11   -1    0    0    0    0  0.00000000000E+00  0.00000000000E+00  0.45593999997E+02  0.45594000000E+02  0.51100000000E-03 0.  1.
         11   -1    0    0    0    0 -0.00000000000E+00 -0.00000000000E+00 -0.45593999997E+02  0.45594000000E+02  0.51100000000E-03 0. -1.
         23    2    1    2    0    0  0.00000000000E+00 -0.35527136788E-14  0.00000000000E+00  0.91188000000E+02  0.91188000000E+02 0.  0.
    9900012    2    3    3    0    0 -0.25473608932E+02  0.15193774941E+02 -0.21818009208E+02  0.54367067437E+02  0.39999961837E+02 0.  0.
        -12    1    3    3    0    0  0.25473608932E+02 -0.15193774941E+02  0.21818009208E+02  0.36820932563E+02  0.00000000000E+00 0.  1.
         11    1    4    4    0    0  0.51569948183E+01  0.49772104030E+01 -0.80326965164E+01  0.10765288317E+02  0.51100000000E-03 0. -1.
        -11    1    4    4    0    0 -0.27809461627E+02 -0.13321878732E+01 -0.15045893245E+02  0.31646797379E+02  0.51100000000E-03 0.  1.
        -12    1    4    4    0    0 -0.28211421230E+01  0.11548752411E+02  0.12605805535E+01  0.11954981742E+02  0.00000000000E+00 0.  1.
</event>
<event>
 8    1  0.1247338E-006  0.9118800E+02  0.7816164E-02  0.1184000E+00
        -11   -1    0    0    0    0  0.00000000000E+00  0.00000000000E+00  0.45593999997E+02  0.45594000000E+02  0.51100000000E-03 0. -1.
         11   -1    0    0    0    0 -0.00000000000E+00 -0.00000000000E+00 -0.45593999997E+02  0.45594000000E+02  0.51100000000E-03 0.  1.
         23    2    1    2    0    0  0.00000000000E+00  0.00000000000E+00  0.17763568394E-14  0.91188000000E+02  0.91188000000E+02 0.  0.
    9900012    2    3    3    0    0 -0.33872397609E+02  0.45036260551E+01  0.13717093638E+02  0.54367073541E+02  0.39999975751E+02 0.  0.
        -12    1    3    3    0    0  0.33872397609E+02 -0.45036260551E+01 -0.13717093638E+02  0.36820926459E+02  0.00000000000E+00 0.  1.
         11    1    4    4    0    0 -0.13515401850E+02  0.29530453239E+01  0.19099763759E+02  0.23583628639E+02  0.51100000000E-03 0. -1.
        -11    1    4    4    0    0 -0.10943459714E+02  0.65446917113E+01 -0.12589552783E+02  0.17918960340E+02  0.51100000000E-03 0.  1.
        -12    1    4    4    0    0 -0.94135360450E+01 -0.49941109801E+01  0.72068826621E+01  0.12864484562E+02  0.00000000000E+00 0.  1.
</event>
<event>
 8    1  0.1247338E-006  0.9118800E+02  0.7816164E-02  0.1184000E+00
        -11   -1    0    0    0    0  0.00000000000E+00  0.00000000000E+00  0.45593999997E+02  0.45594000000E+02  0.51100000000E-03 0. -1.
         11   -1    0    0    0    0 -0.00000000000E+00 -0.00000000000E+00 -0.45593999997E+02  0.45594000000E+02  0.51100000000E-03 0.  1.
         23    2    1    2    0    0  0.00000000000E+00 -0.35527136788E-14  0.00000000000E+00  0.91188000000E+02  0.91188000000E+02 0.  0.
    9900012    2    3    3    0    0 -0.16161277560E+02 -0.26970676311E+02  0.19161750424E+02  0.54367123417E+02  0.40000089454E+02 0.  0.
         12    1    3    3    0    0  0.16161277560E+02  0.26970676311E+02 -0.19161750424E+02  0.36820876583E+02  0.00000000000E+00 0. -1.
         11    1    4    4    0    0 -0.10382209994E+02 -0.45211693799E+01 -0.13242395873E+01  0.11401090635E+02  0.51100000000E-03 0. -1.
        -11    1    4    4    0    0 -0.98384387557E+01 -0.22381791431E+02  0.26278190113E+02  0.35892655805E+02  0.51100000000E-03 0.  1.
         12    1    4    4    0    0  0.40593711896E+01 -0.67715499725E-01 -0.57922001022E+01  0.70733769776E+01  0.00000000000E+00 0. -1.
</event>
<event>
 8    1  0.1247338E-006  0.9118800E+02  0.7816164E-02  0.1184000E+00
        -11   -1    0    0    0    0  0.00000000000E+00  0.00000000000E+00  0.45593999997E+02  0.45594000000E+02  0.51100000000E-03 0.  1.
         11   -1    0    0    0    0 -0.00000000000E+00 -0.00000000000E+00 -0.45593999997E+02  0.45594000000E+02  0.51100000000E-03 0. -1.
         23    2    1    2    0    0  0.00000000000E+00  0.00000000000E+00  0.00000000000E+00  0.91188000000E+02  0.91188000000E+02 0.  0.
    9900012    2    3    3    0    0  0.19080625078E+02  0.23868047060E+02  0.20543263770E+02  0.54367087326E+02  0.40000007177E+02 0.  0.
         12    1    3    3    0    0 -0.19080625078E+02 -0.23868047060E+02 -0.20543263770E+02  0.36820912674E+02  0.00000000000E+00 0. -1.
         11    1    4    4    0    0 -0.43230620974E+01  0.12402486868E+02  0.87419136712E+01  0.15777566394E+02  0.51100000000E-03 0. -1.
        -11    1    4    4    0    0  0.32786085145E+01  0.13283508489E+02  0.12268533238E+02  0.18377099326E+02  0.51100000000E-03 0.  1.
         12    1    4    4    0    0  0.20125078660E+02 -0.18179482972E+01 -0.46718313880E+00  0.20212421606E+02  0.00000000000E+00 0. -1.
</event>
<event>
 8    1  0.1247338E-006  0.9118800E+02  0.7816164E-02  0.1184000E+00
        -11   -1    0    0    0    0  0.00000000000E+00  0.00000000000E+00  0.45593999997E+02  0.45594000000E+02  0.51100000000E-03 0.  1.
         11   -1    0    0    0    0 -0.00000000000E+00 -0.00000000000E+00 -0.45593999997E+02  0.45594000000E+02  0.51100000000E-03 0. -1.
         23    2    1    2    0    0 -0.71054273576E-14 -0.88817841970E-15  0.00000000000E+00  0.91188000000E+02  0.91188000000E+02 0.  0.
    9900012    2    3    3    0    0  0.31154968879E+02  0.51944062623E+01 -0.18925328926E+02  0.54367054639E+02  0.39999932661E+02 0.  0.
        -12    1    3    3    0    0 -0.31154968879E+02 -0.51944062623E+01  0.18925328926E+02  0.36820945361E+02  0.00000000000E+00 0.  1.
         11    1    4    4    0    0 -0.82760569712E+01  0.38064199471E+01 -0.72995367951E+00  0.91386423740E+01  0.51100000000E-03 0. -1.
        -11    1    4    4    0    0  0.14036845917E+02 -0.51182078122E+01 -0.42400914636E+01  0.15530855430E+02  0.51100000000E-03 0.  1.
         12    1    4    4    0    0  0.25394179933E+02  0.65061941273E+01 -0.13955283783E+02  0.29697556835E+02  0.00000000000E+00 0. -1.
</event>
<event>
 8    1  0.1247338E-006  0.9118800E+02  0.7816164E-02  0.1184000E+00
        -11   -1    0    0    0    0  0.00000000000E+00  0.00000000000E+00  0.45593999997E+02  0.45594000000E+02  0.51100000000E-03 0. -1.
         11   -1    0    0    0    0 -0.00000000000E+00 -0.00000000000E+00 -0.45593999997E+02  0.45594000000E+02  0.51100000000E-03 0.  1.
         23    2    1    2    0    0  0.00000000000E+00  0.00000000000E+00  0.35527136788E-14  0.91188000000E+02  0.91188000000E+02 0.  0.
    9900012    2    3    3    0    0 -0.29834533696E+02 -0.93097002573E+01 -0.19468172480E+02  0.54367086657E+02  0.40000005651E+02 0.  0.
         12    1    3    3    0    0  0.29834533696E+02  0.93097002573E+01  0.19468172480E+02  0.36820913343E+02  0.00000000000E+00 0. -1.
         11    1    4    4    0    0 -0.65723894902E+01  0.53615375326E+01  0.14552963068E+01  0.86058280209E+01  0.51100000000E-03 0. -1.
        -11    1    4    4    0    0 -0.16702694592E+02 -0.11192376938E+02 -0.28678852602E+02  0.35024646964E+02  0.51100000000E-03 0.  1.
        -12    1    4    4    0    0 -0.65594496137E+01 -0.34788608516E+01  0.77553838152E+01  0.10736611671E+02  0.00000000000E+00 0.  1.
</event>
<event>
 8    1  0.1247338E-006  0.9118800E+02  0.7816164E-02  0.1184000E+00
        -11   -1    0    0    0    0  0.00000000000E+00  0.00000000000E+00  0.45593999997E+02  0.45594000000E+02  0.51100000000E-03 0.  1.
         11   -1    0    0    0    0 -0.00000000000E+00 -0.00000000000E+00 -0.45593999997E+02  0.45594000000E+02  0.51100000000E-03 0. -1.
         23    2    1    2    0    0 -0.35527136788E-14  0.88817841970E-15  0.00000000000E+00  0.91188000000E+02  0.91188000000E+02 0.  0.
    9900012    2    3    3    0    0  0.27706033144E+02 -0.58111143354E+01 -0.23545398402E+02  0.54367094141E+02  0.40000022713E+02 0.  0.
        -12    1    3    3    0    0 -0.27706033144E+02  0.58111143354E+01  0.23545398402E+02  0.36820905859E+02  0.00000000000E+00 0.  1.
         11    1    4    4    0    0  0.11276400648E+02 -0.17174604169E+02 -0.14936819474E+02  0.25401433349E+02  0.51100000000E-03 0. -1.
        -11    1    4    4    0    0  0.64048169818E+01  0.10646711465E+02  0.38043069043E+01  0.12994110084E+02  0.51100000000E-03 0.  1.
        -12    1    4    4    0    0  0.10024815514E+02  0.71677836817E+00 -0.12412885832E+02  0.15971550708E+02  0.00000000000E+00 0.  1.
</event>
<event>
 8    1  0.1247338E-006  0.9118800E+02  0.7816164E-02  0.1184000E+00
        -11   -1    0    0    0    0  0.00000000000E+00  0.00000000000E+00  0.45593999997E+02  0.45594000000E+02  0.51100000000E-03 0. -1.
         11   -1    0    0    0    0 -0.00000000000E+00 -0.00000000000E+00 -0.45593999997E+02  0.45594000000E+02  0.51100000000E-03 0.  1.
         23    2    1    2    0    0  0.00000000000E+00  0.00000000000E+00  0.00000000000E+00  0.91188000000E+02  0.91188000000E+02 0.  0.
    9900012    2    3    3    0    0  0.14901154693E+02  0.32161108049E+02 -0.99698290269E+01  0.54367098695E+02  0.40000033094E+02 0.  0.
        -12    1    3    3    0    0 -0.14901154693E+02 -0.32161108049E+02  0.99698290269E+01  0.36820901305E+02  0.00000000000E+00 0.  1.
         11    1    4    4    0    0  0.31754288998E+01 -0.93647365009E-01  0.15483570574E+01  0.35340526828E+01  0.51100000000E-03 0.  1.
        -11    1    4    4    0    0  0.12540429034E+02  0.31502624779E+02  0.50035980777E+01  0.34274096958E+02  0.51100000000E-03 0. -1.
        -12    1    4    4    0    0 -0.81470323996E+00  0.75213063437E+00 -0.16521784162E+02  0.16558949053E+02  0.00000000000E+00 0.  1.
</event>
<event>
 8    1  0.1247338E-006  0.9118800E+02  0.7816164E-02  0.1184000E+00
        -11   -1    0    0    0    0  0.00000000000E+00  0.00000000000E+00  0.45593999997E+02  0.45594000000E+02  0.51100000000E-03 0.  1.
         11   -1    0    0    0    0 -0.00000000000E+00 -0.00000000000E+00 -0.45593999997E+02  0.45594000000E+02  0.51100000000E-03 0. -1.
         23    2    1    2    0    0  0.00000000000E+00  0.00000000000E+00  0.00000000000E+00  0.91188000000E+02  0.91188000000E+02 0.  0.
    9900012    2    3    3    0    0  0.81341222477E+01 -0.19454207663E+02 -0.30185252053E+02  0.54367087708E+02  0.40000008047E+02 0.  0.
        -12    1    3    3    0    0 -0.81341222477E+01  0.19454207663E+02  0.30185252053E+02  0.36820912292E+02  0.00000000000E+00 0.  1.
         11    1    4    4    0    0  0.37009416537E+01 -0.27060466007E+01 -0.32045395044E+02  0.32371700622E+02  0.51100000000E-03 0. -1.
        -11    1    4    4    0    0 -0.43591953556E+01 -0.22177048252E+01 -0.15088106330E+00  0.48932161404E+01  0.51100000000E-03 0.  1.
         12    1    4    4    0    0  0.87923759496E+01 -0.14530456237E+02  0.20110240547E+01  0.17102170946E+02  0.00000000000E+00 0. -1.
</event>
<event>
 8    1  0.1247338E-006  0.9118800E+02  0.7816164E-02  0.1184000E+00
        -11   -1    0    0    0    0  0.00000000000E+00  0.00000000000E+00  0.45593999997E+02  0.45594000000E+02  0.51100000000E-03 0.  1.
         11   -1    0    0    0    0 -0.00000000000E+00 -0.00000000000E+00 -0.45593999997E+02  0.45594000000E+02  0.51100000000E-03 0. -1.
         23    2    1    2    0    0 -0.17763568394E-14  0.00000000000E+00  0.00000000000E+00  0.91188000000E+02  0.91188000000E+02 0.  0.
    9900012    2    3    3    0    0  0.41811654597E+01 -0.32529319557E+02  0.16737404205E+02  0.54367089162E+02  0.40000011363E+02 0.  0.
         12    1    3    3    0    0 -0.41811654597E+01  0.32529319557E+02 -0.16737404205E+02  0.36820910838E+02  0.00000000000E+00 0. -1.
         11    1    4    4    0    0 -0.11377262455E+02  0.66416339709E+00  0.10337402731E+02  0.15386523632E+02  0.51100000000E-03 0. -1.
        -11    1    4    4    0    0  0.61347126782E+01 -0.14515422841E+02  0.85862693344E+01  0.17945924920E+02  0.51100000000E-03 0.  1.
         12    1    4    4    0    0  0.94237152367E+01 -0.18678060113E+02 -0.21862678606E+01  0.21034640610E+02  0.00000000000E+00 0. -1.
</event>
<event>
 8    1  0.1247338E-006  0.9118800E+02  0.7816164E-02  0.1184000E+00
        -11   -1    0    0    0    0  0.00000000000E+00  0.00000000000E+00  0.45593999997E+02  0.45594000000E+02  0.51100000000E-03 0. -1.
         11   -1    0    0    0    0 -0.00000000000E+00 -0.00000000000E+00 -0.45593999997E+02  0.45594000000E+02  0.51100000000E-03 0.  1.
         23    2    1    2    0    0  0.35527136788E-14  0.35527136788E-14  0.00000000000E+00  0.91188000000E+02  0.91188000000E+02 0.  0.
    9900012    2    3    3    0    0 -0.20332541406E+02 -0.26613661644E+02  0.15299819411E+02  0.54367031787E+02  0.39999880565E+02 0.  0.
        -12    1    3    3    0    0  0.20332541406E+02  0.26613661644E+02 -0.15299819411E+02  0.36820968213E+02  0.00000000000E+00 0.  1.
         11    1    4    4    0    0 -0.13510852230E+01 -0.41048465720E+01  0.88942890773E+01  0.98885577872E+01  0.51100000000E-03 0. -1.
        -11    1    4    4    0    0 -0.23915880080E+02 -0.47090845419E+01 -0.14238041326E+01  0.24416633996E+02  0.51100000000E-03 0.  1.
        -12    1    4    4    0    0  0.49344238977E+01 -0.17799730530E+02  0.78293344660E+01  0.20061840004E+02  0.00000000000E+00 0.  1.
</event>
<event>
 8    1  0.1247338E-006  0.9118800E+02  0.7816164E-02  0.1184000E+00
        -11   -1    0    0    0    0  0.00000000000E+00  0.00000000000E+00  0.45593999997E+02  0.45594000000E+02  0.51100000000E-03 0.  1.
         11   -1    0    0    0    0 -0.00000000000E+00 -0.00000000000E+00 -0.45593999997E+02  0.45594000000E+02  0.51100000000E-03 0. -1.
         23    2    1    2    0    0  0.00000000000E+00  0.00000000000E+00 -0.35527136788E-14  0.91188000000E+02  0.91188000000E+02 0.  0.
    9900012    2    3    3    0    0  0.18947118155E+02  0.15777700135E+02  0.27346878663E+02  0.54367070075E+02  0.39999967850E+02 0.  0.
         12    1    3    3    0    0 -0.18947118155E+02 -0.15777700135E+02 -0.27346878663E+02  0.36820929925E+02  0.00000000000E+00 0. -1.
         11    1    4    4    0    0  0.33255586210E+01  0.69486499361E+01 -0.81396018661E+01  0.11206970816E+02  0.51100000000E-03 0. -1.
        -11    1    4    4    0    0  0.11914092729E+02  0.97620725145E+00  0.31329039653E+02  0.33532183228E+02  0.51100000000E-03 0.  1.
         12    1    4    4    0    0  0.37074668052E+01  0.78528429477E+01  0.41574408754E+01  0.96279160313E+01  0.00000000000E+00 0. -1.
</event>
<event>
 8    1  0.1247338E-006  0.9118800E+02  0.7816164E-02  0.1184000E+00
        -11   -1    0    0    0    0  0.00000000000E+00  0.00000000000E+00  0.45593999997E+02  0.45594000000E+02  0.51100000000E-03 0.  1.
         11   -1    0    0    0    0 -0.00000000000E+00 -0.00000000000E+00 -0.45593999997E+02  0.45594000000E+02  0.51100000000E-03 0. -1.
         23    2    1    2    0    0  0.35527136788E-14 -0.35527136788E-14  0.00000000000E+00  0.91188000000E+02  0.91188000000E+02 0.  0.
    9900012    2    3    3    0    0  0.17877314010E+02 -0.30656664396E+02 -0.98158429730E+01  0.54367079297E+02  0.39999988874E+02 0.  0.
         12    1    3    3    0    0 -0.17877314010E+02  0.30656664396E+02  0.98158429730E+01  0.36820920703E+02  0.00000000000E+00 0. -1.
         11    1    4    4    0    0 -0.10793022838E+02 -0.61046475460E+01  0.40277990268E+01  0.13037608251E+02  0.51100000000E-03 0. -1.
        -11    1    4    4    0    0  0.15052451873E+02 -0.14913056517E+02 -0.29243734733E+01  0.21389893000E+02  0.51100000000E-03 0.  1.
         12    1    4    4    0    0  0.13617884975E+02 -0.96389603331E+01 -0.10919268527E+02  0.19939578046E+02  0.00000000000E+00 0. -1.
</event>
<event>
 8    1  0.1247338E-006  0.9118800E+02  0.7816164E-02  0.1184000E+00
        -11   -1    0    0    0    0  0.00000000000E+00  0.00000000000E+00  0.45593999997E+02  0.45594000000E+02  0.51100000000E-03 0.  1.
         11   -1    0    0    0    0 -0.00000000000E+00 -0.00000000000E+00 -0.45593999997E+02  0.45594000000E+02  0.51100000000E-03 0. -1.
         23    2    1    2    0    0  0.17763568394E-14  0.35527136788E-14  0.35527136788E-14  0.91188000000E+02  0.91188000000E+02 0.  0.
    9900012    2    3    3    0    0 -0.12283939778E+02 -0.15640593395E+02 -0.30988006984E+02  0.54367083186E+02  0.39999997738E+02 0.  0.
        -12    1    3    3    0    0  0.12283939778E+02  0.15640593395E+02  0.30988006984E+02  0.36820916814E+02  0.00000000000E+00 0.  1.
         11    1    4    4    0    0  0.60324895467E+01 -0.10907019805E+02 -0.25419947896E+02  0.28311265646E+02  0.51100000000E-03 0. -1.
        -11    1    4    4    0    0 -0.19898408273E+02  0.29877058908E+00 -0.59381577461E+01  0.20767706502E+02  0.51100000000E-03 0.  1.
        -12    1    4    4    0    0  0.15819789489E+01 -0.50323441792E+01  0.37009865800E+00  0.52881110379E+01  0.00000000000E+00 0.  1.
</event>
<event>
 8    1  0.1247338E-006  0.9118800E+02  0.7816164E-02  0.1184000E+00
        -11   -1    0    0    0    0  0.00000000000E+00  0.00000000000E+00  0.45593999997E+02  0.45594000000E+02  0.51100000000E-03 0.  1.
         11   -1    0    0    0    0 -0.00000000000E+00 -0.00000000000E+00 -0.45593999997E+02  0.45594000000E+02  0.51100000000E-03 0. -1.
         23    2    1    2    0    0  0.00000000000E+00  0.00000000000E+00 -0.17763568394E-14  0.91188000000E+02  0.91188000000E+02 0.  0.
    9900012    2    3    3    0    0 -0.35582043550E+02  0.79101376637E+01 -0.52082046036E+01  0.54367116031E+02  0.40000072617E+02 0.  0.
        -12    1    3    3    0    0  0.35582043550E+02 -0.79101376637E+01  0.52082046036E+01  0.36820883969E+02  0.00000000000E+00 0.  1.
         11    1    4    4    0    0 -0.13783587152E+02  0.84831835795E+01 -0.25797112392E+01  0.16389221725E+02  0.51100000000E-03 0. -1.
        -11    1    4    4    0    0 -0.14646887610E+02 -0.38468827786E+01  0.13337521818E+02  0.20179675723E+02  0.51100000000E-03 0.  1.
        -12    1    4    4    0    0 -0.71515687877E+01  0.32738368628E+01 -0.15966015183E+02  0.17798218583E+02  0.00000000000E+00 0.  1.
</event>
<event>
 8    1  0.1247338E-006  0.9118800E+02  0.7816164E-02  0.1184000E+00
        -11   -1    0    0    0    0  0.00000000000E+00  0.00000000000E+00  0.45593999997E+02  0.45594000000E+02  0.51100000000E-03 0. -1.
         11   -1    0    0    0    0 -0.00000000000E+00 -0.00000000000E+00 -0.45593999997E+02  0.45594000000E+02  0.51100000000E-03 0.  1.
         23    2    1    2    0    0  0.00000000000E+00  0.35527136788E-14  0.00000000000E+00  0.91188000000E+02  0.91188000000E+02 0.  0.
    9900012    2    3    3    0    0  0.93644450077E+01 -0.31051584166E+02 -0.17432405944E+02  0.54367048267E+02  0.39999918134E+02 0.  0.
         12    1    3    3    0    0 -0.93644450077E+01  0.31051584166E+02  0.17432405944E+02  0.36820951733E+02  0.00000000000E+00 0. -1.
         11    1    4    4    0    0  0.12632926127E+02 -0.17521351350E+02 -0.39314704676E+01  0.21955524042E+02  0.51100000000E-03 0. -1.
        -11    1    4    4    0    0 -0.31717991070E+00 -0.18673349976E+02 -0.17227271672E+02  0.25408138302E+02  0.51100000000E-03 0.  1.
        -12    1    4    4    0    0 -0.29513012084E+01  0.51431171601E+01  0.37263361958E+01  0.70033859232E+01  0.00000000000E+00 0.  1.
</event>
<event>
 8    1  0.1247338E-006  0.9118800E+02  0.7816164E-02  0.1184000E+00
        -11   -1    0    0    0    0  0.00000000000E+00  0.00000000000E+00  0.45593999997E+02  0.45594000000E+02  0.51100000000E-03 0. -1.
         11   -1    0    0    0    0 -0.00000000000E+00 -0.00000000000E+00 -0.45593999997E+02  0.45594000000E+02  0.51100000000E-03 0.  1.
         23    2    1    2    0    0  0.00000000000E+00  0.00000000000E+00 -0.88817841970E-15  0.91188000000E+02  0.91188000000E+02 0.  0.
    9900012    2    3    3    0    0  0.26341813056E+02 -0.25476830913E+02  0.35809505901E+01  0.54367038095E+02  0.39999894946E+02 0.  0.
        -12    1    3    3    0    0 -0.26341813056E+02  0.25476830913E+02 -0.35809505901E+01  0.36820961905E+02  0.00000000000E+00 0.  1.
         11    1    4    4    0    0  0.15962185233E+01 -0.14784871542E+02 -0.69696665552E+01  0.16423050638E+02  0.51100000000E-03 0. -1.
        -11    1    4    4    0    0  0.18884474608E+02 -0.74587229650E+01  0.18557943559E+02  0.27507329912E+02  0.51100000000E-03 0.  1.
        -12    1    4    4    0    0  0.58611199251E+01 -0.32332364059E+01 -0.80073264138E+01  0.10436657546E+02  0.00000000000E+00 0.  1.
</event>
<event>
 8    1  0.1247338E-006  0.9118800E+02  0.7816164E-02  0.1184000E+00
        -11   -1    0    0    0    0  0.00000000000E+00  0.00000000000E+00  0.45593999997E+02  0.45594000000E+02  0.51100000000E-03 0. -1.
         11   -1    0    0    0    0 -0.00000000000E+00 -0.00000000000E+00 -0.45593999997E+02  0.45594000000E+02  0.51100000000E-03 0.  1.
         23    2    1    2    0    0  0.88817841970E-15  0.00000000000E+00  0.35527136788E-14  0.91188000000E+02  0.91188000000E+02 0.  0.
    9900012    2    3    3    0    0  0.51957823661E+01  0.26367009875E+02  0.25170707834E+02  0.54367083431E+02  0.39999998297E+02 0.  0.
        -12    1    3    3    0    0 -0.51957823661E+01 -0.26367009875E+02 -0.25170707834E+02  0.36820916569E+02  0.00000000000E+00 0.  1.
         11    1    4    4    0    0 -0.79236016028E+01  0.61697926347E+01  0.44000339842E+01  0.10964036795E+02  0.51100000000E-03 0. -1.
        -11    1    4    4    0    0  0.21851504711E+02  0.11260965981E+02  0.18350985327E+02  0.30676640554E+02  0.51100000000E-03 0.  1.
        -12    1    4    4    0    0 -0.87321207418E+01  0.89362512587E+01  0.24196885230E+01  0.12726406082E+02  0.00000000000E+00 0.  1.
</event>
<event>
 8    1  0.1247338E-006  0.9118800E+02  0.7816164E-02  0.1184000E+00
        -11   -1    0    0    0    0  0.00000000000E+00  0.00000000000E+00  0.45593999997E+02  0.45594000000E+02  0.51100000000E-03 0.  1.
         11   -1    0    0    0    0 -0.00000000000E+00 -0.00000000000E+00 -0.45593999997E+02  0.45594000000E+02  0.51100000000E-03 0. -1.
         23    2    1    2    0    0  0.00000000000E+00  0.00000000000E+00  0.00000000000E+00  0.91188000000E+02  0.91188000000E+02 0.  0.
    9900012    2    3    3    0    0 -0.99830275878E+01 -0.17597312227E+02 -0.30764507232E+02  0.54367066516E+02  0.39999959736E+02 0.  0.
        -12    1    3    3    0    0  0.99830275878E+01  0.17597312227E+02  0.30764507232E+02  0.36820933484E+02  0.00000000000E+00 0.  1.
         11    1    4    4    0    0 -0.11083926082E+02  0.30637427698E+01 -0.60195433309E+01  0.12979785797E+02  0.51100000000E-03 0. -1.
        -11    1    4    4    0    0 -0.68299834883E+01 -0.18435612644E+02 -0.26468963292E+02  0.32971601508E+02  0.51100000000E-03 0.  1.
        -12    1    4    4    0    0  0.79308819825E+01 -0.22254423529E+01  0.17239993908E+01  0.84156792112E+01  0.00000000000E+00 0.  1.
</event>
<event>
 8    1  0.1247338E-006  0.9118800E+02  0.7816164E-02  0.1184000E+00
        -11   -1    0    0    0    0  0.00000000000E+00  0.00000000000E+00  0.45593999997E+02  0.45594000000E+02  0.51100000000E-03 0. -1.
         11   -1    0    0    0    0 -0.00000000000E+00 -0.00000000000E+00 -0.45593999997E+02  0.45594000000E+02  0.51100000000E-03 0.  1.
         23    2    1    2    0    0  0.00000000000E+00 -0.35527136788E-14  0.00000000000E+00  0.91188000000E+02  0.91188000000E+02 0.  0.
    9900012    2    3    3    0    0  0.25987384904E+02  0.17900795563E+02  0.18973597830E+02  0.54367081074E+02  0.39999992925E+02 0.  0.
        -12    1    3    3    0    0 -0.25987384904E+02 -0.17900795563E+02 -0.18973597830E+02  0.36820918926E+02  0.00000000000E+00 0.  1.
         11    1    4    4    0    0  0.12914645972E+02  0.22291029023E+02  0.20083082834E+02  0.32665092559E+02  0.51100000000E-03 0. -1.
        -11    1    4    4    0    0  0.57585179683E+01  0.57906984577E+01  0.26978608132E+01  0.86006494550E+01  0.51100000000E-03 0.  1.
        -12    1    4    4    0    0  0.73142209634E+01 -0.10180931917E+02 -0.38073458174E+01  0.13101339061E+02  0.00000000000E+00 0.  1.
</event>
<event>
 8    1  0.1247338E-006  0.9118800E+02  0.7816164E-02  0.1184000E+00
        -11   -1    0    0    0    0  0.00000000000E+00  0.00000000000E+00  0.45593999997E+02  0.45594000000E+02  0.51100000000E-03 0. -1.
         11   -1    0    0    0    0 -0.00000000000E+00 -0.00000000000E+00 -0.45593999997E+02  0.45594000000E+02  0.51100000000E-03 0.  1.
         23    2    1    2    0    0  0.00000000000E+00  0.00000000000E+00  0.00000000000E+00  0.91188000000E+02  0.91188000000E+02 0.  0.
    9900012    2    3    3    0    0 -0.16734750381E+02  0.25414378526E+02  0.20732525423E+02  0.54367080448E+02  0.39999991498E+02 0.  0.
        -12    1    3    3    0    0  0.16734750381E+02 -0.25414378526E+02 -0.20732525423E+02  0.36820919552E+02  0.00000000000E+00 0.  1.
         11    1    4    4    0    0 -0.48380544179E+01  0.20218650061E+02 -0.31353013298E+01  0.21024526048E+02  0.51100000000E-03 0. -1.
        -11    1    4    4    0    0 -0.23790008074E+01 -0.57631326772E+01  0.15218086839E+02  0.16445774850E+02  0.51100000000E-03 0.  1.
        -12    1    4    4    0    0 -0.95176951559E+01  0.10958861143E+02  0.86497399134E+01  0.16896779551E+02  0.00000000000E+00 0.  1.
</event>
<event>
 8    1  0.1247338E-006  0.9118800E+02  0.7816164E-02  0.1184000E+00
        -11   -1    0    0    0    0  0.00000000000E+00  0.00000000000E+00  0.45593999997E+02  0.45594000000E+02  0.51100000000E-03 0.  1.
         11   -1    0    0    0    0 -0.00000000000E+00 -0.00000000000E+00 -0.45593999997E+02  0.45594000000E+02  0.51100000000E-03 0. -1.
         23    2    1    2    0    0  0.35527136788E-14 -0.35527136788E-14 -0.35527136788E-14  0.91188000000E+02  0.91188000000E+02 0.  0.
    9900012    2    3    3    0    0 -0.11795225610E+02 -0.27751484983E+02  0.21130743468E+02  0.54367074082E+02  0.39999976985E+02 0.  0.
         12    1    3    3    0    0  0.11795225610E+02  0.27751484983E+02 -0.21130743468E+02  0.36820925918E+02  0.00000000000E+00 0. -1.
         11    1    4    4    0    0  0.17053215371E+01 -0.20545052157E+01 -0.64583894166E+00  0.27470386648E+01  0.51100000000E-03 0. -1.
        -11    1    4    4    0    0  0.40689829488E+01  0.63959518347E+01  0.11218623742E+02  0.13539658084E+02  0.51100000000E-03 0.  1.
        -12    1    4    4    0    0 -0.17569530096E+02 -0.32092931602E+02  0.10557958668E+02  0.38080377333E+02  0.00000000000E+00 0.  1.
</event>
<event>
 8    1  0.1247338E-006  0.9118800E+02  0.7816164E-02  0.1184000E+00
        -11   -1    0    0    0    0  0.00000000000E+00  0.00000000000E+00  0.45593999997E+02  0.45594000000E+02  0.51100000000E-03 0.  1.
         11   -1    0    0    0    0 -0.00000000000E+00 -0.00000000000E+00 -0.45593999997E+02  0.45594000000E+02  0.51100000000E-03 0. -1.
         23    2    1    2    0    0 -0.35527136788E-14  0.35527136788E-14  0.88817841970E-15  0.91188000000E+02  0.91188000000E+02 0.  0.
    9900012    2    3    3    0    0 -0.19099696461E+02  0.30614586100E+02  0.73302064046E+01  0.54367038404E+02  0.39999895649E+02 0.  0.
         12    1    3    3    0    0  0.19099696461E+02 -0.30614586100E+02 -0.73302064046E+01  0.36820961596E+02  0.00000000000E+00 0. -1.
         11    1    4    4    0    0  0.12038634566E+01  0.16004997205E+02 -0.96571362010E+01  0.18731510954E+02  0.51100000000E-03 0. -1.
        -11    1    4    4    0    0 -0.30702676933E+01 -0.43021589742E+00 -0.36774808694E+01  0.48099371340E+01  0.51100000000E-03 0.  1.
        -12    1    4    4    0    0 -0.17233292224E+02  0.15039804792E+02  0.20664823475E+02  0.30825590316E+02  0.00000000000E+00 0.  1.
</event>
<event>
 8    1  0.1247338E-006  0.9118800E+02  0.7816164E-02  0.1184000E+00
        -11   -1    0    0    0    0  0.00000000000E+00  0.00000000000E+00  0.45593999997E+02  0.45594000000E+02  0.51100000000E-03 0.  1.
         11   -1    0    0    0    0 -0.00000000000E+00 -0.00000000000E+00 -0.45593999997E+02  0.45594000000E+02  0.51100000000E-03 0. -1.
         23    2    1    2    0    0  0.00000000000E+00  0.00000000000E+00 -0.71054273576E-14  0.91188000000E+02  0.91188000000E+02 0.  0.
    9900012    2    3    3    0    0  0.40520270880E+01  0.17603288273E+02  0.32085581706E+02  0.54367092421E+02  0.40000018792E+02 0.  0.
         12    1    3    3    0    0 -0.40520270880E+01 -0.17603288273E+02 -0.32085581706E+02  0.36820907579E+02  0.00000000000E+00 0. -1.
         11    1    4    4    0    0 -0.38745082903E+01 -0.66682077214E+01 -0.16031144775E+01  0.78769781641E+01  0.51100000000E-03 0. -1.
        -11    1    4    4    0    0 -0.41781028101E+01  0.71284522305E+01  0.20314602075E+01  0.85087134826E+01  0.51100000000E-03 0.  1.
        -12    1    4    4    0    0  0.12104638188E+02  0.17143043764E+02  0.31657235976E+02  0.37981400774E+02  0.00000000000E+00 0.  1.
</event>
<event>
 8    1  0.1247338E-006  0.9118800E+02  0.7816164E-02  0.1184000E+00
        -11   -1    0    0    0    0  0.00000000000E+00  0.00000000000E+00  0.45593999997E+02  0.45594000000E+02  0.51100000000E-03 0. -1.
         11   -1    0    0    0    0 -0.00000000000E+00 -0.00000000000E+00 -0.45593999997E+02  0.45594000000E+02  0.51100000000E-03 0.  1.
         23    2    1    2    0    0 -0.17763568394E-14  0.00000000000E+00 -0.35527136788E-14  0.91188000000E+02  0.91188000000E+02 0.  0.
    9900012    2    3    3    0    0  0.87930405995E+01  0.19131948819E+02  0.30206444796E+02  0.54367104630E+02  0.40000046625E+02 0.  0.
        -12    1    3    3    0    0 -0.87930405995E+01 -0.19131948819E+02 -0.30206444796E+02  0.36820895370E+02  0.00000000000E+00 0.  1.
         11    1    4    4    0    0  0.40315137637E+01  0.23788418302E+02  0.19682432191E+02  0.31137438651E+02  0.51100000000E-03 0. -1.
        -11    1    4    4    0    0 -0.25318900742E+01 -0.23641721202E+01  0.14292403339E+02  0.14706208574E+02  0.51100000000E-03 0.  1.
        -12    1    4    4    0    0  0.72934169100E+01 -0.22922973624E+01 -0.37683907335E+01  0.85234574053E+01  0.00000000000E+00 0.  1.
</event>
<event>
 8    1  0.1247338E-006  0.9118800E+02  0.7816164E-02  0.1184000E+00
        -11   -1    0    0    0    0  0.00000000000E+00  0.00000000000E+00  0.45593999997E+02  0.45594000000E+02  0.51100000000E-03 0. -1.
         11   -1    0    0    0    0 -0.00000000000E+00 -0.00000000000E+00 -0.45593999997E+02  0.45594000000E+02  0.51100000000E-03 0.  1.
         23    2    1    2    0    0 -0.17763568394E-14 -0.17763568394E-14  0.71054273576E-14  0.91188000000E+02  0.91188000000E+02 0.  0.
    9900012    2    3    3    0    0  0.10749915525E+02  0.12606493483E+02 -0.32883085224E+02  0.54367059551E+02  0.39999943858E+02 0.  0.
         12    1    3    3    0    0 -0.10749915525E+02 -0.12606493483E+02  0.32883085224E+02  0.36820940449E+02  0.00000000000E+00 0. -1.
         11    1    4    4    0    0  0.12160554542E+01  0.14285872876E+02 -0.25180095054E+02  0.28975888975E+02  0.51100000000E-03 0. -1.
        -11    1    4    4    0    0  0.65806473490E+01  0.92973469614E+01 -0.81649887048E+01  0.14014728712E+02  0.51100000000E-03 0.  1.
         12    1    4    4    0    0  0.29532127214E+01 -0.10976726355E+02  0.46199853493E+00  0.11376441864E+02  0.00000000000E+00 0. -1.
</event>
<event>
 8    1  0.1247338E-006  0.9118800E+02  0.7816164E-02  0.1184000E+00
        -11   -1    0    0    0    0  0.00000000000E+00  0.00000000000E+00  0.45593999997E+02  0.45594000000E+02  0.51100000000E-03 0. -1.
         11   -1    0    0    0    0 -0.00000000000E+00 -0.00000000000E+00 -0.45593999997E+02  0.45594000000E+02  0.51100000000E-03 0.  1.
         23    2    1    2    0    0  0.00000000000E+00  0.00000000000E+00  0.35527136788E-14  0.91188000000E+02  0.91188000000E+02 0.  0.
    9900012    2    3    3    0    0 -0.30391093127E+01  0.25594893200E+02  0.26295356124E+02  0.54367075282E+02  0.39999979721E+02 0.  0.
         12    1    3    3    0    0  0.30391093127E+01 -0.25594893200E+02 -0.26295356124E+02  0.36820924718E+02  0.00000000000E+00 0. -1.
         11    1    4    4    0    0 -0.12865159324E+02  0.39569084710E+01  0.19416323171E+02  0.23625474701E+02  0.51100000000E-03 0. -1.
        -11    1    4    4    0    0  0.38606482024E+01  0.23226620616E+02  0.38242893731E+01  0.23853840346E+02  0.51100000000E-03 0.  1.
        -12    1    4    4    0    0  0.59654018087E+01 -0.15886358873E+01  0.30547435801E+01  0.68877602355E+01  0.00000000000E+00 0.  1.
</event>
<event>
 8    1  0.1247338E-006  0.9118800E+02  0.7816164E-02  0.1184000E+00
        -11   -1    0    0    0    0  0.00000000000E+00  0.00000000000E+00  0.45593999997E+02  0.45594000000E+02  0.51100000000E-03 0.  1.
         11   -1    0    0    0    0 -0.00000000000E+00 -0.00000000000E+00 -0.45593999997E+02  0.45594000000E+02  0.51100000000E-03 0. -1.
         23    2    1    2    0    0  0.00000000000E+00  0.00000000000E+00  0.00000000000E+00  0.91188000000E+02  0.91188000000E+02 0.  0.
    9900012    2    3    3    0    0  0.12749426247E+02  0.99063400004E+01  0.33092239577E+02  0.54367085264E+02  0.40000002476E+02 0.  0.
         12    1    3    3    0    0 -0.12749426247E+02 -0.99063400004E+01 -0.33092239577E+02  0.36820914736E+02  0.00000000000E+00 0. -1.
         11    1    4    4    0    0  0.22086219066E+01  0.21065500426E+01  0.54457996460E-01  0.30526266956E+01  0.51100000000E-03 0. -1.
        -11    1    4    4    0    0  0.61906752457E+01  0.20934387279E+02  0.30077839066E+02  0.37165164253E+02  0.51100000000E-03 0.  1.
         12    1    4    4    0    0  0.43501290944E+01 -0.13134597322E+02  0.29599425139E+01  0.14149294315E+02  0.00000000000E+00 0. -1.
</event>
<event>
 8    1  0.1247338E-006  0.9118800E+02  0.7816164E-02  0.1184000E+00
        -11   -1    0    0    0    0  0.00000000000E+00  0.00000000000E+00  0.45593999997E+02  0.45594000000E+02  0.51100000000E-03 0.  1.
         11   -1    0    0    0    0 -0.00000000000E+00 -0.00000000000E+00 -0.45593999997E+02  0.45594000000E+02  0.51100000000E-03 0. -1.
         23    2    1    2    0    0 -0.35527136788E-14  0.00000000000E+00 -0.35527136788E-14  0.91188000000E+02  0.91188000000E+02 0.  0.
    9900012    2    3    3    0    0  0.25542015306E+02 -0.23615076337E+02  0.12071073592E+02  0.54367120136E+02  0.40000081974E+02 0.  0.
         12    1    3    3    0    0 -0.25542015306E+02  0.23615076337E+02 -0.12071073592E+02  0.36820879864E+02  0.00000000000E+00 0. -1.
         11    1    4    4    0    0 -0.13006561085E+01 -0.84253797785E+01 -0.89736347348E+01  0.12377594732E+02  0.51100000000E-03 0. -1.
        -11    1    4    4    0    0  0.16321287273E+01 -0.71738258911E+01 -0.11643457962E+01  0.74487128748E+01  0.51100000000E-03 0.  1.
        -12    1    4    4    0    0  0.25210542687E+02 -0.80158706672E+01  0.22209054123E+02  0.34540812530E+02  0.00000000000E+00 0.  1.
</event>
<event>
 8    1  0.1247338E-006  0.9118800E+02  0.7816164E-02  0.1184000E+00
        -11   -1    0    0    0    0  0.00000000000E+00  0.00000000000E+00  0.45593999997E+02  0.45594000000E+02  0.51100000000E-03 0. -1.
         11   -1    0    0    0    0 -0.00000000000E+00 -0.00000000000E+00 -0.45593999997E+02  0.45594000000E+02  0.51100000000E-03 0.  1.
         23    2    1    2    0    0 -0.17763568394E-14  0.00000000000E+00  0.17763568394E-14  0.91188000000E+02  0.91188000000E+02 0.  0.
    9900012    2    3    3    0    0 -0.14399080538E+02 -0.30970807893E+02 -0.13757028240E+02  0.54367078122E+02  0.39999986196E+02 0.  0.
         12    1    3    3    0    0  0.14399080538E+02  0.30970807893E+02  0.13757028240E+02  0.36820921878E+02  0.00000000000E+00 0. -1.
         11    1    4    4    0    0 -0.24678315154E+02 -0.20473389641E+02 -0.50052781903E+01  0.32453531892E+02  0.51100000000E-03 0. -1.
        -11    1    4    4    0    0 -0.38516739236E+00  0.28788046463E+01 -0.19788331177E+01  0.35144915536E+01  0.51100000000E-03 0.  1.
        -12    1    4    4    0    0  0.10664402008E+02 -0.13376222899E+02 -0.67729169319E+01  0.18399054677E+02  0.00000000000E+00 0.  1.
</event>
<event>
 8    1  0.1247338E-006  0.9118800E+02  0.7816164E-02  0.1184000E+00
        -11   -1    0    0    0    0  0.00000000000E+00  0.00000000000E+00  0.45593999997E+02  0.45594000000E+02  0.51100000000E-03 0.  1.
         11   -1    0    0    0    0 -0.00000000000E+00 -0.00000000000E+00 -0.45593999997E+02  0.45594000000E+02  0.51100000000E-03 0. -1.
         23    2    1    2    0    0  0.00000000000E+00  0.00000000000E+00  0.00000000000E+00  0.91188000000E+02  0.91188000000E+02 0.  0.
    9900012    2    3    3    0    0  0.21618078548E+02  0.10264670835E+02 -0.27983493068E+02  0.54367072910E+02  0.39999974314E+02 0.  0.
        -12    1    3    3    0    0 -0.21618078548E+02 -0.10264670835E+02  0.27983493068E+02  0.36820927090E+02  0.00000000000E+00 0.  1.
         11    1    4    4    0    0  0.11918072624E+02 -0.66755621828E+01 -0.27662163369E+02  0.30851237707E+02  0.51100000000E-03 0. -1.
        -11    1    4    4    0    0 -0.23884867397E+01  0.38980152243E+01  0.29414068368E+01  0.54361076180E+01  0.51100000000E-03 0.  1.
         12    1    4    4    0    0  0.12088492663E+02  0.13042217794E+02 -0.32627365354E+01  0.18079727585E+02  0.00000000000E+00 0. -1.
</event>
<event>
 8    1  0.1247338E-006  0.9118800E+02  0.7816164E-02  0.1184000E+00
        -11   -1    0    0    0    0  0.00000000000E+00  0.00000000000E+00  0.45593999997E+02  0.45594000000E+02  0.51100000000E-03 0. -1.
         11   -1    0    0    0    0 -0.00000000000E+00 -0.00000000000E+00 -0.45593999997E+02  0.45594000000E+02  0.51100000000E-03 0.  1.
         23    2    1    2    0    0  0.17763568394E-14  0.17763568394E-14  0.00000000000E+00  0.91188000000E+02  0.91188000000E+02 0.  0.
    9900012    2    3    3    0    0 -0.10128819736E+02 -0.15916002380E+02 -0.31620669948E+02  0.54367097119E+02  0.40000029503E+02 0.  0.
         12    1    3    3    0    0  0.10128819736E+02  0.15916002380E+02  0.31620669948E+02  0.36820902881E+02  0.00000000000E+00 0. -1.
         11    1    4    4    0    0  0.60362662415E+01 -0.10357736607E+01 -0.97638714059E+01  0.11525733049E+02  0.51100000000E-03 0. -1.
        -11    1    4    4    0    0  0.22930267930E+01 -0.93916157482E+01 -0.21508597588E+02  0.23581352563E+02  0.51100000000E-03 0.  1.
        -12    1    4    4    0    0 -0.18458112770E+02 -0.54886129715E+01 -0.34820095434E+00  0.19260011508E+02  0.00000000000E+00 0.  1.
</event>
<event>
 8    1  0.1247338E-006  0.9118800E+02  0.7816164E-02  0.1184000E+00
        -11   -1    0    0    0    0  0.00000000000E+00  0.00000000000E+00  0.45593999997E+02  0.45594000000E+02  0.51100000000E-03 0.  1.
         11   -1    0    0    0    0 -0.00000000000E+00 -0.00000000000E+00 -0.45593999997E+02  0.45594000000E+02  0.51100000000E-03 0. -1.
         23    2    1    2    0    0 -0.17763568394E-14  0.00000000000E+00  0.00000000000E+00  0.91188000000E+02  0.91188000000E+02 0.  0.
    9900012    2    3    3    0    0  0.14715787972E+02 -0.67748027300E+01  0.33065457267E+02  0.54367125052E+02  0.40000093181E+02 0.  0.
         12    1    3    3    0    0 -0.14715787972E+02  0.67748027300E+01 -0.33065457267E+02  0.36820874948E+02  0.00000000000E+00 0. -1.
         11    1    4    4    0    0  0.86760976956E+01 -0.34115074855E+01 -0.53043487253E+01  0.10726097623E+02  0.51100000000E-03 0. -1.
        -11    1    4    4    0    0  0.63786701505E+01 -0.87469950221E+01  0.99171537808E+01  0.14681529014E+02  0.51100000000E-03 0.  1.
        -12    1    4    4    0    0 -0.33897987378E+00  0.53836997776E+01  0.28452652211E+02  0.28959498416E+02  0.00000000000E+00 0.  1.
</event>
<event>
 8    1  0.1247338E-006  0.9118800E+02  0.7816164E-02  0.1184000E+00
        -11   -1    0    0    0    0  0.00000000000E+00  0.00000000000E+00  0.45593999997E+02  0.45594000000E+02  0.51100000000E-03 0.  1.
         11   -1    0    0    0    0 -0.00000000000E+00 -0.00000000000E+00 -0.45593999997E+02  0.45594000000E+02  0.51100000000E-03 0. -1.
         23    2    1    2    0    0  0.71054273576E-14 -0.28865798640E-14  0.88817841970E-15  0.91188000000E+02  0.91188000000E+02 0.  0.
    9900012    2    3    3    0    0 -0.36510397093E+02 -0.14988428955E+01 -0.45302859197E+01  0.54367094030E+02  0.40000022461E+02 0.  0.
         12    1    3    3    0    0  0.36510397093E+02  0.14988428955E+01  0.45302859197E+01  0.36820905970E+02  0.00000000000E+00 0. -1.
         11    1    4    4    0    0 -0.20128192438E+02 -0.47556066150E+01  0.13260290292E+01  0.20724822758E+02  0.51100000000E-03 0. -1.
        -11    1    4    4    0    0 -0.93119460962E+01 -0.11683716502E+02 -0.80452195952E+01  0.16969004979E+02  0.51100000000E-03 0.  1.
        -12    1    4    4    0    0 -0.70702585588E+01  0.14940480221E+02  0.21889046463E+01  0.16673266293E+02  0.00000000000E+00 0.  1.
</event>
<event>
 8    1  0.1247338E-006  0.9118800E+02  0.7816164E-02  0.1184000E+00
        -11   -1    0    0    0    0  0.00000000000E+00  0.00000000000E+00  0.45593999997E+02  0.45594000000E+02  0.51100000000E-03 0.  1.
         11   -1    0    0    0    0 -0.00000000000E+00 -0.00000000000E+00 -0.45593999997E+02  0.45594000000E+02  0.51100000000E-03 0. -1.
         23    2    1    2    0    0 -0.88817841970E-15  0.00000000000E+00  0.00000000000E+00  0.91188000000E+02  0.91188000000E+02 0.  0.
    9900012    2    3    3    0    0 -0.52523608865E+01 -0.32869393619E+02 -0.15741527041E+02  0.54367081960E+02  0.39999994944E+02 0.  0.
        -12    1    3    3    0    0  0.52523608865E+01  0.32869393619E+02  0.15741527041E+02  0.36820918040E+02  0.00000000000E+00 0.  1.
         11    1    4    4    0    0  0.11591125384E+02 -0.20413305984E+02 -0.51157391392E+01  0.24025570463E+02  0.51100000000E-03 0. -1.
        -11    1    4    4    0    0 -0.79400306510E+01 -0.16748899170E+02 -0.68898970055E+01  0.19774741241E+02  0.51100000000E-03 0.  1.
        -12    1    4    4    0    0 -0.89034556193E+01  0.42928115356E+01 -0.37358908967E+01  0.10566770256E+02  0.00000000000E+00 0.  1.
</event>
<event>
 8    1  0.1247338E-006  0.9118800E+02  0.7816164E-02  0.1184000E+00
        -11   -1    0    0    0    0  0.00000000000E+00  0.00000000000E+00  0.45593999997E+02  0.45594000000E+02  0.51100000000E-03 0. -1.
         11   -1    0    0    0    0 -0.00000000000E+00 -0.00000000000E+00 -0.45593999997E+02  0.45594000000E+02  0.51100000000E-03 0.  1.
         23    2    1    2    0    0  0.00000000000E+00  0.17763568394E-14  0.00000000000E+00  0.91188000000E+02  0.91188000000E+02 0.  0.
    9900012    2    3    3    0    0 -0.97228168197E+01  0.91774698216E+01  0.34307729870E+02  0.54367089527E+02  0.40000012195E+02 0.  0.
        -12    1    3    3    0    0  0.97228168197E+01 -0.91774698216E+01 -0.34307729870E+02  0.36820910473E+02  0.00000000000E+00 0.  1.
         11    1    4    4    0    0 -0.10762312156E+02  0.93492573508E+01  0.11376913698E+02  0.18239247285E+02  0.51100000000E-03 0. -1.
        -11    1    4    4    0    0 -0.36929792926E+01 -0.11105129856E+02  0.17594283047E+01  0.11834593081E+02  0.51100000000E-03 0.  1.
        -12    1    4    4    0    0  0.47324746294E+01  0.10933342327E+02  0.21171387868E+02  0.24293249161E+02  0.00000000000E+00 0.  1.
</event>
<event>
 8    1  0.1247338E-006  0.9118800E+02  0.7816164E-02  0.1184000E+00
        -11   -1    0    0    0    0  0.00000000000E+00  0.00000000000E+00  0.45593999997E+02  0.45594000000E+02  0.51100000000E-03 0.  1.
         11   -1    0    0    0    0 -0.00000000000E+00 -0.00000000000E+00 -0.45593999997E+02  0.45594000000E+02  0.51100000000E-03 0. -1.
         23    2    1    2    0    0  0.17763568394E-14 -0.35527136788E-14  0.00000000000E+00  0.91188000000E+02  0.91188000000E+02 0.  0.
    9900012    2    3    3    0    0  0.15586182903E+02 -0.28005176115E+02 -0.18126232099E+02  0.54367091852E+02  0.40000017496E+02 0.  0.
         12    1    3    3    0    0 -0.15586182903E+02  0.28005176115E+02  0.18126232099E+02  0.36820908148E+02  0.00000000000E+00 0. -1.
         11    1    4    4    0    0  0.90180262736E+01  0.50637993987E+01 -0.12399800224E+02  0.16146885399E+02  0.51100000000E-03 0. -1.
        -11    1    4    4    0    0  0.27851477763E+01 -0.33813806892E+02 -0.49564470283E+01  0.34288437586E+02  0.51100000000E-03 0.  1.
        -12    1    4    4    0    0  0.37830088529E+01  0.74483137915E+00 -0.76998484701E+00  0.39317688678E+01  0.00000000000E+00 0.  1.
</event>
<event>
 8    1  0.1247338E-006  0.9118800E+02  0.7816164E-02  0.1184000E+00
        -11   -1    0    0    0    0  0.00000000000E+00  0.00000000000E+00  0.45593999997E+02  0.45594000000E+02  0.51100000000E-03 0.  1.
         11   -1    0    0    0    0 -0.00000000000E+00 -0.00000000000E+00 -0.45593999997E+02  0.45594000000E+02  0.51100000000E-03 0. -1.
         23    2    1    2    0    0 -0.35527136788E-14  0.00000000000E+00 -0.35527136788E-14  0.91188000000E+02  0.91188000000E+02 0.  0.
    9900012    2    3    3    0    0 -0.19719225532E+02 -0.18750236136E+02 -0.24806567542E+02  0.54367014082E+02  0.39999840203E+02 0.  0.
        -12    1    3    3    0    0  0.19719225532E+02  0.18750236136E+02  0.24806567542E+02  0.36820985918E+02  0.00000000000E+00 0.  1.
         11    1    4    4    0    0 -0.11441533221E+01 -0.14682764559E+02  0.21957948585E+01  0.14890069752E+02  0.51100000000E-03 0. -1.
        -11    1    4    4    0    0  0.10377293728E+01 -0.60035709061E+01 -0.56365886876E-01  0.60928583809E+01  0.51100000000E-03 0.  1.
         12    1    4    4    0    0 -0.19612801583E+02  0.19360993283E+01 -0.26945996514E+02  0.33384085949E+02  0.00000000000E+00 0. -1.
</event>
<event>
 8    1  0.1247338E-006  0.9118800E+02  0.7816164E-02  0.1184000E+00
        -11   -1    0    0    0    0  0.00000000000E+00  0.00000000000E+00  0.45593999997E+02  0.45594000000E+02  0.51100000000E-03 0. -1.
         11   -1    0    0    0    0 -0.00000000000E+00 -0.00000000000E+00 -0.45593999997E+02  0.45594000000E+02  0.51100000000E-03 0.  1.
         23    2    1    2    0    0  0.00000000000E+00  0.35527136788E-14  0.00000000000E+00  0.91188000000E+02  0.91188000000E+02 0.  0.
    9900012    2    3    3    0    0 -0.22697589603E+02 -0.16824871345E+02 -0.23611865659E+02  0.54367121827E+02  0.40000085829E+02 0.  0.
        -12    1    3    3    0    0  0.22697589603E+02  0.16824871345E+02  0.23611865659E+02  0.36820878173E+02  0.00000000000E+00 0.  1.
         11    1    4    4    0    0 -0.17844186402E+01 -0.16625374095E+02 -0.11766103244E+02  0.20445742821E+02  0.51100000000E-03 0. -1.
        -11    1    4    4    0    0 -0.26209883385E+02 -0.17194443177E+01 -0.10096833020E+02  0.28140016225E+02  0.51100000000E-03 0.  1.
         12    1    4    4    0    0  0.52967124226E+01  0.15199470686E+01 -0.17489293950E+01  0.57813627812E+01  0.00000000000E+00 0. -1.
</event>
<event>
 8    1  0.1247338E-006  0.9118800E+02  0.7816164E-02  0.1184000E+00
        -11   -1    0    0    0    0  0.00000000000E+00  0.00000000000E+00  0.45593999997E+02  0.45594000000E+02  0.51100000000E-03 0.  1.
         11   -1    0    0    0    0 -0.00000000000E+00 -0.00000000000E+00 -0.45593999997E+02  0.45594000000E+02  0.51100000000E-03 0. -1.
         23    2    1    2    0    0 -0.22204460493E-14  0.00000000000E+00  0.00000000000E+00  0.91188000000E+02  0.91188000000E+02 0.  0.
    9900012    2    3    3    0    0 -0.32298441887E+01  0.32586490649E+02 -0.16836327124E+02  0.54367174679E+02  0.40000206315E+02 0.  0.
         12    1    3    3    0    0  0.32298441887E+01 -0.32586490649E+02  0.16836327124E+02  0.36820825321E+02  0.00000000000E+00 0. -1.
         11    1    4    4    0    0  0.10711336289E+02  0.12600241112E+02  0.15377196014E+01  0.16609135529E+02  0.51100000000E-03 0. -1.
        -11    1    4    4    0    0 -0.16974674481E+02  0.20899593596E+02 -0.98591564211E+01  0.28672906232E+02  0.51100000000E-03 0.  1.
         12    1    4    4    0    0  0.30334940032E+01 -0.91334405876E+00 -0.85148903043E+01  0.90851329177E+01  0.00000000000E+00 0. -1.
</event>
<event>
 8    1  0.1247338E-006  0.9118800E+02  0.7816164E-02  0.1184000E+00
        -11   -1    0    0    0    0  0.00000000000E+00  0.00000000000E+00  0.45593999997E+02  0.45594000000E+02  0.51100000000E-03 0.  1.
         11   -1    0    0    0    0 -0.00000000000E+00 -0.00000000000E+00 -0.45593999997E+02  0.45594000000E+02  0.51100000000E-03 0. -1.
         23    2    1    2    0    0  0.35527136788E-14  0.17763568394E-14 -0.35527136788E-14  0.91188000000E+02  0.91188000000E+02 0.  0.
    9900012    2    3    3    0    0  0.16431101704E+02  0.15780821582E+02 -0.28926862497E+02  0.54367098233E+02  0.40000032042E+02 0.  0.
        -12    1    3    3    0    0 -0.16431101704E+02 -0.15780821582E+02  0.28926862497E+02  0.36820901767E+02  0.00000000000E+00 0.  1.
         11    1    4    4    0    0 -0.86409547659E+01  0.13523275463E+02 -0.10171850532E+02  0.19000305840E+02  0.51100000000E-03 0. -1.
        -11    1    4    4    0    0  0.74262789730E+01  0.13429566200E+01  0.22910803034E+01  0.78868372042E+01  0.51100000000E-03 0.  1.
         12    1    4    4    0    0  0.17645777497E+02  0.91458949878E+00 -0.21046092268E+02  0.27479955189E+02  0.00000000000E+00 0. -1.
</event>
<event>
 8    1  0.1247338E-006  0.9118800E+02  0.7816164E-02  0.1184000E+00
        -11   -1    0    0    0    0  0.00000000000E+00  0.00000000000E+00  0.45593999997E+02  0.45594000000E+02  0.51100000000E-03 0.  1.
         11   -1    0    0    0    0 -0.00000000000E+00 -0.00000000000E+00 -0.45593999997E+02  0.45594000000E+02  0.51100000000E-03 0. -1.
         23    2    1    2    0    0 -0.35527136788E-14  0.17763568394E-14 -0.35527136788E-14  0.91188000000E+02  0.91188000000E+02 0.  0.
    9900012    2    3    3    0    0  0.17654295416E+02  0.11077653222E+02  0.30354424891E+02  0.54367086676E+02  0.40000005694E+02 0.  0.
        -12    1    3    3    0    0 -0.17654295416E+02 -0.11077653222E+02 -0.30354424891E+02  0.36820913324E+02  0.00000000000E+00 0.  1.
         11    1    4    4    0    0  0.60184480674E+01  0.39463616919E+01  0.97642445079E+01  0.12129961204E+02  0.51100000000E-03 0. -1.
        -11    1    4    4    0    0  0.14967689285E+02 -0.10895201480E+02  0.94463019098E+01  0.20783882165E+02  0.51100000000E-03 0.  1.
         12    1    4    4    0    0 -0.33318419360E+01  0.18026493010E+02  0.11143878474E+02  0.21453243306E+02  0.00000000000E+00 0. -1.
</event>
<event>
 8    1  0.1247338E-006  0.9118800E+02  0.7816164E-02  0.1184000E+00
        -11   -1    0    0    0    0  0.00000000000E+00  0.00000000000E+00  0.45593999997E+02  0.45594000000E+02  0.51100000000E-03 0. -1.
         11   -1    0    0    0    0 -0.00000000000E+00 -0.00000000000E+00 -0.45593999997E+02  0.45594000000E+02  0.51100000000E-03 0.  1.
         23    2    1    2    0    0  0.17763568394E-14  0.00000000000E+00  0.00000000000E+00  0.91188000000E+02  0.91188000000E+02 0.  0.
    9900012    2    3    3    0    0  0.15854527328E+02  0.22177990892E+02  0.24749782288E+02  0.54367067908E+02  0.39999962909E+02 0.  0.
        -12    1    3    3    0    0 -0.15854527328E+02 -0.22177990892E+02 -0.24749782288E+02  0.36820932092E+02  0.00000000000E+00 0.  1.
         11    1    4    4    0    0  0.16515111255E+02  0.66509365194E+01  0.16464043906E+02  0.24249713366E+02  0.51100000000E-03 0. -1.
        -11    1    4    4    0    0 -0.52435857495E+01 -0.23047608662E+01 -0.48460276272E+01  0.75027393789E+01  0.51100000000E-03 0.  1.
        -12    1    4    4    0    0  0.45830018232E+01  0.17831815239E+02  0.13131766009E+02  0.22614615163E+02  0.00000000000E+00 0.  1.
</event>
<event>
 8    1  0.1247338E-006  0.9118800E+02  0.7816164E-02  0.1184000E+00
        -11   -1    0    0    0    0  0.00000000000E+00  0.00000000000E+00  0.45593999997E+02  0.45594000000E+02  0.51100000000E-03 0.  1.
         11   -1    0    0    0    0 -0.00000000000E+00 -0.00000000000E+00 -0.45593999997E+02  0.45594000000E+02  0.51100000000E-03 0. -1.
         23    2    1    2    0    0  0.00000000000E+00 -0.88817841970E-15  0.35527136788E-14  0.91188000000E+02  0.91188000000E+02 0.  0.
    9900012    2    3    3    0    0 -0.23323421851E+02  0.40310589060E+01  0.28205459924E+02  0.54367090013E+02  0.40000013303E+02 0.  0.
         12    1    3    3    0    0  0.23323421851E+02 -0.40310589060E+01 -0.28205459924E+02  0.36820909987E+02  0.00000000000E+00 0. -1.
         11    1    4    4    0    0 -0.69973131449E+01  0.11851123885E+02  0.15709391384E+02  0.20885317965E+02  0.51100000000E-03 0. -1.
        -11    1    4    4    0    0 -0.15729016443E+02 -0.80082970416E+01 -0.30595503462E+01  0.17913559902E+02  0.51100000000E-03 0.  1.
        -12    1    4    4    0    0 -0.59709226285E+00  0.18823206215E+00  0.15555618886E+02  0.15568212146E+02  0.00000000000E+00 0.  1.
</event>
<event>
 8    1  0.1247338E-006  0.9118800E+02  0.7816164E-02  0.1184000E+00
        -11   -1    0    0    0    0  0.00000000000E+00  0.00000000000E+00  0.45593999997E+02  0.45594000000E+02  0.51100000000E-03 0. -1.
         11   -1    0    0    0    0 -0.00000000000E+00 -0.00000000000E+00 -0.45593999997E+02  0.45594000000E+02  0.51100000000E-03 0.  1.
         23    2    1    2    0    0  0.00000000000E+00  0.00000000000E+00 -0.35527136788E-14  0.91188000000E+02  0.91188000000E+02 0.  0.
    9900012    2    3    3    0    0  0.29166512089E+02  0.16098984109E+02  0.15681790653E+02  0.54367064721E+02  0.39999955644E+02 0.  0.
        -12    1    3    3    0    0 -0.29166512089E+02 -0.16098984109E+02 -0.15681790653E+02  0.36820935279E+02  0.00000000000E+00 0.  1.
         11    1    4    4    0    0 -0.12388938303E+01  0.27782414525E+01  0.40096852278E+01  0.50329970572E+01  0.51100000000E-03 0. -1.
        -11    1    4    4    0    0  0.23316656060E+02  0.59124998858E+01 -0.94583204710E+01  0.25847319612E+02  0.51100000000E-03 0.  1.
        -12    1    4    4    0    0  0.70887498591E+01  0.74082427706E+01  0.21130425896E+02  0.23486748052E+02  0.00000000000E+00 0.  1.
</event>
<event>
 8    1  0.1247338E-006  0.9118800E+02  0.7816164E-02  0.1184000E+00
        -11   -1    0    0    0    0  0.00000000000E+00  0.00000000000E+00  0.45593999997E+02  0.45594000000E+02  0.51100000000E-03 0. -1.
         11   -1    0    0    0    0 -0.00000000000E+00 -0.00000000000E+00 -0.45593999997E+02  0.45594000000E+02  0.51100000000E-03 0.  1.
         23    2    1    2    0    0  0.17763568394E-14  0.17763568394E-14  0.00000000000E+00  0.91188000000E+02  0.91188000000E+02 0.  0.
    9900012    2    3    3    0    0  0.41917103635E+01 -0.11293379555E+02  0.34794641884E+02  0.54367109715E+02  0.40000058218E+02 0.  0.
        -12    1    3    3    0    0 -0.41917103635E+01  0.11293379555E+02 -0.34794641884E+02  0.36820890285E+02  0.00000000000E+00 0.  1.
         11    1    4    4    0    0  0.33432293989E+00 -0.79931690698E+01  0.13488326032E+02  0.15682393408E+02  0.51100000000E-03 0. -1.
        -11    1    4    4    0    0 -0.41794363264E+01 -0.12589080224E+02  0.22732065393E+02  0.26319183615E+02  0.51100000000E-03 0.  1.
        -12    1    4    4    0    0  0.80368237500E+01  0.92888697386E+01 -0.14257495409E+01  0.12365532692E+02  0.00000000000E+00 0.  1.
</event>
<event>
 8    1  0.1247338E-006  0.9118800E+02  0.7816164E-02  0.1184000E+00
        -11   -1    0    0    0    0  0.00000000000E+00  0.00000000000E+00  0.45593999997E+02  0.45594000000E+02  0.51100000000E-03 0. -1.
         11   -1    0    0    0    0 -0.00000000000E+00 -0.00000000000E+00 -0.45593999997E+02  0.45594000000E+02  0.51100000000E-03 0.  1.
         23    2    1    2    0    0  0.00000000000E+00  0.35527136788E-14  0.00000000000E+00  0.91188000000E+02  0.91188000000E+02 0.  0.
    9900012    2    3    3    0    0  0.31625577737E+02  0.16984566189E+02 -0.81929593441E+01  0.54367119529E+02  0.40000080590E+02 0.  0.
         12    1    3    3    0    0 -0.31625577737E+02 -0.16984566189E+02  0.81929593441E+01  0.36820880471E+02  0.00000000000E+00 0. -1.
         11    1    4    4    0    0 -0.84250616093E+00  0.24957945734E-01 -0.75860710360E+01  0.76327526852E+01  0.51100000000E-03 0. -1.
        -11    1    4    4    0    0  0.49152861761E+01  0.51236957055E+01 -0.12579731453E+02  0.14445135498E+02  0.51100000000E-03 0.  1.
         12    1    4    4    0    0  0.27552797722E+02  0.11835912538E+02  0.11972843145E+02  0.32289231346E+02  0.00000000000E+00 0. -1.
</event>
<event>
 8    1  0.1247338E-006  0.9118800E+02  0.7816164E-02  0.1184000E+00
        -11   -1    0    0    0    0  0.00000000000E+00  0.00000000000E+00  0.45593999997E+02  0.45594000000E+02  0.51100000000E-03 0. -1.
         11   -1    0    0    0    0 -0.00000000000E+00 -0.00000000000E+00 -0.45593999997E+02  0.45594000000E+02  0.51100000000E-03 0.  1.
         23    2    1    2    0    0  0.00000000000E+00  0.26645352591E-14  0.24980018054E-15  0.91188000000E+02  0.91188000000E+02 0.  0.
    9900012    2    3    3    0    0 -0.36006852156E+02 -0.76987453882E+01  0.11939627299E+00  0.54367104598E+02  0.40000046551E+02 0.  0.
         12    1    3    3    0    0  0.36006852156E+02  0.76987453882E+01 -0.11939627299E+00  0.36820895402E+02  0.00000000000E+00 0. -1.
         11    1    4    4    0    0 -0.16078316204E+02  0.13304255551E+02 -0.60817595438E+01  0.21737140270E+02  0.51100000000E-03 0. -1.
        -11    1    4    4    0    0 -0.16466292841E+02 -0.95700114636E+01 -0.26358281826E+00  0.19047136149E+02  0.51100000000E-03 0.  1.
         12    1    4    4    0    0 -0.34622431115E+01 -0.11432989475E+02  0.64647386350E+01  0.13582828178E+02  0.00000000000E+00 0. -1.
</event>
<event>
 8    1  0.1247338E-006  0.9118800E+02  0.7816164E-02  0.1184000E+00
        -11   -1    0    0    0    0  0.00000000000E+00  0.00000000000E+00  0.45593999997E+02  0.45594000000E+02  0.51100000000E-03 0.  1.
         11   -1    0    0    0    0 -0.00000000000E+00 -0.00000000000E+00 -0.45593999997E+02  0.45594000000E+02  0.51100000000E-03 0. -1.
         23    2    1    2    0    0 -0.35527136788E-14 -0.35527136788E-14  0.00000000000E+00  0.91188000000E+02  0.91188000000E+02 0.  0.
    9900012    2    3    3    0    0 -0.18399151453E+02 -0.30371831986E+02  0.97366337936E+01  0.54367095747E+02  0.40000026374E+02 0.  0.
         12    1    3    3    0    0  0.18399151453E+02  0.30371831986E+02 -0.97366337936E+01  0.36820904253E+02  0.00000000000E+00 0. -1.
         11    1    4    4    0    0  0.31709412549E+01 -0.43966270674E+01  0.16169155317E+01  0.56568201412E+01  0.51100000000E-03 0. -1.
        -11    1    4    4    0    0 -0.80703047765E+01  0.53690823934E+00  0.16004310936E+02  0.17931984231E+02  0.51100000000E-03 0.  1.
        -12    1    4    4    0    0 -0.13499787932E+02 -0.26512113158E+02 -0.78845926743E+01  0.30778291375E+02  0.00000000000E+00 0.  1.
</event>
<event>
 8    1  0.1247338E-006  0.9118800E+02  0.7816164E-02  0.1184000E+00
        -11   -1    0    0    0    0  0.00000000000E+00  0.00000000000E+00  0.45593999997E+02  0.45594000000E+02  0.51100000000E-03 0. -1.
         11   -1    0    0    0    0 -0.00000000000E+00 -0.00000000000E+00 -0.45593999997E+02  0.45594000000E+02  0.51100000000E-03 0.  1.
         23    2    1    2    0    0 -0.17763568394E-14  0.88817841970E-15  0.00000000000E+00  0.91188000000E+02  0.91188000000E+02 0.  0.
    9900012    2    3    3    0    0  0.88946626930E+01  0.54061025696E+01 -0.35319105536E+02  0.54367079516E+02  0.39999989372E+02 0.  0.
         12    1    3    3    0    0 -0.88946626930E+01 -0.54061025696E+01  0.35319105536E+02  0.36820920484E+02  0.00000000000E+00 0. -1.
         11    1    4    4    0    0 -0.39291135921E+01 -0.21798904577E+01 -0.26262290309E+02  0.26643906406E+02  0.51100000000E-03 0. -1.
        -11    1    4    4    0    0  0.55363335516E+01  0.53958339545E+01 -0.15778166814E+02  0.17570331856E+02  0.51100000000E-03 0.  1.
         12    1    4    4    0    0  0.72874427335E+01  0.21901590728E+01  0.67213515872E+01  0.10152841253E+02  0.00000000000E+00 0. -1.
</event>
<event>
 8    1  0.1247338E-006  0.9118800E+02  0.7816164E-02  0.1184000E+00
        -11   -1    0    0    0    0  0.00000000000E+00  0.00000000000E+00  0.45593999997E+02  0.45594000000E+02  0.51100000000E-03 0. -1.
         11   -1    0    0    0    0 -0.00000000000E+00 -0.00000000000E+00 -0.45593999997E+02  0.45594000000E+02  0.51100000000E-03 0.  1.
         23    2    1    2    0    0 -0.35527136788E-14 -0.35527136788E-14  0.35527136788E-14  0.91188000000E+02  0.91188000000E+02 0.  0.
    9900012    2    3    3    0    0  0.19004463987E+02  0.24085706989E+02 -0.20358998447E+02  0.54367085422E+02  0.40000002837E+02 0.  0.
         12    1    3    3    0    0 -0.19004463987E+02 -0.24085706989E+02  0.20358998447E+02  0.36820914578E+02  0.00000000000E+00 0. -1.
         11    1    4    4    0    0  0.18453916744E+02  0.87839069784E+01 -0.10736789377E+01  0.20465992567E+02  0.51100000000E-03 0.  1.
        -11    1    4    4    0    0  0.60747202170E+01 -0.43376041622E+01 -0.56676269009E+01  0.93722478910E+01  0.51100000000E-03 0. -1.
         12    1    4    4    0    0 -0.55241729749E+01  0.19639404173E+02 -0.13617692608E+02  0.24528844965E+02  0.00000000000E+00 0. -1.
</event>
<event>
 8    1  0.1247338E-006  0.9118800E+02  0.7816164E-02  0.1184000E+00
        -11   -1    0    0    0    0  0.00000000000E+00  0.00000000000E+00  0.45593999997E+02  0.45594000000E+02  0.51100000000E-03 0.  1.
         11   -1    0    0    0    0 -0.00000000000E+00 -0.00000000000E+00 -0.45593999997E+02  0.45594000000E+02  0.51100000000E-03 0. -1.
         23    2    1    2    0    0  0.00000000000E+00  0.00000000000E+00 -0.35527136788E-14  0.91188000000E+02  0.91188000000E+02 0.  0.
    9900012    2    3    3    0    0 -0.22669943603E+02  0.19104514832E+02  0.21837382556E+02  0.54367080581E+02  0.39999991801E+02 0.  0.
         12    1    3    3    0    0  0.22669943603E+02 -0.19104514832E+02 -0.21837382556E+02  0.36820919419E+02  0.00000000000E+00 0. -1.
         11    1    4    4    0    0 -0.16136651324E+01 -0.87701278525E+01  0.90421711795E+01  0.12699603049E+02  0.51100000000E-03 0. -1.
        -11    1    4    4    0    0 -0.14914289031E+02  0.12357218176E+02  0.15441162932E+02  0.24770271926E+02  0.51100000000E-03 0.  1.
         12    1    4    4    0    0 -0.61419894402E+01  0.15517424508E+02 -0.26459515554E+01  0.16897205606E+02  0.00000000000E+00 0. -1.
</event>
<event>
 8    1  0.1247338E-006  0.9118800E+02  0.7816164E-02  0.1184000E+00
        -11   -1    0    0    0    0  0.00000000000E+00  0.00000000000E+00  0.45593999997E+02  0.45594000000E+02  0.51100000000E-03 0. -1.
         11   -1    0    0    0    0 -0.00000000000E+00 -0.00000000000E+00 -0.45593999997E+02  0.45594000000E+02  0.51100000000E-03 0.  1.
         23    2    1    2    0    0  0.26645352591E-14  0.00000000000E+00  0.00000000000E+00  0.91188000000E+02  0.91188000000E+02 0.  0.
    9900012    2    3    3    0    0  0.59653618601E+01 -0.22633534708E+02 -0.28424061215E+02  0.54366950429E+02  0.39999695092E+02 0.  0.
         12    1    3    3    0    0 -0.59653618601E+01  0.22633534708E+02  0.28424061215E+02  0.36821049571E+02  0.00000000000E+00 0. -1.
         11    1    4    4    0    0 -0.95810384578E+01 -0.13974855919E+02 -0.55658576614E+01  0.17834563848E+02  0.51100000000E-03 0. -1.
        -11    1    4    4    0    0  0.20186925555E+02 -0.11053309920E+02 -0.20425639006E+02  0.30771648520E+02  0.51100000000E-03 0.  1.
        -12    1    4    4    0    0 -0.46405252373E+01  0.23946311308E+01 -0.24325645478E+01  0.57607380612E+01  0.00000000000E+00 0.  1.
</event>
<event>
 8    1  0.1247338E-006  0.9118800E+02  0.7816164E-02  0.1184000E+00
        -11   -1    0    0    0    0  0.00000000000E+00  0.00000000000E+00  0.45593999997E+02  0.45594000000E+02  0.51100000000E-03 0.  1.
         11   -1    0    0    0    0 -0.00000000000E+00 -0.00000000000E+00 -0.45593999997E+02  0.45594000000E+02  0.51100000000E-03 0. -1.
         23    2    1    2    0    0 -0.20816681712E-16  0.00000000000E+00 -0.35527136788E-14  0.91188000000E+02  0.91188000000E+02 0.  0.
    9900012    2    3    3    0    0 -0.29492846873E-01 -0.18675643532E+02 -0.31733254576E+02  0.54367082342E+02  0.39999995816E+02 0.  0.
        -12    1    3    3    0    0  0.29492846873E-01  0.18675643532E+02  0.31733254576E+02  0.36820917658E+02  0.00000000000E+00 0.  1.
         11    1    4    4    0    0 -0.87611072720E+00 -0.27449594363E+01  0.25795979103E+00  0.28929078499E+01  0.51100000000E-03 0.  1.
        -11    1    4    4    0    0 -0.44767842606E+01 -0.12831878115E+02 -0.39493939828E+02  0.41766852606E+02  0.51100000000E-03 0. -1.
        -12    1    4    4    0    0  0.53234021409E+01 -0.30988059807E+01  0.75027254605E+01  0.97073218858E+01  0.00000000000E+00 0.  1.
</event>
<event>
 8    1  0.1247338E-006  0.9118800E+02  0.7816164E-02  0.1184000E+00
        -11   -1    0    0    0    0  0.00000000000E+00  0.00000000000E+00  0.45593999997E+02  0.45594000000E+02  0.51100000000E-03 0.  1.
         11   -1    0    0    0    0 -0.00000000000E+00 -0.00000000000E+00 -0.45593999997E+02  0.45594000000E+02  0.51100000000E-03 0. -1.
         23    2    1    2    0    0  0.44408920985E-15  0.00000000000E+00  0.00000000000E+00  0.91188000000E+02  0.91188000000E+02 0.  0.
    9900012    2    3    3    0    0 -0.23568889465E+01  0.13862571126E+02  0.34030192865E+02  0.54367084338E+02  0.40000000366E+02 0.  0.
         12    1    3    3    0    0  0.23568889465E+01 -0.13862571126E+02 -0.34030192865E+02  0.36820915662E+02  0.00000000000E+00 0. -1.
         11    1    4    4    0    0 -0.44150154507E+01  0.41641785097E+01 -0.12918015385E+01  0.62049573381E+01  0.51100000000E-03 0. -1.
        -11    1    4    4    0    0 -0.12561041687E+02  0.29951581891E+01  0.50161083693E+01  0.13853233712E+02  0.51100000000E-03 0.  1.
         12    1    4    4    0    0  0.14619168191E+02  0.67032344272E+01  0.30305886034E+02  0.34308893289E+02  0.00000000000E+00 0. -1.
</event>
<event>
 8    1  0.1247338E-006  0.9118800E+02  0.7816164E-02  0.1184000E+00
        -11   -1    0    0    0    0  0.00000000000E+00  0.00000000000E+00  0.45593999997E+02  0.45594000000E+02  0.51100000000E-03 0.  1.
         11   -1    0    0    0    0 -0.00000000000E+00 -0.00000000000E+00 -0.45593999997E+02  0.45594000000E+02  0.51100000000E-03 0. -1.
         23    2    1    2    0    0  0.00000000000E+00  0.00000000000E+00 -0.35527136788E-14  0.91188000000E+02  0.91188000000E+02 0.  0.
    9900012    2    3    3    0    0 -0.90140769342E+01  0.24795719761E+02 -0.25684614982E+02  0.54367071872E+02  0.39999971947E+02 0.  0.
        -12    1    3    3    0    0  0.90140769342E+01 -0.24795719761E+02  0.25684614982E+02  0.36820928128E+02  0.00000000000E+00 0.  1.
         11    1    4    4    0    0 -0.40162813220E+01 -0.27506953528E+01 -0.21629924303E+02  0.22170937423E+02  0.51100000000E-03 0. -1.
        -11    1    4    4    0    0 -0.69966429005E+01  0.26059356976E+02 -0.74434445454E+01  0.27990140494E+02  0.51100000000E-03 0.  1.
        -12    1    4    4    0    0  0.19988472883E+01  0.14870581374E+01  0.33887538667E+01  0.42059939556E+01  0.00000000000E+00 0.  1.
</event>
<event>
 8    1  0.1247338E-006  0.9118800E+02  0.7816164E-02  0.1184000E+00
        -11   -1    0    0    0    0  0.00000000000E+00  0.00000000000E+00  0.45593999997E+02  0.45594000000E+02  0.51100000000E-03 0.  1.
         11   -1    0    0    0    0 -0.00000000000E+00 -0.00000000000E+00 -0.45593999997E+02  0.45594000000E+02  0.51100000000E-03 0. -1.
         23    2    1    2    0    0  0.00000000000E+00  0.00000000000E+00  0.00000000000E+00  0.91188000000E+02  0.91188000000E+02 0.  0.
    9900012    2    3    3    0    0 -0.20178039435E+02  0.95587970101E+01 -0.29278913727E+02  0.54367100164E+02  0.40000036444E+02 0.  0.
        -12    1    3    3    0    0  0.20178039435E+02 -0.95587970101E+01  0.29278913727E+02  0.36820899836E+02  0.00000000000E+00 0.  1.
         11    1    4    4    0    0 -0.73797980686E+01  0.58177461708E+01 -0.58836684313E+01  0.11087161247E+02  0.51100000000E-03 0. -1.
        -11    1    4    4    0    0  0.27804531089E+00  0.13042347001E+02 -0.23896271302E+02  0.27225207197E+02  0.51100000000E-03 0.  1.
         12    1    4    4    0    0 -0.13076286677E+02 -0.93012961620E+01  0.50102600690E+00  0.16054731720E+02  0.00000000000E+00 0. -1.
</event>
<event>
 8    1  0.1247338E-006  0.9118800E+02  0.7816164E-02  0.1184000E+00
        -11   -1    0    0    0    0  0.00000000000E+00  0.00000000000E+00  0.45593999997E+02  0.45594000000E+02  0.51100000000E-03 0. -1.
         11   -1    0    0    0    0 -0.00000000000E+00 -0.00000000000E+00 -0.45593999997E+02  0.45594000000E+02  0.51100000000E-03 0.  1.
         23    2    1    2    0    0 -0.17763568394E-14  0.00000000000E+00 -0.71054273576E-14  0.91188000000E+02  0.91188000000E+02 0.  0.
    9900012    2    3    3    0    0 -0.98248691473E+01 -0.82873898351E+01 -0.34504635000E+02  0.54367099407E+02  0.40000034718E+02 0.  0.
         12    1    3    3    0    0  0.98248691473E+01  0.82873898351E+01  0.34504635000E+02  0.36820900593E+02  0.00000000000E+00 0. -1.
         11    1    4    4    0    0  0.74423423870E+01 -0.10127105735E+02  0.25739112732E+01  0.12828552151E+02  0.51100000000E-03 0. -1.
        -11    1    4    4    0    0 -0.16767712706E+02  0.72228630976E+00 -0.30184376300E+02  0.34536566995E+02  0.51100000000E-03 0.  1.
         12    1    4    4    0    0 -0.49949882871E+00  0.11174295905E+01 -0.68941699724E+01  0.70019802612E+01  0.00000000000E+00 0. -1.
</event>
<event>
 8    1  0.1247338E-006  0.9118800E+02  0.7816164E-02  0.1184000E+00
        -11   -1    0    0    0    0  0.00000000000E+00  0.00000000000E+00  0.45593999997E+02  0.45594000000E+02  0.51100000000E-03 0. -1.
         11   -1    0    0    0    0 -0.00000000000E+00 -0.00000000000E+00 -0.45593999997E+02  0.45594000000E+02  0.51100000000E-03 0.  1.
         23    2    1    2    0    0 -0.17763568394E-14  0.00000000000E+00  0.00000000000E+00  0.91188000000E+02  0.91188000000E+02 0.  0.
    9900012    2    3    3    0    0 -0.11527127291E+02  0.18089366399E+02 -0.29927868987E+02  0.54367120293E+02  0.40000082331E+02 0.  0.
         12    1    3    3    0    0  0.11527127291E+02 -0.18089366399E+02  0.29927868987E+02  0.36820879707E+02  0.00000000000E+00 0. -1.
         11    1    4    4    0    0 -0.84632648551E+01 -0.77351946941E+01 -0.19000299648E+02  0.22191698356E+02  0.51100000000E-03 0. -1.
        -11    1    4    4    0    0 -0.21338264446E+00  0.91284749972E+01 -0.12144389325E+02  0.15194103470E+02  0.51100000000E-03 0.  1.
         12    1    4    4    0    0 -0.28504797913E+01  0.16696086096E+02  0.12168199853E+01  0.16981318466E+02  0.00000000000E+00 0. -1.
</event>
<event>
 8    1  0.1247338E-006  0.9118800E+02  0.7816164E-02  0.1184000E+00
        -11   -1    0    0    0    0  0.00000000000E+00  0.00000000000E+00  0.45593999997E+02  0.45594000000E+02  0.51100000000E-03 0.  1.
         11   -1    0    0    0    0 -0.00000000000E+00 -0.00000000000E+00 -0.45593999997E+02  0.45594000000E+02  0.51100000000E-03 0. -1.
         23    2    1    2    0    0  0.00000000000E+00  0.17763568394E-14  0.00000000000E+00  0.91188000000E+02  0.91188000000E+02 0.  0.
    9900012    2    3    3    0    0 -0.11372214687E+02  0.13564654002E+02  0.32286861094E+02  0.54367238134E+02  0.40000350973E+02 0.  0.
         12    1    3    3    0    0  0.11372214687E+02 -0.13564654002E+02 -0.32286861094E+02  0.36820761866E+02  0.00000000000E+00 0. -1.
         11    1    4    4    0    0 -0.87342397192E+01  0.15181421121E+02  0.15802709261E+02  0.23590000233E+02  0.51100000000E-03 0. -1.
        -11    1    4    4    0    0 -0.67780913114E+01  0.10811256715E+02  0.96768400813E+01  0.16014587968E+02  0.51100000000E-03 0.  1.
         12    1    4    4    0    0  0.41401163439E+01 -0.12428023834E+02  0.68073117520E+01  0.14762649933E+02  0.00000000000E+00 0. -1.
</event>
<event>
 8    1  0.1247338E-006  0.9118800E+02  0.7816164E-02  0.1184000E+00
        -11   -1    0    0    0    0  0.00000000000E+00  0.00000000000E+00  0.45593999997E+02  0.45594000000E+02  0.51100000000E-03 0. -1.
         11   -1    0    0    0    0 -0.00000000000E+00 -0.00000000000E+00 -0.45593999997E+02  0.45594000000E+02  0.51100000000E-03 0.  1.
         23    2    1    2    0    0  0.00000000000E+00 -0.17763568394E-14  0.00000000000E+00  0.91188000000E+02  0.91188000000E+02 0.  0.
    9900012    2    3    3    0    0  0.82315209738E+01  0.13093348245E+02  0.33415227196E+02  0.54367202693E+02  0.40000270178E+02 0.  0.
        -12    1    3    3    0    0 -0.82315209738E+01 -0.13093348245E+02 -0.33415227196E+02  0.36820797307E+02  0.00000000000E+00 0.  1.
         11    1    4    4    0    0  0.71757044753E+01  0.34157682561E+01  0.36927173206E+02  0.37772666424E+02  0.51100000000E-03 0. -1.
        -11    1    4    4    0    0 -0.54495891608E+00  0.11905631375E+02 -0.55792377087E+01  0.13159366714E+02  0.51100000000E-03 0.  1.
        -12    1    4    4    0    0  0.16007754146E+01 -0.22280513858E+01  0.20672916983E+01  0.34351695550E+01  0.00000000000E+00 0.  1.
</event>
<event>
 8    1  0.1247338E-006  0.9118800E+02  0.7816164E-02  0.1184000E+00
        -11   -1    0    0    0    0  0.00000000000E+00  0.00000000000E+00  0.45593999997E+02  0.45594000000E+02  0.51100000000E-03 0.  1.
         11   -1    0    0    0    0 -0.00000000000E+00 -0.00000000000E+00 -0.45593999997E+02  0.45594000000E+02  0.51100000000E-03 0. -1.
         23    2    1    2    0    0  0.00000000000E+00  0.00000000000E+00  0.00000000000E+00  0.91188000000E+02  0.91188000000E+02 0.  0.
    9900012    2    3    3    0    0 -0.22745185270E+01 -0.35703974303E+02  0.87081929503E+01  0.54367084205E+02  0.40000000062E+02 0.  0.
         12    1    3    3    0    0  0.22745185270E+01  0.35703974303E+02 -0.87081929503E+01  0.36820915795E+02  0.00000000000E+00 0. -1.
         11    1    4    4    0    0  0.44720127516E+01 -0.97241619456E+01 -0.18272931600E+01  0.10858048819E+02  0.51100000000E-03 0. -1.
        -11    1    4    4    0    0 -0.26220953587E+01 -0.32786293193E+02  0.12705839613E+02  0.35259818008E+02  0.51100000000E-03 0.  1.
         12    1    4    4    0    0 -0.41244359199E+01  0.68064808362E+01 -0.21703535025E+01  0.82492173784E+01  0.00000000000E+00 0. -1.
</event>
<event>
 8    1  0.1247338E-006  0.9118800E+02  0.7816164E-02  0.1184000E+00
        -11   -1    0    0    0    0  0.00000000000E+00  0.00000000000E+00  0.45593999997E+02  0.45594000000E+02  0.51100000000E-03 0.  1.
         11   -1    0    0    0    0 -0.00000000000E+00 -0.00000000000E+00 -0.45593999997E+02  0.45594000000E+02  0.51100000000E-03 0. -1.
         23    2    1    2    0    0  0.00000000000E+00  0.17763568394E-14  0.00000000000E+00  0.91188000000E+02  0.91188000000E+02 0.  0.
    9900012    2    3    3    0    0 -0.22866659758E+02  0.14784434960E+02 -0.24785448462E+02  0.54367053502E+02  0.39999930068E+02 0.  0.
        -12    1    3    3    0    0  0.22866659758E+02 -0.14784434960E+02  0.24785448462E+02  0.36820946498E+02  0.00000000000E+00 0.  1.
         11    1    4    4    0    0  0.42299875150E+01  0.68714840041E+01  0.16024922353E+01  0.82266681239E+01  0.51100000000E-03 0. -1.
        -11    1    4    4    0    0  0.43018359352E+00  0.89999741784E+01 -0.17433030373E+01  0.91773470501E+01  0.51100000000E-03 0.  1.
         12    1    4    4    0    0 -0.27526830866E+02 -0.10870232225E+01 -0.24644637660E+02  0.36963038328E+02  0.00000000000E+00 0. -1.
</event>
<event>
 8    1  0.1247338E-006  0.9118800E+02  0.7816164E-02  0.1184000E+00
        -11   -1    0    0    0    0  0.00000000000E+00  0.00000000000E+00  0.45593999997E+02  0.45594000000E+02  0.51100000000E-03 0. -1.
         11   -1    0    0    0    0 -0.00000000000E+00 -0.00000000000E+00 -0.45593999997E+02  0.45594000000E+02  0.51100000000E-03 0.  1.
         23    2    1    2    0    0 -0.17763568394E-14 -0.35527136788E-14  0.00000000000E+00  0.91188000000E+02  0.91188000000E+02 0.  0.
    9900012    2    3    3    0    0  0.13561972553E+02  0.28658279420E+02 -0.18723119293E+02  0.54367091878E+02  0.40000017554E+02 0.  0.
         12    1    3    3    0    0 -0.13561972553E+02 -0.28658279420E+02  0.18723119293E+02  0.36820908122E+02  0.00000000000E+00 0. -1.
         11    1    4    4    0    0  0.32562666853E+01  0.62053802094E+00  0.17241297014E+01  0.37364372937E+01  0.51100000000E-03 0. -1.
        -11    1    4    4    0    0  0.94386042692E+01  0.27110964648E+02  0.14052120857E+01  0.28741368721E+02  0.51100000000E-03 0.  1.
         12    1    4    4    0    0  0.86710159887E+00  0.92677675138E+00 -0.21852461080E+02  0.21889285863E+02  0.00000000000E+00 0. -1.
</event>
<event>
 8    1  0.1247338E-006  0.9118800E+02  0.7816164E-02  0.1184000E+00
        -11   -1    0    0    0    0  0.00000000000E+00  0.00000000000E+00  0.45593999997E+02  0.45594000000E+02  0.51100000000E-03 0. -1.
         11   -1    0    0    0    0 -0.00000000000E+00 -0.00000000000E+00 -0.45593999997E+02  0.45594000000E+02  0.51100000000E-03 0.  1.
         23    2    1    2    0    0  0.00000000000E+00  0.00000000000E+00  0.00000000000E+00  0.91188000000E+02  0.91188000000E+02 0.  0.
    9900012    2    3    3    0    0  0.19255523591E+02  0.31109789546E+02 -0.41456097364E+01  0.54367078306E+02  0.39999986613E+02 0.  0.
         12    1    3    3    0    0 -0.19255523591E+02 -0.31109789546E+02  0.41456097364E+01  0.36820921694E+02  0.00000000000E+00 0. -1.
         11    1    4    4    0    0  0.73449868028E+01 -0.28140477390E+01  0.90812090105E+01  0.12013994055E+02  0.51100000000E-03 0. -1.
        -11    1    4    4    0    0  0.42769310690E+01  0.19187227625E+01  0.31021883614E+01  0.56211395019E+01  0.51100000000E-03 0.  1.
        -12    1    4    4    0    0  0.76336057191E+01  0.32005114522E+02 -0.16329007108E+02  0.36731944748E+02  0.00000000000E+00 0.  1.
</event>
<event>
 8    1  0.1247338E-006  0.9118800E+02  0.7816164E-02  0.1184000E+00
        -11   -1    0    0    0    0  0.00000000000E+00  0.00000000000E+00  0.45593999997E+02  0.45594000000E+02  0.51100000000E-03 0.  1.
         11   -1    0    0    0    0 -0.00000000000E+00 -0.00000000000E+00 -0.45593999997E+02  0.45594000000E+02  0.51100000000E-03 0. -1.
         23    2    1    2    0    0  0.00000000000E+00  0.00000000000E+00  0.00000000000E+00  0.91188000000E+02  0.91188000000E+02 0.  0.
    9900012    2    3    3    0    0 -0.33586395823E+01  0.29833363783E+02  0.21318310301E+02  0.54367076485E+02  0.39999982462E+02 0.  0.
        -12    1    3    3    0    0  0.33586395823E+01 -0.29833363783E+02 -0.21318310301E+02  0.36820923515E+02  0.00000000000E+00 0.  1.
         11    1    4    4    0    0  0.79986201897E+01  0.36234443134E+01 -0.36135892191E+01  0.94955411082E+01  0.51100000000E-03 0. -1.
        -11    1    4    4    0    0  0.64794402238E+01  0.10797258885E+02  0.14173901783E+02  0.18959521014E+02  0.51100000000E-03 0.  1.
         12    1    4    4    0    0 -0.17836699996E+02  0.15412660584E+02  0.10757997737E+02  0.25912014363E+02  0.00000000000E+00 0. -1.
</event>
<event>
 8    1  0.1247338E-006  0.9118800E+02  0.7816164E-02  0.1184000E+00
        -11   -1    0    0    0    0  0.00000000000E+00  0.00000000000E+00  0.45593999997E+02  0.45594000000E+02  0.51100000000E-03 0.  1.
         11   -1    0    0    0    0 -0.00000000000E+00 -0.00000000000E+00 -0.45593999997E+02  0.45594000000E+02  0.51100000000E-03 0. -1.
         23    2    1    2    0    0 -0.26645352591E-14  0.00000000000E+00  0.00000000000E+00  0.91188000000E+02  0.91188000000E+02 0.  0.
    9900012    2    3    3    0    0 -0.37095784669E+01  0.16763900651E+02 -0.32572765607E+02  0.54367158120E+02  0.40000168566E+02 0.  0.
        -12    1    3    3    0    0  0.37095784669E+01 -0.16763900651E+02  0.32572765607E+02  0.36820841880E+02  0.00000000000E+00 0.  1.
         11    1    4    4    0    0 -0.18349414051E+02  0.82056971008E+01 -0.12566340346E+02  0.23705429144E+02  0.51100000000E-03 0. -1.
        -11    1    4    4    0    0  0.42504429259E+01 -0.42987163610E+01 -0.23795141206E+01  0.64967157187E+01  0.51100000000E-03 0.  1.
         12    1    4    4    0    0  0.10389392658E+02  0.12856919911E+02 -0.17626911140E+02  0.24165013258E+02  0.00000000000E+00 0. -1.
</event>
<event>
 8    1  0.1247338E-006  0.9118800E+02  0.7816164E-02  0.1184000E+00
        -11   -1    0    0    0    0  0.00000000000E+00  0.00000000000E+00  0.45593999997E+02  0.45594000000E+02  0.51100000000E-03 0. -1.
         11   -1    0    0    0    0 -0.00000000000E+00 -0.00000000000E+00 -0.45593999997E+02  0.45594000000E+02  0.51100000000E-03 0.  1.
         23    2    1    2    0    0  0.00000000000E+00  0.00000000000E+00 -0.17763568394E-14  0.91188000000E+02  0.91188000000E+02 0.  0.
    9900012    2    3    3    0    0 -0.16444650267E+01  0.33650532137E+02 -0.14856523265E+02  0.54367097488E+02  0.40000030343E+02 0.  0.
        -12    1    3    3    0    0  0.16444650267E+01 -0.33650532137E+02  0.14856523265E+02  0.36820902512E+02  0.00000000000E+00 0.  1.
         11    1    4    4    0    0  0.74550630855E+01  0.12901522576E+02 -0.18514316010E+01  0.15015160659E+02  0.51100000000E-03 0. -1.
        -11    1    4    4    0    0 -0.32475137526E+01  0.19732261706E+02 -0.21256720872E+02  0.29184870739E+02  0.51100000000E-03 0.  1.
        -12    1    4    4    0    0 -0.58520143596E+01  0.10167478550E+01  0.82516292082E+01  0.10167066089E+02  0.00000000000E+00 0.  1.
</event>
<event>
 8    1  0.1247338E-006  0.9118800E+02  0.7816164E-02  0.1184000E+00
        -11   -1    0    0    0    0  0.00000000000E+00  0.00000000000E+00  0.45593999997E+02  0.45594000000E+02  0.51100000000E-03 0. -1.
         11   -1    0    0    0    0 -0.00000000000E+00 -0.00000000000E+00 -0.45593999997E+02  0.45594000000E+02  0.51100000000E-03 0.  1.
         23    2    1    2    0    0  0.00000000000E+00 -0.17763568394E-14  0.35527136788E-14  0.91188000000E+02  0.91188000000E+02 0.  0.
    9900012    2    3    3    0    0 -0.27279715916E+02 -0.10282538866E+02  0.22491482061E+02  0.54367078348E+02  0.39999986711E+02 0.  0.
        -12    1    3    3    0    0  0.27279715916E+02  0.10282538866E+02 -0.22491482061E+02  0.36820921652E+02  0.00000000000E+00 0.  1.
         11    1    4    4    0    0 -0.11627792436E+02 -0.15508843307E+02  0.22810731080E+02  0.29934248451E+02  0.51100000000E-03 0. -1.
        -11    1    4    4    0    0 -0.63562794075E+01 -0.64843010279E+01  0.20128752582E+01  0.93005437902E+01  0.51100000000E-03 0.  1.
         12    1    4    4    0    0 -0.92956440725E+01  0.11710605469E+02 -0.23321242775E+01  0.15132286107E+02  0.00000000000E+00 0. -1.
</event>
<event>
 8    1  0.1247338E-006  0.9118800E+02  0.7816164E-02  0.1184000E+00
        -11   -1    0    0    0    0  0.00000000000E+00  0.00000000000E+00  0.45593999997E+02  0.45594000000E+02  0.51100000000E-03 0.  1.
         11   -1    0    0    0    0 -0.00000000000E+00 -0.00000000000E+00 -0.45593999997E+02  0.45594000000E+02  0.51100000000E-03 0. -1.
         23    2    1    2    0    0  0.44408920985E-15 -0.71054273576E-14  0.00000000000E+00  0.91188000000E+02  0.91188000000E+02 0.  0.
    9900012    2    3    3    0    0 -0.17865939085E+01  0.32910869573E+02  0.16415365335E+02  0.54367062031E+02  0.39999949512E+02 0.  0.
         12    1    3    3    0    0  0.17865939085E+01 -0.32910869573E+02 -0.16415365335E+02  0.36820937969E+02  0.00000000000E+00 0. -1.
         11    1    4    4    0    0  0.53967813655E+01  0.13711470026E+02 -0.10222958877E+02  0.17934284146E+02  0.51100000000E-03 0. -1.
        -11    1    4    4    0    0  0.16155701681E+01  0.31382020349E+01 -0.63005322938E+00  0.35854353031E+01  0.51100000000E-03 0.  1.
        -12    1    4    4    0    0 -0.87989454420E+01  0.16061197512E+02  0.27268377441E+02  0.32847342581E+02  0.00000000000E+00 0.  1.
</event>
<event>
 8    1  0.1247338E-006  0.9118800E+02  0.7816164E-02  0.1184000E+00
        -11   -1    0    0    0    0  0.00000000000E+00  0.00000000000E+00  0.45593999997E+02  0.45594000000E+02  0.51100000000E-03 0.  1.
         11   -1    0    0    0    0 -0.00000000000E+00 -0.00000000000E+00 -0.45593999997E+02  0.45594000000E+02  0.51100000000E-03 0. -1.
         23    2    1    2    0    0  0.00000000000E+00  0.00000000000E+00 -0.35527136788E-14  0.91188000000E+02  0.91188000000E+02 0.  0.
    9900012    2    3    3    0    0 -0.22629084684E+02  0.22571360502E+02  0.18282142994E+02  0.54367101845E+02  0.40000040275E+02 0.  0.
         12    1    3    3    0    0  0.22629084684E+02 -0.22571360502E+02 -0.18282142994E+02  0.36820898155E+02  0.00000000000E+00 0. -1.
         11    1    4    4    0    0 -0.12881465593E+02  0.10632880370E+02  0.79151877994E+01  0.18483519658E+02  0.51100000000E-03 0. -1.
        -11    1    4    4    0    0 -0.11495753835E+02  0.13806530039E+02  0.19431891487E+02  0.26464524084E+02  0.51100000000E-03 0.  1.
         12    1    4    4    0    0  0.17481347443E+01 -0.18680499071E+01 -0.90649362931E+01  0.94190581025E+01  0.00000000000E+00 0. -1.
</event>
<event>
 8    1  0.1247338E-006  0.9118800E+02  0.7816164E-02  0.1184000E+00
        -11   -1    0    0    0    0  0.00000000000E+00  0.00000000000E+00  0.45593999997E+02  0.45594000000E+02  0.51100000000E-03 0. -1.
         11   -1    0    0    0    0 -0.00000000000E+00 -0.00000000000E+00 -0.45593999997E+02  0.45594000000E+02  0.51100000000E-03 0.  1.
         23    2    1    2    0    0  0.00000000000E+00  0.00000000000E+00  0.17763568394E-14  0.91188000000E+02  0.91188000000E+02 0.  0.
    9900012    2    3    3    0    0 -0.21185205693E+02 -0.26022755939E+02 -0.15158576996E+02  0.54367092577E+02  0.40000019148E+02 0.  0.
         12    1    3    3    0    0  0.21185205693E+02  0.26022755939E+02  0.15158576996E+02  0.36820907423E+02  0.00000000000E+00 0. -1.
         11    1    4    4    0    0 -0.49598739100E+01 -0.21705866740E+02  0.40889416114E+01  0.22637677529E+02  0.51100000000E-03 0. -1.
        -11    1    4    4    0    0 -0.13295548299E+02 -0.11406219941E+02 -0.12594132310E+02  0.21575115917E+02  0.51100000000E-03 0.  1.
         12    1    4    4    0    0 -0.29297834846E+01  0.70893307425E+01 -0.66533862965E+01  0.10154299132E+02  0.00000000000E+00 0. -1.
</event>
<event>
 8    1  0.1247338E-006  0.9118800E+02  0.7816164E-02  0.1184000E+00
        -11   -1    0    0    0    0  0.00000000000E+00  0.00000000000E+00  0.45593999997E+02  0.45594000000E+02  0.51100000000E-03 0. -1.
         11   -1    0    0    0    0 -0.00000000000E+00 -0.00000000000E+00 -0.45593999997E+02  0.45594000000E+02  0.51100000000E-03 0.  1.
         23    2    1    2    0    0 -0.16653345369E-15 -0.35527136788E-14  0.00000000000E+00  0.91188000000E+02  0.91188000000E+02 0.  0.
    9900012    2    3    3    0    0 -0.45424778961E+00 -0.10148104206E+02  0.35391908522E+02  0.54367115316E+02  0.40000070986E+02 0.  0.
        -12    1    3    3    0    0  0.45424778961E+00  0.10148104206E+02 -0.35391908522E+02  0.36820884684E+02  0.00000000000E+00 0.  1.
         11    1    4    4    0    0 -0.35329847340E+01 -0.32063069103E+00 -0.30832870282E+01  0.47001536496E+01  0.51100000000E-03 0. -1.
        -11    1    4    4    0    0 -0.21121900490E+01 -0.17905393060E+02  0.12405492941E+02  0.21885170843E+02  0.51100000000E-03 0.  1.
         12    1    4    4    0    0  0.51909269934E+01  0.80779195450E+01  0.26069702610E+02  0.27781790824E+02  0.00000000000E+00 0. -1.
</event>
<event>
 8    1  0.1247338E-006  0.9118800E+02  0.7816164E-02  0.1184000E+00
        -11   -1    0    0    0    0  0.00000000000E+00  0.00000000000E+00  0.45593999997E+02  0.45594000000E+02  0.51100000000E-03 0.  1.
         11   -1    0    0    0    0 -0.00000000000E+00 -0.00000000000E+00 -0.45593999997E+02  0.45594000000E+02  0.51100000000E-03 0. -1.
         23    2    1    2    0    0 -0.11102230246E-15 -0.35527136788E-14  0.00000000000E+00  0.91188000000E+02  0.91188000000E+02 0.  0.
    9900012    2    3    3    0    0  0.41460358211E+00  0.15624120311E+02  0.33339000372E+02  0.54367163814E+02  0.40000181547E+02 0.  0.
         12    1    3    3    0    0 -0.41460358211E+00 -0.15624120311E+02 -0.33339000372E+02  0.36820836186E+02  0.00000000000E+00 0. -1.
         11    1    4    4    0    0  0.34832268238E+01 -0.46922575112E+01  0.12047405599E+02  0.13389926496E+02  0.51100000000E-03 0. -1.
        -11    1    4    4    0    0  0.77576340501E+01 -0.56606989053E+00  0.14565827501E+02  0.16512560438E+02  0.51100000000E-03 0.  1.
         12    1    4    4    0    0 -0.10826257292E+02  0.20882447712E+02  0.67257672720E+01  0.24464676879E+02  0.00000000000E+00 0. -1.
</event>
<event>
 8    1  0.1247338E-006  0.9118800E+02  0.7816164E-02  0.1184000E+00
        -11   -1    0    0    0    0  0.00000000000E+00  0.00000000000E+00  0.45593999997E+02  0.45594000000E+02  0.51100000000E-03 0.  1.
         11   -1    0    0    0    0 -0.00000000000E+00 -0.00000000000E+00 -0.45593999997E+02  0.45594000000E+02  0.51100000000E-03 0. -1.
         23    2    1    2    0    0 -0.17763568394E-14  0.00000000000E+00  0.00000000000E+00  0.91188000000E+02  0.91188000000E+02 0.  0.
    9900012    2    3    3    0    0  0.14956823221E+02  0.84389515256E+01 -0.32570818814E+02  0.54367072500E+02  0.39999973378E+02 0.  0.
        -12    1    3    3    0    0 -0.14956823221E+02 -0.84389515256E+01  0.32570818814E+02  0.36820927500E+02  0.00000000000E+00 0.  1.
         11    1    4    4    0    0  0.15360124258E+02  0.35446929929E+01 -0.29670449053E+02  0.33598122163E+02  0.51100000000E-03 0. -1.
        -11    1    4    4    0    0  0.64891433285E+01  0.89857506950E+01  0.21564750205E+01  0.11291726239E+02  0.51100000000E-03 0.  1.
        -12    1    4    4    0    0 -0.68924443655E+01 -0.40914921623E+01 -0.50568447822E+01  0.94772240977E+01  0.00000000000E+00 0.  1.
</event>
<event>
 8    1  0.1247338E-006  0.9118800E+02  0.7816164E-02  0.1184000E+00
        -11   -1    0    0    0    0  0.00000000000E+00  0.00000000000E+00  0.45593999997E+02  0.45594000000E+02  0.51100000000E-03 0. -1.
         11   -1    0    0    0    0 -0.00000000000E+00 -0.00000000000E+00 -0.45593999997E+02  0.45594000000E+02  0.51100000000E-03 0.  1.
         23    2    1    2    0    0  0.17763568394E-14  0.71054273576E-14  0.00000000000E+00  0.91188000000E+02  0.91188000000E+02 0.  0.
    9900012    2    3    3    0    0 -0.10454034952E+02 -0.33150186799E+02 -0.12147334941E+02  0.54367089123E+02  0.40000011275E+02 0.  0.
        -12    1    3    3    0    0  0.10454034952E+02  0.33150186799E+02  0.12147334941E+02  0.36820910877E+02  0.00000000000E+00 0.  1.
         11    1    4    4    0    0  0.55510691077E+01 -0.12411550101E+02  0.66876218402E+01  0.15152070165E+02  0.51100000000E-03 0. -1.
        -11    1    4    4    0    0 -0.15875459796E+01 -0.16197169426E+02 -0.17717562305E+02  0.24057859713E+02  0.51100000000E-03 0.  1.
        -12    1    4    4    0    0 -0.14417558080E+02 -0.45414672725E+01 -0.11173944758E+01  0.15157159246E+02  0.00000000000E+00 0.  1.
</event>
<event>
 8    1  0.1247338E-006  0.9118800E+02  0.7816164E-02  0.1184000E+00
        -11   -1    0    0    0    0  0.00000000000E+00  0.00000000000E+00  0.45593999997E+02  0.45594000000E+02  0.51100000000E-03 0.  1.
         11   -1    0    0    0    0 -0.00000000000E+00 -0.00000000000E+00 -0.45593999997E+02  0.45594000000E+02  0.51100000000E-03 0. -1.
         23    2    1    2    0    0  0.00000000000E+00  0.00000000000E+00 -0.88817841970E-15  0.91188000000E+02  0.91188000000E+02 0.  0.
    9900012    2    3    3    0    0 -0.14347215938E+02  0.33348614289E+02  0.61488315221E+01  0.54367071043E+02  0.39999970057E+02 0.  0.
         12    1    3    3    0    0  0.14347215938E+02 -0.33348614289E+02 -0.61488315221E+01  0.36820928957E+02  0.00000000000E+00 0. -1.
         11    1    4    4    0    0  0.28820459666E+00  0.35786998528E+01 -0.78467240066E+01  0.86290922132E+01  0.51100000000E-03 0. -1.
        -11    1    4    4    0    0 -0.10269021925E+02  0.30100962914E+02  0.20542354453E+02  0.37861710293E+02  0.51100000000E-03 0.  1.
        -12    1    4    4    0    0 -0.43663986092E+01 -0.33104847726E+00 -0.65467989237E+01  0.78762685363E+01  0.00000000000E+00 0.  1.
</event>
<event>
 8    1  0.1247338E-006  0.9118800E+02  0.7816164E-02  0.1184000E+00
        -11   -1    0    0    0    0  0.00000000000E+00  0.00000000000E+00  0.45593999997E+02  0.45594000000E+02  0.51100000000E-03 0.  1.
         11   -1    0    0    0    0 -0.00000000000E+00 -0.00000000000E+00 -0.45593999997E+02  0.45594000000E+02  0.51100000000E-03 0. -1.
         23    2    1    2    0    0  0.00000000000E+00  0.17763568394E-14  0.00000000000E+00  0.91188000000E+02  0.91188000000E+02 0.  0.
    9900012    2    3    3    0    0 -0.14687822372E+02 -0.11760033202E+02  0.31650454906E+02  0.54367057553E+02  0.39999939304E+02 0.  0.
         12    1    3    3    0    0  0.14687822372E+02  0.11760033202E+02 -0.31650454906E+02  0.36820942447E+02  0.00000000000E+00 0. -1.
         11    1    4    4    0    0 -0.74046436704E+01 -0.10698702346E+02  0.57603973543E+01  0.14229306298E+02  0.51100000000E-03 0. -1.
        -11    1    4    4    0    0  0.94521376393E+01  0.43339018655E+01  0.18168141921E+02  0.20933394194E+02  0.51100000000E-03 0.  1.
         12    1    4    4    0    0 -0.16735316341E+02 -0.53952327210E+01  0.77219156302E+01  0.19204357061E+02  0.00000000000E+00 0. -1.
</event>
<event>
 8    1  0.1247338E-006  0.9118800E+02  0.7816164E-02  0.1184000E+00
        -11   -1    0    0    0    0  0.00000000000E+00  0.00000000000E+00  0.45593999997E+02  0.45594000000E+02  0.51100000000E-03 0.  1.
         11   -1    0    0    0    0 -0.00000000000E+00 -0.00000000000E+00 -0.45593999997E+02  0.45594000000E+02  0.51100000000E-03 0. -1.
         23    2    1    2    0    0  0.00000000000E+00  0.88817841970E-15  0.00000000000E+00  0.91188000000E+02  0.91188000000E+02 0.  0.
    9900012    2    3    3    0    0  0.62231194272E+01 -0.44552192461E+01  0.36016713333E+02  0.54367084297E+02  0.40000000271E+02 0.  0.
         12    1    3    3    0    0 -0.62231194272E+01  0.44552192461E+01 -0.36016713333E+02  0.36820915703E+02  0.00000000000E+00 0. -1.
         11    1    4    4    0    0 -0.11386548601E+02 -0.14497472561E+02  0.20470230176E+02  0.27547423172E+02  0.51100000000E-03 0. -1.
        -11    1    4    4    0    0  0.13915563831E+02  0.38630882362E+01  0.12086612114E+02  0.18832221327E+02  0.51100000000E-03 0.  1.
         12    1    4    4    0    0  0.36941041973E+01  0.61791650789E+01  0.34598710426E+01  0.79874397979E+01  0.00000000000E+00 0. -1.
</event>
<event>
 8    1  0.1247338E-006  0.9118800E+02  0.7816164E-02  0.1184000E+00
        -11   -1    0    0    0    0  0.00000000000E+00  0.00000000000E+00  0.45593999997E+02  0.45594000000E+02  0.51100000000E-03 0. -1.
         11   -1    0    0    0    0 -0.00000000000E+00 -0.00000000000E+00 -0.45593999997E+02  0.45594000000E+02  0.51100000000E-03 0.  1.
         23    2    1    2    0    0  0.00000000000E+00  0.26645352591E-14  0.00000000000E+00  0.91188000000E+02  0.91188000000E+02 0.  0.
    9900012    2    3    3    0    0  0.31459125370E+02 -0.61485587607E+00 -0.19123938353E+02  0.54367086990E+02  0.40000006411E+02 0.  0.
        -12    1    3    3    0    0 -0.31459125370E+02  0.61485587607E+00  0.19123938353E+02  0.36820913010E+02  0.00000000000E+00 0.  1.
         11    1    4    4    0    0  0.96013190961E+01  0.78757485054E+01 -0.20082915571E+02  0.23612205340E+02  0.51100000000E-03 0.  1.
        -11    1    4    4    0    0  0.17347877921E+02 -0.94281078090E+00 -0.71563298528E+01  0.18789646557E+02  0.51100000000E-03 0. -1.
         12    1    4    4    0    0  0.45099283529E+01 -0.75477936005E+01  0.81153070710E+01  0.11965235093E+02  0.00000000000E+00 0. -1.
</event>
<event>
 8    1  0.1247338E-006  0.9118800E+02  0.7816164E-02  0.1184000E+00
        -11   -1    0    0    0    0  0.00000000000E+00  0.00000000000E+00  0.45593999997E+02  0.45594000000E+02  0.51100000000E-03 0. -1.
         11   -1    0    0    0    0 -0.00000000000E+00 -0.00000000000E+00 -0.45593999997E+02  0.45594000000E+02  0.51100000000E-03 0.  1.
         23    2    1    2    0    0 -0.35527136788E-14  0.00000000000E+00  0.35527136788E-14  0.91188000000E+02  0.91188000000E+02 0.  0.
    9900012    2    3    3    0    0 -0.23853659056E+02  0.81674575389E+01  0.26834217044E+02  0.54367087228E+02  0.40000006953E+02 0.  0.
        -12    1    3    3    0    0  0.23853659056E+02 -0.81674575389E+01 -0.26834217044E+02  0.36820912772E+02  0.00000000000E+00 0.  1.
         11    1    4    4    0    0  0.52945513342E+00 -0.67749590518E+01  0.10319068339E+02  0.12355709795E+02  0.51100000000E-03 0. -1.
        -11    1    4    4    0    0 -0.19005494334E+02 -0.91110353292E+00  0.16629660630E+02  0.25270230262E+02  0.51100000000E-03 0.  1.
        -12    1    4    4    0    0 -0.53776198555E+01  0.15853520124E+02 -0.11451192546E+00  0.16741147171E+02  0.00000000000E+00 0.  1.
</event>
<event>
 8    1  0.1247338E-006  0.9118800E+02  0.7816164E-02  0.1184000E+00
        -11   -1    0    0    0    0  0.00000000000E+00  0.00000000000E+00  0.45593999997E+02  0.45594000000E+02  0.51100000000E-03 0. -1.
         11   -1    0    0    0    0 -0.00000000000E+00 -0.00000000000E+00 -0.45593999997E+02  0.45594000000E+02  0.51100000000E-03 0.  1.
         23    2    1    2    0    0  0.17763568394E-14  0.00000000000E+00  0.17763568394E-14  0.91188000000E+02  0.91188000000E+02 0.  0.
    9900012    2    3    3    0    0  0.10199694897E+02  0.34515718883E+02  0.77723809724E+01  0.54367101966E+02  0.40000040553E+02 0.  0.
        -12    1    3    3    0    0 -0.10199694897E+02 -0.34515718883E+02 -0.77723809724E+01  0.36820898034E+02  0.00000000000E+00 0.  1.
         11    1    4    4    0    0  0.95558417427E+01  0.94544467830E+01  0.58682703162E+01  0.14667558493E+02  0.51100000000E-03 0. -1.
        -11    1    4    4    0    0 -0.13807910766E+02  0.91074257638E+01 -0.46775361924E+01  0.17189617473E+02  0.51100000000E-03 0.  1.
        -12    1    4    4    0    0  0.14451763920E+02  0.15953846337E+02  0.65816468486E+01  0.22509926001E+02  0.00000000000E+00 0.  1.
</event>
<event>
 8    1  0.1247338E-006  0.9118800E+02  0.7816164E-02  0.1184000E+00
        -11   -1    0    0    0    0  0.00000000000E+00  0.00000000000E+00  0.45593999997E+02  0.45594000000E+02  0.51100000000E-03 0.  1.
         11   -1    0    0    0    0 -0.00000000000E+00 -0.00000000000E+00 -0.45593999997E+02  0.45594000000E+02  0.51100000000E-03 0. -1.
         23    2    1    2    0    0  0.00000000000E+00  0.00000000000E+00  0.00000000000E+00  0.91188000000E+02  0.91188000000E+02 0.  0.
    9900012    2    3    3    0    0  0.16789652803E+02 -0.31120765595E+02 -0.10265747070E+02  0.54367081280E+02  0.39999993395E+02 0.  0.
        -12    1    3    3    0    0 -0.16789652803E+02  0.31120765595E+02  0.10265747070E+02  0.36820918720E+02  0.00000000000E+00 0.  1.
         11    1    4    4    0    0  0.19968114944E+02 -0.18905711475E+02 -0.29460747016E+01  0.27655576241E+02  0.51100000000E-03 0. -1.
        -11    1    4    4    0    0 -0.88303735126E+01 -0.16373292094E+02 -0.61827274800E+01  0.19603221922E+02  0.51100000000E-03 0.  1.
        -12    1    4    4    0    0  0.56519113716E+01  0.41582379740E+01 -0.11369448879E+01  0.71082831175E+01  0.00000000000E+00 0.  1.
</event>
<event>
 8    1  0.1247338E-006  0.9118800E+02  0.7816164E-02  0.1184000E+00
        -11   -1    0    0    0    0  0.00000000000E+00  0.00000000000E+00  0.45593999997E+02  0.45594000000E+02  0.51100000000E-03 0.  1.
         11   -1    0    0    0    0 -0.00000000000E+00 -0.00000000000E+00 -0.45593999997E+02  0.45594000000E+02  0.51100000000E-03 0. -1.
         23    2    1    2    0    0  0.00000000000E+00  0.00000000000E+00  0.17763568394E-14  0.91188000000E+02  0.91188000000E+02 0.  0.
    9900012    2    3    3    0    0  0.23445501073E+02 -0.25819228214E+02 -0.11809156795E+02  0.54367078633E+02  0.39999987359E+02 0.  0.
         12    1    3    3    0    0 -0.23445501073E+02  0.25819228214E+02  0.11809156795E+02  0.36820921367E+02  0.00000000000E+00 0. -1.
         11    1    4    4    0    0  0.11099587089E+01 -0.18789045367E+02  0.89822345307E+01  0.20855233673E+02  0.51100000000E-03 0. -1.
        -11    1    4    4    0    0  0.65385968324E+01 -0.29361427134E+01 -0.11120100589E+00  0.71684411481E+01  0.51100000000E-03 0.  1.
         12    1    4    4    0    0  0.15796945532E+02 -0.40940401341E+01 -0.20680190319E+02  0.26343403812E+02  0.00000000000E+00 0. -1.
</event>
<event>
 8    1  0.1247338E-006  0.9118800E+02  0.7816164E-02  0.1184000E+00
        -11   -1    0    0    0    0  0.00000000000E+00  0.00000000000E+00  0.45593999997E+02  0.45594000000E+02  0.51100000000E-03 0. -1.
         11   -1    0    0    0    0 -0.00000000000E+00 -0.00000000000E+00 -0.45593999997E+02  0.45594000000E+02  0.51100000000E-03 0.  1.
         23    2    1    2    0    0  0.00000000000E+00 -0.17763568394E-14  0.00000000000E+00  0.91188000000E+02  0.91188000000E+02 0.  0.
    9900012    2    3    3    0    0  0.23147110935E+02  0.13332512350E+02 -0.25342333948E+02  0.54367102128E+02  0.40000040921E+02 0.  0.
         12    1    3    3    0    0 -0.23147110935E+02 -0.13332512350E+02  0.25342333948E+02  0.36820897872E+02  0.00000000000E+00 0. -1.
         11    1    4    4    0    0  0.21497569307E+02  0.96424696729E+00 -0.89955545843E+01  0.23323705984E+02  0.51100000000E-03 0. -1.
        -11    1    4    4    0    0 -0.18566275892E+01  0.14749555546E+02 -0.20357878382E+02  0.25207928659E+02  0.51100000000E-03 0.  1.
         12    1    4    4    0    0  0.35061692177E+01 -0.23812901626E+01  0.40110990189E+01  0.58354674844E+01  0.00000000000E+00 0. -1.
</event>
<event>
 8    1  0.1247338E-006  0.9118800E+02  0.7816164E-02  0.1184000E+00
        -11   -1    0    0    0    0  0.00000000000E+00  0.00000000000E+00  0.45593999997E+02  0.45594000000E+02  0.51100000000E-03 0.  1.
         11   -1    0    0    0    0 -0.00000000000E+00 -0.00000000000E+00 -0.45593999997E+02  0.45594000000E+02  0.51100000000E-03 0. -1.
         23    2    1    2    0    0 -0.35527136788E-14 -0.35527136788E-14  0.00000000000E+00  0.91188000000E+02  0.91188000000E+02 0.  0.
    9900012    2    3    3    0    0  0.30314983411E+02  0.16794787132E+02  0.12438515994E+02  0.54367085098E+02  0.40000002099E+02 0.  0.
         12    1    3    3    0    0 -0.30314983411E+02 -0.16794787132E+02 -0.12438515994E+02  0.36820914902E+02  0.00000000000E+00 0. -1.
         11    1    4    4    0    0  0.11608863099E+02  0.16080090008E+02  0.18534946799E+02  0.27145519892E+02  0.51100000000E-03 0. -1.
        -11    1    4    4    0    0  0.35602897177E+01  0.86118140894E+01 -0.34494399943E+01  0.99366816051E+01  0.51100000000E-03 0.  1.
        -12    1    4    4    0    0  0.15145830595E+02 -0.78971169649E+01 -0.26469908100E+01  0.17284883602E+02  0.00000000000E+00 0.  1.
</event>
<event>
 8    1  0.1247338E-006  0.9118800E+02  0.7816164E-02  0.1184000E+00
        -11   -1    0    0    0    0  0.00000000000E+00  0.00000000000E+00  0.45593999997E+02  0.45594000000E+02  0.51100000000E-03 0.  1.
         11   -1    0    0    0    0 -0.00000000000E+00 -0.00000000000E+00 -0.45593999997E+02  0.45594000000E+02  0.51100000000E-03 0. -1.
         23    2    1    2    0    0 -0.17763568394E-14  0.00000000000E+00 -0.17763568394E-14  0.91188000000E+02  0.91188000000E+02 0.  0.
    9900012    2    3    3    0    0 -0.11894628060E+02 -0.31795454464E+02 -0.14259965753E+02  0.54367085773E+02  0.40000003636E+02 0.  0.
        -12    1    3    3    0    0  0.11894628060E+02  0.31795454464E+02  0.14259965753E+02  0.36820914227E+02  0.00000000000E+00 0.  1.
         11    1    4    4    0    0 -0.14234867457E+02 -0.55505266078E+01 -0.12538010292E+02  0.19764652779E+02  0.51100000000E-03 0. -1.
        -11    1    4    4    0    0 -0.34841242234E+01  0.20100984323E+01 -0.39882999832E+01  0.56644641696E+01  0.51100000000E-03 0.  1.
         12    1    4    4    0    0  0.58243636201E+01 -0.28255026289E+02  0.22663445226E+01  0.28937968824E+02  0.00000000000E+00 0. -1.
</event>
<event>
 8    1  0.1247338E-006  0.9118800E+02  0.7816164E-02  0.1184000E+00
        -11   -1    0    0    0    0  0.00000000000E+00  0.00000000000E+00  0.45593999997E+02  0.45594000000E+02  0.51100000000E-03 0. -1.
         11   -1    0    0    0    0 -0.00000000000E+00 -0.00000000000E+00 -0.45593999997E+02  0.45594000000E+02  0.51100000000E-03 0.  1.
         23    2    1    2    0    0  0.17763568394E-14  0.00000000000E+00  0.00000000000E+00  0.91188000000E+02  0.91188000000E+02 0.  0.
    9900012    2    3    3    0    0  0.12884495458E+02  0.28043791482E+02  0.20082672954E+02  0.54367106246E+02  0.40000050309E+02 0.  0.
        -12    1    3    3    0    0 -0.12884495458E+02 -0.28043791482E+02 -0.20082672954E+02  0.36820893754E+02  0.00000000000E+00 0.  1.
         11    1    4    4    0    0  0.88178142528E+00  0.19789462611E+02  0.13808112488E+02  0.24146725236E+02  0.51100000000E-03 0. -1.
        -11    1    4    4    0    0 -0.28899380080E+01 -0.55357069841E+01  0.76523638524E+01  0.98769664520E+01  0.51100000000E-03 0.  1.
        -12    1    4    4    0    0  0.14892652040E+02  0.13790035855E+02 -0.13778033866E+01  0.20343414558E+02  0.00000000000E+00 0.  1.
</event>
<event>
 8    1  0.1247338E-006  0.9118800E+02  0.7816164E-02  0.1184000E+00
        -11   -1    0    0    0    0  0.00000000000E+00  0.00000000000E+00  0.45593999997E+02  0.45594000000E+02  0.51100000000E-03 0.  1.
         11   -1    0    0    0    0 -0.00000000000E+00 -0.00000000000E+00 -0.45593999997E+02  0.45594000000E+02  0.51100000000E-03 0. -1.
         23    2    1    2    0    0  0.35527136788E-14 -0.35527136788E-14 -0.28865798640E-14  0.91188000000E+02  0.91188000000E+02 0.  0.
    9900012    2    3    3    0    0 -0.24897695044E+02  0.27080726707E+02  0.15871731126E+01  0.54367080729E+02  0.39999992137E+02 0.  0.
        -12    1    3    3    0    0  0.24897695044E+02 -0.27080726707E+02 -0.15871731126E+01  0.36820919271E+02  0.00000000000E+00 0.  1.
         11    1    4    4    0    0 -0.14180314182E+02  0.26168412974E+02  0.14371227162E+02  0.33051464692E+02  0.51100000000E-03 0.  1.
        -11    1    4    4    0    0  0.93897785073E+00  0.72628713500E+00 -0.89722151295E+01  0.90504042450E+01  0.51100000000E-03 0. -1.
        -12    1    4    4    0    0 -0.11656358713E+02  0.18602659792E+00 -0.38118389202E+01  0.12265211791E+02  0.00000000000E+00 0.  1.
</event>
<event>
 8    1  0.1247338E-006  0.9118800E+02  0.7816164E-02  0.1184000E+00
        -11   -1    0    0    0    0  0.00000000000E+00  0.00000000000E+00  0.45593999997E+02  0.45594000000E+02  0.51100000000E-03 0.  1.
         11   -1    0    0    0    0 -0.00000000000E+00 -0.00000000000E+00 -0.45593999997E+02  0.45594000000E+02  0.51100000000E-03 0. -1.
         23    2    1    2    0    0  0.17763568394E-14 -0.13322676296E-14  0.00000000000E+00  0.91188000000E+02  0.91188000000E+02 0.  0.
    9900012    2    3    3    0    0  0.14890089268E+02 -0.32639909990E+01 -0.33517270639E+02  0.54367138702E+02  0.40000124300E+02 0.  0.
        -12    1    3    3    0    0 -0.14890089268E+02  0.32639909990E+01  0.33517270639E+02  0.36820861298E+02  0.00000000000E+00 0.  1.
         11    1    4    4    0    0  0.35586470588E+01 -0.51805016952E+01 -0.33813483070E+02  0.34392632995E+02  0.51100000000E-03 0. -1.
        -11    1    4    4    0    0  0.90796498963E+00  0.45218571989E+01 -0.59642369863E+01  0.75394771728E+01  0.51100000000E-03 0.  1.
        -12    1    4    4    0    0  0.10423477219E+02 -0.26053465027E+01  0.62604494182E+01  0.12435028535E+02  0.00000000000E+00 0.  1.
</event>
<event>
 8    1  0.1247338E-006  0.9118800E+02  0.7816164E-02  0.1184000E+00
        -11   -1    0    0    0    0  0.00000000000E+00  0.00000000000E+00  0.45593999997E+02  0.45594000000E+02  0.51100000000E-03 0.  1.
         11   -1    0    0    0    0 -0.00000000000E+00 -0.00000000000E+00 -0.45593999997E+02  0.45594000000E+02  0.51100000000E-03 0. -1.
         23    2    1    2    0    0  0.35527136788E-14 -0.35527136788E-14 -0.35527136788E-14  0.91188000000E+02  0.91188000000E+02 0.  0.
    9900012    2    3    3    0    0  0.16140589771E+02 -0.28036124404E+02  0.17585121516E+02  0.54367090064E+02  0.40000013419E+02 0.  0.
         12    1    3    3    0    0 -0.16140589771E+02  0.28036124404E+02 -0.17585121516E+02  0.36820909936E+02  0.00000000000E+00 0. -1.
         11    1    4    4    0    0 -0.48323193644E+01 -0.12182011244E+02 -0.43369531062E+00  0.13112619886E+02  0.51100000000E-03 0. -1.
        -11    1    4    4    0    0  0.16959805902E+02 -0.44529769026E-01  0.13826600922E-01  0.16959870005E+02  0.51100000000E-03 0.  1.
         12    1    4    4    0    0  0.40131032332E+01 -0.15809583392E+02  0.18004990226E+02  0.24294600174E+02  0.00000000000E+00 0. -1.
</event>
<event>
 8    1  0.1247338E-006  0.9118800E+02  0.7816164E-02  0.1184000E+00
        -11   -1    0    0    0    0  0.00000000000E+00  0.00000000000E+00  0.45593999997E+02  0.45594000000E+02  0.51100000000E-03 0. -1.
         11   -1    0    0    0    0 -0.00000000000E+00 -0.00000000000E+00 -0.45593999997E+02  0.45594000000E+02  0.51100000000E-03 0.  1.
         23    2    1    2    0    0  0.66613381478E-15 -0.17763568394E-14  0.00000000000E+00  0.91188000000E+02  0.91188000000E+02 0.  0.
    9900012    2    3    3    0    0 -0.11697800275E+01 -0.83419164337E+01  0.35844462639E+02  0.54367062247E+02  0.39999950005E+02 0.  0.
        -12    1    3    3    0    0  0.11697800275E+01  0.83419164337E+01 -0.35844462639E+02  0.36820937753E+02  0.00000000000E+00 0.  1.
         11    1    4    4    0    0  0.32113996194E+01  0.51661563992E+01  0.24951087727E+02  0.25681881521E+02  0.51100000000E-03 0. -1.
        -11    1    4    4    0    0 -0.49593157201E+01  0.47446891184E+01  0.73985795326E+01  0.10091871313E+02  0.51100000000E-03 0.  1.
        -12    1    4    4    0    0  0.57813607312E+00 -0.18252761951E+02  0.34947953801E+01  0.18593309413E+02  0.00000000000E+00 0.  1.
</event>
<event>
 8    1  0.1247338E-006  0.9118800E+02  0.7816164E-02  0.1184000E+00
        -11   -1    0    0    0    0  0.00000000000E+00  0.00000000000E+00  0.45593999997E+02  0.45594000000E+02  0.51100000000E-03 0. -1.
         11   -1    0    0    0    0 -0.00000000000E+00 -0.00000000000E+00 -0.45593999997E+02  0.45594000000E+02  0.51100000000E-03 0.  1.
         23    2    1    2    0    0  0.35527136788E-14 -0.44408920985E-15  0.00000000000E+00  0.91188000000E+02  0.91188000000E+02 0.  0.
    9900012    2    3    3    0    0 -0.28827793965E+02  0.39576331095E+01  0.22562693866E+02  0.54367085846E+02  0.40000003802E+02 0.  0.
        -12    1    3    3    0    0  0.28827793965E+02 -0.39576331095E+01 -0.22562693866E+02  0.36820914154E+02  0.00000000000E+00 0.  1.
         11    1    4    4    0    0 -0.13558124164E+02  0.65835734684E+01 -0.83548487175E+00  0.15095171602E+02  0.51100000000E-03 0. -1.
        -11    1    4    4    0    0 -0.25542180038E+01  0.70388264027E+01 -0.32827359524E+01  0.81759074318E+01  0.51100000000E-03 0.  1.
        -12    1    4    4    0    0 -0.12715451796E+02 -0.96647667616E+01  0.26680914690E+02  0.31096006812E+02  0.00000000000E+00 0.  1.
</event>
<event>
 8    1  0.1247338E-006  0.9118800E+02  0.7816164E-02  0.1184000E+00
        -11   -1    0    0    0    0  0.00000000000E+00  0.00000000000E+00  0.45593999997E+02  0.45594000000E+02  0.51100000000E-03 0. -1.
         11   -1    0    0    0    0 -0.00000000000E+00 -0.00000000000E+00 -0.45593999997E+02  0.45594000000E+02  0.51100000000E-03 0.  1.
         23    2    1    2    0    0 -0.88817841970E-15  0.00000000000E+00  0.00000000000E+00  0.91188000000E+02  0.91188000000E+02 0.  0.
    9900012    2    3    3    0    0  0.63696126734E+01  0.15106272386E+02 -0.32969821934E+02  0.54367074029E+02  0.39999976864E+02 0.  0.
         12    1    3    3    0    0 -0.63696126734E+01 -0.15106272386E+02  0.32969821934E+02  0.36820925971E+02  0.00000000000E+00 0. -1.
         11    1    4    4    0    0  0.70949796395E+01 -0.11030384672E+01 -0.20127861113E+02  0.21370218136E+02  0.51100000000E-03 0. -1.
        -11    1    4    4    0    0 -0.69902834334E+01  0.16053035778E+02 -0.17828332599E+02  0.24988266520E+02  0.51100000000E-03 0.  1.
        -12    1    4    4    0    0  0.62649164672E+01  0.15627507453E+00  0.49863717772E+01  0.80085893728E+01  0.00000000000E+00 0.  1.
</event>
<event>
 8    1  0.1247338E-006  0.9118800E+02  0.7816164E-02  0.1184000E+00
        -11   -1    0    0    0    0  0.00000000000E+00  0.00000000000E+00  0.45593999997E+02  0.45594000000E+02  0.51100000000E-03 0. -1.
         11   -1    0    0    0    0 -0.00000000000E+00 -0.00000000000E+00 -0.45593999997E+02  0.45594000000E+02  0.51100000000E-03 0.  1.
         23    2    1    2    0    0  0.00000000000E+00  0.00000000000E+00  0.17763568394E-14  0.91188000000E+02  0.91188000000E+02 0.  0.
    9900012    2    3    3    0    0  0.23472233537E+02 -0.27120237581E+02 -0.83268858728E+01  0.54366945397E+02  0.39999683621E+02 0.  0.
         12    1    3    3    0    0 -0.23472233537E+02  0.27120237581E+02  0.83268858728E+01  0.36821054603E+02  0.00000000000E+00 0. -1.
         11    1    4    4    0    0 -0.22904194356E+01 -0.43775343409E+01 -0.83998263246E+01  0.97450454407E+01  0.51100000000E-03 0. -1.
        -11    1    4    4    0    0  0.24724034871E+02 -0.23798940073E+02 -0.89605836383E+01  0.35467724882E+02  0.51100000000E-03 0.  1.
        -12    1    4    4    0    0  0.10386181021E+01  0.10562368330E+01  0.90335240902E+01  0.91541750746E+01  0.00000000000E+00 0.  1.
</event>
<event>
 8    1  0.1247338E-006  0.9118800E+02  0.7816164E-02  0.1184000E+00
        -11   -1    0    0    0    0  0.00000000000E+00  0.00000000000E+00  0.45593999997E+02  0.45594000000E+02  0.51100000000E-03 0. -1.
         11   -1    0    0    0    0 -0.00000000000E+00 -0.00000000000E+00 -0.45593999997E+02  0.45594000000E+02  0.51100000000E-03 0.  1.
         23    2    1    2    0    0  0.00000000000E+00  0.00000000000E+00 -0.88817841970E-15  0.91188000000E+02  0.91188000000E+02 0.  0.
    9900012    2    3    3    0    0 -0.30786042041E+02 -0.19027060501E+02 -0.67801634242E+01  0.54367081598E+02  0.39999994120E+02 0.  0.
        -12    1    3    3    0    0  0.30786042041E+02  0.19027060501E+02  0.67801634242E+01  0.36820918402E+02  0.00000000000E+00 0.  1.
         11    1    4    4    0    0 -0.26579059651E+02 -0.17965485077E+02  0.10638442688E+02  0.33799135034E+02  0.51100000000E-03 0. -1.
        -11    1    4    4    0    0 -0.72132189898E+01 -0.24255745756E+01 -0.12787717702E+02  0.14880848917E+02  0.51100000000E-03 0.  1.
         12    1    4    4    0    0  0.30062366000E+01  0.13639991508E+01 -0.46308884099E+01  0.56870976467E+01  0.00000000000E+00 0. -1.
</event>
<event>
 8    1  0.1247338E-006  0.9118800E+02  0.7816164E-02  0.1184000E+00
        -11   -1    0    0    0    0  0.00000000000E+00  0.00000000000E+00  0.45593999997E+02  0.45594000000E+02  0.51100000000E-03 0. -1.
         11   -1    0    0    0    0 -0.00000000000E+00 -0.00000000000E+00 -0.45593999997E+02  0.45594000000E+02  0.51100000000E-03 0.  1.
         23    2    1    2    0    0  0.00000000000E+00  0.00000000000E+00 -0.17763568394E-14  0.91188000000E+02  0.91188000000E+02 0.  0.
    9900012    2    3    3    0    0  0.25342971369E+02  0.23845904718E+02 -0.12036841065E+02  0.54367096801E+02  0.40000028777E+02 0.  0.
         12    1    3    3    0    0 -0.25342971369E+02 -0.23845904718E+02  0.12036841065E+02  0.36820903199E+02  0.00000000000E+00 0. -1.
         11    1    4    4    0    0 -0.47155941112E+01  0.11283222012E+02 -0.59548581348E+01  0.13601774239E+02  0.51100000000E-03 0. -1.
        -11    1    4    4    0    0  0.27795381072E+02  0.17865317687E+02 -0.90805802600E+01  0.34266743690E+02  0.51100000000E-03 0.  1.
         12    1    4    4    0    0  0.22631844081E+01 -0.53026349809E+01  0.29985973300E+01  0.64985788719E+01  0.00000000000E+00 0. -1.
</event>
<event>
 8    1  0.1247338E-006  0.9118800E+02  0.7816164E-02  0.1184000E+00
        -11   -1    0    0    0    0  0.00000000000E+00  0.00000000000E+00  0.45593999997E+02  0.45594000000E+02  0.51100000000E-03 0.  1.
         11   -1    0    0    0    0 -0.00000000000E+00 -0.00000000000E+00 -0.45593999997E+02  0.45594000000E+02  0.51100000000E-03 0. -1.
         23    2    1    2    0    0  0.00000000000E+00  0.17763568394E-14 -0.35527136788E-14  0.91188000000E+02  0.91188000000E+02 0.  0.
    9900012    2    3    3    0    0 -0.20906410078E+02 -0.15037685737E+02 -0.26316721491E+02  0.54367084684E+02  0.40000001154E+02 0.  0.
        -12    1    3    3    0    0  0.20906410078E+02  0.15037685737E+02  0.26316721491E+02  0.36820915316E+02  0.00000000000E+00 0.  1.
         11    1    4    4    0    0 -0.10592269783E+02 -0.14700526194E+02 -0.52157490571E-01  0.18119171344E+02  0.51100000000E-03 0. -1.
        -11    1    4    4    0    0 -0.47372659022E+01 -0.34541089050E+01  0.27945547443E+01  0.64947742867E+01  0.51100000000E-03 0.  1.
        -12    1    4    4    0    0 -0.55768743934E+01  0.31169493622E+01 -0.29059118745E+02  0.29753139054E+02  0.00000000000E+00 0.  1.
</event>
<event>
 8    1  0.1247338E-006  0.9118800E+02  0.7816164E-02  0.1184000E+00
        -11   -1    0    0    0    0  0.00000000000E+00  0.00000000000E+00  0.45593999997E+02  0.45594000000E+02  0.51100000000E-03 0. -1.
         11   -1    0    0    0    0 -0.00000000000E+00 -0.00000000000E+00 -0.45593999997E+02  0.45594000000E+02  0.51100000000E-03 0.  1.
         23    2    1    2    0    0  0.35527136788E-14  0.35527136788E-14  0.00000000000E+00  0.91188000000E+02  0.91188000000E+02 0.  0.
    9900012    2    3    3    0    0 -0.28536618393E+02  0.18668929927E+02  0.13889185164E+02  0.54367122791E+02  0.40000088027E+02 0.  0.
        -12    1    3    3    0    0  0.28536618393E+02 -0.18668929927E+02 -0.13889185164E+02  0.36820877209E+02  0.00000000000E+00 0.  1.
         11    1    4    4    0    0 -0.87609751159E+01 -0.31143000467E+01  0.44930937139E+01  0.10326734292E+02  0.51100000000E-03 0. -1.
        -11    1    4    4    0    0 -0.45405201634E+01 -0.73316803096E+01 -0.26814308524E+01  0.90310537145E+01  0.51100000000E-03 0.  1.
         12    1    4    4    0    0 -0.15235123114E+02  0.29114910283E+02  0.12077522302E+02  0.35009334784E+02  0.00000000000E+00 0. -1.
</event>
<event>
 8    1  0.1247338E-006  0.9118800E+02  0.7816164E-02  0.1184000E+00
        -11   -1    0    0    0    0  0.00000000000E+00  0.00000000000E+00  0.45593999997E+02  0.45594000000E+02  0.51100000000E-03 0. -1.
         11   -1    0    0    0    0 -0.00000000000E+00 -0.00000000000E+00 -0.45593999997E+02  0.45594000000E+02  0.51100000000E-03 0.  1.
         23    2    1    2    0    0  0.00000000000E+00  0.00000000000E+00  0.36082248300E-15  0.91188000000E+02  0.91188000000E+02 0.  0.
    9900012    2    3    3    0    0 -0.35591722262E+02 -0.94315096922E+01  0.23697094190E+00  0.54367078992E+02  0.39999988178E+02 0.  0.
         12    1    3    3    0    0  0.35591722262E+02  0.94315096922E+01 -0.23697094190E+00  0.36820921008E+02  0.00000000000E+00 0. -1.
         11    1    4    4    0    0 -0.19556782721E+02 -0.51842796896E+01  0.14764957168E+02  0.25046925295E+02  0.51100000000E-03 0. -1.
        -11    1    4    4    0    0 -0.29974955867E+01  0.58821488905E+01  0.97367539882E+00  0.66732825061E+01  0.51100000000E-03 0.  1.
        -12    1    4    4    0    0 -0.13037443954E+02 -0.10129378893E+02 -0.15501661625E+02  0.22646871191E+02  0.00000000000E+00 0.  1.
</event>
<event>
 8    1  0.1247338E-006  0.9118800E+02  0.7816164E-02  0.1184000E+00
        -11   -1    0    0    0    0  0.00000000000E+00  0.00000000000E+00  0.45593999997E+02  0.45594000000E+02  0.51100000000E-03 0. -1.
         11   -1    0    0    0    0 -0.00000000000E+00 -0.00000000000E+00 -0.45593999997E+02  0.45594000000E+02  0.51100000000E-03 0.  1.
         23    2    1    2    0    0  0.00000000000E+00  0.17763568394E-14 -0.35527136788E-14  0.91188000000E+02  0.91188000000E+02 0.  0.
    9900012    2    3    3    0    0  0.16853761820E+02 -0.10139080896E+02  0.31127646890E+02  0.54367073208E+02  0.39999974992E+02 0.  0.
        -12    1    3    3    0    0 -0.16853761820E+02  0.10139080896E+02 -0.31127646890E+02  0.36820926792E+02  0.00000000000E+00 0.  1.
         11    1    4    4    0    0  0.17347423255E+01  0.47273823754E+01  0.23107269603E+02  0.23649595849E+02  0.51100000000E-03 0. -1.
        -11    1    4    4    0    0  0.25258697192E+00  0.39083443490E+01 -0.24079086774E+01  0.45974971657E+01  0.51100000000E-03 0.  1.
        -12    1    4    4    0    0  0.14866432523E+02 -0.18774807620E+02  0.10428285965E+02  0.26119980193E+02  0.00000000000E+00 0.  1.
</event>
<event>
 8    1  0.1247338E-006  0.9118800E+02  0.7816164E-02  0.1184000E+00
        -11   -1    0    0    0    0  0.00000000000E+00  0.00000000000E+00  0.45593999997E+02  0.45594000000E+02  0.51100000000E-03 0. -1.
         11   -1    0    0    0    0 -0.00000000000E+00 -0.00000000000E+00 -0.45593999997E+02  0.45594000000E+02  0.51100000000E-03 0.  1.
         23    2    1    2    0    0  0.00000000000E+00  0.00000000000E+00  0.00000000000E+00  0.91188000000E+02  0.91188000000E+02 0.  0.
    9900012    2    3    3    0    0  0.13772208813E+02  0.19274645644E+02  0.28188553406E+02  0.54367078726E+02  0.39999987572E+02 0.  0.
        -12    1    3    3    0    0 -0.13772208813E+02 -0.19274645644E+02 -0.28188553406E+02  0.36820921274E+02  0.00000000000E+00 0.  1.
         11    1    4    4    0    0  0.41402335400E+01  0.86509384537E+01  0.17198326438E+02  0.19691691203E+02  0.51100000000E-03 0. -1.
        -11    1    4    4    0    0  0.56261951632E+00 -0.60081355101E+01  0.14229843580E+02  0.15456477012E+02  0.51100000000E-03 0.  1.
         12    1    4    4    0    0  0.90693557570E+01  0.16631842701E+02 -0.32396166119E+01  0.19218910512E+02  0.00000000000E+00 0. -1.
</event>
<event>
 8    1  0.1247338E-006  0.9118800E+02  0.7816164E-02  0.1184000E+00
        -11   -1    0    0    0    0  0.00000000000E+00  0.00000000000E+00  0.45593999997E+02  0.45594000000E+02  0.51100000000E-03 0. -1.
         11   -1    0    0    0    0 -0.00000000000E+00 -0.00000000000E+00 -0.45593999997E+02  0.45594000000E+02  0.51100000000E-03 0.  1.
         23    2    1    2    0    0  0.88817841970E-15  0.35527136788E-14  0.00000000000E+00  0.91188000000E+02  0.91188000000E+02 0.  0.
    9900012    2    3    3    0    0  0.65145396671E+01 -0.27961157817E+02 -0.23054571948E+02  0.54367097495E+02  0.40000030360E+02 0.  0.
         12    1    3    3    0    0 -0.65145396671E+01  0.27961157817E+02  0.23054571948E+02  0.36820902505E+02  0.00000000000E+00 0. -1.
         11    1    4    4    0    0  0.47841112771E+01 -0.21435453608E+01  0.51594193436E+01  0.73554140366E+01  0.51100000000E-03 0. -1.
        -11    1    4    4    0    0  0.10101814189E+02 -0.23018453875E+02 -0.10543453902E+02  0.27259132215E+02  0.51100000000E-03 0.  1.
         12    1    4    4    0    0 -0.83713857991E+01 -0.27991585816E+01 -0.17670537390E+02  0.19752551243E+02  0.00000000000E+00 0. -1.
</event>
<event>
 8    1  0.1247338E-006  0.9118800E+02  0.7816164E-02  0.1184000E+00
        -11   -1    0    0    0    0  0.00000000000E+00  0.00000000000E+00  0.45593999997E+02  0.45594000000E+02  0.51100000000E-03 0.  1.
         11   -1    0    0    0    0 -0.00000000000E+00 -0.00000000000E+00 -0.45593999997E+02  0.45594000000E+02  0.51100000000E-03 0. -1.
         23    2    1    2    0    0  0.35527136788E-14  0.35527136788E-14  0.00000000000E+00  0.91188000000E+02  0.91188000000E+02 0.  0.
    9900012    2    3    3    0    0  0.16448395676E+02  0.12507951743E+02  0.30475902959E+02  0.54367092375E+02  0.40000018688E+02 0.  0.
         12    1    3    3    0    0 -0.16448395676E+02 -0.12507951743E+02 -0.30475902959E+02  0.36820907625E+02  0.00000000000E+00 0. -1.
         11    1    4    4    0    0  0.74473544752E+01 -0.44789655437E+01 -0.24926360734E+00  0.86940412714E+01  0.51100000000E-03 0. -1.
        -11    1    4    4    0    0 -0.87450550881E+00 -0.72921774924E+01  0.90921399563E+01  0.11687926322E+02  0.51100000000E-03 0.  1.
         12    1    4    4    0    0  0.98755467101E+01  0.24279094780E+02  0.21633026610E+02  0.33985124782E+02  0.00000000000E+00 0. -1.
</event>
<event>
 8    1  0.1247338E-006  0.9118800E+02  0.7816164E-02  0.1184000E+00
        -11   -1    0    0    0    0  0.00000000000E+00  0.00000000000E+00  0.45593999997E+02  0.45594000000E+02  0.51100000000E-03 0. -1.
         11   -1    0    0    0    0 -0.00000000000E+00 -0.00000000000E+00 -0.45593999997E+02  0.45594000000E+02  0.51100000000E-03 0.  1.
         23    2    1    2    0    0  0.00000000000E+00  0.00000000000E+00 -0.35527136788E-14  0.91188000000E+02  0.91188000000E+02 0.  0.
    9900012    2    3    3    0    0 -0.30655505961E+02  0.12227739471E+02 -0.16324894818E+02  0.54367084081E+02  0.39999999779E+02 0.  0.
         12    1    3    3    0    0  0.30655505961E+02 -0.12227739471E+02  0.16324894818E+02  0.36820915919E+02  0.00000000000E+00 0. -1.
         11    1    4    4    0    0 -0.12767506104E+01  0.81884304037E+01  0.15328402934E+01  0.84279347544E+01  0.51100000000E-03 0. -1.
        -11    1    4    4    0    0 -0.20401630763E+02  0.10782963102E+02  0.19628924104E+01  0.23159269806E+02  0.51100000000E-03 0.  1.
         12    1    4    4    0    0 -0.89771245869E+01 -0.67436540350E+01 -0.19820627522E+02  0.22779879520E+02  0.00000000000E+00 0. -1.
</event>
<event>
 8    1  0.1247338E-006  0.9118800E+02  0.7816164E-02  0.1184000E+00
        -11   -1    0    0    0    0  0.00000000000E+00  0.00000000000E+00  0.45593999997E+02  0.45594000000E+02  0.51100000000E-03 0. -1.
         11   -1    0    0    0    0 -0.00000000000E+00 -0.00000000000E+00 -0.45593999997E+02  0.45594000000E+02  0.51100000000E-03 0.  1.
         23    2    1    2    0    0  0.88817841970E-15  0.35527136788E-14  0.00000000000E+00  0.91188000000E+02  0.91188000000E+02 0.  0.
    9900012    2    3    3    0    0  0.64875066665E+01  0.24506235599E+02 -0.26704638632E+02  0.54367067768E+02  0.39999962590E+02 0.  0.
         12    1    3    3    0    0 -0.64875066665E+01 -0.24506235599E+02  0.26704638632E+02  0.36820932232E+02  0.00000000000E+00 0. -1.
         11    1    4    4    0    0 -0.16778427663E+01  0.21073145788E+02 -0.45821300922E+00  0.21144800523E+02  0.51100000000E-03 0. -1.
        -11    1    4    4    0    0  0.46865783447E+01  0.10702870610E+02 -0.11370441290E+02  0.16303447220E+02  0.51100000000E-03 0.  1.
         12    1    4    4    0    0  0.34787710881E+01 -0.72697807985E+01 -0.14875984333E+02  0.16918820024E+02  0.00000000000E+00 0. -1.
</event>
<event>
 8    1  0.1247338E-006  0.9118800E+02  0.7816164E-02  0.1184000E+00
        -11   -1    0    0    0    0  0.00000000000E+00  0.00000000000E+00  0.45593999997E+02  0.45594000000E+02  0.51100000000E-03 0. -1.
         11   -1    0    0    0    0 -0.00000000000E+00 -0.00000000000E+00 -0.45593999997E+02  0.45594000000E+02  0.51100000000E-03 0.  1.
         23    2    1    2    0    0  0.44408920985E-15  0.17763568394E-14  0.00000000000E+00  0.91188000000E+02  0.91188000000E+02 0.  0.
    9900012    2    3    3    0    0  0.24790424244E+01 -0.33876564355E+01 -0.36580842263E+02  0.54367083551E+02  0.39999998571E+02 0.  0.
         12    1    3    3    0    0 -0.24790424244E+01  0.33876564355E+01  0.36580842263E+02  0.36820916449E+02  0.00000000000E+00 0. -1.
         11    1    4    4    0    0  0.85195415756E+01  0.23835871780E+01  0.49773916442E+01  0.10150788360E+02  0.51100000000E-03 0. -1.
        -11    1    4    4    0    0 -0.90754100547E+01 -0.12321717114E+01 -0.31071573905E+02  0.32393271214E+02  0.51100000000E-03 0.  1.
         12    1    4    4    0    0  0.30349109035E+01 -0.45390719021E+01 -0.10486660003E+02  0.11823023976E+02  0.00000000000E+00 0. -1.
</event>
<event>
 8    1  0.1247338E-006  0.9118800E+02  0.7816164E-02  0.1184000E+00
        -11   -1    0    0    0    0  0.00000000000E+00  0.00000000000E+00  0.45593999997E+02  0.45594000000E+02  0.51100000000E-03 0. -1.
         11   -1    0    0    0    0 -0.00000000000E+00 -0.00000000000E+00 -0.45593999997E+02  0.45594000000E+02  0.51100000000E-03 0.  1.
         23    2    1    2    0    0  0.35527136788E-14  0.35527136788E-14  0.35527136788E-14  0.91188000000E+02  0.91188000000E+02 0.  0.
    9900012    2    3    3    0    0  0.26467940627E+02  0.14154124352E+02  0.21327988945E+02  0.54367160389E+02  0.40000173739E+02 0.  0.
        -12    1    3    3    0    0 -0.26467940627E+02 -0.14154124352E+02 -0.21327988945E+02  0.36820839611E+02  0.00000000000E+00 0.  1.
         11    1    4    4    0    0  0.21415692274E+02  0.96646126520E+01  0.13880079670E+01  0.23536422406E+02  0.51100000000E-03 0. -1.
        -11    1    4    4    0    0  0.64120456852E+01  0.93998692820E+01  0.12363696484E+01  0.11445544223E+02  0.51100000000E-03 0.  1.
        -12    1    4    4    0    0 -0.13597973324E+01 -0.49103575824E+01  0.18703611329E+02  0.19385193761E+02  0.00000000000E+00 0.  1.
</event>
<event>
 8    1  0.1247338E-006  0.9118800E+02  0.7816164E-02  0.1184000E+00
        -11   -1    0    0    0    0  0.00000000000E+00  0.00000000000E+00  0.45593999997E+02  0.45594000000E+02  0.51100000000E-03 0. -1.
         11   -1    0    0    0    0 -0.00000000000E+00 -0.00000000000E+00 -0.45593999997E+02  0.45594000000E+02  0.51100000000E-03 0.  1.
         23    2    1    2    0    0  0.35527136788E-14  0.35527136788E-14 -0.71054273576E-14  0.91188000000E+02  0.91188000000E+02 0.  0.
    9900012    2    3    3    0    0 -0.10624808014E+02 -0.10076743461E+02  0.33783909200E+02  0.54367084409E+02  0.40000000528E+02 0.  0.
        -12    1    3    3    0    0  0.10624808014E+02  0.10076743461E+02 -0.33783909200E+02  0.36820915591E+02  0.00000000000E+00 0.  1.
         11    1    4    4    0    0 -0.19684214881E+02  0.13616029531E+01  0.21288277704E+02  0.29026075277E+02  0.51100000000E-03 0. -1.
        -11    1    4    4    0    0  0.18511996235E+01  0.28637308923E+00  0.11379411595E+02  0.11532560778E+02  0.51100000000E-03 0.  1.
        -12    1    4    4    0    0  0.72082072432E+01 -0.11724719504E+02  0.11162199005E+01  0.13808448355E+02  0.00000000000E+00 0.  1.
</event>
<event>
 8    1  0.1247338E-006  0.9118800E+02  0.7816164E-02  0.1184000E+00
        -11   -1    0    0    0    0  0.00000000000E+00  0.00000000000E+00  0.45593999997E+02  0.45594000000E+02  0.51100000000E-03 0.  1.
         11   -1    0    0    0    0 -0.00000000000E+00 -0.00000000000E+00 -0.45593999997E+02  0.45594000000E+02  0.51100000000E-03 0. -1.
         23    2    1    2    0    0 -0.35527136788E-14  0.00000000000E+00 -0.88817841970E-15  0.91188000000E+02  0.91188000000E+02 0.  0.
    9900012    2    3    3    0    0  0.22636931405E+02 -0.28801174955E+02  0.37203789226E+01  0.54367087986E+02  0.40000008681E+02 0.  0.
         12    1    3    3    0    0 -0.22636931405E+02  0.28801174955E+02 -0.37203789226E+01  0.36820912014E+02  0.00000000000E+00 0. -1.
         11    1    4    4    0    0  0.20674226008E+02 -0.44514663661E+01  0.15112819819E+02  0.25993008618E+02  0.51100000000E-03 0. -1.
        -11    1    4    4    0    0 -0.26163110186E+01 -0.45805680670E+01 -0.38689052691E+00  0.52892694868E+01  0.51100000000E-03 0.  1.
         12    1    4    4    0    0  0.45790164160E+01 -0.19769140522E+02 -0.11005550370E+02  0.23084809881E+02  0.00000000000E+00 0. -1.
</event>
<event>
 8    1  0.1247338E-006  0.9118800E+02  0.7816164E-02  0.1184000E+00
        -11   -1    0    0    0    0  0.00000000000E+00  0.00000000000E+00  0.45593999997E+02  0.45594000000E+02  0.51100000000E-03 0. -1.
         11   -1    0    0    0    0 -0.00000000000E+00 -0.00000000000E+00 -0.45593999997E+02  0.45594000000E+02  0.51100000000E-03 0.  1.
         23    2    1    2    0    0  0.00000000000E+00  0.00000000000E+00 -0.44408920985E-15  0.91188000000E+02  0.91188000000E+02 0.  0.
    9900012    2    3    3    0    0 -0.67092647517E+01  0.36089168477E+02  0.28875498172E+01  0.54367078517E+02  0.39999987096E+02 0.  0.
         12    1    3    3    0    0  0.67092647517E+01 -0.36089168477E+02 -0.28875498172E+01  0.36820921483E+02  0.00000000000E+00 0. -1.
         11    1    4    4    0    0  0.75018101406E+01  0.20521808542E+02 -0.62927197932E+01  0.22738076082E+02  0.51100000000E-03 0. -1.
        -11    1    4    4    0    0 -0.93679307307E+01  0.17481078590E+02  0.14202882358E+02  0.24394017759E+02  0.51100000000E-03 0.  1.
         12    1    4    4    0    0 -0.48431441616E+01 -0.19137186557E+01 -0.50226127480E+01  0.72349846773E+01  0.00000000000E+00 0. -1.
</event>
<event>
 8    1  0.1247338E-006  0.9118800E+02  0.7816164E-02  0.1184000E+00
        -11   -1    0    0    0    0  0.00000000000E+00  0.00000000000E+00  0.45593999997E+02  0.45594000000E+02  0.51100000000E-03 0.  1.
         11   -1    0    0    0    0 -0.00000000000E+00 -0.00000000000E+00 -0.45593999997E+02  0.45594000000E+02  0.51100000000E-03 0. -1.
         23    2    1    2    0    0  0.00000000000E+00 -0.17763568394E-14  0.00000000000E+00  0.91188000000E+02  0.91188000000E+02 0.  0.
    9900012    2    3    3    0    0  0.21481341389E+02 -0.10843926278E+02  0.27870110819E+02  0.54367057018E+02  0.39999938085E+02 0.  0.
         12    1    3    3    0    0 -0.21481341389E+02  0.10843926278E+02 -0.27870110819E+02  0.36820942982E+02  0.00000000000E+00 0. -1.
         11    1    4    4    0    0  0.35360049360E+01 -0.11872299794E+02  0.79103946545E+01  0.14697931050E+02  0.51100000000E-03 0. -1.
        -11    1    4    4    0    0  0.67359552825E+01  0.12823413528E+02  0.18261790671E+02  0.23308925905E+02  0.51100000000E-03 0.  1.
        -12    1    4    4    0    0  0.11209381171E+02 -0.11795040012E+02  0.16979254928E+01  0.16360200063E+02  0.00000000000E+00 0.  1.
</event>
<event>
 8    1  0.1247338E-006  0.9118800E+02  0.7816164E-02  0.1184000E+00
        -11   -1    0    0    0    0  0.00000000000E+00  0.00000000000E+00  0.45593999997E+02  0.45594000000E+02  0.51100000000E-03 0.  1.
         11   -1    0    0    0    0 -0.00000000000E+00 -0.00000000000E+00 -0.45593999997E+02  0.45594000000E+02  0.51100000000E-03 0. -1.
         23    2    1    2    0    0 -0.35527136788E-14  0.00000000000E+00  0.00000000000E+00  0.91188000000E+02  0.91188000000E+02 0.  0.
    9900012    2    3    3    0    0  0.29718841626E+02 -0.13870833007E+02  0.16738302114E+02  0.54367077774E+02  0.39999985402E+02 0.  0.
         12    1    3    3    0    0 -0.29718841626E+02  0.13870833007E+02 -0.16738302114E+02  0.36820922226E+02  0.00000000000E+00 0. -1.
         11    1    4    4    0    0 -0.82076060972E+00  0.13119119225E+01  0.45588890124E+00  0.16132562791E+01  0.51100000000E-03 0. -1.
        -11    1    4    4    0    0  0.32792197177E+02  0.50402611394E+00  0.47143110409E+01  0.33133170190E+02  0.51100000000E-03 0.  1.
        -12    1    4    4    0    0 -0.22525949414E+01 -0.15686771044E+02  0.11568102172E+02  0.19620651305E+02  0.00000000000E+00 0.  1.
</event>
<event>
 8    1  0.1247338E-006  0.9118800E+02  0.7816164E-02  0.1184000E+00
        -11   -1    0    0    0    0  0.00000000000E+00  0.00000000000E+00  0.45593999997E+02  0.45594000000E+02  0.51100000000E-03 0.  1.
         11   -1    0    0    0    0 -0.00000000000E+00 -0.00000000000E+00 -0.45593999997E+02  0.45594000000E+02  0.51100000000E-03 0. -1.
         23    2    1    2    0    0  0.00000000000E+00  0.00000000000E+00  0.17763568394E-14  0.91188000000E+02  0.91188000000E+02 0.  0.
    9900012    2    3    3    0    0 -0.21525261219E+02 -0.28034826264E+02  0.10319520949E+02  0.54367070262E+02  0.39999968275E+02 0.  0.
         12    1    3    3    0    0  0.21525261219E+02  0.28034826264E+02 -0.10319520949E+02  0.36820929738E+02  0.00000000000E+00 0. -1.
         11    1    4    4    0    0 -0.31034718165E+01 -0.54411219658E+01 -0.98311549337E+01  0.11657141723E+02  0.51100000000E-03 0. -1.
        -11    1    4    4    0    0  0.18616080485E+00  0.34618352548E-01  0.12405195482E+02  0.12406640539E+02  0.51100000000E-03 0.  1.
         12    1    4    4    0    0 -0.18607950207E+02 -0.22628322651E+02  0.77454804007E+01  0.30303287999E+02  0.00000000000E+00 0. -1.
</event>
<event>
 8    1  0.1247338E-006  0.9118800E+02  0.7816164E-02  0.1184000E+00
        -11   -1    0    0    0    0  0.00000000000E+00  0.00000000000E+00  0.45593999997E+02  0.45594000000E+02  0.51100000000E-03 0. -1.
         11   -1    0    0    0    0 -0.00000000000E+00 -0.00000000000E+00 -0.45593999997E+02  0.45594000000E+02  0.51100000000E-03 0.  1.
         23    2    1    2    0    0  0.00000000000E+00  0.88817841970E-15  0.17763568394E-14  0.91188000000E+02  0.91188000000E+02 0.  0.
    9900012    2    3    3    0    0  0.35612320821E+02 -0.42384162287E+01  0.83413816230E+01  0.54367079129E+02  0.39999988490E+02 0.  0.
         12    1    3    3    0    0 -0.35612320821E+02  0.42384162287E+01 -0.83413816230E+01  0.36820920871E+02  0.00000000000E+00 0. -1.
         11    1    4    4    0    0  0.79672592436E+01  0.42346489462E+01  0.16020310413E+02  0.18386403062E+02  0.51100000000E-03 0. -1.
        -11    1    4    4    0    0  0.12172726107E+02 -0.12621028566E+02 -0.93556673118E+01  0.19874459340E+02  0.51100000000E-03 0.  1.
         12    1    4    4    0    0  0.15472335471E+02  0.41479633906E+01  0.16767385217E+01  0.16106216728E+02  0.00000000000E+00 0. -1.
</event>
<event>
 8    1  0.1247338E-006  0.9118800E+02  0.7816164E-02  0.1184000E+00
        -11   -1    0    0    0    0  0.00000000000E+00  0.00000000000E+00  0.45593999997E+02  0.45594000000E+02  0.51100000000E-03 0. -1.
         11   -1    0    0    0    0 -0.00000000000E+00 -0.00000000000E+00 -0.45593999997E+02  0.45594000000E+02  0.51100000000E-03 0.  1.
         23    2    1    2    0    0 -0.17763568394E-14 -0.35527136788E-14 -0.35527136788E-14  0.91188000000E+02  0.91188000000E+02 0.  0.
    9900012    2    3    3    0    0  0.14015351097E+02 -0.16516391923E+02  0.29775120735E+02  0.54367094480E+02  0.40000023485E+02 0.  0.
        -12    1    3    3    0    0 -0.14015351097E+02  0.16516391923E+02 -0.29775120735E+02  0.36820905520E+02  0.00000000000E+00 0.  1.
         11    1    4    4    0    0 -0.49169323104E+01  0.69384823268E+01  0.72585165983E+00  0.85349646302E+01  0.51100000000E-03 0. -1.
        -11    1    4    4    0    0  0.20419244291E+02 -0.20142639519E+02  0.17211438466E+02  0.33450038543E+02  0.51100000000E-03 0.  1.
        -12    1    4    4    0    0 -0.14869608835E+01 -0.33122347309E+01  0.11837830609E+02  0.12382091306E+02  0.00000000000E+00 0.  1.
</event>
<event>
 8    1  0.1247338E-006  0.9118800E+02  0.7816164E-02  0.1184000E+00
        -11   -1    0    0    0    0  0.00000000000E+00  0.00000000000E+00  0.45593999997E+02  0.45594000000E+02  0.51100000000E-03 0. -1.
         11   -1    0    0    0    0 -0.00000000000E+00 -0.00000000000E+00 -0.45593999997E+02  0.45594000000E+02  0.51100000000E-03 0.  1.
         23    2    1    2    0    0  0.17763568394E-14  0.00000000000E+00  0.00000000000E+00  0.91188000000E+02  0.91188000000E+02 0.  0.
    9900012    2    3    3    0    0  0.12979227853E+02  0.16401851555E+02 -0.30303454636E+02  0.54367075881E+02  0.39999981085E+02 0.  0.
         12    1    3    3    0    0 -0.12979227853E+02 -0.16401851555E+02  0.30303454636E+02  0.36820924119E+02  0.00000000000E+00 0. -1.
         11    1    4    4    0    0 -0.94810725916E+01  0.13532998665E+02 -0.11436247644E+02  0.20095286781E+02  0.51100000000E-03 0.  1.
        -11    1    4    4    0    0  0.16190817524E+02 -0.40092243435E+01 -0.18568825784E+02  0.24960323380E+02  0.51100000000E-03 0. -1.
        -12    1    4    4    0    0  0.62694829203E+01  0.68780772335E+01 -0.29838120785E+00  0.93114657205E+01  0.00000000000E+00 0.  1.
</event>
<event>
 8    1  0.1247338E-006  0.9118800E+02  0.7816164E-02  0.1184000E+00
        -11   -1    0    0    0    0  0.00000000000E+00  0.00000000000E+00  0.45593999997E+02  0.45594000000E+02  0.51100000000E-03 0. -1.
         11   -1    0    0    0    0 -0.00000000000E+00 -0.00000000000E+00 -0.45593999997E+02  0.45594000000E+02  0.51100000000E-03 0.  1.
         23    2    1    2    0    0  0.13322676296E-14  0.35527136788E-14  0.10658141036E-13  0.91188000000E+02  0.91188000000E+02 0.  0.
    9900012    2    3    3    0    0 -0.13727726746E+01 -0.23469222927E+02 -0.28338849558E+02  0.54367091214E+02  0.40000016040E+02 0.  0.
         12    1    3    3    0    0  0.13727726746E+01  0.23469222927E+02  0.28338849558E+02  0.36820908786E+02  0.00000000000E+00 0. -1.
         11    1    4    4    0    0 -0.49666027179E+01 -0.21620276773E+01  0.42241429186E+01  0.68691258463E+01  0.51100000000E-03 0. -1.
        -11    1    4    4    0    0  0.46802367726E+01 -0.11628788794E+02  0.97630102225E+00  0.12573245762E+02  0.51100000000E-03 0.  1.
        -12    1    4    4    0    0 -0.10864067293E+01 -0.96784064562E+01 -0.33539293498E+02  0.34924719605E+02  0.00000000000E+00 0.  1.
</event>
<event>
 8    1  0.1247338E-006  0.9118800E+02  0.7816164E-02  0.1184000E+00
        -11   -1    0    0    0    0  0.00000000000E+00  0.00000000000E+00  0.45593999997E+02  0.45594000000E+02  0.51100000000E-03 0.  1.
         11   -1    0    0    0    0 -0.00000000000E+00 -0.00000000000E+00 -0.45593999997E+02  0.45594000000E+02  0.51100000000E-03 0. -1.
         23    2    1    2    0    0 -0.53290705182E-14  0.00000000000E+00  0.00000000000E+00  0.91188000000E+02  0.91188000000E+02 0.  0.
    9900012    2    3    3    0    0  0.95270767562E+01  0.28408757562E+02 -0.21399939664E+02  0.54367080466E+02  0.39999991537E+02 0.  0.
         12    1    3    3    0    0 -0.95270767562E+01 -0.28408757562E+02  0.21399939664E+02  0.36820919534E+02  0.00000000000E+00 0. -1.
         11    1    4    4    0    0  0.29359648009E+01  0.16449736288E+01 -0.40423657991E+01  0.52599001005E+01  0.51100000000E-03 0. -1.
        -11    1    4    4    0    0 -0.12132189086E+02 -0.10061930866E+01 -0.23154997300E+01  0.12392093278E+02  0.51100000000E-03 0.  1.
        -12    1    4    4    0    0  0.18723301041E+02  0.27769977020E+02 -0.15042074135E+02  0.36715087087E+02  0.00000000000E+00 0.  1.
</event>
<event>
 8    1  0.1247338E-006  0.9118800E+02  0.7816164E-02  0.1184000E+00
        -11   -1    0    0    0    0  0.00000000000E+00  0.00000000000E+00  0.45593999997E+02  0.45594000000E+02  0.51100000000E-03 0. -1.
         11   -1    0    0    0    0 -0.00000000000E+00 -0.00000000000E+00 -0.45593999997E+02  0.45594000000E+02  0.51100000000E-03 0.  1.
         23    2    1    2    0    0 -0.15543122345E-14  0.00000000000E+00 -0.71054273576E-14  0.91188000000E+02  0.91188000000E+02 0.  0.
    9900012    2    3    3    0    0 -0.15267381433E+01  0.11227497966E+02 -0.35034114315E+02  0.54367125407E+02  0.40000093990E+02 0.  0.
         12    1    3    3    0    0  0.15267381433E+01 -0.11227497966E+02  0.35034114315E+02  0.36820874593E+02  0.00000000000E+00 0. -1.
         11    1    4    4    0    0 -0.88145719356E+01 -0.35109916111E+01 -0.17443219568E+02  0.19856728070E+02  0.51100000000E-03 0.  1.
        -11    1    4    4    0    0 -0.73778371672E+01  0.10708357276E+01 -0.11228143399E+02  0.13477773365E+02  0.51100000000E-03 0. -1.
         12    1    4    4    0    0  0.14665670960E+02  0.13667653849E+02 -0.63627513488E+01  0.21032623972E+02  0.00000000000E+00 0. -1.
</event>
<event>
 8    1  0.1247338E-006  0.9118800E+02  0.7816164E-02  0.1184000E+00
        -11   -1    0    0    0    0  0.00000000000E+00  0.00000000000E+00  0.45593999997E+02  0.45594000000E+02  0.51100000000E-03 0. -1.
         11   -1    0    0    0    0 -0.00000000000E+00 -0.00000000000E+00 -0.45593999997E+02  0.45594000000E+02  0.51100000000E-03 0.  1.
         23    2    1    2    0    0 -0.35527136788E-14  0.00000000000E+00 -0.17763568394E-14  0.91188000000E+02  0.91188000000E+02 0.  0.
    9900012    2    3    3    0    0 -0.19009782729E+02  0.28048003032E+02  0.14412454869E+02  0.54367066160E+02  0.39999958926E+02 0.  0.
         12    1    3    3    0    0  0.19009782729E+02 -0.28048003032E+02 -0.14412454869E+02  0.36820933840E+02  0.00000000000E+00 0. -1.
         11    1    4    4    0    0 -0.24281053272E+01 -0.42031533477E+01  0.87858167350E+01  0.10037567908E+02  0.51100000000E-03 0. -1.
        -11    1    4    4    0    0 -0.19529100532E+02  0.18122156444E+02  0.11142510230E+02  0.28878259232E+02  0.51100000000E-03 0.  1.
         12    1    4    4    0    0  0.29474231308E+01  0.14128999936E+02 -0.55158720958E+01  0.15451239020E+02  0.00000000000E+00 0. -1.
</event>
<event>
 8    1  0.1247338E-006  0.9118800E+02  0.7816164E-02  0.1184000E+00
        -11   -1    0    0    0    0  0.00000000000E+00  0.00000000000E+00  0.45593999997E+02  0.45594000000E+02  0.51100000000E-03 0.  1.
         11   -1    0    0    0    0 -0.00000000000E+00 -0.00000000000E+00 -0.45593999997E+02  0.45594000000E+02  0.51100000000E-03 0. -1.
         23    2    1    2    0    0  0.00000000000E+00  0.00000000000E+00  0.00000000000E+00  0.91188000000E+02  0.91188000000E+02 0.  0.
    9900012    2    3    3    0    0  0.24376436239E+02 -0.94595924148E+01 -0.25924423985E+02  0.54367213869E+02  0.40000295656E+02 0.  0.
        -12    1    3    3    0    0 -0.24376436239E+02  0.94595924148E+01  0.25924423985E+02  0.36820786131E+02  0.00000000000E+00 0.  1.
         11    1    4    4    0    0  0.20517945934E+02 -0.19505072600E+01 -0.43599011307E+01  0.21066545091E+02  0.51100000000E-03 0. -1.
        -11    1    4    4    0    0  0.12384599165E+01 -0.73715413537E+01  0.33906787108E+01  0.82079295364E+01  0.51100000000E-03 0.  1.
         12    1    4    4    0    0  0.26200303883E+01 -0.13754380112E+00 -0.24955201565E+02  0.25092739242E+02  0.00000000000E+00 0. -1.
</event>
<event>
 8    1  0.1247338E-006  0.9118800E+02  0.7816164E-02  0.1184000E+00
        -11   -1    0    0    0    0  0.00000000000E+00  0.00000000000E+00  0.45593999997E+02  0.45594000000E+02  0.51100000000E-03 0. -1.
         11   -1    0    0    0    0 -0.00000000000E+00 -0.00000000000E+00 -0.45593999997E+02  0.45594000000E+02  0.51100000000E-03 0.  1.
         23    2    1    2    0    0  0.00000000000E+00  0.35527136788E-14  0.00000000000E+00  0.91188000000E+02  0.91188000000E+02 0.  0.
    9900012    2    3    3    0    0  0.20850991045E+02 -0.18350747216E+02  0.24171581791E+02  0.54367094019E+02  0.40000022436E+02 0.  0.
         12    1    3    3    0    0 -0.20850991045E+02  0.18350747216E+02 -0.24171581791E+02  0.36820905981E+02  0.00000000000E+00 0. -1.
         11    1    4    4    0    0  0.31447247662E+01 -0.50496606127E+01  0.16983719589E+02  0.17995418792E+02  0.51100000000E-03 0. -1.
        -11    1    4    4    0    0  0.14273030760E+02 -0.22007343587E+02  0.62588455455E+01  0.26966937658E+02  0.51100000000E-03 0.  1.
         12    1    4    4    0    0  0.34332355193E+01  0.87062569838E+01  0.92901665681E+00  0.94047375693E+01  0.00000000000E+00 0. -1.
</event>
<event>
 8    1  0.1247338E-006  0.9118800E+02  0.7816164E-02  0.1184000E+00
        -11   -1    0    0    0    0  0.00000000000E+00  0.00000000000E+00  0.45593999997E+02  0.45594000000E+02  0.51100000000E-03 0.  1.
         11   -1    0    0    0    0 -0.00000000000E+00 -0.00000000000E+00 -0.45593999997E+02  0.45594000000E+02  0.51100000000E-03 0. -1.
         23    2    1    2    0    0  0.35527136788E-14  0.00000000000E+00  0.17763568394E-14  0.91188000000E+02  0.91188000000E+02 0.  0.
    9900012    2    3    3    0    0  0.19155337915E+02  0.28495048842E+02  0.13299583117E+02  0.54367167714E+02  0.40000190438E+02 0.  0.
        -12    1    3    3    0    0 -0.19155337915E+02 -0.28495048842E+02 -0.13299583117E+02  0.36820832286E+02  0.00000000000E+00 0.  1.
         11    1    4    4    0    0  0.98261646957E+01  0.27809755518E+02  0.17895165387E+02  0.34498883446E+02  0.51100000000E-03 0. -1.
        -11    1    4    4    0    0  0.23331392481E+01  0.42833168361E+01  0.53156476558E+01  0.72143227077E+01  0.51100000000E-03 0.  1.
         12    1    4    4    0    0  0.69960339714E+01 -0.35980235121E+01 -0.99112299260E+01  0.12653961560E+02  0.00000000000E+00 0. -1.
</event>
<event>
 8    1  0.1247338E-006  0.9118800E+02  0.7816164E-02  0.1184000E+00
        -11   -1    0    0    0    0  0.00000000000E+00  0.00000000000E+00  0.45593999997E+02  0.45594000000E+02  0.51100000000E-03 0. -1.
         11   -1    0    0    0    0 -0.00000000000E+00 -0.00000000000E+00 -0.45593999997E+02  0.45594000000E+02  0.51100000000E-03 0.  1.
         23    2    1    2    0    0 -0.71054273576E-14 -0.35527136788E-14  0.17763568394E-14  0.91188000000E+02  0.91188000000E+02 0.  0.
    9900012    2    3    3    0    0 -0.21502511299E+02 -0.28685743335E+02  0.83993762810E+01  0.54367090387E+02  0.40000014155E+02 0.  0.
        -12    1    3    3    0    0  0.21502511299E+02  0.28685743335E+02 -0.83993762810E+01  0.36820909613E+02  0.00000000000E+00 0.  1.
         11    1    4    4    0    0 -0.16202732836E+02 -0.19867257601E+02  0.20031527891E+02  0.32534575237E+02  0.51100000000E-03 0. -1.
        -11    1    4    4    0    0 -0.96896215675E+01 -0.50507013629E+01 -0.28095261021E+01  0.11282366222E+02  0.51100000000E-03 0.  1.
        -12    1    4    4    0    0  0.43898431053E+01 -0.37677843716E+01 -0.88226255077E+01  0.10550148928E+02  0.00000000000E+00 0.  1.
</event>
<event>
 8    1  0.1247338E-006  0.9118800E+02  0.7816164E-02  0.1184000E+00
        -11   -1    0    0    0    0  0.00000000000E+00  0.00000000000E+00  0.45593999997E+02  0.45594000000E+02  0.51100000000E-03 0. -1.
         11   -1    0    0    0    0 -0.00000000000E+00 -0.00000000000E+00 -0.45593999997E+02  0.45594000000E+02  0.51100000000E-03 0.  1.
         23    2    1    2    0    0  0.88817841970E-15  0.00000000000E+00  0.00000000000E+00  0.91188000000E+02  0.91188000000E+02 0.  0.
    9900012    2    3    3    0    0 -0.56249507008E+01 -0.46811598893E+01 -0.36086355866E+02  0.54367103651E+02  0.40000044392E+02 0.  0.
         12    1    3    3    0    0  0.56249507008E+01  0.46811598893E+01  0.36086355866E+02  0.36820896349E+02  0.00000000000E+00 0. -1.
         11    1    4    4    0    0  0.17114456719E+00  0.29403004677E+01  0.25415523430E+01  0.38902629572E+01  0.51100000000E-03 0. -1.
        -11    1    4    4    0    0 -0.15714719008E+02 -0.23359083700E+00 -0.33660554803E+02  0.37148888383E+02  0.51100000000E-03 0.  1.
        -12    1    4    4    0    0  0.99186237398E+01 -0.73878695200E+01 -0.49673534060E+01  0.13327952311E+02  0.00000000000E+00 0.  1.
</event>
<event>
 8    1  0.1247338E-006  0.9118800E+02  0.7816164E-02  0.1184000E+00
        -11   -1    0    0    0    0  0.00000000000E+00  0.00000000000E+00  0.45593999997E+02  0.45594000000E+02  0.51100000000E-03 0.  1.
         11   -1    0    0    0    0 -0.00000000000E+00 -0.00000000000E+00 -0.45593999997E+02  0.45594000000E+02  0.51100000000E-03 0. -1.
         23    2    1    2    0    0 -0.35527136788E-14  0.35527136788E-14 -0.88817841970E-15  0.91188000000E+02  0.91188000000E+02 0.  0.
    9900012    2    3    3    0    0  0.29688735427E+02 -0.20461138797E+02  0.74632629632E+01  0.54367088738E+02  0.40000010396E+02 0.  0.
         12    1    3    3    0    0 -0.29688735427E+02  0.20461138797E+02 -0.74632629632E+01  0.36820911262E+02  0.00000000000E+00 0. -1.
         11    1    4    4    0    0  0.11087852095E+02  0.40995345014E+00 -0.10003072093E+01  0.11140428209E+02  0.51100000000E-03 0. -1.
        -11    1    4    4    0    0  0.11515574060E+02  0.43939700595E+01  0.11442896666E+02  0.16818302625E+02  0.51100000000E-03 0.  1.
         12    1    4    4    0    0  0.70853092718E+01 -0.25265062307E+02 -0.29793264935E+01  0.26408357904E+02  0.00000000000E+00 0. -1.
</event>
<event>
 8    1  0.1247338E-006  0.9118800E+02  0.7816164E-02  0.1184000E+00
        -11   -1    0    0    0    0  0.00000000000E+00  0.00000000000E+00  0.45593999997E+02  0.45594000000E+02  0.51100000000E-03 0. -1.
         11   -1    0    0    0    0 -0.00000000000E+00 -0.00000000000E+00 -0.45593999997E+02  0.45594000000E+02  0.51100000000E-03 0.  1.
         23    2    1    2    0    0  0.35527136788E-14  0.24286128664E-15  0.00000000000E+00  0.91188000000E+02  0.91188000000E+02 0.  0.
    9900012    2    3    3    0    0 -0.19575900492E+02 -0.48913679994E-01  0.31185892753E+02  0.54367106754E+02  0.40000051467E+02 0.  0.
        -12    1    3    3    0    0  0.19575900492E+02  0.48913679994E-01 -0.31185892753E+02  0.36820893246E+02  0.00000000000E+00 0.  1.
         11    1    4    4    0    0 -0.78528383184E+01 -0.77169807198E+01  0.35766647194E+01  0.11576328946E+02  0.51100000000E-03 0. -1.
        -11    1    4    4    0    0  0.25460122081E+01  0.10379212449E+02  0.26081774194E+02  0.28186329569E+02  0.51100000000E-03 0.  1.
        -12    1    4    4    0    0 -0.14269074382E+02 -0.27111454091E+01  0.15274538402E+01  0.14604448239E+02  0.00000000000E+00 0.  1.
</event>
<event>
 8    1  0.1247338E-006  0.9118800E+02  0.7816164E-02  0.1184000E+00
        -11   -1    0    0    0    0  0.00000000000E+00  0.00000000000E+00  0.45593999997E+02  0.45594000000E+02  0.51100000000E-03 0.  1.
         11   -1    0    0    0    0 -0.00000000000E+00 -0.00000000000E+00 -0.45593999997E+02  0.45594000000E+02  0.51100000000E-03 0. -1.
         23    2    1    2    0    0 -0.35527136788E-14 -0.17763568394E-14 -0.35527136788E-14  0.91188000000E+02  0.91188000000E+02 0.  0.
    9900012    2    3    3    0    0  0.26988970518E+02 -0.14330571514E+02 -0.20542889389E+02  0.54367080484E+02  0.39999991579E+02 0.  0.
        -12    1    3    3    0    0 -0.26988970518E+02  0.14330571514E+02  0.20542889389E+02  0.36820919516E+02  0.00000000000E+00 0.  1.
         11    1    4    4    0    0  0.34028692491E+01 -0.16769435228E+02 -0.98580475619E+01  0.19747774026E+02  0.51100000000E-03 0. -1.
        -11    1    4    4    0    0  0.17273139830E+02  0.64779809990E-01 -0.17808402970E+02  0.24809368646E+02  0.51100000000E-03 0.  1.
        -12    1    4    4    0    0  0.63129614395E+01  0.23740839043E+01  0.71235611422E+01  0.98099378116E+01  0.00000000000E+00 0.  1.
</event>
<event>
 8    1  0.1247338E-006  0.9118800E+02  0.7816164E-02  0.1184000E+00
        -11   -1    0    0    0    0  0.00000000000E+00  0.00000000000E+00  0.45593999997E+02  0.45594000000E+02  0.51100000000E-03 0.  1.
         11   -1    0    0    0    0 -0.00000000000E+00 -0.00000000000E+00 -0.45593999997E+02  0.45594000000E+02  0.51100000000E-03 0. -1.
         23    2    1    2    0    0  0.00000000000E+00  0.35527136788E-14 -0.17763568394E-14  0.91188000000E+02  0.91188000000E+02 0.  0.
    9900012    2    3    3    0    0  0.22163579922E+02  0.26229798017E+02 -0.13287336890E+02  0.54367083382E+02  0.39999998186E+02 0.  0.
        -12    1    3    3    0    0 -0.22163579922E+02 -0.26229798017E+02  0.13287336890E+02  0.36820916618E+02  0.00000000000E+00 0.  1.
         11    1    4    4    0    0  0.68617824869E+01 -0.21915281652E+01 -0.93647583957E+01  0.11814633074E+02  0.51100000000E-03 0. -1.
        -11    1    4    4    0    0 -0.77427514917E+01  0.48854594016E+01  0.11421756733E+01  0.92261844636E+01  0.51100000000E-03 0.  1.
        -12    1    4    4    0    0  0.23044548927E+02  0.23535866781E+02 -0.50647541672E+01  0.33326265845E+02  0.00000000000E+00 0.  1.
</event>
<event>
 8    1  0.1247338E-006  0.9118800E+02  0.7816164E-02  0.1184000E+00
        -11   -1    0    0    0    0  0.00000000000E+00  0.00000000000E+00  0.45593999997E+02  0.45594000000E+02  0.51100000000E-03 0.  1.
         11   -1    0    0    0    0 -0.00000000000E+00 -0.00000000000E+00 -0.45593999997E+02  0.45594000000E+02  0.51100000000E-03 0. -1.
         23    2    1    2    0    0  0.00000000000E+00 -0.35527136788E-14  0.00000000000E+00  0.91188000000E+02  0.91188000000E+02 0.  0.
    9900012    2    3    3    0    0  0.65484620613E+01  0.18736284904E+02  0.31013689144E+02  0.54367086898E+02  0.40000006200E+02 0.  0.
         12    1    3    3    0    0 -0.65484620613E+01 -0.18736284904E+02 -0.31013689144E+02  0.36820913102E+02  0.00000000000E+00 0. -1.
         11    1    4    4    0    0  0.14499066543E+01 -0.44030311081E+01 -0.47699480517E+01  0.66514146557E+01  0.51100000000E-03 0. -1.
        -11    1    4    4    0    0  0.70790942653E+00 -0.21873109885E+00  0.18041272715E+02  0.18056480845E+02  0.51100000000E-03 0.  1.
        -12    1    4    4    0    0  0.43906459805E+01  0.23358047111E+02  0.17742364480E+02  0.29659191397E+02  0.00000000000E+00 0.  1.
</event>
<event>
 8    1  0.1247338E-006  0.9118800E+02  0.7816164E-02  0.1184000E+00
        -11   -1    0    0    0    0  0.00000000000E+00  0.00000000000E+00  0.45593999997E+02  0.45594000000E+02  0.51100000000E-03 0.  1.
         11   -1    0    0    0    0 -0.00000000000E+00 -0.00000000000E+00 -0.45593999997E+02  0.45594000000E+02  0.51100000000E-03 0. -1.
         23    2    1    2    0    0  0.88817841970E-15  0.00000000000E+00 -0.35527136788E-14  0.91188000000E+02  0.91188000000E+02 0.  0.
    9900012    2    3    3    0    0  0.24450880271E+01  0.24433144802E+02 -0.27437583515E+02  0.54367109061E+02  0.40000056726E+02 0.  0.
        -12    1    3    3    0    0 -0.24450880271E+01 -0.24433144802E+02  0.27437583515E+02  0.36820890939E+02  0.00000000000E+00 0.  1.
         11    1    4    4    0    0  0.28332233846E+01  0.28444187333E+01  0.53123177600E+01  0.66587230699E+01  0.51100000000E-03 0. -1.
        -11    1    4    4    0    0 -0.10369565460E+02  0.17857707792E+02 -0.10788836389E+02  0.23298596660E+02  0.51100000000E-03 0.  1.
         12    1    4    4    0    0  0.99814301023E+01  0.37310182766E+01 -0.21961064886E+02  0.24409789332E+02  0.00000000000E+00 0. -1.
</event>
<event>
 8    1  0.1247338E-006  0.9118800E+02  0.7816164E-02  0.1184000E+00
        -11   -1    0    0    0    0  0.00000000000E+00  0.00000000000E+00  0.45593999997E+02  0.45594000000E+02  0.51100000000E-03 0.  1.
         11   -1    0    0    0    0 -0.00000000000E+00 -0.00000000000E+00 -0.45593999997E+02  0.45594000000E+02  0.51100000000E-03 0. -1.
         23    2    1    2    0    0  0.00000000000E+00  0.00000000000E+00  0.00000000000E+00  0.91188000000E+02  0.91188000000E+02 0.  0.
    9900012    2    3    3    0    0  0.15178971312E+02  0.19416076909E+02  0.27356808335E+02  0.54367079657E+02  0.39999989694E+02 0.  0.
         12    1    3    3    0    0 -0.15178971312E+02 -0.19416076909E+02 -0.27356808335E+02  0.36820920343E+02  0.00000000000E+00 0. -1.
         11    1    4    4    0    0  0.10250474890E+01  0.21881227442E+01 -0.66888810264E+01  0.71119429936E+01  0.51100000000E-03 0. -1.
        -11    1    4    4    0    0  0.19392856733E+02  0.60856147707E+01  0.19104656705E+02  0.27894542611E+02  0.51100000000E-03 0.  1.
         12    1    4    4    0    0 -0.52389329100E+01  0.11142339394E+02  0.14941032656E+02  0.19360594052E+02  0.00000000000E+00 0. -1.
</event>
<event>
 8    1  0.1247338E-006  0.9118800E+02  0.7816164E-02  0.1184000E+00
        -11   -1    0    0    0    0  0.00000000000E+00  0.00000000000E+00  0.45593999997E+02  0.45594000000E+02  0.51100000000E-03 0.  1.
         11   -1    0    0    0    0 -0.00000000000E+00 -0.00000000000E+00 -0.45593999997E+02  0.45594000000E+02  0.51100000000E-03 0. -1.
         23    2    1    2    0    0  0.00000000000E+00  0.00000000000E+00  0.00000000000E+00  0.91188000000E+02  0.91188000000E+02 0.  0.
    9900012    2    3    3    0    0  0.19154874526E+02 -0.23338140885E+02 -0.21076069208E+02  0.54367099260E+02  0.40000034382E+02 0.  0.
        -12    1    3    3    0    0 -0.19154874526E+02  0.23338140885E+02  0.21076069208E+02  0.36820900740E+02  0.00000000000E+00 0.  1.
         11    1    4    4    0    0 -0.36494149951E+01 -0.10628253958E+02 -0.28538775691E+01  0.11594077343E+02  0.51100000000E-03 0. -1.
        -11    1    4    4    0    0 -0.45823636433E+01  0.39675747679E+01 -0.57896628283E+01  0.83821179916E+01  0.51100000000E-03 0.  1.
         12    1    4    4    0    0  0.27386653164E+02 -0.16677461695E+02 -0.12432528811E+02  0.34390903925E+02  0.00000000000E+00 0. -1.
</event>
<event>
 8    1  0.1247338E-006  0.9118800E+02  0.7816164E-02  0.1184000E+00
        -11   -1    0    0    0    0  0.00000000000E+00  0.00000000000E+00  0.45593999997E+02  0.45594000000E+02  0.51100000000E-03 0.  1.
         11   -1    0    0    0    0 -0.00000000000E+00 -0.00000000000E+00 -0.45593999997E+02  0.45594000000E+02  0.51100000000E-03 0. -1.
         23    2    1    2    0    0  0.00000000000E+00  0.00000000000E+00  0.35527136788E-14  0.91188000000E+02  0.91188000000E+02 0.  0.
    9900012    2    3    3    0    0  0.34468209751E+01  0.22649661178E+02  0.28825203683E+02  0.54367080760E+02  0.39999992209E+02 0.  0.
         12    1    3    3    0    0 -0.34468209751E+01 -0.22649661178E+02 -0.28825203683E+02  0.36820919240E+02  0.00000000000E+00 0. -1.
         11    1    4    4    0    0 -0.28133684804E+01 -0.48610362170E+01  0.67044456457E+00  0.56563425891E+01  0.51100000000E-03 0. -1.
        -11    1    4    4    0    0  0.70802169592E+01 -0.34881271384E+01  0.19959909101E+01  0.81412826445E+01  0.51100000000E-03 0.  1.
        -12    1    4    4    0    0 -0.82002750370E+00  0.30998824533E+02  0.26158768208E+02  0.40569455527E+02  0.00000000000E+00 0.  1.
</event>
<event>
 8    1  0.1247338E-006  0.9118800E+02  0.7816164E-02  0.1184000E+00
        -11   -1    0    0    0    0  0.00000000000E+00  0.00000000000E+00  0.45593999997E+02  0.45594000000E+02  0.51100000000E-03 0.  1.
         11   -1    0    0    0    0 -0.00000000000E+00 -0.00000000000E+00 -0.45593999997E+02  0.45594000000E+02  0.51100000000E-03 0. -1.
         23    2    1    2    0    0 -0.35527136788E-14  0.00000000000E+00 -0.35527136788E-14  0.91188000000E+02  0.91188000000E+02 0.  0.
    9900012    2    3    3    0    0 -0.69097072465E+01  0.26159894680E+02 -0.24973806659E+02  0.54367147716E+02  0.40000144847E+02 0.  0.
        -12    1    3    3    0    0  0.69097072465E+01 -0.26159894680E+02  0.24973806659E+02  0.36820852284E+02  0.00000000000E+00 0.  1.
         11    1    4    4    0    0  0.73352636369E+01  0.15214339088E+02 -0.21005532655E+02  0.26953934942E+02  0.51100000000E-03 0. -1.
        -11    1    4    4    0    0  0.39754567242E+01 -0.21148795562E+01  0.57525160282E+00  0.45395909916E+01  0.51100000000E-03 0.  1.
         12    1    4    4    0    0 -0.18220427608E+02  0.13060435149E+02 -0.45435256063E+01  0.22873621782E+02  0.00000000000E+00 0. -1.
</event>
<event>
 8    1  0.1247338E-006  0.9118800E+02  0.7816164E-02  0.1184000E+00
        -11   -1    0    0    0    0  0.00000000000E+00  0.00000000000E+00  0.45593999997E+02  0.45594000000E+02  0.51100000000E-03 0.  1.
         11   -1    0    0    0    0 -0.00000000000E+00 -0.00000000000E+00 -0.45593999997E+02  0.45594000000E+02  0.51100000000E-03 0. -1.
         23    2    1    2    0    0  0.00000000000E+00 -0.35527136788E-14  0.35527136788E-14  0.91188000000E+02  0.91188000000E+02 0.  0.
    9900012    2    3    3    0    0 -0.24600391983E+02 -0.18525736260E+02 -0.20184093104E+02  0.54367084692E+02  0.40000001173E+02 0.  0.
        -12    1    3    3    0    0  0.24600391983E+02  0.18525736260E+02  0.20184093104E+02  0.36820915308E+02  0.00000000000E+00 0.  1.
         11    1    4    4    0    0 -0.12410986267E+01 -0.11632396805E+01 -0.11773396099E+02  0.11895642409E+02  0.51100000000E-03 0. -1.
        -11    1    4    4    0    0 -0.13563311950E+02  0.70783003741E+01 -0.30186539865E+01  0.15594166839E+02  0.51100000000E-03 0.  1.
         12    1    4    4    0    0 -0.97959814061E+01 -0.24440796953E+02 -0.53920430184E+01  0.26877275445E+02  0.00000000000E+00 0. -1.
</event>
<event>
 8    1  0.1247338E-006  0.9118800E+02  0.7816164E-02  0.1184000E+00
        -11   -1    0    0    0    0  0.00000000000E+00  0.00000000000E+00  0.45593999997E+02  0.45594000000E+02  0.51100000000E-03 0. -1.
         11   -1    0    0    0    0 -0.00000000000E+00 -0.00000000000E+00 -0.45593999997E+02  0.45594000000E+02  0.51100000000E-03 0.  1.
         23    2    1    2    0    0 -0.22204460493E-15 -0.17763568394E-14  0.00000000000E+00  0.91188000000E+02  0.91188000000E+02 0.  0.
    9900012    2    3    3    0    0  0.10926891944E+01  0.13317284687E+02  0.34310877081E+02  0.54367077589E+02  0.39999984981E+02 0.  0.
        -12    1    3    3    0    0 -0.10926891944E+01 -0.13317284687E+02 -0.34310877081E+02  0.36820922411E+02  0.00000000000E+00 0.  1.
         11    1    4    4    0    0 -0.98046717880E+01 -0.28505481154E+01  0.18891936624E+02  0.21474694016E+02  0.51100000000E-03 0.  1.
        -11    1    4    4    0    0  0.15345108366E+02  0.18252098124E+02  0.10902781481E+02  0.26219879499E+02  0.51100000000E-03 0. -1.
        -12    1    4    4    0    0 -0.44477473835E+01 -0.20842653213E+01  0.45161589766E+01  0.66725040741E+01  0.00000000000E+00 0.  1.
</event>
<event>
 8    1  0.1247338E-006  0.9118800E+02  0.7816164E-02  0.1184000E+00
        -11   -1    0    0    0    0  0.00000000000E+00  0.00000000000E+00  0.45593999997E+02  0.45594000000E+02  0.51100000000E-03 0.  1.
         11   -1    0    0    0    0 -0.00000000000E+00 -0.00000000000E+00 -0.45593999997E+02  0.45594000000E+02  0.51100000000E-03 0. -1.
         23    2    1    2    0    0  0.00000000000E+00  0.00000000000E+00 -0.35527136788E-14  0.91188000000E+02  0.91188000000E+02 0.  0.
    9900012    2    3    3    0    0 -0.12190887573E+02  0.29730605499E+02  0.17979259396E+02  0.54367076443E+02  0.39999982367E+02 0.  0.
         12    1    3    3    0    0  0.12190887573E+02 -0.29730605499E+02 -0.17979259396E+02  0.36820923557E+02  0.00000000000E+00 0. -1.
         11    1    4    4    0    0 -0.12187598332E+02  0.10954751334E+02 -0.71802134214E+01  0.17891327366E+02  0.51100000000E-03 0. -1.
        -11    1    4    4    0    0 -0.14686955173E+01  0.21924318555E+02  0.17586902190E+02  0.28144838595E+02  0.51100000000E-03 0.  1.
         12    1    4    4    0    0  0.14654062758E+01 -0.31484643893E+01  0.75725706274E+01  0.83309104827E+01  0.00000000000E+00 0. -1.
</event>
<event>
 8    1  0.1247338E-006  0.9118800E+02  0.7816164E-02  0.1184000E+00
        -11   -1    0    0    0    0  0.00000000000E+00  0.00000000000E+00  0.45593999997E+02  0.45594000000E+02  0.51100000000E-03 0. -1.
         11   -1    0    0    0    0 -0.00000000000E+00 -0.00000000000E+00 -0.45593999997E+02  0.45594000000E+02  0.51100000000E-03 0.  1.
         23    2    1    2    0    0 -0.35527136788E-14  0.00000000000E+00  0.00000000000E+00  0.91188000000E+02  0.91188000000E+02 0.  0.
    9900012    2    3    3    0    0  0.26291897533E+02 -0.18240732982E+02  0.18215160448E+02  0.54367078152E+02  0.39999986263E+02 0.  0.
        -12    1    3    3    0    0 -0.26291897533E+02  0.18240732982E+02 -0.18215160448E+02  0.36820921848E+02  0.00000000000E+00 0.  1.
         11    1    4    4    0    0 -0.14538821908E+01  0.18019513287E+01  0.61162331816E+01  0.65398096768E+01  0.51100000000E-03 0. -1.
        -11    1    4    4    0    0  0.16430945226E+02 -0.20682991160E+02 -0.54168877835E+01  0.26964880083E+02  0.51100000000E-03 0.  1.
        -12    1    4    4    0    0  0.11314834497E+02  0.64030684915E+00  0.17515815050E+02  0.20862388392E+02  0.00000000000E+00 0.  1.
</event>
<event>
 8    1  0.1247338E-006  0.9118800E+02  0.7816164E-02  0.1184000E+00
        -11   -1    0    0    0    0  0.00000000000E+00  0.00000000000E+00  0.45593999997E+02  0.45594000000E+02  0.51100000000E-03 0. -1.
         11   -1    0    0    0    0 -0.00000000000E+00 -0.00000000000E+00 -0.45593999997E+02  0.45594000000E+02  0.51100000000E-03 0.  1.
         23    2    1    2    0    0  0.35527136788E-14  0.00000000000E+00  0.88817841970E-15  0.91188000000E+02  0.91188000000E+02 0.  0.
    9900012    2    3    3    0    0  0.31955974899E+02 -0.16530783719E+02  0.78312921789E+01  0.54367078239E+02  0.39999986462E+02 0.  0.
        -12    1    3    3    0    0 -0.31955974899E+02  0.16530783719E+02 -0.78312921789E+01  0.36820921761E+02  0.00000000000E+00 0.  1.
         11    1    4    4    0    0  0.56563570394E+01  0.43910800904E+01  0.45396809619E+01  0.84784823414E+01  0.51100000000E-03 0. -1.
        -11    1    4    4    0    0 -0.53674141254E+01  0.27099484608E+01 -0.11672470592E+01  0.61249833479E+01  0.51100000000E-03 0.  1.
         12    1    4    4    0    0  0.31667031985E+02 -0.23631812270E+02  0.44588582761E+01  0.39763612550E+02  0.00000000000E+00 0. -1.
</event>
<event>
 8    1  0.1247338E-006  0.9118800E+02  0.7816164E-02  0.1184000E+00
        -11   -1    0    0    0    0  0.00000000000E+00  0.00000000000E+00  0.45593999997E+02  0.45594000000E+02  0.51100000000E-03 0.  1.
         11   -1    0    0    0    0 -0.00000000000E+00 -0.00000000000E+00 -0.45593999997E+02  0.45594000000E+02  0.51100000000E-03 0. -1.
         23    2    1    2    0    0  0.00000000000E+00  0.35527136788E-14  0.00000000000E+00  0.91188000000E+02  0.91188000000E+02 0.  0.
    9900012    2    3    3    0    0  0.26771210178E+02 -0.23898797486E+02  0.82419440910E+01  0.54367083959E+02  0.39999999502E+02 0.  0.
         12    1    3    3    0    0 -0.26771210178E+02  0.23898797486E+02 -0.82419440910E+01  0.36820916041E+02  0.00000000000E+00 0. -1.
         11    1    4    4    0    0  0.11359649563E+02  0.29302002370E+01 -0.41390922414E+01  0.12440249052E+02  0.51100000000E-03 0. -1.
        -11    1    4    4    0    0  0.55236826424E+01  0.26008115351E+01  0.87489556607E+01  0.10668622966E+02  0.51100000000E-03 0.  1.
        -12    1    4    4    0    0  0.98878779717E+01 -0.29429809258E+02  0.36320806717E+01  0.31258211941E+02  0.00000000000E+00 0.  1.
</event>
<event>
 8    1  0.1247338E-006  0.9118800E+02  0.7816164E-02  0.1184000E+00
        -11   -1    0    0    0    0  0.00000000000E+00  0.00000000000E+00  0.45593999997E+02  0.45594000000E+02  0.51100000000E-03 0. -1.
         11   -1    0    0    0    0 -0.00000000000E+00 -0.00000000000E+00 -0.45593999997E+02  0.45594000000E+02  0.51100000000E-03 0.  1.
         23    2    1    2    0    0  0.00000000000E+00  0.00000000000E+00  0.35527136788E-14  0.91188000000E+02  0.91188000000E+02 0.  0.
    9900012    2    3    3    0    0 -0.29435113768E+02 -0.17620331363E+02  0.13374697772E+02  0.54367020377E+02  0.39999854554E+02 0.  0.
         12    1    3    3    0    0  0.29435113768E+02  0.17620331363E+02 -0.13374697772E+02  0.36820979623E+02  0.00000000000E+00 0. -1.
         11    1    4    4    0    0 -0.24044165871E+01 -0.15492153221E+01 -0.95528215773E+00  0.30156013497E+01  0.51100000000E-03 0. -1.
        -11    1    4    4    0    0 -0.23020907474E+02 -0.15163197509E+02 -0.79545945583E+01  0.28690770545E+02  0.51100000000E-03 0.  1.
         12    1    4    4    0    0 -0.40097897072E+01 -0.90791853145E+00  0.22284574488E+02  0.22660648483E+02  0.00000000000E+00 0. -1.
</event>
<event>
 8    1  0.1247338E-006  0.9118800E+02  0.7816164E-02  0.1184000E+00
        -11   -1    0    0    0    0  0.00000000000E+00  0.00000000000E+00  0.45593999997E+02  0.45594000000E+02  0.51100000000E-03 0.  1.
         11   -1    0    0    0    0 -0.00000000000E+00 -0.00000000000E+00 -0.45593999997E+02  0.45594000000E+02  0.51100000000E-03 0. -1.
         23    2    1    2    0    0  0.00000000000E+00 -0.17763568394E-14  0.00000000000E+00  0.91188000000E+02  0.91188000000E+02 0.  0.
    9900012    2    3    3    0    0 -0.25089066027E+02  0.14942560264E+02 -0.22428526284E+02  0.54367080232E+02  0.39999991004E+02 0.  0.
        -12    1    3    3    0    0  0.25089066027E+02 -0.14942560264E+02  0.22428526284E+02  0.36820919768E+02  0.00000000000E+00 0.  1.
         11    1    4    4    0    0 -0.57925010428E+01 -0.10841424125E+02  0.35727795566E+01  0.12800558559E+02  0.51100000000E-03 0. -1.
        -11    1    4    4    0    0 -0.63434936877E+01  0.89663807405E+01 -0.66341623040E+01  0.12831523896E+02  0.51100000000E-03 0.  1.
         12    1    4    4    0    0 -0.12953071296E+02  0.16817603649E+02 -0.19367143536E+02  0.28734997777E+02  0.00000000000E+00 0. -1.
</event>
<event>
 8    1  0.1247338E-006  0.9118800E+02  0.7816164E-02  0.1184000E+00
        -11   -1    0    0    0    0  0.00000000000E+00  0.00000000000E+00  0.45593999997E+02  0.45594000000E+02  0.51100000000E-03 0. -1.
         11   -1    0    0    0    0 -0.00000000000E+00 -0.00000000000E+00 -0.45593999997E+02  0.45594000000E+02  0.51100000000E-03 0.  1.
         23    2    1    2    0    0  0.17763568394E-14  0.00000000000E+00  0.00000000000E+00  0.91188000000E+02  0.91188000000E+02 0.  0.
    9900012    2    3    3    0    0  0.14142228082E+02  0.27981204391E+02 -0.19308774605E+02  0.54367093017E+02  0.40000020151E+02 0.  0.
         12    1    3    3    0    0 -0.14142228082E+02 -0.27981204391E+02  0.19308774605E+02  0.36820906983E+02  0.00000000000E+00 0. -1.
         11    1    4    4    0    0 -0.61361058470E+01  0.19056390743E+02 -0.18451959253E+02  0.27226322257E+02  0.51100000000E-03 0.  1.
        -11    1    4    4    0    0  0.16133715386E+02  0.83777208866E+01 -0.71923280133E+01  0.19550257337E+02  0.51100000000E-03 0. -1.
         12    1    4    4    0    0  0.41446185424E+01  0.54709276131E+00  0.63355126610E+01  0.75905134233E+01  0.00000000000E+00 0. -1.
</event>
<event>
 8    1  0.1247338E-006  0.9118800E+02  0.7816164E-02  0.1184000E+00
        -11   -1    0    0    0    0  0.00000000000E+00  0.00000000000E+00  0.45593999997E+02  0.45594000000E+02  0.51100000000E-03 0.  1.
         11   -1    0    0    0    0 -0.00000000000E+00 -0.00000000000E+00 -0.45593999997E+02  0.45594000000E+02  0.51100000000E-03 0. -1.
         23    2    1    2    0    0 -0.88817841970E-15 -0.35527136788E-14  0.00000000000E+00  0.91188000000E+02  0.91188000000E+02 0.  0.
    9900012    2    3    3    0    0 -0.71009396105E+01 -0.22680934298E+02 -0.28123491258E+02  0.54367097180E+02  0.40000029641E+02 0.  0.
        -12    1    3    3    0    0  0.71009396105E+01  0.22680934298E+02  0.28123491258E+02  0.36820902820E+02  0.00000000000E+00 0.  1.
         11    1    4    4    0    0  0.49734751264E+01 -0.89633087337E+01 -0.75755858927E+01  0.12746209639E+02  0.51100000000E-03 0. -1.
        -11    1    4    4    0    0 -0.56158113819E+00 -0.21055158074E+01  0.82344246575E+01  0.85178823595E+01  0.51100000000E-03 0.  1.
         12    1    4    4    0    0 -0.11512833599E+02 -0.11612109757E+02 -0.28782330023E+02  0.33103005181E+02  0.00000000000E+00 0. -1.
</event>
<event>
 8    1  0.1247338E-006  0.9118800E+02  0.7816164E-02  0.1184000E+00
        -11   -1    0    0    0    0  0.00000000000E+00  0.00000000000E+00  0.45593999997E+02  0.45594000000E+02  0.51100000000E-03 0.  1.
         11   -1    0    0    0    0 -0.00000000000E+00 -0.00000000000E+00 -0.45593999997E+02  0.45594000000E+02  0.51100000000E-03 0. -1.
         23    2    1    2    0    0  0.00000000000E+00 -0.88817841970E-15  0.00000000000E+00  0.91188000000E+02  0.91188000000E+02 0.  0.
    9900012    2    3    3    0    0 -0.29946496242E+02  0.51667665067E+01 -0.20791607627E+02  0.54367094783E+02  0.40000024176E+02 0.  0.
        -12    1    3    3    0    0  0.29946496242E+02 -0.51667665067E+01  0.20791607627E+02  0.36820905217E+02  0.00000000000E+00 0.  1.
         11    1    4    4    0    0 -0.12754626682E+02 -0.46652686101E+01  0.96905605557E+01  0.16683890348E+02  0.51100000000E-03 0.  1.
        -11    1    4    4    0    0 -0.62494842815E+01  0.70926680020E+01 -0.20684169846E+02  0.22741962881E+02  0.51100000000E-03 0. -1.
         12    1    4    4    0    0 -0.10942385279E+02  0.27393671147E+01 -0.97979983360E+01  0.14941241554E+02  0.00000000000E+00 0. -1.
</event>
<event>
 8    1  0.1247338E-006  0.9118800E+02  0.7816164E-02  0.1184000E+00
        -11   -1    0    0    0    0  0.00000000000E+00  0.00000000000E+00  0.45593999997E+02  0.45594000000E+02  0.51100000000E-03 0.  1.
         11   -1    0    0    0    0 -0.00000000000E+00 -0.00000000000E+00 -0.45593999997E+02  0.45594000000E+02  0.51100000000E-03 0. -1.
         23    2    1    2    0    0  0.00000000000E+00 -0.44408920985E-15  0.00000000000E+00  0.91188000000E+02  0.91188000000E+02 0.  0.
    9900012    2    3    3    0    0  0.31242468680E+02 -0.26970402901E+01  0.19298029123E+02  0.54367084699E+02  0.40000001188E+02 0.  0.
        -12    1    3    3    0    0 -0.31242468680E+02  0.26970402901E+01 -0.19298029123E+02  0.36820915301E+02  0.00000000000E+00 0.  1.
         11    1    4    4    0    0  0.53237768824E+01  0.94662982645E+01  0.10248496142E+01  0.10908882625E+02  0.51100000000E-03 0. -1.
        -11    1    4    4    0    0  0.14040539052E+02 -0.88868429528E+01 -0.48043114320E+01  0.17297228770E+02  0.51100000000E-03 0.  1.
        -12    1    4    4    0    0  0.11878152746E+02 -0.32764956017E+01  0.23077490941E+02  0.26160973304E+02  0.00000000000E+00 0.  1.
</event>
<event>
 8    1  0.1247338E-006  0.9118800E+02  0.7816164E-02  0.1184000E+00
        -11   -1    0    0    0    0  0.00000000000E+00  0.00000000000E+00  0.45593999997E+02  0.45594000000E+02  0.51100000000E-03 0. -1.
         11   -1    0    0    0    0 -0.00000000000E+00 -0.00000000000E+00 -0.45593999997E+02  0.45594000000E+02  0.51100000000E-03 0.  1.
         23    2    1    2    0    0  0.00000000000E+00  0.00000000000E+00  0.88817841970E-15  0.91188000000E+02  0.91188000000E+02 0.  0.
    9900012    2    3    3    0    0 -0.34813208659E+02 -0.11227903012E+02  0.42135497747E+01  0.54367091472E+02  0.40000016628E+02 0.  0.
        -12    1    3    3    0    0  0.34813208659E+02  0.11227903012E+02 -0.42135497747E+01  0.36820908528E+02  0.00000000000E+00 0.  1.
         11    1    4    4    0    0 -0.14260963940E+02  0.96238298008E+01 -0.58432165728E+01  0.18169655272E+02  0.51100000000E-03 0.  1.
        -11    1    4    4    0    0 -0.12626048298E+02 -0.80602156605E+01  0.14146325426E+02  0.20603463190E+02  0.51100000000E-03 0. -1.
        -12    1    4    4    0    0 -0.79261964209E+01 -0.12791517152E+02 -0.40895590785E+01  0.15593973009E+02  0.00000000000E+00 0.  1.
</event>
<event>
 8    1  0.1247338E-006  0.9118800E+02  0.7816164E-02  0.1184000E+00
        -11   -1    0    0    0    0  0.00000000000E+00  0.00000000000E+00  0.45593999997E+02  0.45594000000E+02  0.51100000000E-03 0. -1.
         11   -1    0    0    0    0 -0.00000000000E+00 -0.00000000000E+00 -0.45593999997E+02  0.45594000000E+02  0.51100000000E-03 0.  1.
         23    2    1    2    0    0 -0.35527136788E-14 -0.35527136788E-14 -0.88817841970E-15  0.91188000000E+02  0.91188000000E+02 0.  0.
    9900012    2    3    3    0    0  0.19143442807E+02  0.30850969080E+02 -0.61256466358E+01  0.54367119479E+02  0.40000080475E+02 0.  0.
        -12    1    3    3    0    0 -0.19143442807E+02 -0.30850969080E+02  0.61256466358E+01  0.36820880521E+02  0.00000000000E+00 0.  1.
         11    1    4    4    0    0 -0.70140353896E+01  0.85622487736E+01  0.10596713176E+02  0.15323156558E+02  0.51100000000E-03 0. -1.
        -11    1    4    4    0    0  0.63155891537E+01  0.10302925851E+02 -0.51740287675E+01  0.13145627463E+02  0.51100000000E-03 0.  1.
         12    1    4    4    0    0  0.19841889043E+02  0.11985794455E+02 -0.11548331045E+02  0.25898335457E+02  0.00000000000E+00 0. -1.
</event>
<event>
 8    1  0.1247338E-006  0.9118800E+02  0.7816164E-02  0.1184000E+00
        -11   -1    0    0    0    0  0.00000000000E+00  0.00000000000E+00  0.45593999997E+02  0.45594000000E+02  0.51100000000E-03 0.  1.
         11   -1    0    0    0    0 -0.00000000000E+00 -0.00000000000E+00 -0.45593999997E+02  0.45594000000E+02  0.51100000000E-03 0. -1.
         23    2    1    2    0    0 -0.35527136788E-14  0.00000000000E+00  0.00000000000E+00  0.91188000000E+02  0.91188000000E+02 0.  0.
    9900012    2    3    3    0    0  0.26863591777E+02  0.15277580514E+02  0.20018095088E+02  0.54367066273E+02  0.39999959183E+02 0.  0.
         12    1    3    3    0    0 -0.26863591777E+02 -0.15277580514E+02 -0.20018095088E+02  0.36820933727E+02  0.00000000000E+00 0. -1.
         11    1    4    4    0    0  0.10607588090E+02  0.80949444146E+01  0.24148067872E+02  0.27589458718E+02  0.51100000000E-03 0. -1.
        -11    1    4    4    0    0  0.19436806880E+02  0.60613916731E+01  0.12824751761E+01  0.20400359643E+02  0.51100000000E-03 0.  1.
         12    1    4    4    0    0 -0.31808031933E+01  0.11212444265E+01 -0.54124479596E+01  0.63772479122E+01  0.00000000000E+00 0. -1.
</event>
<event>
 8    1  0.1247338E-006  0.9118800E+02  0.7816164E-02  0.1184000E+00
        -11   -1    0    0    0    0  0.00000000000E+00  0.00000000000E+00  0.45593999997E+02  0.45594000000E+02  0.51100000000E-03 0.  1.
         11   -1    0    0    0    0 -0.00000000000E+00 -0.00000000000E+00 -0.45593999997E+02  0.45594000000E+02  0.51100000000E-03 0. -1.
         23    2    1    2    0    0  0.71054273576E-14  0.00000000000E+00  0.44408920985E-15  0.91188000000E+02  0.91188000000E+02 0.  0.
    9900012    2    3    3    0    0 -0.32149903242E+02  0.17897310089E+02 -0.13598454102E+01  0.54367093352E+02  0.40000020914E+02 0.  0.
         12    1    3    3    0    0  0.32149903242E+02 -0.17897310089E+02  0.13598454102E+01  0.36820906648E+02  0.00000000000E+00 0. -1.
         11    1    4    4    0    0 -0.47586584490E+01  0.44401574467E+01 -0.48473312527E+01  0.81151986371E+01  0.51100000000E-03 0. -1.
        -11    1    4    4    0    0 -0.12106587934E+02  0.24391206541E+02  0.58990648280E+00  0.27236894423E+02  0.51100000000E-03 0.  1.
        -12    1    4    4    0    0 -0.15284656858E+02 -0.10934053898E+02  0.28975793597E+01  0.19015000291E+02  0.00000000000E+00 0.  1.
</event>
<event>
 8    1  0.1247338E-006  0.9118800E+02  0.7816164E-02  0.1184000E+00
        -11   -1    0    0    0    0  0.00000000000E+00  0.00000000000E+00  0.45593999997E+02  0.45594000000E+02  0.51100000000E-03 0. -1.
         11   -1    0    0    0    0 -0.00000000000E+00 -0.00000000000E+00 -0.45593999997E+02  0.45594000000E+02  0.51100000000E-03 0.  1.
         23    2    1    2    0    0  0.35527136788E-14  0.00000000000E+00 -0.35527136788E-14  0.91188000000E+02  0.91188000000E+02 0.  0.
    9900012    2    3    3    0    0  0.18071958867E+02 -0.63858917047E+01  0.31438891110E+02  0.54367093107E+02  0.40000020357E+02 0.  0.
        -12    1    3    3    0    0 -0.18071958867E+02  0.63858917047E+01 -0.31438891110E+02  0.36820906893E+02  0.00000000000E+00 0.  1.
         11    1    4    4    0    0  0.58588323208E+01 -0.13357529000E+01  0.12519929181E+02  0.13887360402E+02  0.51100000000E-03 0. -1.
        -11    1    4    4    0    0 -0.36484781587E+01 -0.13502075383E+02 -0.53197316262E+00  0.13996443414E+02  0.51100000000E-03 0.  1.
        -12    1    4    4    0    0  0.15861604705E+02  0.84519365785E+01  0.19450935091E+02  0.26483289291E+02  0.00000000000E+00 0.  1.
</event>
<event>
 8    1  0.1247338E-006  0.9118800E+02  0.7816164E-02  0.1184000E+00
        -11   -1    0    0    0    0  0.00000000000E+00  0.00000000000E+00  0.45593999997E+02  0.45594000000E+02  0.51100000000E-03 0.  1.
         11   -1    0    0    0    0 -0.00000000000E+00 -0.00000000000E+00 -0.45593999997E+02  0.45594000000E+02  0.51100000000E-03 0. -1.
         23    2    1    2    0    0  0.00000000000E+00  0.00000000000E+00  0.35527136788E-14  0.91188000000E+02  0.91188000000E+02 0.  0.
    9900012    2    3    3    0    0 -0.22211867722E+02  0.11414651156E+02  0.27057708558E+02  0.54367069525E+02  0.39999966595E+02 0.  0.
         12    1    3    3    0    0  0.22211867722E+02 -0.11414651156E+02 -0.27057708558E+02  0.36820930475E+02  0.00000000000E+00 0. -1.
         11    1    4    4    0    0  0.94357858917E+01 -0.58261262020E+00  0.36354731155E+01  0.10128679968E+02  0.51100000000E-03 0. -1.
        -11    1    4    4    0    0 -0.75913796506E+01 -0.37109270024E+01  0.79719270141E+01  0.11616868976E+02  0.51100000000E-03 0.  1.
         12    1    4    4    0    0 -0.24056273963E+02  0.15708190778E+02  0.15450308428E+02  0.32621520581E+02  0.00000000000E+00 0. -1.
</event>
<event>
 8    1  0.1247338E-006  0.9118800E+02  0.7816164E-02  0.1184000E+00
        -11   -1    0    0    0    0  0.00000000000E+00  0.00000000000E+00  0.45593999997E+02  0.45594000000E+02  0.51100000000E-03 0. -1.
         11   -1    0    0    0    0 -0.00000000000E+00 -0.00000000000E+00 -0.45593999997E+02  0.45594000000E+02  0.51100000000E-03 0.  1.
         23    2    1    2    0    0  0.17763568394E-14  0.00000000000E+00  0.44408920985E-15  0.91188000000E+02  0.91188000000E+02 0.  0.
    9900012    2    3    3    0    0 -0.14323672080E+02 -0.33895720035E+02  0.13011867470E+01  0.54367075168E+02  0.39999979460E+02 0.  0.
        -12    1    3    3    0    0  0.14323672080E+02  0.33895720035E+02 -0.13011867470E+01  0.36820924832E+02  0.00000000000E+00 0.  1.
         11    1    4    4    0    0  0.29179843452E+01 -0.19955331490E+02  0.97070996283E+01  0.22382083704E+02  0.51100000000E-03 0. -1.
        -11    1    4    4    0    0 -0.96180259616E+01 -0.48352500466E+01  0.67685963807E+01  0.12716130057E+02  0.51100000000E-03 0.  1.
        -12    1    4    4    0    0 -0.76236304638E+01 -0.91051384990E+01 -0.15174509262E+02  0.19268861406E+02  0.00000000000E+00 0.  1.
</event>
<event>
 8    1  0.1247338E-006  0.9118800E+02  0.7816164E-02  0.1184000E+00
        -11   -1    0    0    0    0  0.00000000000E+00  0.00000000000E+00  0.45593999997E+02  0.45594000000E+02  0.51100000000E-03 0. -1.
         11   -1    0    0    0    0 -0.00000000000E+00 -0.00000000000E+00 -0.45593999997E+02  0.45594000000E+02  0.51100000000E-03 0.  1.
         23    2    1    2    0    0  0.00000000000E+00  0.00000000000E+00  0.00000000000E+00  0.91188000000E+02  0.91188000000E+02 0.  0.
    9900012    2    3    3    0    0 -0.12630170625E+02  0.24101776265E+02  0.24806648969E+02  0.54366991564E+02  0.39999788868E+02 0.  0.
        -12    1    3    3    0    0  0.12630170625E+02 -0.24101776265E+02 -0.24806648969E+02  0.36821008436E+02  0.00000000000E+00 0.  1.
         11    1    4    4    0    0 -0.16052074564E+02 -0.17580180378E+00  0.91380184576E+01  0.18471691467E+02  0.51100000000E-03 0. -1.
        -11    1    4    4    0    0  0.26728781498E+01  0.15866865931E+01 -0.45390984898E+01  0.55013877621E+01  0.51100000000E-03 0.  1.
        -12    1    4    4    0    0  0.74902578872E+00  0.22690891476E+02  0.20207729002E+02  0.30393912334E+02  0.00000000000E+00 0.  1.
</event>
<event>
 8    1  0.1247338E-006  0.9118800E+02  0.7816164E-02  0.1184000E+00
        -11   -1    0    0    0    0  0.00000000000E+00  0.00000000000E+00  0.45593999997E+02  0.45594000000E+02  0.51100000000E-03 0.  1.
         11   -1    0    0    0    0 -0.00000000000E+00 -0.00000000000E+00 -0.45593999997E+02  0.45594000000E+02  0.51100000000E-03 0. -1.
         23    2    1    2    0    0  0.00000000000E+00 -0.13322676296E-14  0.00000000000E+00  0.91188000000E+02  0.91188000000E+02 0.  0.
    9900012    2    3    3    0    0 -0.30243096746E+02  0.21727846502E+01  0.20890522313E+02  0.54367084524E+02  0.40000000790E+02 0.  0.
         12    1    3    3    0    0  0.30243096746E+02 -0.21727846502E+01 -0.20890522313E+02  0.36820915476E+02  0.00000000000E+00 0. -1.
         11    1    4    4    0    0 -0.52955601660E+01 -0.80557215162E+01  0.91718883834E+01  0.13306432407E+02  0.51100000000E-03 0. -1.
        -11    1    4    4    0    0 -0.30804445724E+02  0.97648724188E+01  0.60108969566E+01  0.32869400545E+02  0.51100000000E-03 0.  1.
         12    1    4    4    0    0  0.58569091433E+01  0.46363374755E+00  0.57077369735E+01  0.81912515724E+01  0.00000000000E+00 0. -1.
</event>
<event>
 8    1  0.1247338E-006  0.9118800E+02  0.7816164E-02  0.1184000E+00
        -11   -1    0    0    0    0  0.00000000000E+00  0.00000000000E+00  0.45593999997E+02  0.45594000000E+02  0.51100000000E-03 0. -1.
         11   -1    0    0    0    0 -0.00000000000E+00 -0.00000000000E+00 -0.45593999997E+02  0.45594000000E+02  0.51100000000E-03 0.  1.
         23    2    1    2    0    0  0.00000000000E+00  0.35527136788E-14  0.00000000000E+00  0.91188000000E+02  0.91188000000E+02 0.  0.
    9900012    2    3    3    0    0 -0.19558330716E+02 -0.29451410188E+02 -0.10289111850E+02  0.54367086308E+02  0.40000004857E+02 0.  0.
         12    1    3    3    0    0  0.19558330716E+02  0.29451410188E+02  0.10289111850E+02  0.36820913692E+02  0.00000000000E+00 0. -1.
         11    1    4    4    0    0  0.41226672063E+01 -0.93698728867E+01 -0.98140667028E+01  0.14181213217E+02  0.51100000000E-03 0. -1.
        -11    1    4    4    0    0 -0.58002833564E+00 -0.28889727799E+01 -0.95492094260E+01  0.99934977618E+01  0.51100000000E-03 0.  1.
         12    1    4    4    0    0 -0.23100969587E+02 -0.17192564521E+02  0.90741642788E+01  0.30192375329E+02  0.00000000000E+00 0. -1.
</event>
<event>
 8    1  0.1247338E-006  0.9118800E+02  0.7816164E-02  0.1184000E+00
        -11   -1    0    0    0    0  0.00000000000E+00  0.00000000000E+00  0.45593999997E+02  0.45594000000E+02  0.51100000000E-03 0. -1.
         11   -1    0    0    0    0 -0.00000000000E+00 -0.00000000000E+00 -0.45593999997E+02  0.45594000000E+02  0.51100000000E-03 0.  1.
         23    2    1    2    0    0  0.00000000000E+00  0.00000000000E+00  0.00000000000E+00  0.91188000000E+02  0.91188000000E+02 0.  0.
    9900012    2    3    3    0    0  0.31555953139E+02 -0.18243985685E+02 -0.52113945106E+01  0.54367084410E+02  0.40000000529E+02 0.  0.
         12    1    3    3    0    0 -0.31555953139E+02  0.18243985685E+02  0.52113945106E+01  0.36820915590E+02  0.00000000000E+00 0. -1.
         11    1    4    4    0    0  0.10584066973E+02 -0.57745814498E+01  0.14323472381E+02  0.18722449784E+02  0.51100000000E-03 0. -1.
        -11    1    4    4    0    0  0.61673072585E+01  0.10862218717E+01  0.16339449558E+01  0.64718879127E+01  0.51100000000E-03 0.  1.
        -12    1    4    4    0    0  0.14804578907E+02 -0.13555626107E+02 -0.21168811847E+02  0.29172746713E+02  0.00000000000E+00 0.  1.
</event>
<event>
 8    1  0.1247338E-006  0.9118800E+02  0.7816164E-02  0.1184000E+00
        -11   -1    0    0    0    0  0.00000000000E+00  0.00000000000E+00  0.45593999997E+02  0.45594000000E+02  0.51100000000E-03 0.  1.
         11   -1    0    0    0    0 -0.00000000000E+00 -0.00000000000E+00 -0.45593999997E+02  0.45594000000E+02  0.51100000000E-03 0. -1.
         23    2    1    2    0    0 -0.35527136788E-14 -0.35527136788E-14  0.17763568394E-14  0.91188000000E+02  0.91188000000E+02 0.  0.
    9900012    2    3    3    0    0  0.25675296121E+02  0.25819955076E+02 -0.54671251728E+01  0.54367077025E+02  0.39999983695E+02 0.  0.
         12    1    3    3    0    0 -0.25675296121E+02 -0.25819955076E+02  0.54671251728E+01  0.36820922975E+02  0.00000000000E+00 0. -1.
         11    1    4    4    0    0 -0.38035340838E+01 -0.12118699666E+01  0.46507589580E+01  0.61290341399E+01  0.51100000000E-03 0. -1.
        -11    1    4    4    0    0  0.24838475107E+02  0.59405325883E+01 -0.63427948000E+01  0.26314840284E+02  0.51100000000E-03 0.  1.
         12    1    4    4    0    0  0.46403550986E+01  0.21091292454E+02 -0.37750893308E+01  0.21923202601E+02  0.00000000000E+00 0. -1.
</event>
<event>
 8    1  0.1247338E-006  0.9118800E+02  0.7816164E-02  0.1184000E+00
        -11   -1    0    0    0    0  0.00000000000E+00  0.00000000000E+00  0.45593999997E+02  0.45594000000E+02  0.51100000000E-03 0. -1.
         11   -1    0    0    0    0 -0.00000000000E+00 -0.00000000000E+00 -0.45593999997E+02  0.45594000000E+02  0.51100000000E-03 0.  1.
         23    2    1    2    0    0  0.00000000000E+00  0.88817841970E-15  0.00000000000E+00  0.91188000000E+02  0.91188000000E+02 0.  0.
    9900012    2    3    3    0    0 -0.71546023738E+01  0.74696932336E+01 -0.35338288384E+02  0.54367091836E+02  0.40000017458E+02 0.  0.
         12    1    3    3    0    0  0.71546023738E+01 -0.74696932336E+01  0.35338288384E+02  0.36820908164E+02  0.00000000000E+00 0. -1.
         11    1    4    4    0    0  0.84389785487E+01 -0.30874629760E+00 -0.32273273946E+01  0.90403166756E+01  0.51100000000E-03 0. -1.
        -11    1    4    4    0    0  0.74259256291E+01 -0.70125806195E+00 -0.74605749246E+01  0.10549706763E+02  0.51100000000E-03 0.  1.
         12    1    4    4    0    0 -0.23019506552E+02  0.84796975932E+01 -0.24650386065E+02  0.34777068397E+02  0.00000000000E+00 0. -1.
</event>
<event>
 8    1  0.1247338E-006  0.9118800E+02  0.7816164E-02  0.1184000E+00
        -11   -1    0    0    0    0  0.00000000000E+00  0.00000000000E+00  0.45593999997E+02  0.45594000000E+02  0.51100000000E-03 0.  1.
         11   -1    0    0    0    0 -0.00000000000E+00 -0.00000000000E+00 -0.45593999997E+02  0.45594000000E+02  0.51100000000E-03 0. -1.
         23    2    1    2    0    0 -0.17763568394E-14  0.00000000000E+00  0.00000000000E+00  0.91188000000E+02  0.91188000000E+02 0.  0.
    9900012    2    3    3    0    0  0.13416864953E+02  0.22005177488E+02  0.26297116079E+02  0.54367103548E+02  0.40000044159E+02 0.  0.
         12    1    3    3    0    0 -0.13416864953E+02 -0.22005177488E+02 -0.26297116079E+02  0.36820896452E+02  0.00000000000E+00 0. -1.
         11    1    4    4    0    0  0.14477962595E+02 -0.47302565049E+01  0.66627099473E+01  0.16624633278E+02  0.51100000000E-03 0. -1.
        -11    1    4    4    0    0 -0.50166927985E+01  0.14569094102E+02  0.14058749667E+01  0.15472627258E+02  0.51100000000E-03 0.  1.
        -12    1    4    4    0    0  0.39555951560E+01  0.12166339891E+02  0.18228531165E+02  0.22269843013E+02  0.00000000000E+00 0.  1.
</event>
<event>
 8    1  0.1247338E-006  0.9118800E+02  0.7816164E-02  0.1184000E+00
        -11   -1    0    0    0    0  0.00000000000E+00  0.00000000000E+00  0.45593999997E+02  0.45594000000E+02  0.51100000000E-03 0.  1.
         11   -1    0    0    0    0 -0.00000000000E+00 -0.00000000000E+00 -0.45593999997E+02  0.45594000000E+02  0.51100000000E-03 0. -1.
         23    2    1    2    0    0  0.88817841970E-15  0.00000000000E+00 -0.35527136788E-14  0.91188000000E+02  0.91188000000E+02 0.  0.
    9900012    2    3    3    0    0  0.49309556923E+01 -0.25385934962E+02 -0.26211063105E+02  0.54367084109E+02  0.39999999844E+02 0.  0.
        -12    1    3    3    0    0 -0.49309556923E+01  0.25385934962E+02  0.26211063105E+02  0.36820915891E+02  0.00000000000E+00 0.  1.
         11    1    4    4    0    0  0.95904787284E+01 -0.45269166582E+01 -0.10945811145E+02  0.15240768962E+02  0.51100000000E-03 0. -1.
        -11    1    4    4    0    0  0.11171665935E+02 -0.34447896804E+01 -0.90513230856E+01  0.14785098768E+02  0.51100000000E-03 0.  1.
         12    1    4    4    0    0 -0.15831188971E+02 -0.17414228624E+02 -0.62139288744E+01  0.24341216380E+02  0.00000000000E+00 0. -1.
</event>
<event>
 8    1  0.1247338E-006  0.9118800E+02  0.7816164E-02  0.1184000E+00
        -11   -1    0    0    0    0  0.00000000000E+00  0.00000000000E+00  0.45593999997E+02  0.45594000000E+02  0.51100000000E-03 0. -1.
         11   -1    0    0    0    0 -0.00000000000E+00 -0.00000000000E+00 -0.45593999997E+02  0.45594000000E+02  0.51100000000E-03 0.  1.
         23    2    1    2    0    0 -0.88817841970E-15  0.00000000000E+00  0.00000000000E+00  0.91188000000E+02  0.91188000000E+02 0.  0.
    9900012    2    3    3    0    0 -0.20792276444E+01 -0.20019313119E+02  0.30833157287E+02  0.54367086464E+02  0.40000005212E+02 0.  0.
        -12    1    3    3    0    0  0.20792276444E+01  0.20019313119E+02 -0.30833157287E+02  0.36820913536E+02  0.00000000000E+00 0.  1.
         11    1    4    4    0    0 -0.11848878001E+02  0.65868590494E+01  0.13037848700E+02  0.18808724598E+02  0.51100000000E-03 0. -1.
        -11    1    4    4    0    0  0.75783301223E+01 -0.53254033101E+01  0.69034460488E+01  0.11551994437E+02  0.51100000000E-03 0.  1.
         12    1    4    4    0    0  0.21913202346E+01 -0.21280768859E+02  0.10891862538E+02  0.24006367429E+02  0.00000000000E+00 0. -1.
</event>
<event>
 8    1  0.1247338E-006  0.9118800E+02  0.7816164E-02  0.1184000E+00
        -11   -1    0    0    0    0  0.00000000000E+00  0.00000000000E+00  0.45593999997E+02  0.45594000000E+02  0.51100000000E-03 0.  1.
         11   -1    0    0    0    0 -0.00000000000E+00 -0.00000000000E+00 -0.45593999997E+02  0.45594000000E+02  0.51100000000E-03 0. -1.
         23    2    1    2    0    0 -0.17763568394E-14  0.00000000000E+00  0.35527136788E-14  0.91188000000E+02  0.91188000000E+02 0.  0.
    9900012    2    3    3    0    0 -0.80607524434E+01 -0.22090501774E+02  0.28333934218E+02  0.54367111542E+02  0.40000062382E+02 0.  0.
         12    1    3    3    0    0  0.80607524434E+01  0.22090501774E+02 -0.28333934218E+02  0.36820888458E+02  0.00000000000E+00 0. -1.
         11    1    4    4    0    0 -0.10431432729E+02 -0.12912135686E+02 -0.90653564050E+00  0.16624074226E+02  0.51100000000E-03 0. -1.
        -11    1    4    4    0    0  0.21302286975E+01 -0.16288881632E+02  0.23096170342E+02  0.28342523244E+02  0.51100000000E-03 0.  1.
        -12    1    4    4    0    0  0.24045158791E+00  0.71105155436E+01  0.61442995171E+01  0.94005140720E+01  0.00000000000E+00 0.  1.
</event>
<event>
 8    1  0.1247338E-006  0.9118800E+02  0.7816164E-02  0.1184000E+00
        -11   -1    0    0    0    0  0.00000000000E+00  0.00000000000E+00  0.45593999997E+02  0.45594000000E+02  0.51100000000E-03 0. -1.
         11   -1    0    0    0    0 -0.00000000000E+00 -0.00000000000E+00 -0.45593999997E+02  0.45594000000E+02  0.51100000000E-03 0.  1.
         23    2    1    2    0    0  0.00000000000E+00  0.00000000000E+00  0.00000000000E+00  0.91188000000E+02  0.91188000000E+02 0.  0.
    9900012    2    3    3    0    0  0.21934497109E+02 -0.12508914487E+02  0.26798951957E+02  0.54367096548E+02  0.40000028200E+02 0.  0.
        -12    1    3    3    0    0 -0.21934497109E+02  0.12508914487E+02 -0.26798951957E+02  0.36820903452E+02  0.00000000000E+00 0.  1.
         11    1    4    4    0    0  0.14014954779E+01 -0.14109020775E+01  0.86852076277E+01  0.89099756478E+01  0.51100000000E-03 0. -1.
        -11    1    4    4    0    0 -0.57369954354E+01  0.22317265866E+01  0.14531724666E+02  0.15781785140E+02  0.51100000000E-03 0.  1.
         12    1    4    4    0    0  0.26269997066E+02 -0.13329738996E+02  0.35820196630E+01  0.29675335759E+02  0.00000000000E+00 0. -1.
</event>
<event>
 8    1  0.1247338E-006  0.9118800E+02  0.7816164E-02  0.1184000E+00
        -11   -1    0    0    0    0  0.00000000000E+00  0.00000000000E+00  0.45593999997E+02  0.45594000000E+02  0.51100000000E-03 0. -1.
         11   -1    0    0    0    0 -0.00000000000E+00 -0.00000000000E+00 -0.45593999997E+02  0.45594000000E+02  0.51100000000E-03 0.  1.
         23    2    1    2    0    0  0.00000000000E+00  0.00000000000E+00 -0.35527136788E-14  0.91188000000E+02  0.91188000000E+02 0.  0.
    9900012    2    3    3    0    0 -0.24221774089E+02 -0.14714018040E+02  0.23507081867E+02  0.54367087942E+02  0.40000008581E+02 0.  0.
        -12    1    3    3    0    0  0.24221774089E+02  0.14714018040E+02 -0.23507081867E+02  0.36820912058E+02  0.00000000000E+00 0.  1.
         11    1    4    4    0    0 -0.24105592862E+02 -0.11966136512E+02  0.27904305244E+02  0.38767490009E+02  0.51100000000E-03 0.  1.
        -11    1    4    4    0    0  0.27139710729E+01 -0.29547456179E+01  0.46361064017E+01  0.61310393475E+01  0.51100000000E-03 0. -1.
        -12    1    4    4    0    0 -0.28301522999E+01  0.20686408942E+00 -0.90333297785E+01  0.94685585851E+01  0.00000000000E+00 0.  1.
</event>
<event>
 8    1  0.1247338E-006  0.9118800E+02  0.7816164E-02  0.1184000E+00
        -11   -1    0    0    0    0  0.00000000000E+00  0.00000000000E+00  0.45593999997E+02  0.45594000000E+02  0.51100000000E-03 0.  1.
         11   -1    0    0    0    0 -0.00000000000E+00 -0.00000000000E+00 -0.45593999997E+02  0.45594000000E+02  0.51100000000E-03 0. -1.
         23    2    1    2    0    0  0.35527136788E-14  0.00000000000E+00  0.35527136788E-14  0.91188000000E+02  0.91188000000E+02 0.  0.
    9900012    2    3    3    0    0  0.18088908635E+02  0.30386684272E+02  0.10257690663E+02  0.54367089984E+02  0.40000013237E+02 0.  0.
        -12    1    3    3    0    0 -0.18088908635E+02 -0.30386684272E+02 -0.10257690663E+02  0.36820910016E+02  0.00000000000E+00 0.  1.
         11    1    4    4    0    0  0.24597749175E+01 -0.13006062214E+01  0.20715744271E+01  0.34689321204E+01  0.51100000000E-03 0. -1.
        -11    1    4    4    0    0 -0.10334642687E+02  0.27217689683E+01 -0.15513762364E+01  0.10799057101E+02  0.51100000000E-03 0.  1.
         12    1    4    4    0    0  0.25963776404E+02  0.28965521525E+02  0.97374924720E+01  0.40099100763E+02  0.00000000000E+00 0. -1.
</event>
<event>
 8    1  0.1247338E-006  0.9118800E+02  0.7816164E-02  0.1184000E+00
        -11   -1    0    0    0    0  0.00000000000E+00  0.00000000000E+00  0.45593999997E+02  0.45594000000E+02  0.51100000000E-03 0.  1.
         11   -1    0    0    0    0 -0.00000000000E+00 -0.00000000000E+00 -0.45593999997E+02  0.45594000000E+02  0.51100000000E-03 0. -1.
         23    2    1    2    0    0  0.00000000000E+00  0.00000000000E+00  0.00000000000E+00  0.91188000000E+02  0.91188000000E+02 0.  0.
    9900012    2    3    3    0    0  0.32951072554E+02 -0.13432314762E+02  0.94646597942E+01  0.54367081389E+02  0.39999993642E+02 0.  0.
         12    1    3    3    0    0 -0.32951072554E+02  0.13432314762E+02 -0.94646597942E+01  0.36820918611E+02  0.00000000000E+00 0. -1.
         11    1    4    4    0    0  0.10162184743E+02 -0.83101188333E+01 -0.44745328127E+01  0.13869012868E+02  0.51100000000E-03 0. -1.
        -11    1    4    4    0    0  0.25231870213E+02 -0.13905584859E+02  0.11805527197E+02  0.31134916691E+02  0.51100000000E-03 0.  1.
         12    1    4    4    0    0 -0.24429824010E+01  0.87833889302E+01  0.21336654103E+01  0.93631518301E+01  0.00000000000E+00 0. -1.
</event>
<event>
 8    1  0.1247338E-006  0.9118800E+02  0.7816164E-02  0.1184000E+00
        -11   -1    0    0    0    0  0.00000000000E+00  0.00000000000E+00  0.45593999997E+02  0.45594000000E+02  0.51100000000E-03 0. -1.
         11   -1    0    0    0    0 -0.00000000000E+00 -0.00000000000E+00 -0.45593999997E+02  0.45594000000E+02  0.51100000000E-03 0.  1.
         23    2    1    2    0    0 -0.17763568394E-14  0.00000000000E+00  0.00000000000E+00  0.91188000000E+02  0.91188000000E+02 0.  0.
    9900012    2    3    3    0    0  0.10233938949E+02 -0.80850085252E+01  0.34433684583E+02  0.54367088778E+02  0.40000010487E+02 0.  0.
        -12    1    3    3    0    0 -0.10233938949E+02  0.80850085252E+01 -0.34433684583E+02  0.36820911222E+02  0.00000000000E+00 0.  1.
         11    1    4    4    0    0  0.11676499246E+02 -0.66711406480E+01  0.21511651188E+02  0.25369191735E+02  0.51100000000E-03 0. -1.
        -11    1    4    4    0    0 -0.55643580807E+01  0.49983056581E+01  0.18232965534E+02  0.19707515641E+02  0.51100000000E-03 0.  1.
        -12    1    4    4    0    0  0.41217977839E+01 -0.64121735353E+01 -0.53109321390E+01  0.92903814025E+01  0.00000000000E+00 0.  1.
</event>
<event>
 8    1  0.1247338E-006  0.9118800E+02  0.7816164E-02  0.1184000E+00
        -11   -1    0    0    0    0  0.00000000000E+00  0.00000000000E+00  0.45593999997E+02  0.45594000000E+02  0.51100000000E-03 0.  1.
         11   -1    0    0    0    0 -0.00000000000E+00 -0.00000000000E+00 -0.45593999997E+02  0.45594000000E+02  0.51100000000E-03 0. -1.
         23    2    1    2    0    0  0.00000000000E+00  0.00000000000E+00  0.00000000000E+00  0.91188000000E+02  0.91188000000E+02 0.  0.
    9900012    2    3    3    0    0  0.27972051872E+02  0.18152360951E+02 -0.15615313917E+02  0.54367055923E+02  0.39999935587E+02 0.  0.
        -12    1    3    3    0    0 -0.27972051872E+02 -0.18152360951E+02  0.15615313917E+02  0.36820944077E+02  0.00000000000E+00 0.  1.
         11    1    4    4    0    0  0.75981415693E+01 -0.62761089251E+00 -0.38532305363E+01  0.85424256840E+01  0.51100000000E-03 0. -1.
        -11    1    4    4    0    0  0.47244595210E+01  0.49971379141E+01 -0.21671438188E+02  0.22736383584E+02  0.51100000000E-03 0.  1.
        -12    1    4    4    0    0  0.15649450782E+02  0.13782833929E+02  0.99093548067E+01  0.23088246655E+02  0.00000000000E+00 0.  1.
</event>
<event>
 8    1  0.1247338E-006  0.9118800E+02  0.7816164E-02  0.1184000E+00
        -11   -1    0    0    0    0  0.00000000000E+00  0.00000000000E+00  0.45593999997E+02  0.45594000000E+02  0.51100000000E-03 0. -1.
         11   -1    0    0    0    0 -0.00000000000E+00 -0.00000000000E+00 -0.45593999997E+02  0.45594000000E+02  0.51100000000E-03 0.  1.
         23    2    1    2    0    0 -0.26645352591E-14  0.00000000000E+00 -0.17763568394E-14  0.91188000000E+02  0.91188000000E+02 0.  0.
    9900012    2    3    3    0    0 -0.75781003749E+01 -0.35902108962E+02 -0.30640282850E+01  0.54367118661E+02  0.40000078612E+02 0.  0.
        -12    1    3    3    0    0  0.75781003749E+01  0.35902108962E+02  0.30640282850E+01  0.36820881339E+02  0.00000000000E+00 0.  1.
         11    1    4    4    0    0  0.66730945088E+01 -0.56617008083E+01  0.48501620588E+01  0.10005454444E+02  0.51100000000E-03 0. -1.
        -11    1    4    4    0    0 -0.20782344226E+01  0.10471162129E+00 -0.11301057861E+02  0.11491037024E+02  0.51100000000E-03 0.  1.
         12    1    4    4    0    0 -0.12172960461E+02 -0.30345119775E+02  0.33868675174E+01  0.32870627194E+02  0.00000000000E+00 0. -1.
</event>
<event>
 8    1  0.1247338E-006  0.9118800E+02  0.7816164E-02  0.1184000E+00
        -11   -1    0    0    0    0  0.00000000000E+00  0.00000000000E+00  0.45593999997E+02  0.45594000000E+02  0.51100000000E-03 0. -1.
         11   -1    0    0    0    0 -0.00000000000E+00 -0.00000000000E+00 -0.45593999997E+02  0.45594000000E+02  0.51100000000E-03 0.  1.
         23    2    1    2    0    0 -0.17763568394E-14  0.00000000000E+00  0.00000000000E+00  0.91188000000E+02  0.91188000000E+02 0.  0.
    9900012    2    3    3    0    0 -0.81264544721E+01 -0.24625810709E+02 -0.26140202016E+02  0.54367082347E+02  0.39999995826E+02 0.  0.
         12    1    3    3    0    0  0.81264544721E+01  0.24625810709E+02  0.26140202016E+02  0.36820917653E+02  0.00000000000E+00 0. -1.
         11    1    4    4    0    0 -0.24136714558E+01 -0.19499354590E+02 -0.13147377430E+02  0.23641154220E+02  0.51100000000E-03 0. -1.
        -11    1    4    4    0    0  0.50928603395E+01 -0.39542774654E-01 -0.17296726945E+02  0.18030960965E+02  0.51100000000E-03 0.  1.
         12    1    4    4    0    0 -0.10805643356E+02 -0.50869133450E+01  0.43039023589E+01  0.12694967161E+02  0.00000000000E+00 0. -1.
</event>
<event>
 8    1  0.1247338E-006  0.9118800E+02  0.7816164E-02  0.1184000E+00
        -11   -1    0    0    0    0  0.00000000000E+00  0.00000000000E+00  0.45593999997E+02  0.45594000000E+02  0.51100000000E-03 0. -1.
         11   -1    0    0    0    0 -0.00000000000E+00 -0.00000000000E+00 -0.45593999997E+02  0.45594000000E+02  0.51100000000E-03 0.  1.
         23    2    1    2    0    0  0.00000000000E+00  0.00000000000E+00  0.71054273576E-14  0.91188000000E+02  0.91188000000E+02 0.  0.
    9900012    2    3    3    0    0  0.10948805527E+02  0.13797069256E+02 -0.32334876208E+02  0.54367086352E+02  0.40000004956E+02 0.  0.
         12    1    3    3    0    0 -0.10948805527E+02 -0.13797069256E+02  0.32334876208E+02  0.36820913648E+02  0.00000000000E+00 0. -1.
         11    1    4    4    0    0  0.27038031419E+01 -0.53643688381E+01 -0.70802559876E+01  0.92853125727E+01  0.51100000000E-03 0. -1.
        -11    1    4    4    0    0  0.38409905067E+01  0.14438535185E+02  0.37195173879E+01  0.15396730699E+02  0.51100000000E-03 0.  1.
        -12    1    4    4    0    0  0.44040118780E+01  0.47229029092E+01 -0.28974137609E+02  0.29685043080E+02  0.00000000000E+00 0.  1.
</event>
<event>
 8    1  0.1247338E-006  0.9118800E+02  0.7816164E-02  0.1184000E+00
        -11   -1    0    0    0    0  0.00000000000E+00  0.00000000000E+00  0.45593999997E+02  0.45594000000E+02  0.51100000000E-03 0.  1.
         11   -1    0    0    0    0 -0.00000000000E+00 -0.00000000000E+00 -0.45593999997E+02  0.45594000000E+02  0.51100000000E-03 0. -1.
         23    2    1    2    0    0  0.00000000000E+00 -0.35527136788E-14  0.00000000000E+00  0.91188000000E+02  0.91188000000E+02 0.  0.
    9900012    2    3    3    0    0  0.90231113075E+01  0.31486822162E+02  0.16820937016E+02  0.54367076199E+02  0.39999981810E+02 0.  0.
         12    1    3    3    0    0 -0.90231113075E+01 -0.31486822162E+02 -0.16820937016E+02  0.36820923801E+02  0.00000000000E+00 0. -1.
         11    1    4    4    0    0  0.95301290496E+01  0.11001789728E+02  0.26840544304E+02  0.30533220527E+02  0.51100000000E-03 0. -1.
        -11    1    4    4    0    0  0.15818760739E+01  0.13479274476E+02 -0.34459439024E+01  0.14002417718E+02  0.51100000000E-03 0.  1.
         12    1    4    4    0    0 -0.20888938161E+01  0.70057579574E+01 -0.65736633861E+01  0.98314379542E+01  0.00000000000E+00 0. -1.
</event>
<event>
 8    1  0.1247338E-006  0.9118800E+02  0.7816164E-02  0.1184000E+00
        -11   -1    0    0    0    0  0.00000000000E+00  0.00000000000E+00  0.45593999997E+02  0.45594000000E+02  0.51100000000E-03 0.  1.
         11   -1    0    0    0    0 -0.00000000000E+00 -0.00000000000E+00 -0.45593999997E+02  0.45594000000E+02  0.51100000000E-03 0. -1.
         23    2    1    2    0    0  0.00000000000E+00  0.00000000000E+00  0.00000000000E+00  0.91188000000E+02  0.91188000000E+02 0.  0.
    9900012    2    3    3    0    0 -0.23021285715E+02 -0.10031421890E+02 -0.26928997192E+02  0.54367083242E+02  0.39999997867E+02 0.  0.
        -12    1    3    3    0    0  0.23021285715E+02  0.10031421890E+02  0.26928997192E+02  0.36820916758E+02  0.00000000000E+00 0.  1.
         11    1    4    4    0    0  0.51725854583E+01 -0.30875862788E+01 -0.12517211433E+02  0.13891343048E+02  0.51100000000E-03 0.  1.
        -11    1    4    4    0    0 -0.11554237480E+01  0.24233537289E+01 -0.11389356044E+02  0.11701498993E+02  0.51100000000E-03 0. -1.
         12    1    4    4    0    0 -0.27038447426E+02 -0.93671893405E+01 -0.30224297152E+01  0.28774241201E+02  0.00000000000E+00 0. -1.
</event>
<event>
 8    1  0.1247338E-006  0.9118800E+02  0.7816164E-02  0.1184000E+00
        -11   -1    0    0    0    0  0.00000000000E+00  0.00000000000E+00  0.45593999997E+02  0.45594000000E+02  0.51100000000E-03 0.  1.
         11   -1    0    0    0    0 -0.00000000000E+00 -0.00000000000E+00 -0.45593999997E+02  0.45594000000E+02  0.51100000000E-03 0. -1.
         23    2    1    2    0    0  0.00000000000E+00 -0.44408920985E-15 -0.88817841970E-15  0.91188000000E+02  0.91188000000E+02 0.  0.
    9900012    2    3    3    0    0  0.36116513153E+02  0.31436707319E+01  0.64415823168E+01  0.54367093293E+02  0.40000020780E+02 0.  0.
         12    1    3    3    0    0 -0.36116513153E+02 -0.31436707319E+01 -0.64415823168E+01  0.36820906707E+02  0.00000000000E+00 0. -1.
         11    1    4    4    0    0  0.40423602932E+02  0.73643890961E+01  0.62570139195E+01  0.41562628937E+02  0.51100000000E-03 0.  1.
        -11    1    4    4    0    0  0.72113655983E+00  0.15639887991E+01 -0.37955973497E+01  0.41680521114E+01  0.51100000000E-03 0. -1.
         12    1    4    4    0    0 -0.50282263385E+01 -0.57847071633E+01  0.39801657471E+01  0.86364122441E+01  0.00000000000E+00 0. -1.
</event>
<event>
 8    1  0.1247338E-006  0.9118800E+02  0.7816164E-02  0.1184000E+00
        -11   -1    0    0    0    0  0.00000000000E+00  0.00000000000E+00  0.45593999997E+02  0.45594000000E+02  0.51100000000E-03 0.  1.
         11   -1    0    0    0    0 -0.00000000000E+00 -0.00000000000E+00 -0.45593999997E+02  0.45594000000E+02  0.51100000000E-03 0. -1.
         23    2    1    2    0    0  0.00000000000E+00  0.00000000000E+00  0.00000000000E+00  0.91188000000E+02  0.91188000000E+02 0.  0.
    9900012    2    3    3    0    0 -0.15373767407E+02 -0.33352360875E+02  0.26546366663E+01  0.54367084802E+02  0.40000001423E+02 0.  0.
         12    1    3    3    0    0  0.15373767407E+02  0.33352360875E+02 -0.26546366663E+01  0.36820915198E+02  0.00000000000E+00 0. -1.
         11    1    4    4    0    0  0.58731362343E+01  0.37289364893E+01  0.46538012342E+00  0.69724655244E+01  0.51100000000E-03 0. -1.
        -11    1    4    4    0    0 -0.15721084708E+02 -0.38258923791E+02  0.37512895588E+01  0.41532757285E+02  0.51100000000E-03 0.  1.
        -12    1    4    4    0    0 -0.55258189330E+01  0.11776264268E+01 -0.15620330159E+01  0.58618619929E+01  0.00000000000E+00 0.  1.
</event>
<event>
 8    1  0.1247338E-006  0.9118800E+02  0.7816164E-02  0.1184000E+00
        -11   -1    0    0    0    0  0.00000000000E+00  0.00000000000E+00  0.45593999997E+02  0.45594000000E+02  0.51100000000E-03 0.  1.
         11   -1    0    0    0    0 -0.00000000000E+00 -0.00000000000E+00 -0.45593999997E+02  0.45594000000E+02  0.51100000000E-03 0. -1.
         23    2    1    2    0    0  0.00000000000E+00  0.00000000000E+00  0.44408920985E-15  0.91188000000E+02  0.91188000000E+02 0.  0.
    9900012    2    3    3    0    0  0.21857008872E+02 -0.29554309060E+02 -0.21435503408E+01  0.54367070776E+02  0.39999969448E+02 0.  0.
        -12    1    3    3    0    0 -0.21857008872E+02  0.29554309060E+02  0.21435503408E+01  0.36820929224E+02  0.00000000000E+00 0.  1.
         11    1    4    4    0    0  0.41591062067E+01 -0.11484502449E+02 -0.88615833394E+01  0.15090381721E+02  0.51100000000E-03 0. -1.
        -11    1    4    4    0    0  0.22384314703E+02 -0.22844740312E+02  0.60762989006E+01  0.32555508186E+02  0.51100000000E-03 0.  1.
        -12    1    4    4    0    0 -0.46864120376E+01  0.47749337005E+01  0.64173409802E+00  0.67211808697E+01  0.00000000000E+00 0.  1.
</event>
<event>
 8    1  0.1247338E-006  0.9118800E+02  0.7816164E-02  0.1184000E+00
        -11   -1    0    0    0    0  0.00000000000E+00  0.00000000000E+00  0.45593999997E+02  0.45594000000E+02  0.51100000000E-03 0.  1.
         11   -1    0    0    0    0 -0.00000000000E+00 -0.00000000000E+00 -0.45593999997E+02  0.45594000000E+02  0.51100000000E-03 0. -1.
         23    2    1    2    0    0 -0.44408920985E-15 -0.88817841970E-15  0.00000000000E+00  0.91188000000E+02  0.91188000000E+02 0.  0.
    9900012    2    3    3    0    0 -0.56361436997E+00  0.65827966176E+01  0.36223253226E+02  0.54367150651E+02  0.40000151540E+02 0.  0.
         12    1    3    3    0    0  0.56361436997E+00 -0.65827966176E+01 -0.36223253226E+02  0.36820849349E+02  0.00000000000E+00 0. -1.
         11    1    4    4    0    0  0.94312066051E+00 -0.13845848347E+02  0.22514356063E+02  0.26447934177E+02  0.51100000000E-03 0. -1.
        -11    1    4    4    0    0  0.15469587039E+01  0.86883446926E+01  0.13071379168E+02  0.15771536651E+02  0.51100000000E-03 0.  1.
        -12    1    4    4    0    0 -0.30536937344E+01  0.11740300272E+02  0.63751799553E+00  0.12147679824E+02  0.00000000000E+00 0.  1.
</event>
<event>
 8    1  0.1247338E-006  0.9118800E+02  0.7816164E-02  0.1184000E+00
        -11   -1    0    0    0    0  0.00000000000E+00  0.00000000000E+00  0.45593999997E+02  0.45594000000E+02  0.51100000000E-03 0. -1.
         11   -1    0    0    0    0 -0.00000000000E+00 -0.00000000000E+00 -0.45593999997E+02  0.45594000000E+02  0.51100000000E-03 0.  1.
         23    2    1    2    0    0 -0.31086244690E-14 -0.88817841970E-15  0.00000000000E+00  0.91188000000E+02  0.91188000000E+02 0.  0.
    9900012    2    3    3    0    0 -0.30482393820E+01  0.60046553163E+01  0.36199915302E+02  0.54367061437E+02  0.39999948158E+02 0.  0.
        -12    1    3    3    0    0  0.30482393820E+01 -0.60046553163E+01 -0.36199915302E+02  0.36820938563E+02  0.00000000000E+00 0.  1.
         11    1    4    4    0    0 -0.10974979621E+02  0.23606036156E+01  0.17717750391E+02  0.20974777860E+02  0.51100000000E-03 0. -1.
        -11    1    4    4    0    0  0.13620474191E+02  0.95251897193E+01  0.18933969070E+02  0.25194081475E+02  0.51100000000E-03 0.  1.
        -12    1    4    4    0    0 -0.56937339519E+01 -0.58811380186E+01 -0.45180415904E+00  0.81982021021E+01  0.00000000000E+00 0.  1.
</event>
<event>
 8    1  0.1247338E-006  0.9118800E+02  0.7816164E-02  0.1184000E+00
        -11   -1    0    0    0    0  0.00000000000E+00  0.00000000000E+00  0.45593999997E+02  0.45594000000E+02  0.51100000000E-03 0.  1.
         11   -1    0    0    0    0 -0.00000000000E+00 -0.00000000000E+00 -0.45593999997E+02  0.45594000000E+02  0.51100000000E-03 0. -1.
         23    2    1    2    0    0 -0.71054273576E-14  0.17763568394E-14  0.00000000000E+00  0.91188000000E+02  0.91188000000E+02 0.  0.
    9900012    2    3    3    0    0 -0.27832088194E+02  0.12476738342E+02 -0.20627307651E+02  0.54367082659E+02  0.39999996539E+02 0.  0.
        -12    1    3    3    0    0  0.27832088194E+02 -0.12476738342E+02  0.20627307651E+02  0.36820917341E+02  0.00000000000E+00 0.  1.
         11    1    4    4    0    0 -0.38627708145E+01  0.53855072335E+01 -0.97643473888E+00  0.66991127464E+01  0.51100000000E-03 0. -1.
        -11    1    4    4    0    0  0.35437402715E+01 -0.78722062269E+01  0.28643712971E+01  0.90958424118E+01  0.51100000000E-03 0.  1.
         12    1    4    4    0    0 -0.27513057651E+02  0.14963437336E+02 -0.22515244209E+02  0.38572127501E+02  0.00000000000E+00 0. -1.
</event>
<event>
 8    1  0.1247338E-006  0.9118800E+02  0.7816164E-02  0.1184000E+00
        -11   -1    0    0    0    0  0.00000000000E+00  0.00000000000E+00  0.45593999997E+02  0.45594000000E+02  0.51100000000E-03 0. -1.
         11   -1    0    0    0    0 -0.00000000000E+00 -0.00000000000E+00 -0.45593999997E+02  0.45594000000E+02  0.51100000000E-03 0.  1.
         23    2    1    2    0    0  0.00000000000E+00  0.22204460493E-15 -0.71054273576E-14  0.91188000000E+02  0.91188000000E+02 0.  0.
    9900012    2    3    3    0    0  0.26970652395E+02  0.13680863550E+01 -0.25029809710E+02  0.54367093914E+02  0.40000022196E+02 0.  0.
         12    1    3    3    0    0 -0.26970652395E+02 -0.13680863550E+01  0.25029809710E+02  0.36820906086E+02  0.00000000000E+00 0. -1.
         11    1    4    4    0    0 -0.11818018395E+01  0.95717866135E+01 -0.52589473386E+00  0.96587949608E+01  0.51100000000E-03 0. -1.
        -11    1    4    4    0    0  0.80057810388E+01  0.65814611159E+01 -0.10169059077E+01  0.10413561271E+02  0.51100000000E-03 0.  1.
        -12    1    4    4    0    0  0.20146673195E+02 -0.14785161374E+02 -0.23487009069E+02  0.34294737682E+02  0.00000000000E+00 0.  1.
</event>
<event>
 8    1  0.1247338E-006  0.9118800E+02  0.7816164E-02  0.1184000E+00
        -11   -1    0    0    0    0  0.00000000000E+00  0.00000000000E+00  0.45593999997E+02  0.45594000000E+02  0.51100000000E-03 0.  1.
         11   -1    0    0    0    0 -0.00000000000E+00 -0.00000000000E+00 -0.45593999997E+02  0.45594000000E+02  0.51100000000E-03 0. -1.
         23    2    1    2    0    0 -0.26645352591E-14 -0.66613381478E-15  0.00000000000E+00  0.91188000000E+02  0.91188000000E+02 0.  0.
    9900012    2    3    3    0    0  0.69556262539E+01 -0.98099468216E+00  0.36144667356E+02  0.54367081144E+02  0.39999993083E+02 0.  0.
         12    1    3    3    0    0 -0.69556262539E+01  0.98099468216E+00 -0.36144667356E+02  0.36820918856E+02  0.00000000000E+00 0. -1.
         11    1    4    4    0    0 -0.36333294707E+01 -0.66186886261E+01 -0.63787882817E+01  0.98841824333E+01  0.51100000000E-03 0. -1.
        -11    1    4    4    0    0  0.10423126592E+01 -0.35378995776E+00  0.10028703789E+02  0.10088928733E+02  0.51100000000E-03 0.  1.
         12    1    4    4    0    0  0.95466430653E+01  0.59914839017E+01  0.32494751848E+02  0.34393969978E+02  0.00000000000E+00 0. -1.
</event>
<event>
 8    1  0.1247338E-006  0.9118800E+02  0.7816164E-02  0.1184000E+00
        -11   -1    0    0    0    0  0.00000000000E+00  0.00000000000E+00  0.45593999997E+02  0.45594000000E+02  0.51100000000E-03 0.  1.
         11   -1    0    0    0    0 -0.00000000000E+00 -0.00000000000E+00 -0.45593999997E+02  0.45594000000E+02  0.51100000000E-03 0. -1.
         23    2    1    2    0    0  0.00000000000E+00 -0.17763568394E-14 -0.35527136788E-14  0.91188000000E+02  0.91188000000E+02 0.  0.
    9900012    2    3    3    0    0 -0.14358675122E+02 -0.15460679059E+02 -0.30175749890E+02  0.54367081629E+02  0.39999994190E+02 0.  0.
        -12    1    3    3    0    0  0.14358675122E+02  0.15460679059E+02  0.30175749890E+02  0.36820918371E+02  0.00000000000E+00 0.  1.
         11    1    4    4    0    0 -0.15206442553E+02 -0.20362353651E+02 -0.24102840286E+02  0.35025822637E+02  0.51100000000E-03 0. -1.
        -11    1    4    4    0    0  0.26775784772E+01  0.68600673777E+00  0.59006958769E+01  0.65159990668E+01  0.51100000000E-03 0.  1.
         12    1    4    4    0    0 -0.18298110464E+01  0.42156678535E+01 -0.11973605481E+02  0.12825259925E+02  0.00000000000E+00 0. -1.
</event>
<event>
 8    1  0.1247338E-006  0.9118800E+02  0.7816164E-02  0.1184000E+00
        -11   -1    0    0    0    0  0.00000000000E+00  0.00000000000E+00  0.45593999997E+02  0.45594000000E+02  0.51100000000E-03 0.  1.
         11   -1    0    0    0    0 -0.00000000000E+00 -0.00000000000E+00 -0.45593999997E+02  0.45594000000E+02  0.51100000000E-03 0. -1.
         23    2    1    2    0    0  0.00000000000E+00  0.00000000000E+00  0.00000000000E+00  0.91188000000E+02  0.91188000000E+02 0.  0.
    9900012    2    3    3    0    0  0.13078850075E+02  0.11776722918E+02  0.32342408539E+02  0.54367096805E+02  0.40000028786E+02 0.  0.
         12    1    3    3    0    0 -0.13078850075E+02 -0.11776722918E+02 -0.32342408539E+02  0.36820903195E+02  0.00000000000E+00 0. -1.
         11    1    4    4    0    0  0.10532825411E+01 -0.33382763215E+01 -0.14002323872E+01  0.37701649711E+01  0.51100000000E-03 0. -1.
        -11    1    4    4    0    0  0.73166626504E+01  0.19645322085E+01  0.35697634102E+02  0.36492657068E+02  0.51100000000E-03 0.  1.
         12    1    4    4    0    0  0.47089048835E+01  0.13150467031E+02 -0.19549931756E+01  0.14104274766E+02  0.00000000000E+00 0. -1.
</event>
<event>
 8    1  0.1247338E-006  0.9118800E+02  0.7816164E-02  0.1184000E+00
        -11   -1    0    0    0    0  0.00000000000E+00  0.00000000000E+00  0.45593999997E+02  0.45594000000E+02  0.51100000000E-03 0.  1.
         11   -1    0    0    0    0 -0.00000000000E+00 -0.00000000000E+00 -0.45593999997E+02  0.45594000000E+02  0.51100000000E-03 0. -1.
         23    2    1    2    0    0  0.00000000000E+00  0.00000000000E+00 -0.17763568394E-14  0.91188000000E+02  0.91188000000E+02 0.  0.
    9900012    2    3    3    0    0  0.33895933237E+02 -0.35560951166E+01  0.13935466137E+02  0.54367118438E+02  0.40000078104E+02 0.  0.
         12    1    3    3    0    0 -0.33895933237E+02  0.35560951166E+01 -0.13935466137E+02  0.36820881562E+02  0.00000000000E+00 0. -1.
         11    1    4    4    0    0  0.20900290615E+02 -0.12273865863E+01 -0.25552209496E+01  0.21091651903E+02  0.51100000000E-03 0. -1.
        -11    1    4    4    0    0  0.20010307172E+02  0.23621512056E+01  0.13785923217E+02  0.24414008901E+02  0.51100000000E-03 0.  1.
         12    1    4    4    0    0 -0.70146645496E+01 -0.46908597359E+01  0.27047638703E+01  0.88614576340E+01  0.00000000000E+00 0. -1.
</event>
<event>
 8    1  0.1247338E-006  0.9118800E+02  0.7816164E-02  0.1184000E+00
        -11   -1    0    0    0    0  0.00000000000E+00  0.00000000000E+00  0.45593999997E+02  0.45594000000E+02  0.51100000000E-03 0. -1.
         11   -1    0    0    0    0 -0.00000000000E+00 -0.00000000000E+00 -0.45593999997E+02  0.45594000000E+02  0.51100000000E-03 0.  1.
         23    2    1    2    0    0  0.44408920985E-15  0.00000000000E+00  0.00000000000E+00  0.91188000000E+02  0.91188000000E+02 0.  0.
    9900012    2    3    3    0    0 -0.38118391432E+01  0.11860896610E+02  0.34649240034E+02  0.54367070883E+02  0.39999969693E+02 0.  0.
        -12    1    3    3    0    0  0.38118391432E+01 -0.11860896610E+02 -0.34649240034E+02  0.36820929117E+02  0.00000000000E+00 0.  1.
         11    1    4    4    0    0  0.13893518852E+02  0.64774560916E+01  0.20914205183E+02  0.25930508714E+02  0.51100000000E-03 0. -1.
        -11    1    4    4    0    0 -0.13630961212E+01 -0.13912878857E+00  0.10862843422E+02  0.10948915715E+02  0.51100000000E-03 0.  1.
        -12    1    4    4    0    0 -0.16342261874E+02  0.55225693066E+01  0.28721914293E+01  0.17487646454E+02  0.00000000000E+00 0.  1.
</event>
<event>
 8    1  0.1247338E-006  0.9118800E+02  0.7816164E-02  0.1184000E+00
        -11   -1    0    0    0    0  0.00000000000E+00  0.00000000000E+00  0.45593999997E+02  0.45594000000E+02  0.51100000000E-03 0.  1.
         11   -1    0    0    0    0 -0.00000000000E+00 -0.00000000000E+00 -0.45593999997E+02  0.45594000000E+02  0.51100000000E-03 0. -1.
         23    2    1    2    0    0  0.00000000000E+00 -0.44408920985E-15  0.00000000000E+00  0.91188000000E+02  0.91188000000E+02 0.  0.
    9900012    2    3    3    0    0  0.36554495352E+02  0.37511891772E+01  0.23394597431E+01  0.54367141475E+02  0.40000130619E+02 0.  0.
        -12    1    3    3    0    0 -0.36554495352E+02 -0.37511891772E+01 -0.23394597431E+01  0.36820858525E+02  0.00000000000E+00 0.  1.
         11    1    4    4    0    0 -0.30544629567E+01  0.41062456352E+01 -0.10796992899E+02  0.11948474927E+02  0.51100000000E-03 0. -1.
        -11    1    4    4    0    0  0.29767105616E+02  0.25743342084E+01  0.79663886296E+01  0.30922016775E+02  0.51100000000E-03 0.  1.
         12    1    4    4    0    0  0.98418526922E+01 -0.29293906663E+01  0.51700640123E+01  0.11496649772E+02  0.00000000000E+00 0. -1.
</event>
<event>
 8    1  0.1247338E-006  0.9118800E+02  0.7816164E-02  0.1184000E+00
        -11   -1    0    0    0    0  0.00000000000E+00  0.00000000000E+00  0.45593999997E+02  0.45594000000E+02  0.51100000000E-03 0.  1.
         11   -1    0    0    0    0 -0.00000000000E+00 -0.00000000000E+00 -0.45593999997E+02  0.45594000000E+02  0.51100000000E-03 0. -1.
         23    2    1    2    0    0  0.00000000000E+00 -0.35527136788E-14  0.35527136788E-14  0.91188000000E+02  0.91188000000E+02 0.  0.
    9900012    2    3    3    0    0 -0.96801112163E+01  0.16821328055E+02  0.31290860633E+02  0.54367087602E+02  0.40000007805E+02 0.  0.
         12    1    3    3    0    0  0.96801112163E+01 -0.16821328055E+02 -0.31290860633E+02  0.36820912398E+02  0.00000000000E+00 0. -1.
         11    1    4    4    0    0 -0.12415135873E+00 -0.95714178220E+01  0.71862236400E+01  0.11969513906E+02  0.51100000000E-03 0. -1.
        -11    1    4    4    0    0 -0.79101018644E+01  0.57847225786E+01  0.18568102836E+02  0.20995408308E+02  0.51100000000E-03 0.  1.
         12    1    4    4    0    0 -0.16458579931E+01  0.20608023299E+02  0.55365341567E+01  0.21402165388E+02  0.00000000000E+00 0. -1.
</event>
<event>
 8    1  0.1247338E-006  0.9118800E+02  0.7816164E-02  0.1184000E+00
        -11   -1    0    0    0    0  0.00000000000E+00  0.00000000000E+00  0.45593999997E+02  0.45594000000E+02  0.51100000000E-03 0. -1.
         11   -1    0    0    0    0 -0.00000000000E+00 -0.00000000000E+00 -0.45593999997E+02  0.45594000000E+02  0.51100000000E-03 0.  1.
         23    2    1    2    0    0  0.00000000000E+00  0.00000000000E+00  0.00000000000E+00  0.91188000000E+02  0.91188000000E+02 0.  0.
    9900012    2    3    3    0    0  0.19741001379E+02 -0.19671022514E+02 -0.24064996174E+02  0.54367077917E+02  0.39999985728E+02 0.  0.
         12    1    3    3    0    0 -0.19741001379E+02  0.19671022514E+02  0.24064996174E+02  0.36820922083E+02  0.00000000000E+00 0. -1.
         11    1    4    4    0    0  0.17369548687E+01 -0.22991406032E+01 -0.11012812085E+02  0.11383544703E+02  0.51100000000E-03 0. -1.
        -11    1    4    4    0    0  0.21368345317E+02  0.17911024892E+01 -0.79503168097E+01  0.22869669157E+02  0.51100000000E-03 0.  1.
        -12    1    4    4    0    0 -0.33642988072E+01 -0.19162984400E+02 -0.51018672801E+01  0.20113864057E+02  0.00000000000E+00 0.  1.
</event>
<event>
 8    1  0.1247338E-006  0.9118800E+02  0.7816164E-02  0.1184000E+00
        -11   -1    0    0    0    0  0.00000000000E+00  0.00000000000E+00  0.45593999997E+02  0.45594000000E+02  0.51100000000E-03 0.  1.
         11   -1    0    0    0    0 -0.00000000000E+00 -0.00000000000E+00 -0.45593999997E+02  0.45594000000E+02  0.51100000000E-03 0. -1.
         23    2    1    2    0    0  0.17763568394E-14  0.35527136788E-14  0.00000000000E+00  0.91188000000E+02  0.91188000000E+02 0.  0.
    9900012    2    3    3    0    0  0.11340248887E+02  0.27293052100E+02  0.21960611940E+02  0.54367076403E+02  0.39999982276E+02 0.  0.
        -12    1    3    3    0    0 -0.11340248887E+02 -0.27293052100E+02 -0.21960611940E+02  0.36820923597E+02  0.00000000000E+00 0.  1.
         11    1    4    4    0    0  0.15848784987E+02  0.30856499902E+02  0.17933734021E+02  0.39050305863E+02  0.51100000000E-03 0. -1.
        -11    1    4    4    0    0 -0.30079350863E+01  0.57686341620E+00  0.85028113411E+01  0.90376017752E+01  0.51100000000E-03 0.  1.
         12    1    4    4    0    0 -0.15006010140E+01 -0.41403112182E+01 -0.44759334216E+01  0.62791687651E+01  0.00000000000E+00 0. -1.
</event>
<event>
 8    1  0.1247338E-006  0.9118800E+02  0.7816164E-02  0.1184000E+00
        -11   -1    0    0    0    0  0.00000000000E+00  0.00000000000E+00  0.45593999997E+02  0.45594000000E+02  0.51100000000E-03 0.  1.
         11   -1    0    0    0    0 -0.00000000000E+00 -0.00000000000E+00 -0.45593999997E+02  0.45594000000E+02  0.51100000000E-03 0. -1.
         23    2    1    2    0    0  0.35527136788E-14  0.35527136788E-14  0.00000000000E+00  0.91188000000E+02  0.91188000000E+02 0.  0.
    9900012    2    3    3    0    0  0.25712869519E+02  0.19213507702E+02  0.18040658966E+02  0.54367137530E+02  0.40000121627E+02 0.  0.
         12    1    3    3    0    0 -0.25712869519E+02 -0.19213507702E+02 -0.18040658966E+02  0.36820862470E+02  0.00000000000E+00 0. -1.
         11    1    4    4    0    0  0.72680098134E+01 -0.11313767625E+02  0.96536214762E+01  0.16553480371E+02  0.51100000000E-03 0. -1.
        -11    1    4    4    0    0  0.12328735931E+02  0.18842662470E+02  0.65804623657E+00  0.22527243145E+02  0.51100000000E-03 0.  1.
         12    1    4    4    0    0  0.61161237743E+01  0.11684612857E+02  0.77289912529E+01  0.15286414014E+02  0.00000000000E+00 0. -1.
</event>
<event>
 8    1  0.1247338E-006  0.9118800E+02  0.7816164E-02  0.1184000E+00
        -11   -1    0    0    0    0  0.00000000000E+00  0.00000000000E+00  0.45593999997E+02  0.45594000000E+02  0.51100000000E-03 0. -1.
         11   -1    0    0    0    0 -0.00000000000E+00 -0.00000000000E+00 -0.45593999997E+02  0.45594000000E+02  0.51100000000E-03 0.  1.
         23    2    1    2    0    0  0.00000000000E+00 -0.17763568394E-14  0.00000000000E+00  0.91188000000E+02  0.91188000000E+02 0.  0.
    9900012    2    3    3    0    0 -0.30480726452E+02 -0.14446440287E+02 -0.14765002793E+02  0.54367087064E+02  0.40000006579E+02 0.  0.
         12    1    3    3    0    0  0.30480726452E+02  0.14446440287E+02  0.14765002793E+02  0.36820912936E+02  0.00000000000E+00 0. -1.
         11    1    4    4    0    0 -0.14958056841E+02 -0.24116424690E+02  0.33057178123E+01  0.28570494830E+02  0.51100000000E-03 0. -1.
        -11    1    4    4    0    0 -0.38743608311E+01  0.20826481155E+01 -0.56021498989E+01  0.71226525096E+01  0.51100000000E-03 0.  1.
         12    1    4    4    0    0 -0.11648308779E+02  0.75873362876E+01 -0.12468570706E+02  0.18673939724E+02  0.00000000000E+00 0. -1.
</event>
<event>
 8    1  0.1247338E-006  0.9118800E+02  0.7816164E-02  0.1184000E+00
        -11   -1    0    0    0    0  0.00000000000E+00  0.00000000000E+00  0.45593999997E+02  0.45594000000E+02  0.51100000000E-03 0. -1.
         11   -1    0    0    0    0 -0.00000000000E+00 -0.00000000000E+00 -0.45593999997E+02  0.45594000000E+02  0.51100000000E-03 0.  1.
         23    2    1    2    0    0  0.00000000000E+00  0.00000000000E+00 -0.35527136788E-14  0.91188000000E+02  0.91188000000E+02 0.  0.
    9900012    2    3    3    0    0 -0.33366226392E+02  0.10565602214E+02 -0.11439118328E+02  0.54366940240E+02  0.39999671863E+02 0.  0.
         12    1    3    3    0    0  0.33366226392E+02 -0.10565602214E+02  0.11439118328E+02  0.36821059760E+02  0.00000000000E+00 0. -1.
         11    1    4    4    0    0 -0.26578901664E+01  0.88482195909E+01  0.10943217447E+02  0.14321640214E+02  0.51100000000E-03 0. -1.
        -11    1    4    4    0    0 -0.11720496775E+02 -0.21514430179E+01 -0.22963317709E+01  0.12135563092E+02  0.51100000000E-03 0.  1.
         12    1    4    4    0    0 -0.18987839450E+02  0.38688256409E+01 -0.20086004004E+02  0.27909736933E+02  0.00000000000E+00 0. -1.
</event>
<event>
 8    1  0.1247338E-006  0.9118800E+02  0.7816164E-02  0.1184000E+00
        -11   -1    0    0    0    0  0.00000000000E+00  0.00000000000E+00  0.45593999997E+02  0.45594000000E+02  0.51100000000E-03 0.  1.
         11   -1    0    0    0    0 -0.00000000000E+00 -0.00000000000E+00 -0.45593999997E+02  0.45594000000E+02  0.51100000000E-03 0. -1.
         23    2    1    2    0    0  0.00000000000E+00  0.71054273576E-14  0.17763568394E-14  0.91188000000E+02  0.91188000000E+02 0.  0.
    9900012    2    3    3    0    0 -0.84962482008E+01 -0.32487692907E+02  0.15104474014E+02  0.54367060860E+02  0.39999946843E+02 0.  0.
         12    1    3    3    0    0  0.84962482008E+01  0.32487692907E+02 -0.15104474014E+02  0.36820939140E+02  0.00000000000E+00 0. -1.
         11    1    4    4    0    0 -0.68803886409E+01 -0.35881343112E+00  0.16735381603E+02  0.18098107431E+02  0.51100000000E-03 0. -1.
        -11    1    4    4    0    0 -0.86236986304E+01 -0.20009175554E+02 -0.37525606504E+01  0.22109206139E+02  0.51100000000E-03 0.  1.
        -12    1    4    4    0    0  0.70078390705E+01 -0.12119703922E+02  0.21216530605E+01  0.14159747290E+02  0.00000000000E+00 0.  1.
</event>
<event>
 8    1  0.1247338E-006  0.9118800E+02  0.7816164E-02  0.1184000E+00
        -11   -1    0    0    0    0  0.00000000000E+00  0.00000000000E+00  0.45593999997E+02  0.45594000000E+02  0.51100000000E-03 0.  1.
         11   -1    0    0    0    0 -0.00000000000E+00 -0.00000000000E+00 -0.45593999997E+02  0.45594000000E+02  0.51100000000E-03 0. -1.
         23    2    1    2    0    0 -0.35527136788E-14  0.00000000000E+00  0.00000000000E+00  0.91188000000E+02  0.91188000000E+02 0.  0.
    9900012    2    3    3    0    0 -0.28186893805E+02 -0.19611265891E+02  0.13292037395E+02  0.54367068584E+02  0.39999964451E+02 0.  0.
        -12    1    3    3    0    0  0.28186893805E+02  0.19611265891E+02 -0.13292037395E+02  0.36820931416E+02  0.00000000000E+00 0.  1.
         11    1    4    4    0    0 -0.20933978805E+01 -0.17333514543E+01 -0.42633334251E+01  0.50559701448E+01  0.51100000000E-03 0. -1.
        -11    1    4    4    0    0  0.51580540609E+01 -0.12638400735E+02  0.13417020971E+01  0.13716226143E+02  0.51100000000E-03 0.  1.
        -12    1    4    4    0    0 -0.31251549986E+02 -0.52395137024E+01  0.16213668723E+02  0.35594872296E+02  0.00000000000E+00 0.  1.
</event>
<event>
 8    1  0.1247338E-006  0.9118800E+02  0.7816164E-02  0.1184000E+00
        -11   -1    0    0    0    0  0.00000000000E+00  0.00000000000E+00  0.45593999997E+02  0.45594000000E+02  0.51100000000E-03 0. -1.
         11   -1    0    0    0    0 -0.00000000000E+00 -0.00000000000E+00 -0.45593999997E+02  0.45594000000E+02  0.51100000000E-03 0.  1.
         23    2    1    2    0    0 -0.17763568394E-14  0.17763568394E-14  0.00000000000E+00  0.91188000000E+02  0.91188000000E+02 0.  0.
    9900012    2    3    3    0    0  0.15409339245E+02  0.65634922080E+01  0.32791034923E+02  0.54367093748E+02  0.40000021816E+02 0.  0.
        -12    1    3    3    0    0 -0.15409339245E+02 -0.65634922080E+01 -0.32791034923E+02  0.36820906252E+02  0.00000000000E+00 0.  1.
         11    1    4    4    0    0  0.84197855501E+01 -0.70119299829E+01  0.13686174950E+02  0.17532008893E+02  0.51100000000E-03 0. -1.
        -11    1    4    4    0    0  0.99208077418E+01 -0.24538678141E+01 -0.17504542499E+01  0.10368605685E+02  0.51100000000E-03 0.  1.
        -12    1    4    4    0    0 -0.29312540465E+01  0.16029290005E+02  0.20855314222E+02  0.26466479170E+02  0.00000000000E+00 0.  1.
</event>
<event>
 8    1  0.1247338E-006  0.9118800E+02  0.7816164E-02  0.1184000E+00
        -11   -1    0    0    0    0  0.00000000000E+00  0.00000000000E+00  0.45593999997E+02  0.45594000000E+02  0.51100000000E-03 0.  1.
         11   -1    0    0    0    0 -0.00000000000E+00 -0.00000000000E+00 -0.45593999997E+02  0.45594000000E+02  0.51100000000E-03 0. -1.
         23    2    1    2    0    0 -0.71054273576E-14 -0.35527136788E-14  0.88817841970E-15  0.91188000000E+02  0.91188000000E+02 0.  0.
    9900012    2    3    3    0    0  0.31900645850E+02  0.17738262491E+02 -0.48459232889E+01  0.54367080207E+02  0.39999990948E+02 0.  0.
        -12    1    3    3    0    0 -0.31900645850E+02 -0.17738262491E+02  0.48459232889E+01  0.36820919793E+02  0.00000000000E+00 0.  1.
         11    1    4    4    0    0  0.11484430619E+02 -0.25581110143E+01 -0.52224130886E+01  0.12872827092E+02  0.51100000000E-03 0. -1.
        -11    1    4    4    0    0 -0.20115096138E+01 -0.17547223294E+01  0.85833004750E+01  0.89887857180E+01  0.51100000000E-03 0.  1.
         12    1    4    4    0    0  0.22427724845E+02  0.22051095835E+02 -0.82068106753E+01  0.32505467397E+02  0.00000000000E+00 0. -1.
</event>
<event>
 8    1  0.1247338E-006  0.9118800E+02  0.7816164E-02  0.1184000E+00
        -11   -1    0    0    0    0  0.00000000000E+00  0.00000000000E+00  0.45593999997E+02  0.45594000000E+02  0.51100000000E-03 0. -1.
         11   -1    0    0    0    0 -0.00000000000E+00 -0.00000000000E+00 -0.45593999997E+02  0.45594000000E+02  0.51100000000E-03 0.  1.
         23    2    1    2    0    0  0.71054273576E-14  0.71054273576E-14  0.00000000000E+00  0.91188000000E+02  0.91188000000E+02 0.  0.
    9900012    2    3    3    0    0 -0.21355193063E+02 -0.26060729269E+02  0.14851776809E+02  0.54367066346E+02  0.39999959348E+02 0.  0.
         12    1    3    3    0    0  0.21355193063E+02  0.26060729269E+02 -0.14851776809E+02  0.36820933654E+02  0.00000000000E+00 0. -1.
         11    1    4    4    0    0  0.69096483095E+01 -0.78475433661E+01  0.14387330312E+02  0.17785456148E+02  0.51100000000E-03 0. -1.
        -11    1    4    4    0    0 -0.14353993971E+01  0.16048914402E+01  0.23321051829E+01  0.31740766861E+01  0.51100000000E-03 0.  1.
         12    1    4    4    0    0 -0.26829441976E+02 -0.19818077343E+02 -0.18676586862E+01  0.33407533511E+02  0.00000000000E+00 0. -1.
</event>
<event>
 8    1  0.1247338E-006  0.9118800E+02  0.7816164E-02  0.1184000E+00
        -11   -1    0    0    0    0  0.00000000000E+00  0.00000000000E+00  0.45593999997E+02  0.45594000000E+02  0.51100000000E-03 0.  1.
         11   -1    0    0    0    0 -0.00000000000E+00 -0.00000000000E+00 -0.45593999997E+02  0.45594000000E+02  0.51100000000E-03 0. -1.
         23    2    1    2    0    0  0.00000000000E+00  0.00000000000E+00 -0.71054273576E-14  0.91188000000E+02  0.91188000000E+02 0.  0.
    9900012    2    3    3    0    0 -0.17852256176E+02 -0.25413985736E+01 -0.32103241325E+02  0.54367083922E+02  0.39999999416E+02 0.  0.
        -12    1    3    3    0    0  0.17852256176E+02  0.25413985736E+01  0.32103241325E+02  0.36820916078E+02  0.00000000000E+00 0.  1.
         11    1    4    4    0    0 -0.12811374540E+01 -0.59198548725E+01 -0.26256634362E+02  0.26946184204E+02  0.51100000000E-03 0.  1.
        -11    1    4    4    0    0 -0.13233672220E+02 -0.33489931765E+01 -0.11637121760E+02  0.17937905085E+02  0.51100000000E-03 0. -1.
        -12    1    4    4    0    0 -0.33374465017E+01  0.67274494753E+01  0.57905147965E+01  0.94829946327E+01  0.00000000000E+00 0.  1.
</event>
<event>
 8    1  0.1247338E-006  0.9118800E+02  0.7816164E-02  0.1184000E+00
        -11   -1    0    0    0    0  0.00000000000E+00  0.00000000000E+00  0.45593999997E+02  0.45594000000E+02  0.51100000000E-03 0.  1.
         11   -1    0    0    0    0 -0.00000000000E+00 -0.00000000000E+00 -0.45593999997E+02  0.45594000000E+02  0.51100000000E-03 0. -1.
         23    2    1    2    0    0  0.00000000000E+00 -0.88817841970E-15  0.00000000000E+00  0.91188000000E+02  0.91188000000E+02 0.  0.
    9900012    2    3    3    0    0  0.15581937431E+02 -0.61028806048E+01  0.32798454754E+02  0.54367074427E+02  0.39999977772E+02 0.  0.
         12    1    3    3    0    0 -0.15581937431E+02  0.61028806048E+01 -0.32798454754E+02  0.36820925573E+02  0.00000000000E+00 0. -1.
         11    1    4    4    0    0 -0.25171296695E+01 -0.31375943283E+01  0.31292311999E+01  0.50963249608E+01  0.51100000000E-03 0. -1.
        -11    1    4    4    0    0 -0.22439647742E+01 -0.29951589378E+01  0.28659316681E+02  0.28902643268E+02  0.51100000000E-03 0.  1.
         12    1    4    4    0    0  0.20343031875E+02  0.29872661343E-01  0.10099068729E+01  0.20368106199E+02  0.00000000000E+00 0. -1.
</event>
<event>
 8    1  0.1247338E-006  0.9118800E+02  0.7816164E-02  0.1184000E+00
        -11   -1    0    0    0    0  0.00000000000E+00  0.00000000000E+00  0.45593999997E+02  0.45594000000E+02  0.51100000000E-03 0.  1.
         11   -1    0    0    0    0 -0.00000000000E+00 -0.00000000000E+00 -0.45593999997E+02  0.45594000000E+02  0.51100000000E-03 0. -1.
         23    2    1    2    0    0  0.71054273576E-14  0.00000000000E+00  0.00000000000E+00  0.91188000000E+02  0.91188000000E+02 0.  0.
    9900012    2    3    3    0    0 -0.32475748788E+02  0.15353991396E+02  0.80846304500E+01  0.54367074419E+02  0.39999977753E+02 0.  0.
         12    1    3    3    0    0  0.32475748788E+02 -0.15353991396E+02 -0.80846304500E+01  0.36820925581E+02  0.00000000000E+00 0. -1.
         11    1    4    4    0    0 -0.73041831254E+01 -0.10963383058E+02  0.54814319643E+00  0.13185117384E+02  0.51100000000E-03 0. -1.
        -11    1    4    4    0    0 -0.31637017593E+01  0.15494377486E+02  0.46739060250E+01  0.16490304433E+02  0.51100000000E-03 0.  1.
        -12    1    4    4    0    0 -0.22007863903E+02  0.10822996968E+02  0.28625812286E+01  0.24691652602E+02  0.00000000000E+00 0.  1.
</event>
<event>
 8    1  0.1247338E-006  0.9118800E+02  0.7816164E-02  0.1184000E+00
        -11   -1    0    0    0    0  0.00000000000E+00  0.00000000000E+00  0.45593999997E+02  0.45594000000E+02  0.51100000000E-03 0.  1.
         11   -1    0    0    0    0 -0.00000000000E+00 -0.00000000000E+00 -0.45593999997E+02  0.45594000000E+02  0.51100000000E-03 0. -1.
         23    2    1    2    0    0  0.35527136788E-14  0.00000000000E+00  0.00000000000E+00  0.91188000000E+02  0.91188000000E+02 0.  0.
    9900012    2    3    3    0    0  0.31016614435E+02 -0.30518266144E+01 -0.19607027368E+02  0.54367088293E+02  0.40000009382E+02 0.  0.
        -12    1    3    3    0    0 -0.31016614435E+02  0.30518266144E+01  0.19607027368E+02  0.36820911707E+02  0.00000000000E+00 0.  1.
         11    1    4    4    0    0  0.14145203485E+02  0.77656350473E+01 -0.27299052275E+02  0.31711671742E+02  0.51100000000E-03 0. -1.
        -11    1    4    4    0    0  0.84180881867E+01 -0.33346337829E+01  0.10809654415E+00  0.90551463991E+01  0.51100000000E-03 0.  1.
         12    1    4    4    0    0  0.84533227635E+01 -0.74828278788E+01  0.75839283624E+01  0.13600270152E+02  0.00000000000E+00 0. -1.
</event>
<event>
 8    1  0.1247338E-006  0.9118800E+02  0.7816164E-02  0.1184000E+00
        -11   -1    0    0    0    0  0.00000000000E+00  0.00000000000E+00  0.45593999997E+02  0.45594000000E+02  0.51100000000E-03 0.  1.
         11   -1    0    0    0    0 -0.00000000000E+00 -0.00000000000E+00 -0.45593999997E+02  0.45594000000E+02  0.51100000000E-03 0. -1.
         23    2    1    2    0    0  0.00000000000E+00  0.35527136788E-14  0.44408920985E-15  0.91188000000E+02  0.91188000000E+02 0.  0.
    9900012    2    3    3    0    0 -0.20642617975E+02  0.30335630669E+02  0.30678942787E+01  0.54367080128E+02  0.39999990768E+02 0.  0.
         12    1    3    3    0    0  0.20642617975E+02 -0.30335630669E+02 -0.30678942787E+01  0.36820919872E+02  0.00000000000E+00 0. -1.
         11    1    4    4    0    0 -0.98829920452E+01  0.26537916571E+01  0.73700524575E+01  0.12610861010E+02  0.51100000000E-03 0. -1.
        -11    1    4    4    0    0 -0.20201361795E+02  0.17493881271E+02  0.13562098676E+01  0.26757619583E+02  0.51100000000E-03 0.  1.
         12    1    4    4    0    0  0.94417358650E+01  0.10187957740E+02 -0.56583680464E+01  0.14998599535E+02  0.00000000000E+00 0. -1.
</event>
<event>
 8    1  0.1247338E-006  0.9118800E+02  0.7816164E-02  0.1184000E+00
        -11   -1    0    0    0    0  0.00000000000E+00  0.00000000000E+00  0.45593999997E+02  0.45594000000E+02  0.51100000000E-03 0. -1.
         11   -1    0    0    0    0 -0.00000000000E+00 -0.00000000000E+00 -0.45593999997E+02  0.45594000000E+02  0.51100000000E-03 0.  1.
         23    2    1    2    0    0  0.35527136788E-14  0.00000000000E+00 -0.35527136788E-14  0.91188000000E+02  0.91188000000E+02 0.  0.
    9900012    2    3    3    0    0 -0.19146554855E+02 -0.42494061780E+01  0.31162989912E+02  0.54367082631E+02  0.39999996473E+02 0.  0.
        -12    1    3    3    0    0  0.19146554855E+02  0.42494061780E+01 -0.31162989912E+02  0.36820917369E+02  0.00000000000E+00 0.  1.
         11    1    4    4    0    0  0.42708521069E+01 -0.76438343652E+01 -0.13714390762E+00  0.87571222576E+01  0.51100000000E-03 0. -1.
        -11    1    4    4    0    0  0.14802202164E+01  0.68255798993E+01  0.25795925673E+01  0.74453939402E+01  0.51100000000E-03 0.  1.
         12    1    4    4    0    0 -0.24897627179E+02 -0.34311517121E+01  0.28720541252E+02  0.38164566433E+02  0.00000000000E+00 0. -1.
</event>
<event>
 8    1  0.1247338E-006  0.9118800E+02  0.7816164E-02  0.1184000E+00
        -11   -1    0    0    0    0  0.00000000000E+00  0.00000000000E+00  0.45593999997E+02  0.45594000000E+02  0.51100000000E-03 0. -1.
         11   -1    0    0    0    0 -0.00000000000E+00 -0.00000000000E+00 -0.45593999997E+02  0.45594000000E+02  0.51100000000E-03 0.  1.
         23    2    1    2    0    0 -0.17763568394E-14  0.00000000000E+00  0.00000000000E+00  0.91188000000E+02  0.91188000000E+02 0.  0.
    9900012    2    3    3    0    0 -0.14160793402E+02  0.87804577265E+01 -0.32835282503E+02  0.54367078166E+02  0.39999986295E+02 0.  0.
         12    1    3    3    0    0  0.14160793402E+02 -0.87804577265E+01  0.32835282503E+02  0.36820921834E+02  0.00000000000E+00 0. -1.
         11    1    4    4    0    0  0.66338144482E+01  0.15849022413E+00  0.47279246118E+01  0.81477533517E+01  0.51100000000E-03 0. -1.
        -11    1    4    4    0    0 -0.10447321077E+01  0.48234508924E+01 -0.15950300277E+02  0.16696383527E+02  0.51100000000E-03 0.  1.
         12    1    4    4    0    0 -0.19749875742E+02  0.37985166100E+01 -0.21612906838E+02  0.29522941288E+02  0.00000000000E+00 0. -1.
</event>
<event>
 8    1  0.1247338E-006  0.9118800E+02  0.7816164E-02  0.1184000E+00
        -11   -1    0    0    0    0  0.00000000000E+00  0.00000000000E+00  0.45593999997E+02  0.45594000000E+02  0.51100000000E-03 0.  1.
         11   -1    0    0    0    0 -0.00000000000E+00 -0.00000000000E+00 -0.45593999997E+02  0.45594000000E+02  0.51100000000E-03 0. -1.
         23    2    1    2    0    0  0.00000000000E+00 -0.17763568394E-14  0.00000000000E+00  0.91188000000E+02  0.91188000000E+02 0.  0.
    9900012    2    3    3    0    0 -0.32588882185E+02  0.11954047621E+02 -0.12282192636E+02  0.54366990338E+02  0.39999786074E+02 0.  0.
        -12    1    3    3    0    0  0.32588882185E+02 -0.11954047621E+02  0.12282192636E+02  0.36821009662E+02  0.00000000000E+00 0.  1.
         11    1    4    4    0    0 -0.18247917556E+02  0.36196887063E+01 -0.14204511234E+02  0.23406340618E+02  0.51100000000E-03 0. -1.
        -11    1    4    4    0    0 -0.12776636185E+02 -0.40836383853E+01 -0.74323872467E+01  0.15334892080E+02  0.51100000000E-03 0.  1.
        -12    1    4    4    0    0 -0.15643284435E+01  0.12417997300E+02  0.93547058439E+01  0.15625757640E+02  0.00000000000E+00 0.  1.
</event>
<event>
 8    1  0.1247338E-006  0.9118800E+02  0.7816164E-02  0.1184000E+00
        -11   -1    0    0    0    0  0.00000000000E+00  0.00000000000E+00  0.45593999997E+02  0.45594000000E+02  0.51100000000E-03 0.  1.
         11   -1    0    0    0    0 -0.00000000000E+00 -0.00000000000E+00 -0.45593999997E+02  0.45594000000E+02  0.51100000000E-03 0. -1.
         23    2    1    2    0    0  0.00000000000E+00 -0.35527136788E-14  0.00000000000E+00  0.91188000000E+02  0.91188000000E+02 0.  0.
    9900012    2    3    3    0    0 -0.17517889474E+02  0.23837345024E+02  0.21924521787E+02  0.54367080334E+02  0.39999991238E+02 0.  0.
         12    1    3    3    0    0  0.17517889474E+02 -0.23837345024E+02 -0.21924521787E+02  0.36820919666E+02  0.00000000000E+00 0. -1.
         11    1    4    4    0    0  0.87632183428E+00  0.64335680563E+01  0.16585962464E+02  0.17811594230E+02  0.51100000000E-03 0. -1.
        -11    1    4    4    0    0 -0.97411750124E+00 -0.64444914735E+01  0.20886563862E+01  0.68441844671E+01  0.51100000000E-03 0.  1.
         12    1    4    4    0    0 -0.17420093807E+02  0.23848268441E+02  0.32499029373E+01  0.29711301637E+02  0.00000000000E+00 0. -1.
</event>
<event>
 8    1  0.1247338E-006  0.9118800E+02  0.7816164E-02  0.1184000E+00
        -11   -1    0    0    0    0  0.00000000000E+00  0.00000000000E+00  0.45593999997E+02  0.45594000000E+02  0.51100000000E-03 0. -1.
         11   -1    0    0    0    0 -0.00000000000E+00 -0.00000000000E+00 -0.45593999997E+02  0.45594000000E+02  0.51100000000E-03 0.  1.
         23    2    1    2    0    0  0.00000000000E+00  0.00000000000E+00  0.35527136788E-14  0.91188000000E+02  0.91188000000E+02 0.  0.
    9900012    2    3    3    0    0  0.24060249390E+02 -0.14947088986E+02  0.23525920191E+02  0.54367082159E+02  0.39999995397E+02 0.  0.
        -12    1    3    3    0    0 -0.24060249390E+02  0.14947088986E+02 -0.23525920191E+02  0.36820917841E+02  0.00000000000E+00 0.  1.
         11    1    4    4    0    0  0.16656749236E+02 -0.15981034243E+02  0.32214467296E+02  0.39630955754E+02  0.51100000000E-03 0. -1.
        -11    1    4    4    0    0  0.26643998746E+01 -0.39573894393E+01 -0.21149276135E+01  0.52185129048E+01  0.51100000000E-03 0.  1.
         12    1    4    4    0    0  0.47391002790E+01  0.49913346968E+01 -0.65736194910E+01  0.95176134994E+01  0.00000000000E+00 0. -1.
</event>
<event>
 8    1  0.1247338E-006  0.9118800E+02  0.7816164E-02  0.1184000E+00
        -11   -1    0    0    0    0  0.00000000000E+00  0.00000000000E+00  0.45593999997E+02  0.45594000000E+02  0.51100000000E-03 0.  1.
         11   -1    0    0    0    0 -0.00000000000E+00 -0.00000000000E+00 -0.45593999997E+02  0.45594000000E+02  0.51100000000E-03 0. -1.
         23    2    1    2    0    0  0.00000000000E+00  0.00000000000E+00 -0.35527136788E-14  0.91188000000E+02  0.91188000000E+02 0.  0.
    9900012    2    3    3    0    0  0.49201274635E+01  0.26339802943E+02 -0.25254451026E+02  0.54367079724E+02  0.39999989847E+02 0.  0.
        -12    1    3    3    0    0 -0.49201274635E+01 -0.26339802943E+02  0.25254451026E+02  0.36820920276E+02  0.00000000000E+00 0.  1.
         11    1    4    4    0    0 -0.11937172422E+01  0.24719908236E+02 -0.12899519082E+02  0.27908715787E+02  0.51100000000E-03 0. -1.
        -11    1    4    4    0    0 -0.33261180058E+01 -0.26781187079E+01  0.47918188019E+01  0.64184817904E+01  0.51100000000E-03 0.  1.
         12    1    4    4    0    0  0.94399627115E+01  0.42980134147E+01 -0.17146750746E+02  0.20039882147E+02  0.00000000000E+00 0. -1.
</event>
<event>
 8    1  0.1247338E-006  0.9118800E+02  0.7816164E-02  0.1184000E+00
        -11   -1    0    0    0    0  0.00000000000E+00  0.00000000000E+00  0.45593999997E+02  0.45594000000E+02  0.51100000000E-03 0. -1.
         11   -1    0    0    0    0 -0.00000000000E+00 -0.00000000000E+00 -0.45593999997E+02  0.45594000000E+02  0.51100000000E-03 0.  1.
         23    2    1    2    0    0  0.00000000000E+00  0.35527136788E-14  0.17763568394E-14  0.91188000000E+02  0.91188000000E+02 0.  0.
    9900012    2    3    3    0    0 -0.16255601983E+02 -0.31473730667E+02  0.10046822593E+02  0.54367096125E+02  0.40000027237E+02 0.  0.
        -12    1    3    3    0    0  0.16255601983E+02  0.31473730667E+02 -0.10046822593E+02  0.36820903875E+02  0.00000000000E+00 0.  1.
         11    1    4    4    0    0  0.38270465347E+01 -0.65478484231E+01  0.13538135938E+02  0.15517787506E+02  0.51100000000E-03 0. -1.
        -11    1    4    4    0    0  0.33454850033E+01 -0.10297669929E+02 -0.29577616805E+01  0.11224198426E+02  0.51100000000E-03 0.  1.
        -12    1    4    4    0    0 -0.23428133521E+02 -0.14628212315E+02 -0.53355166500E+00  0.27625110193E+02  0.00000000000E+00 0.  1.
</event>
<event>
 8    1  0.1247338E-006  0.9118800E+02  0.7816164E-02  0.1184000E+00
        -11   -1    0    0    0    0  0.00000000000E+00  0.00000000000E+00  0.45593999997E+02  0.45594000000E+02  0.51100000000E-03 0.  1.
         11   -1    0    0    0    0 -0.00000000000E+00 -0.00000000000E+00 -0.45593999997E+02  0.45594000000E+02  0.51100000000E-03 0. -1.
         23    2    1    2    0    0 -0.17763568394E-14  0.00000000000E+00  0.00000000000E+00  0.91188000000E+02  0.91188000000E+02 0.  0.
    9900012    2    3    3    0    0  0.13807657825E+02 -0.26332148569E+02  0.21719700496E+02  0.54367097614E+02  0.40000030632E+02 0.  0.
         12    1    3    3    0    0 -0.13807657825E+02  0.26332148569E+02 -0.21719700496E+02  0.36820902386E+02  0.00000000000E+00 0. -1.
         11    1    4    4    0    0 -0.41342240277E+01 -0.59164139484E+01 -0.87658123872E+01  0.11354964966E+02  0.51100000000E-03 0. -1.
        -11    1    4    4    0    0  0.14355472471E+02 -0.13394888889E+02  0.12242069538E+02  0.23138083435E+02  0.51100000000E-03 0.  1.
         12    1    4    4    0    0  0.35864093821E+01 -0.70208457312E+01  0.18243443345E+02  0.19874049213E+02  0.00000000000E+00 0. -1.
</event>
<event>
 8    1  0.1247338E-006  0.9118800E+02  0.7816164E-02  0.1184000E+00
        -11   -1    0    0    0    0  0.00000000000E+00  0.00000000000E+00  0.45593999997E+02  0.45594000000E+02  0.51100000000E-03 0.  1.
         11   -1    0    0    0    0 -0.00000000000E+00 -0.00000000000E+00 -0.45593999997E+02  0.45594000000E+02  0.51100000000E-03 0. -1.
         23    2    1    2    0    0  0.00000000000E+00  0.00000000000E+00 -0.11102230246E-14  0.91188000000E+02  0.91188000000E+02 0.  0.
    9900012    2    3    3    0    0 -0.30552465119E+02  0.20465028735E+02  0.18731989273E+01  0.54367090177E+02  0.40000013677E+02 0.  0.
         12    1    3    3    0    0  0.30552465119E+02 -0.20465028735E+02 -0.18731989273E+01  0.36820909823E+02  0.00000000000E+00 0. -1.
         11    1    4    4    0    0 -0.67636491369E+00  0.94670495098E+01 -0.31565781609E+01  0.10002323823E+02  0.51100000000E-03 0.  1.
        -11    1    4    4    0    0 -0.24855018880E+02 -0.41180435322E+01 -0.48008873426E+01  0.25647198007E+02  0.51100000000E-03 0. -1.
         12    1    4    4    0    0 -0.50210813251E+01  0.15116022757E+02  0.98306644308E+01  0.18717568347E+02  0.00000000000E+00 0. -1.
</event>
<event>
 8    1  0.1247338E-006  0.9118800E+02  0.7816164E-02  0.1184000E+00
        -11   -1    0    0    0    0  0.00000000000E+00  0.00000000000E+00  0.45593999997E+02  0.45594000000E+02  0.51100000000E-03 0.  1.
         11   -1    0    0    0    0 -0.00000000000E+00 -0.00000000000E+00 -0.45593999997E+02  0.45594000000E+02  0.51100000000E-03 0. -1.
         23    2    1    2    0    0  0.00000000000E+00  0.00000000000E+00  0.00000000000E+00  0.91188000000E+02  0.91188000000E+02 0.  0.
    9900012    2    3    3    0    0  0.34250231438E+02  0.10433203854E+02  0.85932649872E+01  0.54367159442E+02  0.40000171580E+02 0.  0.
         12    1    3    3    0    0 -0.34250231438E+02 -0.10433203854E+02 -0.85932649872E+01  0.36820840558E+02  0.00000000000E+00 0. -1.
         11    1    4    4    0    0  0.88197991078E+01  0.49487634228E+01  0.94465927744E+01  0.13838975071E+02  0.51100000000E-03 0. -1.
        -11    1    4    4    0    0  0.13606176108E+02  0.15244381196E+02  0.89739601426E+01  0.22317059557E+02  0.51100000000E-03 0.  1.
        -12    1    4    4    0    0  0.11824256222E+02 -0.97599407649E+01 -0.98272879298E+01  0.18211124814E+02  0.00000000000E+00 0.  1.
</event>
<event>
 8    1  0.1247338E-006  0.9118800E+02  0.7816164E-02  0.1184000E+00
        -11   -1    0    0    0    0  0.00000000000E+00  0.00000000000E+00  0.45593999997E+02  0.45594000000E+02  0.51100000000E-03 0.  1.
         11   -1    0    0    0    0 -0.00000000000E+00 -0.00000000000E+00 -0.45593999997E+02  0.45594000000E+02  0.51100000000E-03 0. -1.
         23    2    1    2    0    0 -0.71054273576E-14 -0.35527136788E-14 -0.17763568394E-14  0.91188000000E+02  0.91188000000E+02 0.  0.
    9900012    2    3    3    0    0  0.28698203037E+02  0.22585268198E+02  0.47009229148E+01  0.54367083752E+02  0.39999999028E+02 0.  0.
        -12    1    3    3    0    0 -0.28698203037E+02 -0.22585268198E+02 -0.47009229148E+01  0.36820916248E+02  0.00000000000E+00 0.  1.
         11    1    4    4    0    0 -0.18643046946E+01  0.89495649162E+00 -0.20799675630E+01  0.29330605927E+01  0.51100000000E-03 0. -1.
        -11    1    4    4    0    0  0.34192424117E+02  0.20060192795E+02 -0.40945739947E+01  0.39853465827E+02  0.51100000000E-03 0.  1.
        -12    1    4    4    0    0 -0.36299163854E+01  0.16301189120E+01  0.10875464472E+02  0.11580557332E+02  0.00000000000E+00 0.  1.
</event>
<event>
 8    1  0.1247338E-006  0.9118800E+02  0.7816164E-02  0.1184000E+00
        -11   -1    0    0    0    0  0.00000000000E+00  0.00000000000E+00  0.45593999997E+02  0.45594000000E+02  0.51100000000E-03 0.  1.
         11   -1    0    0    0    0 -0.00000000000E+00 -0.00000000000E+00 -0.45593999997E+02  0.45594000000E+02  0.51100000000E-03 0. -1.
         23    2    1    2    0    0  0.35527136788E-14  0.00000000000E+00  0.35527136788E-14  0.91188000000E+02  0.91188000000E+02 0.  0.
    9900012    2    3    3    0    0 -0.16805171857E+02  0.29486548604E+02 -0.14279764454E+02  0.54367054567E+02  0.39999932497E+02 0.  0.
        -12    1    3    3    0    0  0.16805171857E+02 -0.29486548604E+02  0.14279764454E+02  0.36820945433E+02  0.00000000000E+00 0.  1.
         11    1    4    4    0    0 -0.83258769230E+01  0.10686293842E+02 -0.61756518258E+01  0.14888108622E+02  0.51100000000E-03 0. -1.
        -11    1    4    4    0    0  0.12390580695E+02  0.50986056991E+01 -0.60900858882E+00  0.13412425648E+02  0.51100000000E-03 0.  1.
        -12    1    4    4    0    0 -0.20869875629E+02  0.13701649063E+02 -0.74951040395E+01  0.26066520297E+02  0.00000000000E+00 0.  1.
</event>
<event>
 8    1  0.1247338E-006  0.9118800E+02  0.7816164E-02  0.1184000E+00
        -11   -1    0    0    0    0  0.00000000000E+00  0.00000000000E+00  0.45593999997E+02  0.45594000000E+02  0.51100000000E-03 0. -1.
         11   -1    0    0    0    0 -0.00000000000E+00 -0.00000000000E+00 -0.45593999997E+02  0.45594000000E+02  0.51100000000E-03 0.  1.
         23    2    1    2    0    0  0.00000000000E+00  0.35527136788E-14 -0.35527136788E-14  0.91188000000E+02  0.91188000000E+02 0.  0.
    9900012    2    3    3    0    0 -0.15851845129E+02 -0.30439783533E+02  0.13338596660E+02  0.54367087784E+02  0.40000008221E+02 0.  0.
        -12    1    3    3    0    0  0.15851845129E+02  0.30439783533E+02 -0.13338596660E+02  0.36820912216E+02  0.00000000000E+00 0.  1.
         11    1    4    4    0    0 -0.85333924057E+01 -0.31942989468E+02  0.20781645931E+02  0.39051890735E+02  0.51100000000E-03 0. -1.
        -11    1    4    4    0    0 -0.50162776711E+01  0.61898574893E+01 -0.57519613734E+01  0.98266188138E+01  0.51100000000E-03 0.  1.
         12    1    4    4    0    0 -0.23021750526E+01 -0.46866515541E+01 -0.16910878981E+01  0.54885782350E+01  0.00000000000E+00 0. -1.
</event>
<event>
 8    1  0.1247338E-006  0.9118800E+02  0.7816164E-02  0.1184000E+00
        -11   -1    0    0    0    0  0.00000000000E+00  0.00000000000E+00  0.45593999997E+02  0.45594000000E+02  0.51100000000E-03 0. -1.
         11   -1    0    0    0    0 -0.00000000000E+00 -0.00000000000E+00 -0.45593999997E+02  0.45594000000E+02  0.51100000000E-03 0.  1.
         23    2    1    2    0    0  0.22204460493E-15  0.00000000000E+00  0.00000000000E+00  0.91188000000E+02  0.91188000000E+02 0.  0.
    9900012    2    3    3    0    0 -0.19679620872E+01 -0.13473759327E+02 -0.34210592757E+02  0.54367085808E+02  0.40000003715E+02 0.  0.
         12    1    3    3    0    0  0.19679620872E+01  0.13473759327E+02  0.34210592757E+02  0.36820914192E+02  0.00000000000E+00 0. -1.
         11    1    4    4    0    0  0.76284875991E+01  0.90049549622E+00  0.68076433751E+00  0.77115598638E+01  0.51100000000E-03 0. -1.
        -11    1    4    4    0    0  0.87746913678E+01 -0.64663836048E+01 -0.13853938135E+02  0.17627845235E+02  0.51100000000E-03 0.  1.
         12    1    4    4    0    0 -0.18371141054E+02 -0.79078712181E+01 -0.21037418960E+02  0.29027680709E+02  0.00000000000E+00 0. -1.
</event>
<event>
 8    1  0.1247338E-006  0.9118800E+02  0.7816164E-02  0.1184000E+00
        -11   -1    0    0    0    0  0.00000000000E+00  0.00000000000E+00  0.45593999997E+02  0.45594000000E+02  0.51100000000E-03 0.  1.
         11   -1    0    0    0    0 -0.00000000000E+00 -0.00000000000E+00 -0.45593999997E+02  0.45594000000E+02  0.51100000000E-03 0. -1.
         23    2    1    2    0    0 -0.35527136788E-14  0.00000000000E+00 -0.88817841970E-15  0.91188000000E+02  0.91188000000E+02 0.  0.
    9900012    2    3    3    0    0 -0.31409061248E+02 -0.18298407640E+02 -0.58664139980E+01  0.54367140914E+02  0.40000129341E+02 0.  0.
        -12    1    3    3    0    0  0.31409061248E+02  0.18298407640E+02  0.58664139980E+01  0.36820859086E+02  0.00000000000E+00 0.  1.
         11    1    4    4    0    0 -0.17864156427E+02 -0.72456083506E+01 -0.50616043127E+01  0.19931050241E+02  0.51100000000E-03 0. -1.
        -11    1    4    4    0    0  0.27918820067E+01 -0.14706804370E+02  0.63118346042E+01  0.16245736556E+02  0.51100000000E-03 0.  1.
        -12    1    4    4    0    0 -0.16336786827E+02  0.36540050800E+01 -0.71166442896E+01  0.18190354117E+02  0.00000000000E+00 0.  1.
</event>
<event>
 8    1  0.1247338E-006  0.9118800E+02  0.7816164E-02  0.1184000E+00
        -11   -1    0    0    0    0  0.00000000000E+00  0.00000000000E+00  0.45593999997E+02  0.45594000000E+02  0.51100000000E-03 0.  1.
         11   -1    0    0    0    0 -0.00000000000E+00 -0.00000000000E+00 -0.45593999997E+02  0.45594000000E+02  0.51100000000E-03 0. -1.
         23    2    1    2    0    0  0.35527136788E-14  0.35527136788E-14  0.00000000000E+00  0.91188000000E+02  0.91188000000E+02 0.  0.
    9900012    2    3    3    0    0  0.21204998466E+02  0.29908603640E+02  0.34062848412E+01  0.54367091428E+02  0.40000016528E+02 0.  0.
         12    1    3    3    0    0 -0.21204998466E+02 -0.29908603640E+02 -0.34062848412E+01  0.36820908572E+02  0.00000000000E+00 0. -1.
         11    1    4    4    0    0  0.17214674950E+02  0.17573385398E+01  0.90273132975E+01  0.19517316875E+02  0.51100000000E-03 0.  1.
        -11    1    4    4    0    0  0.43939757284E+01  0.14022821677E+02 -0.12349997389E+02  0.19195546000E+02  0.51100000000E-03 0. -1.
         12    1    4    4    0    0 -0.40365221250E+00  0.14128443423E+02  0.67289689324E+01  0.15654228552E+02  0.00000000000E+00 0. -1.
</event>
<event>
 8    1  0.1247338E-006  0.9118800E+02  0.7816164E-02  0.1184000E+00
        -11   -1    0    0    0    0  0.00000000000E+00  0.00000000000E+00  0.45593999997E+02  0.45594000000E+02  0.51100000000E-03 0.  1.
         11   -1    0    0    0    0 -0.00000000000E+00 -0.00000000000E+00 -0.45593999997E+02  0.45594000000E+02  0.51100000000E-03 0. -1.
         23    2    1    2    0    0 -0.35527136788E-14  0.00000000000E+00  0.35527136788E-14  0.91188000000E+02  0.91188000000E+02 0.  0.
    9900012    2    3    3    0    0  0.30436555523E+02 -0.40596106672E+01 -0.20320291013E+02  0.54367101346E+02  0.40000039138E+02 0.  0.
        -12    1    3    3    0    0 -0.30436555523E+02  0.40596106672E+01  0.20320291013E+02  0.36820898654E+02  0.00000000000E+00 0.  1.
         11    1    4    4    0    0  0.24620756422E+01 -0.55672187755E+01 -0.13297200907E+02  0.14624339082E+02  0.51100000000E-03 0. -1.
        -11    1    4    4    0    0  0.31095426374E+02  0.46794687458E+01 -0.20053281632E-01  0.31445562032E+02  0.51100000000E-03 0.  1.
        -12    1    4    4    0    0 -0.31209464933E+01 -0.31718606376E+01 -0.70030368241E+01  0.82972002313E+01  0.00000000000E+00 0.  1.
</event>
<event>
 8    1  0.1247338E-006  0.9118800E+02  0.7816164E-02  0.1184000E+00
        -11   -1    0    0    0    0  0.00000000000E+00  0.00000000000E+00  0.45593999997E+02  0.45594000000E+02  0.51100000000E-03 0. -1.
         11   -1    0    0    0    0 -0.00000000000E+00 -0.00000000000E+00 -0.45593999997E+02  0.45594000000E+02  0.51100000000E-03 0.  1.
         23    2    1    2    0    0  0.00000000000E+00 -0.10658141036E-13 -0.35527136788E-14  0.91188000000E+02  0.91188000000E+02 0.  0.
    9900012    2    3    3    0    0  0.92737176506E+01 -0.28539894873E+02 -0.21336647113E+02  0.54367082732E+02  0.39999996704E+02 0.  0.
         12    1    3    3    0    0 -0.92737176506E+01  0.28539894873E+02  0.21336647113E+02  0.36820917268E+02  0.00000000000E+00 0. -1.
         11    1    4    4    0    0  0.23301810680E+01  0.45489314452E+01 -0.42955424304E+00  0.51290387220E+01  0.51100000000E-03 0. -1.
        -11    1    4    4    0    0 -0.59664392606E+01 -0.52312222454E+01 -0.16382209938E+02  0.18202771392E+02  0.51100000000E-03 0.  1.
         12    1    4    4    0    0  0.12909975843E+02 -0.27857604073E+02 -0.45248829324E+01  0.31035272618E+02  0.00000000000E+00 0. -1.
</event>
<event>
 8    1  0.1247338E-006  0.9118800E+02  0.7816164E-02  0.1184000E+00
        -11   -1    0    0    0    0  0.00000000000E+00  0.00000000000E+00  0.45593999997E+02  0.45594000000E+02  0.51100000000E-03 0.  1.
         11   -1    0    0    0    0 -0.00000000000E+00 -0.00000000000E+00 -0.45593999997E+02  0.45594000000E+02  0.51100000000E-03 0. -1.
         23    2    1    2    0    0  0.00000000000E+00  0.00000000000E+00  0.35527136788E-14  0.91188000000E+02  0.91188000000E+02 0.  0.
    9900012    2    3    3    0    0  0.22871384092E+02  0.99813205319E+01  0.27074945529E+02  0.54367086849E+02  0.40000006091E+02 0.  0.
         12    1    3    3    0    0 -0.22871384092E+02 -0.99813205319E+01 -0.27074945529E+02  0.36820913151E+02  0.00000000000E+00 0. -1.
         11    1    4    4    0    0  0.12274639707E+02  0.23888653345E+02  0.11850951019E+02  0.29356082485E+02  0.51100000000E-03 0. -1.
        -11    1    4    4    0    0  0.71018805773E+01 -0.92086045251E+01  0.39054915779E+01  0.12267353821E+02  0.51100000000E-03 0.  1.
         12    1    4    4    0    0  0.34948638081E+01 -0.46987282876E+01  0.11318502932E+02  0.12743650544E+02  0.00000000000E+00 0. -1.
</event>
<event>
 8    1  0.1247338E-006  0.9118800E+02  0.7816164E-02  0.1184000E+00
        -11   -1    0    0    0    0  0.00000000000E+00  0.00000000000E+00  0.45593999997E+02  0.45594000000E+02  0.51100000000E-03 0.  1.
         11   -1    0    0    0    0 -0.00000000000E+00 -0.00000000000E+00 -0.45593999997E+02  0.45594000000E+02  0.51100000000E-03 0. -1.
         23    2    1    2    0    0 -0.35527136788E-14  0.00000000000E+00 -0.44408920985E-15  0.91188000000E+02  0.91188000000E+02 0.  0.
    9900012    2    3    3    0    0  0.28828731928E+02 -0.22568392645E+02 -0.39180092581E+01  0.54367096593E+02  0.40000028303E+02 0.  0.
        -12    1    3    3    0    0 -0.28828731928E+02  0.22568392645E+02  0.39180092581E+01  0.36820903407E+02  0.00000000000E+00 0.  1.
         11    1    4    4    0    0  0.16334773046E+02 -0.60579681736E+01 -0.31134212733E+01  0.17697942851E+02  0.51100000000E-03 0. -1.
        -11    1    4    4    0    0  0.12158881650E+02 -0.12311438174E+02 -0.14352687227E+02  0.22481315437E+02  0.51100000000E-03 0.  1.
        -12    1    4    4    0    0  0.33507723097E+00 -0.41989862978E+01  0.13548099242E+02  0.14187838305E+02  0.00000000000E+00 0.  1.
</event>
<event>
 8    1  0.1247338E-006  0.9118800E+02  0.7816164E-02  0.1184000E+00
        -11   -1    0    0    0    0  0.00000000000E+00  0.00000000000E+00  0.45593999997E+02  0.45594000000E+02  0.51100000000E-03 0. -1.
         11   -1    0    0    0    0 -0.00000000000E+00 -0.00000000000E+00 -0.45593999997E+02  0.45594000000E+02  0.51100000000E-03 0.  1.
         23    2    1    2    0    0  0.17763568394E-14  0.00000000000E+00  0.30531133177E-15  0.91188000000E+02  0.91188000000E+02 0.  0.
    9900012    2    3    3    0    0  0.14137831053E+02 -0.33998110181E+02  0.17632053955E+00  0.54367070466E+02  0.39999968742E+02 0.  0.
        -12    1    3    3    0    0 -0.14137831053E+02  0.33998110181E+02 -0.17632053955E+00  0.36820929534E+02  0.00000000000E+00 0.  1.
         11    1    4    4    0    0  0.17759175154E+02 -0.24556209151E+02 -0.10426022869E+02  0.32048364438E+02  0.51100000000E-03 0. -1.
        -11    1    4    4    0    0 -0.95200478947E+01 -0.48661897905E+01  0.19105560168E+01  0.10861000854E+02  0.51100000000E-03 0.  1.
         12    1    4    4    0    0  0.58987037942E+01 -0.45757112400E+01  0.86917873919E+01  0.11457705175E+02  0.00000000000E+00 0. -1.
</event>
<event>
 8    1  0.1247338E-006  0.9118800E+02  0.7816164E-02  0.1184000E+00
        -11   -1    0    0    0    0  0.00000000000E+00  0.00000000000E+00  0.45593999997E+02  0.45594000000E+02  0.51100000000E-03 0. -1.
         11   -1    0    0    0    0 -0.00000000000E+00 -0.00000000000E+00 -0.45593999997E+02  0.45594000000E+02  0.51100000000E-03 0.  1.
         23    2    1    2    0    0 -0.71054273576E-14  0.35527136788E-14 -0.35527136788E-14  0.91188000000E+02  0.91188000000E+02 0.  0.
    9900012    2    3    3    0    0 -0.20890010939E+02  0.16604191632E+02 -0.25371014246E+02  0.54367080665E+02  0.39999991992E+02 0.  0.
         12    1    3    3    0    0  0.20890010939E+02 -0.16604191632E+02  0.25371014246E+02  0.36820919335E+02  0.00000000000E+00 0. -1.
         11    1    4    4    0    0 -0.23137291368E+02  0.12948335653E+02 -0.45533099941E+01  0.26902161255E+02  0.51100000000E-03 0.  1.
        -11    1    4    4    0    0 -0.96789799280E+00  0.20318156679E+01  0.27896695221E+01  0.35843210984E+01  0.51100000000E-03 0. -1.
        -12    1    4    4    0    0  0.32151784212E+01  0.16240403108E+01 -0.23607373774E+02  0.23880598312E+02  0.00000000000E+00 0.  1.
</event>
<event>
 8    1  0.1247338E-006  0.9118800E+02  0.7816164E-02  0.1184000E+00
        -11   -1    0    0    0    0  0.00000000000E+00  0.00000000000E+00  0.45593999997E+02  0.45594000000E+02  0.51100000000E-03 0. -1.
         11   -1    0    0    0    0 -0.00000000000E+00 -0.00000000000E+00 -0.45593999997E+02  0.45594000000E+02  0.51100000000E-03 0.  1.
         23    2    1    2    0    0  0.35527136788E-14  0.00000000000E+00  0.35527136788E-14  0.91188000000E+02  0.91188000000E+02 0.  0.
    9900012    2    3    3    0    0 -0.26021179766E+02  0.12861601330E+02 -0.22655283537E+02  0.54367021505E+02  0.39999857124E+02 0.  0.
         12    1    3    3    0    0  0.26021179766E+02 -0.12861601330E+02  0.22655283537E+02  0.36820978495E+02  0.00000000000E+00 0. -1.
         11    1    4    4    0    0 -0.60242079933E+01 -0.35994014820E+01 -0.75235131943E+01  0.10288344085E+02  0.51100000000E-03 0. -1.
        -11    1    4    4    0    0 -0.45709235097E+00  0.14508705610E+02  0.55671720249E+01  0.15546860664E+02  0.51100000000E-03 0.  1.
        -12    1    4    4    0    0 -0.19539879422E+02  0.19522972022E+01 -0.20698942368E+02  0.28531816755E+02  0.00000000000E+00 0.  1.
</event>
<event>
 8    1  0.1247338E-006  0.9118800E+02  0.7816164E-02  0.1184000E+00
        -11   -1    0    0    0    0  0.00000000000E+00  0.00000000000E+00  0.45593999997E+02  0.45594000000E+02  0.51100000000E-03 0. -1.
         11   -1    0    0    0    0 -0.00000000000E+00 -0.00000000000E+00 -0.45593999997E+02  0.45594000000E+02  0.51100000000E-03 0.  1.
         23    2    1    2    0    0  0.35527136788E-14 -0.17763568394E-14 -0.35527136788E-14  0.91188000000E+02  0.91188000000E+02 0.  0.
    9900012    2    3    3    0    0 -0.20946941781E+02  0.88000121102E+01 -0.28975252209E+02  0.54367084426E+02  0.40000000566E+02 0.  0.
         12    1    3    3    0    0  0.20946941781E+02 -0.88000121102E+01  0.28975252209E+02  0.36820915574E+02  0.00000000000E+00 0. -1.
         11    1    4    4    0    0  0.19686907743E+01  0.97568967783E+01 -0.96568999562E+01  0.13868254942E+02  0.51100000000E-03 0. -1.
        -11    1    4    4    0    0 -0.22057629104E+02  0.47557355490E+00 -0.25718069536E+02  0.33884867903E+02  0.51100000000E-03 0.  1.
         12    1    4    4    0    0 -0.85800345191E+00 -0.14324582230E+01  0.63997172838E+01  0.66139615811E+01  0.00000000000E+00 0. -1.
</event>
<event>
 8    1  0.1247338E-006  0.9118800E+02  0.7816164E-02  0.1184000E+00
        -11   -1    0    0    0    0  0.00000000000E+00  0.00000000000E+00  0.45593999997E+02  0.45594000000E+02  0.51100000000E-03 0. -1.
         11   -1    0    0    0    0 -0.00000000000E+00 -0.00000000000E+00 -0.45593999997E+02  0.45594000000E+02  0.51100000000E-03 0.  1.
         23    2    1    2    0    0  0.35527136788E-14  0.00000000000E+00  0.35527136788E-14  0.91188000000E+02  0.91188000000E+02 0.  0.
    9900012    2    3    3    0    0  0.25311869372E+02 -0.41920610134E+01  0.26410532055E+02  0.54367077821E+02  0.39999985509E+02 0.  0.
        -12    1    3    3    0    0 -0.25311869372E+02  0.41920610134E+01 -0.26410532055E+02  0.36820922179E+02  0.00000000000E+00 0.  1.
         11    1    4    4    0    0  0.15617289581E+02 -0.49815249930E+01  0.26978780277E+02  0.31568495540E+02  0.51100000000E-03 0.  1.
        -11    1    4    4    0    0  0.60214316650E+01  0.92409487839E+01  0.49152898456E+01  0.12075299096E+02  0.51100000000E-03 0. -1.
        -12    1    4    4    0    0  0.36731481257E+01 -0.84514848042E+01 -0.54835380678E+01  0.10723283186E+02  0.00000000000E+00 0.  1.
</event>
<event>
 8    1  0.1247338E-006  0.9118800E+02  0.7816164E-02  0.1184000E+00
        -11   -1    0    0    0    0  0.00000000000E+00  0.00000000000E+00  0.45593999997E+02  0.45594000000E+02  0.51100000000E-03 0.  1.
         11   -1    0    0    0    0 -0.00000000000E+00 -0.00000000000E+00 -0.45593999997E+02  0.45594000000E+02  0.51100000000E-03 0. -1.
         23    2    1    2    0    0  0.00000000000E+00  0.00000000000E+00  0.00000000000E+00  0.91188000000E+02  0.91188000000E+02 0.  0.
    9900012    2    3    3    0    0  0.13060067772E+02 -0.28232510768E+02  0.19701668392E+02  0.54366867862E+02  0.39999506862E+02 0.  0.
         12    1    3    3    0    0 -0.13060067772E+02  0.28232510768E+02 -0.19701668392E+02  0.36821132138E+02  0.00000000000E+00 0. -1.
         11    1    4    4    0    0  0.36265337726E+01  0.64021312809E+01  0.15656593003E+01  0.75226538832E+01  0.51100000000E-03 0. -1.
        -11    1    4    4    0    0 -0.29169706537E+01 -0.11401218658E+02 -0.40305379804E+01  0.12439523357E+02  0.51100000000E-03 0.  1.
        -12    1    4    4    0    0  0.12350504653E+02 -0.23233423391E+02  0.22166547072E+02  0.34404690621E+02  0.00000000000E+00 0.  1.
</event>
<event>
 8    1  0.1247338E-006  0.9118800E+02  0.7816164E-02  0.1184000E+00
        -11   -1    0    0    0    0  0.00000000000E+00  0.00000000000E+00  0.45593999997E+02  0.45594000000E+02  0.51100000000E-03 0.  1.
         11   -1    0    0    0    0 -0.00000000000E+00 -0.00000000000E+00 -0.45593999997E+02  0.45594000000E+02  0.51100000000E-03 0. -1.
         23    2    1    2    0    0  0.00000000000E+00  0.11102230246E-15  0.00000000000E+00  0.91188000000E+02  0.91188000000E+02 0.  0.
    9900012    2    3    3    0    0 -0.18329099770E+02 -0.58011181926E+00  0.31929413493E+02  0.54367083742E+02  0.39999999006E+02 0.  0.
         12    1    3    3    0    0  0.18329099770E+02  0.58011181926E+00 -0.31929413493E+02  0.36820916258E+02  0.00000000000E+00 0. -1.
         11    1    4    4    0    0  0.20539554269E+01  0.39422206866E+01  0.23111272186E+02  0.23534883453E+02  0.51100000000E-03 0. -1.
        -11    1    4    4    0    0 -0.12456746364E+02 -0.91191017473E+01  0.13530997869E+02  0.20528430292E+02  0.51100000000E-03 0.  1.
         12    1    4    4    0    0 -0.79263088330E+01  0.45967692414E+01 -0.47128565621E+01  0.10303769997E+02  0.00000000000E+00 0. -1.
</event>
<event>
 8    1  0.1247338E-006  0.9118800E+02  0.7816164E-02  0.1184000E+00
        -11   -1    0    0    0    0  0.00000000000E+00  0.00000000000E+00  0.45593999997E+02  0.45594000000E+02  0.51100000000E-03 0.  1.
         11   -1    0    0    0    0 -0.00000000000E+00 -0.00000000000E+00 -0.45593999997E+02  0.45594000000E+02  0.51100000000E-03 0. -1.
         23    2    1    2    0    0  0.17763568394E-14 -0.17763568394E-14  0.71054273576E-14  0.91188000000E+02  0.91188000000E+02 0.  0.
    9900012    2    3    3    0    0  0.57069370717E+01 -0.11647779034E+02  0.34460692950E+02  0.54367092274E+02  0.40000018458E+02 0.  0.
         12    1    3    3    0    0 -0.57069370717E+01  0.11647779034E+02 -0.34460692950E+02  0.36820907726E+02  0.00000000000E+00 0. -1.
         11    1    4    4    0    0  0.10427432396E+02 -0.34008695073E-01  0.78416511179E+00  0.10456931583E+02  0.51100000000E-03 0. -1.
        -11    1    4    4    0    0 -0.33880434333E+01 -0.67497094521E+01 -0.20530613654E+01  0.78263961837E+01  0.51100000000E-03 0.  1.
        -12    1    4    4    0    0 -0.13324518906E+01 -0.48640608865E+01  0.35729589204E+02  0.36083764507E+02  0.00000000000E+00 0.  1.
</event>
<event>
 8    1  0.1247338E-006  0.9118800E+02  0.7816164E-02  0.1184000E+00
        -11   -1    0    0    0    0  0.00000000000E+00  0.00000000000E+00  0.45593999997E+02  0.45594000000E+02  0.51100000000E-03 0. -1.
         11   -1    0    0    0    0 -0.00000000000E+00 -0.00000000000E+00 -0.45593999997E+02  0.45594000000E+02  0.51100000000E-03 0.  1.
         23    2    1    2    0    0  0.00000000000E+00  0.35527136788E-14  0.35527136788E-14  0.91188000000E+02  0.91188000000E+02 0.  0.
    9900012    2    3    3    0    0  0.10906258048E+02 -0.21091126599E+02  0.28142448749E+02  0.54367088721E+02  0.40000010358E+02 0.  0.
        -12    1    3    3    0    0 -0.10906258048E+02  0.21091126599E+02 -0.28142448749E+02  0.36820911279E+02  0.00000000000E+00 0.  1.
         11    1    4    4    0    0  0.32443705191E+01 -0.20701909197E+02  0.28985728323E+02  0.35766848213E+02  0.51100000000E-03 0. -1.
        -11    1    4    4    0    0  0.76592399068E+01  0.54380386731E+01  0.47472979982E+01  0.10524878104E+02  0.51100000000E-03 0.  1.
        -12    1    4    4    0    0  0.26476219704E-02 -0.58272560749E+01 -0.55905775715E+01  0.80753624040E+01  0.00000000000E+00 0.  1.
</event>
<event>
 8    1  0.1247338E-006  0.9118800E+02  0.7816164E-02  0.1184000E+00
        -11   -1    0    0    0    0  0.00000000000E+00  0.00000000000E+00  0.45593999997E+02  0.45594000000E+02  0.51100000000E-03 0.  1.
         11   -1    0    0    0    0 -0.00000000000E+00 -0.00000000000E+00 -0.45593999997E+02  0.45594000000E+02  0.51100000000E-03 0. -1.
         23    2    1    2    0    0  0.17763568394E-14  0.00000000000E+00  0.00000000000E+00  0.91188000000E+02  0.91188000000E+02 0.  0.
    9900012    2    3    3    0    0 -0.34587590520E+01 -0.34329519674E+01  0.36497088954E+02  0.54367004963E+02  0.39999819415E+02 0.  0.
         12    1    3    3    0    0  0.34587590520E+01  0.34329519674E+01 -0.36497088954E+02  0.36820995037E+02  0.00000000000E+00 0. -1.
         11    1    4    4    0    0 -0.89957513725E+01 -0.47823629878E+01  0.42785501807E+01  0.11049910878E+02  0.51100000000E-03 0. -1.
        -11    1    4    4    0    0 -0.68547713604E+00 -0.80955146836E+01  0.30876290878E+02  0.31927301414E+02  0.51100000000E-03 0.  1.
         12    1    4    4    0    0  0.62224694565E+01  0.94449257040E+01  0.13422478947E+01  0.11389792672E+02  0.00000000000E+00 0. -1.
</event>
<event>
 8    1  0.1247338E-006  0.9118800E+02  0.7816164E-02  0.1184000E+00
        -11   -1    0    0    0    0  0.00000000000E+00  0.00000000000E+00  0.45593999997E+02  0.45594000000E+02  0.51100000000E-03 0.  1.
         11   -1    0    0    0    0 -0.00000000000E+00 -0.00000000000E+00 -0.45593999997E+02  0.45594000000E+02  0.51100000000E-03 0. -1.
         23    2    1    2    0    0 -0.71054273576E-14  0.71054273576E-14 -0.35527136788E-14  0.91188000000E+02  0.91188000000E+02 0.  0.
    9900012    2    3    3    0    0  0.18930033072E+02 -0.25669504765E+02  0.18398645069E+02  0.54367085191E+02  0.40000002310E+02 0.  0.
        -12    1    3    3    0    0 -0.18930033072E+02  0.25669504765E+02 -0.18398645069E+02  0.36820914809E+02  0.00000000000E+00 0.  1.
         11    1    4    4    0    0  0.87672720488E+01 -0.37533977240E+01 -0.18615927211E+01  0.97169224229E+01  0.51100000000E-03 0. -1.
        -11    1    4    4    0    0  0.12604614138E+02 -0.57166685292E+01  0.24129429002E+02  0.27817008122E+02  0.51100000000E-03 0.  1.
         12    1    4    4    0    0 -0.24418531145E+01 -0.16199438511E+02 -0.38691912117E+01  0.16833154646E+02  0.00000000000E+00 0. -1.
</event>
<event>
 8    1  0.1247338E-006  0.9118800E+02  0.7816164E-02  0.1184000E+00
        -11   -1    0    0    0    0  0.00000000000E+00  0.00000000000E+00  0.45593999997E+02  0.45594000000E+02  0.51100000000E-03 0.  1.
         11   -1    0    0    0    0 -0.00000000000E+00 -0.00000000000E+00 -0.45593999997E+02  0.45594000000E+02  0.51100000000E-03 0. -1.
         23    2    1    2    0    0  0.35527136788E-14  0.00000000000E+00 -0.35527136788E-14  0.91188000000E+02  0.91188000000E+02 0.  0.
    9900012    2    3    3    0    0  0.23560640369E+02  0.62952319271E+01 -0.27587064911E+02  0.54367083797E+02  0.39999999133E+02 0.  0.
        -12    1    3    3    0    0 -0.23560640369E+02 -0.62952319271E+01  0.27587064911E+02  0.36820916203E+02  0.00000000000E+00 0.  1.
         11    1    4    4    0    0  0.13182538673E+02 -0.88045673214E+01 -0.69726111848E+01  0.17318113020E+02  0.51100000000E-03 0. -1.
        -11    1    4    4    0    0  0.17646710544E+02  0.69994272941E+01 -0.86099744450E+01  0.20845384038E+02  0.51100000000E-03 0.  1.
         12    1    4    4    0    0 -0.72686088488E+01  0.81003719543E+01 -0.12004479281E+02  0.16203586739E+02  0.00000000000E+00 0. -1.
</event>
<event>
 8    1  0.1247338E-006  0.9118800E+02  0.7816164E-02  0.1184000E+00
        -11   -1    0    0    0    0  0.00000000000E+00  0.00000000000E+00  0.45593999997E+02  0.45594000000E+02  0.51100000000E-03 0.  1.
         11   -1    0    0    0    0 -0.00000000000E+00 -0.00000000000E+00 -0.45593999997E+02  0.45594000000E+02  0.51100000000E-03 0. -1.
         23    2    1    2    0    0  0.00000000000E+00  0.00000000000E+00  0.35527136788E-14  0.91188000000E+02  0.91188000000E+02 0.  0.
    9900012    2    3    3    0    0 -0.24492448819E+02  0.78757182130E+01 -0.26341382644E+02  0.54367144142E+02  0.40000136699E+02 0.  0.
        -12    1    3    3    0    0  0.24492448819E+02 -0.78757182130E+01  0.26341382644E+02  0.36820855858E+02  0.00000000000E+00 0.  1.
         11    1    4    4    0    0 -0.14332976110E+02 -0.30837213602E+01 -0.21072231197E+02  0.25670653858E+02  0.51100000000E-03 0.  1.
        -11    1    4    4    0    0 -0.60484059755E+00 -0.22260117844E+01 -0.11148200445E+02  0.11384346008E+02  0.51100000000E-03 0. -1.
        -12    1    4    4    0    0 -0.95546321120E+01  0.13185451358E+02  0.58790489980E+01  0.17312144276E+02  0.00000000000E+00 0.  1.
</event>
<event>
 8    1  0.1247338E-006  0.9118800E+02  0.7816164E-02  0.1184000E+00
        -11   -1    0    0    0    0  0.00000000000E+00  0.00000000000E+00  0.45593999997E+02  0.45594000000E+02  0.51100000000E-03 0.  1.
         11   -1    0    0    0    0 -0.00000000000E+00 -0.00000000000E+00 -0.45593999997E+02  0.45594000000E+02  0.51100000000E-03 0. -1.
         23    2    1    2    0    0  0.00000000000E+00  0.00000000000E+00  0.00000000000E+00  0.91188000000E+02  0.91188000000E+02 0.  0.
    9900012    2    3    3    0    0  0.21870115859E+02  0.17890844213E+02 -0.23609240110E+02  0.54367075339E+02  0.39999979850E+02 0.  0.
        -12    1    3    3    0    0 -0.21870115859E+02 -0.17890844213E+02  0.23609240110E+02  0.36820924661E+02  0.00000000000E+00 0.  1.
         11    1    4    4    0    0  0.15005292002E+02  0.25732130741E+01  0.36784711467E+01  0.15662418837E+02  0.51100000000E-03 0. -1.
        -11    1    4    4    0    0 -0.11202827608E+01  0.81049046353E+01  0.11842421572E+01  0.82672209575E+01  0.51100000000E-03 0.  1.
         12    1    4    4    0    0  0.79851066172E+01  0.72127265038E+01 -0.28471953414E+02  0.30437435544E+02  0.00000000000E+00 0. -1.
</event>
<event>
 8    1  0.1247338E-006  0.9118800E+02  0.7816164E-02  0.1184000E+00
        -11   -1    0    0    0    0  0.00000000000E+00  0.00000000000E+00  0.45593999997E+02  0.45594000000E+02  0.51100000000E-03 0.  1.
         11   -1    0    0    0    0 -0.00000000000E+00 -0.00000000000E+00 -0.45593999997E+02  0.45594000000E+02  0.51100000000E-03 0. -1.
         23    2    1    2    0    0  0.00000000000E+00  0.88817841970E-15  0.00000000000E+00  0.91188000000E+02  0.91188000000E+02 0.  0.
    9900012    2    3    3    0    0 -0.35823930170E+02  0.69331278015E+01  0.49353380237E+01  0.54367084811E+02  0.40000001443E+02 0.  0.
        -12    1    3    3    0    0  0.35823930170E+02 -0.69331278015E+01 -0.49353380237E+01  0.36820915189E+02  0.00000000000E+00 0.  1.
         11    1    4    4    0    0 -0.21370360006E+01  0.34971427203E+01 -0.10073386280E+01  0.42203864097E+01  0.51100000000E-03 0. -1.
        -11    1    4    4    0    0 -0.34841669394E+02  0.15169344768E+02  0.47537710562E+01  0.38296857395E+02  0.51100000000E-03 0.  1.
        -12    1    4    4    0    0  0.11547752240E+01 -0.11733359687E+02  0.11889055955E+01  0.11849841006E+02  0.00000000000E+00 0.  1.
</event>
<event>
 8    1  0.1247338E-006  0.9118800E+02  0.7816164E-02  0.1184000E+00
        -11   -1    0    0    0    0  0.00000000000E+00  0.00000000000E+00  0.45593999997E+02  0.45594000000E+02  0.51100000000E-03 0.  1.
         11   -1    0    0    0    0 -0.00000000000E+00 -0.00000000000E+00 -0.45593999997E+02  0.45594000000E+02  0.51100000000E-03 0. -1.
         23    2    1    2    0    0  0.00000000000E+00 -0.44408920985E-15  0.00000000000E+00  0.91188000000E+02  0.91188000000E+02 0.  0.
    9900012    2    3    3    0    0 -0.21566659721E+01  0.18768707310E+01 -0.36709788267E+02  0.54367049355E+02  0.39999920614E+02 0.  0.
        -12    1    3    3    0    0  0.21566659721E+01 -0.18768707310E+01  0.36709788267E+02  0.36820950645E+02  0.00000000000E+00 0.  1.
         11    1    4    4    0    0 -0.10491967863E+02 -0.91309802414E+01 -0.15436138421E+02  0.20778126947E+02  0.51100000000E-03 0. -1.
        -11    1    4    4    0    0 -0.13029775164E+01 -0.31847653949E+01  0.25129850603E+01  0.42609359539E+01  0.51100000000E-03 0.  1.
        -12    1    4    4    0    0  0.96382794075E+01  0.14192616367E+02 -0.23786634906E+02  0.29327986454E+02  0.00000000000E+00 0.  1.
</event>
<event>
 8    1  0.1247338E-006  0.9118800E+02  0.7816164E-02  0.1184000E+00
        -11   -1    0    0    0    0  0.00000000000E+00  0.00000000000E+00  0.45593999997E+02  0.45594000000E+02  0.51100000000E-03 0.  1.
         11   -1    0    0    0    0 -0.00000000000E+00 -0.00000000000E+00 -0.45593999997E+02  0.45594000000E+02  0.51100000000E-03 0. -1.
         23    2    1    2    0    0  0.35527136788E-14  0.00000000000E+00  0.00000000000E+00  0.91188000000E+02  0.91188000000E+02 0.  0.
    9900012    2    3    3    0    0  0.19092435981E+02  0.25237319144E+02  0.18823803888E+02  0.54367095855E+02  0.40000026621E+02 0.  0.
         12    1    3    3    0    0 -0.19092435981E+02 -0.25237319144E+02 -0.18823803888E+02  0.36820904145E+02  0.00000000000E+00 0. -1.
         11    1    4    4    0    0  0.21965840295E+00 -0.19174949321E+01  0.68757466447E+01  0.71414934581E+01  0.51100000000E-03 0. -1.
        -11    1    4    4    0    0  0.24374400324E+02  0.29978674958E+02  0.13361168440E+02  0.40882186411E+02  0.51100000000E-03 0.  1.
         12    1    4    4    0    0 -0.55016227454E+01 -0.28238608825E+01 -0.14131111973E+01  0.63434159861E+01  0.00000000000E+00 0. -1.
</event>
<event>
 8    1  0.1247338E-006  0.9118800E+02  0.7816164E-02  0.1184000E+00
        -11   -1    0    0    0    0  0.00000000000E+00  0.00000000000E+00  0.45593999997E+02  0.45594000000E+02  0.51100000000E-03 0.  1.
         11   -1    0    0    0    0 -0.00000000000E+00 -0.00000000000E+00 -0.45593999997E+02  0.45594000000E+02  0.51100000000E-03 0. -1.
         23    2    1    2    0    0 -0.35527136788E-14  0.17763568394E-14  0.35527136788E-14  0.91188000000E+02  0.91188000000E+02 0.  0.
    9900012    2    3    3    0    0 -0.26372780627E+02 -0.10338735657E+02  0.23523768357E+02  0.54367072653E+02  0.39999973726E+02 0.  0.
         12    1    3    3    0    0  0.26372780627E+02  0.10338735657E+02 -0.23523768357E+02  0.36820927347E+02  0.00000000000E+00 0. -1.
         11    1    4    4    0    0 -0.33533259784E+01 -0.30725555587E+01 -0.41594974694E+01  0.61633442414E+01  0.51100000000E-03 0. -1.
        -11    1    4    4    0    0 -0.10670347223E+02 -0.17992658006E+02  0.74956540949E+01  0.22221090940E+02  0.51100000000E-03 0.  1.
        -12    1    4    4    0    0 -0.12349107426E+02  0.10726477908E+02  0.20187611732E+02  0.25982637471E+02  0.00000000000E+00 0.  1.
</event>
<event>
 8    1  0.1247338E-006  0.9118800E+02  0.7816164E-02  0.1184000E+00
        -11   -1    0    0    0    0  0.00000000000E+00  0.00000000000E+00  0.45593999997E+02  0.45594000000E+02  0.51100000000E-03 0. -1.
         11   -1    0    0    0    0 -0.00000000000E+00 -0.00000000000E+00 -0.45593999997E+02  0.45594000000E+02  0.51100000000E-03 0.  1.
         23    2    1    2    0    0 -0.17763568394E-14  0.35527136788E-14  0.35527136788E-14  0.91188000000E+02  0.91188000000E+02 0.  0.
    9900012    2    3    3    0    0 -0.61678816016E+01  0.27797008034E+02  0.23346549306E+02  0.54367112130E+02  0.40000063722E+02 0.  0.
        -12    1    3    3    0    0  0.61678816016E+01 -0.27797008034E+02 -0.23346549306E+02  0.36820887870E+02  0.00000000000E+00 0.  1.
         11    1    4    4    0    0  0.97915458377E+01  0.13686317924E+02  0.26363210668E+02  0.31276325634E+02  0.51100000000E-03 0. -1.
        -11    1    4    4    0    0  0.58336621822E+00  0.38951205034E+00 -0.13650780494E+01  0.15347553955E+01  0.51100000000E-03 0.  1.
        -12    1    4    4    0    0 -0.16542793658E+02  0.13721178060E+02 -0.16515833127E+01  0.21556031100E+02  0.00000000000E+00 0.  1.
</event>
<event>
 8    1  0.1247338E-006  0.9118800E+02  0.7816164E-02  0.1184000E+00
        -11   -1    0    0    0    0  0.00000000000E+00  0.00000000000E+00  0.45593999997E+02  0.45594000000E+02  0.51100000000E-03 0.  1.
         11   -1    0    0    0    0 -0.00000000000E+00 -0.00000000000E+00 -0.45593999997E+02  0.45594000000E+02  0.51100000000E-03 0. -1.
         23    2    1    2    0    0  0.35527136788E-14 -0.38857805862E-15  0.35527136788E-14  0.91188000000E+02  0.91188000000E+02 0.  0.
    9900012    2    3    3    0    0 -0.30893809006E+02  0.38820669725E+00 -0.20030059259E+02  0.54367062841E+02  0.39999951358E+02 0.  0.
        -12    1    3    3    0    0  0.30893809006E+02 -0.38820669725E+00  0.20030059259E+02  0.36820937159E+02  0.00000000000E+00 0.  1.
         11    1    4    4    0    0 -0.21023635650E+02  0.10637128674E+02 -0.16893818403E+02  0.28992117254E+02  0.51100000000E-03 0. -1.
        -11    1    4    4    0    0 -0.12880250730E+02 -0.14857497414E+02 -0.21179992360E+01  0.19777057650E+02  0.51100000000E-03 0.  1.
        -12    1    4    4    0    0  0.30100773737E+01  0.46085754372E+01 -0.10182416203E+01  0.55978879369E+01  0.00000000000E+00 0.  1.
</event>
<event>
 8    1  0.1247338E-006  0.9118800E+02  0.7816164E-02  0.1184000E+00
        -11   -1    0    0    0    0  0.00000000000E+00  0.00000000000E+00  0.45593999997E+02  0.45594000000E+02  0.51100000000E-03 0.  1.
         11   -1    0    0    0    0 -0.00000000000E+00 -0.00000000000E+00 -0.45593999997E+02  0.45594000000E+02  0.51100000000E-03 0. -1.
         23    2    1    2    0    0 -0.35527136788E-14  0.00000000000E+00  0.35527136788E-14  0.91188000000E+02  0.91188000000E+02 0.  0.
    9900012    2    3    3    0    0  0.30251570945E+02  0.10207845640E+02 -0.18341820694E+02  0.54367081440E+02  0.39999993758E+02 0.  0.
        -12    1    3    3    0    0 -0.30251570945E+02 -0.10207845640E+02  0.18341820694E+02  0.36820918560E+02  0.00000000000E+00 0.  1.
         11    1    4    4    0    0  0.14168473251E+01  0.36902481307E+01 -0.71866223417E+01  0.82020075927E+01  0.51100000000E-03 0.  1.
        -11    1    4    4    0    0  0.27308887090E+02 -0.39639726768E+01 -0.18547038076E+02  0.33248774641E+02  0.51100000000E-03 0. -1.
        -12    1    4    4    0    0  0.15258365300E+01  0.10481570186E+02  0.73918397238E+01  0.12916299206E+02  0.00000000000E+00 0.  1.
</event>
<event>
 8    1  0.1247338E-006  0.9118800E+02  0.7816164E-02  0.1184000E+00
        -11   -1    0    0    0    0  0.00000000000E+00  0.00000000000E+00  0.45593999997E+02  0.45594000000E+02  0.51100000000E-03 0.  1.
         11   -1    0    0    0    0 -0.00000000000E+00 -0.00000000000E+00 -0.45593999997E+02  0.45594000000E+02  0.51100000000E-03 0. -1.
         23    2    1    2    0    0  0.00000000000E+00  0.00000000000E+00  0.00000000000E+00  0.91188000000E+02  0.91188000000E+02 0.  0.
    9900012    2    3    3    0    0  0.28777546958E+02 -0.12193852919E+02 -0.19466450163E+02  0.54367082849E+02  0.39999996970E+02 0.  0.
        -12    1    3    3    0    0 -0.28777546958E+02  0.12193852919E+02  0.19466450163E+02  0.36820917151E+02  0.00000000000E+00 0.  1.
         11    1    4    4    0    0  0.16020837564E+02 -0.63328224611E+00 -0.25552792470E+01  0.16235693239E+02  0.51100000000E-03 0. -1.
        -11    1    4    4    0    0  0.36901532110E+01  0.96464734988E+01 -0.16086397653E+01  0.10452722317E+02  0.51100000000E-03 0.  1.
         12    1    4    4    0    0  0.90665561830E+01 -0.21207044171E+02 -0.15302531151E+02  0.27678667293E+02  0.00000000000E+00 0. -1.
</event>
<event>
 8    1  0.1247338E-006  0.9118800E+02  0.7816164E-02  0.1184000E+00
        -11   -1    0    0    0    0  0.00000000000E+00  0.00000000000E+00  0.45593999997E+02  0.45594000000E+02  0.51100000000E-03 0.  1.
         11   -1    0    0    0    0 -0.00000000000E+00 -0.00000000000E+00 -0.45593999997E+02  0.45594000000E+02  0.51100000000E-03 0. -1.
         23    2    1    2    0    0  0.00000000000E+00  0.00000000000E+00  0.35527136788E-14  0.91188000000E+02  0.91188000000E+02 0.  0.
    9900012    2    3    3    0    0  0.15273021828E+01  0.19632769090E+02 -0.31112723654E+02  0.54367084106E+02  0.39999999838E+02 0.  0.
        -12    1    3    3    0    0 -0.15273021828E+01 -0.19632769090E+02  0.31112723654E+02  0.36820915894E+02  0.00000000000E+00 0.  1.
         11    1    4    4    0    0 -0.19198549761E+01  0.17009133161E+02 -0.13591465280E+02  0.21856906980E+02  0.51100000000E-03 0. -1.
        -11    1    4    4    0    0  0.39807027626E+01  0.10824191766E+02  0.16513494984E+01  0.11650582702E+02  0.51100000000E-03 0.  1.
        -12    1    4    4    0    0 -0.53354560371E+00 -0.82005558368E+01 -0.19172607872E+02  0.20859594424E+02  0.00000000000E+00 0.  1.
</event>
<event>
 8    1  0.1247338E-006  0.9118800E+02  0.7816164E-02  0.1184000E+00
        -11   -1    0    0    0    0  0.00000000000E+00  0.00000000000E+00  0.45593999997E+02  0.45594000000E+02  0.51100000000E-03 0.  1.
         11   -1    0    0    0    0 -0.00000000000E+00 -0.00000000000E+00 -0.45593999997E+02  0.45594000000E+02  0.51100000000E-03 0. -1.
         23    2    1    2    0    0  0.00000000000E+00  0.00000000000E+00  0.00000000000E+00  0.91188000000E+02  0.91188000000E+02 0.  0.
    9900012    2    3    3    0    0 -0.40609666412E+01 -0.25201719912E+02  0.26536137023E+02  0.54367018146E+02  0.39999849468E+02 0.  0.
         12    1    3    3    0    0  0.40609666412E+01  0.25201719912E+02 -0.26536137023E+02  0.36820981854E+02  0.00000000000E+00 0. -1.
         11    1    4    4    0    0  0.52122009281E+01 -0.92005527600E+01 -0.38641423924E+01  0.11258277235E+02  0.51100000000E-03 0. -1.
        -11    1    4    4    0    0 -0.15203995597E+02 -0.27676331235E+01  0.19942928579E+02  0.25229777561E+02  0.51100000000E-03 0.  1.
         12    1    4    4    0    0  0.59308280273E+01 -0.13233534029E+02  0.10457350836E+02  0.17878963350E+02  0.00000000000E+00 0. -1.
</event>
<event>
 8    1  0.1247338E-006  0.9118800E+02  0.7816164E-02  0.1184000E+00
        -11   -1    0    0    0    0  0.00000000000E+00  0.00000000000E+00  0.45593999997E+02  0.45594000000E+02  0.51100000000E-03 0. -1.
         11   -1    0    0    0    0 -0.00000000000E+00 -0.00000000000E+00 -0.45593999997E+02  0.45594000000E+02  0.51100000000E-03 0.  1.
         23    2    1    2    0    0  0.00000000000E+00  0.00000000000E+00  0.00000000000E+00  0.91188000000E+02  0.91188000000E+02 0.  0.
    9900012    2    3    3    0    0 -0.25143964504E+02 -0.17349448797E+02 -0.20556188285E+02  0.54367092877E+02  0.40000019833E+02 0.  0.
         12    1    3    3    0    0  0.25143964504E+02  0.17349448797E+02  0.20556188285E+02  0.36820907123E+02  0.00000000000E+00 0. -1.
         11    1    4    4    0    0  0.26755929789E+01  0.82312220487E+01 -0.58551962465E+01  0.10449647724E+02  0.51100000000E-03 0. -1.
        -11    1    4    4    0    0 -0.21129672344E+02 -0.12360949065E+02 -0.15676949478E+02  0.29069276915E+02  0.51100000000E-03 0.  1.
         12    1    4    4    0    0 -0.66898851393E+01 -0.13219721781E+02  0.97595744007E+00  0.14848168239E+02  0.00000000000E+00 0. -1.
</event>
<event>
 8    1  0.1247338E-006  0.9118800E+02  0.7816164E-02  0.1184000E+00
        -11   -1    0    0    0    0  0.00000000000E+00  0.00000000000E+00  0.45593999997E+02  0.45594000000E+02  0.51100000000E-03 0. -1.
         11   -1    0    0    0    0 -0.00000000000E+00 -0.00000000000E+00 -0.45593999997E+02  0.45594000000E+02  0.51100000000E-03 0.  1.
         23    2    1    2    0    0  0.00000000000E+00  0.00000000000E+00  0.71054273576E-14  0.91188000000E+02  0.91188000000E+02 0.  0.
    9900012    2    3    3    0    0 -0.41520258132E+01  0.94972550414E+01  0.35331900536E+02  0.54367077046E+02  0.39999983742E+02 0.  0.
        -12    1    3    3    0    0  0.41520258132E+01 -0.94972550414E+01 -0.35331900536E+02  0.36820922954E+02  0.00000000000E+00 0.  1.
         11    1    4    4    0    0 -0.93864434247E+00  0.26068169232E+01  0.64962181119E+01  0.70623931985E+01  0.51100000000E-03 0. -1.
        -11    1    4    4    0    0  0.26178301242E+01 -0.74941024315E+01 -0.54772496724E+01  0.96444217062E+01  0.51100000000E-03 0.  1.
        -12    1    4    4    0    0 -0.58312115950E+01  0.14384540550E+02  0.34312932097E+02  0.37660262141E+02  0.00000000000E+00 0.  1.
</event>
<event>
 8    1  0.1247338E-006  0.9118800E+02  0.7816164E-02  0.1184000E+00
        -11   -1    0    0    0    0  0.00000000000E+00  0.00000000000E+00  0.45593999997E+02  0.45594000000E+02  0.51100000000E-03 0. -1.
         11   -1    0    0    0    0 -0.00000000000E+00 -0.00000000000E+00 -0.45593999997E+02  0.45594000000E+02  0.51100000000E-03 0.  1.
         23    2    1    2    0    0 -0.35527136788E-14  0.00000000000E+00  0.00000000000E+00  0.91188000000E+02  0.91188000000E+02 0.  0.
    9900012    2    3    3    0    0  0.78235817273E+01  0.11520770675E+02  0.34085819178E+02  0.54367086690E+02  0.40000005726E+02 0.  0.
        -12    1    3    3    0    0 -0.78235817273E+01 -0.11520770675E+02 -0.34085819178E+02  0.36820913310E+02  0.00000000000E+00 0.  1.
         11    1    4    4    0    0  0.17994157292E+02  0.24827922667E+01  0.15567011009E+02  0.23922495399E+02  0.51100000000E-03 0. -1.
        -11    1    4    4    0    0 -0.59764175204E+01  0.14843940776E+02  0.16540277350E+02  0.23013928808E+02  0.51100000000E-03 0.  1.
        -12    1    4    4    0    0 -0.41941580447E+01 -0.58059623678E+01  0.19785308194E+01  0.74306624821E+01  0.00000000000E+00 0.  1.
</event>
<event>
 8    1  0.1247338E-006  0.9118800E+02  0.7816164E-02  0.1184000E+00
        -11   -1    0    0    0    0  0.00000000000E+00  0.00000000000E+00  0.45593999997E+02  0.45594000000E+02  0.51100000000E-03 0. -1.
         11   -1    0    0    0    0 -0.00000000000E+00 -0.00000000000E+00 -0.45593999997E+02  0.45594000000E+02  0.51100000000E-03 0.  1.
         23    2    1    2    0    0 -0.17763568394E-14  0.35527136788E-14  0.00000000000E+00  0.91188000000E+02  0.91188000000E+02 0.  0.
    9900012    2    3    3    0    0  0.90013343139E+01 -0.26319030262E+02 -0.24126018116E+02  0.54367080355E+02  0.39999991286E+02 0.  0.
         12    1    3    3    0    0 -0.90013343139E+01  0.26319030262E+02  0.24126018116E+02  0.36820919645E+02  0.00000000000E+00 0. -1.
         11    1    4    4    0    0  0.11417248478E+02 -0.30765225777E+01  0.14692715927E+01  0.11915423335E+02  0.51100000000E-03 0. -1.
        -11    1    4    4    0    0  0.79299726436E+01 -0.23621120239E+01 -0.14379222208E+02  0.16589938846E+02  0.51100000000E-03 0.  1.
        -12    1    4    4    0    0 -0.10345886808E+02 -0.20880395660E+02 -0.11216067500E+02  0.25861718174E+02  0.00000000000E+00 0.  1.
</event>
<event>
 8    1  0.1247338E-006  0.9118800E+02  0.7816164E-02  0.1184000E+00
        -11   -1    0    0    0    0  0.00000000000E+00  0.00000000000E+00  0.45593999997E+02  0.45594000000E+02  0.51100000000E-03 0.  1.
         11   -1    0    0    0    0 -0.00000000000E+00 -0.00000000000E+00 -0.45593999997E+02  0.45594000000E+02  0.51100000000E-03 0. -1.
         23    2    1    2    0    0  0.22204460493E-15 -0.71054273576E-14 -0.17763568394E-14  0.91188000000E+02  0.91188000000E+02 0.  0.
    9900012    2    3    3    0    0  0.14771903297E+01 -0.35792442265E+02 -0.85148154051E+01  0.54367039992E+02  0.39999899270E+02 0.  0.
        -12    1    3    3    0    0 -0.14771903297E+01  0.35792442265E+02  0.85148154051E+01  0.36820960008E+02  0.00000000000E+00 0.  1.
         11    1    4    4    0    0 -0.52222452407E+01 -0.22710356586E+02 -0.76940075122E+01  0.24540372725E+02  0.51100000000E-03 0. -1.
        -11    1    4    4    0    0  0.13794540363E+02 -0.13059721416E+02  0.60638774336E+01  0.19940317879E+02  0.51100000000E-03 0.  1.
        -12    1    4    4    0    0 -0.70951047928E+01 -0.22364261683E-01 -0.68846853264E+01  0.98863493882E+01  0.00000000000E+00 0.  1.
</event>
<event>
 8    1  0.1247338E-006  0.9118800E+02  0.7816164E-02  0.1184000E+00
        -11   -1    0    0    0    0  0.00000000000E+00  0.00000000000E+00  0.45593999997E+02  0.45594000000E+02  0.51100000000E-03 0. -1.
         11   -1    0    0    0    0 -0.00000000000E+00 -0.00000000000E+00 -0.45593999997E+02  0.45594000000E+02  0.51100000000E-03 0.  1.
         23    2    1    2    0    0  0.00000000000E+00  0.35527136788E-14  0.17763568394E-14  0.91188000000E+02  0.91188000000E+02 0.  0.
    9900012    2    3    3    0    0  0.19504350707E+02  0.30039245149E+02  0.85442749938E+01  0.54367074146E+02  0.39999977130E+02 0.  0.
        -12    1    3    3    0    0 -0.19504350707E+02 -0.30039245149E+02 -0.85442749938E+01  0.36820925854E+02  0.00000000000E+00 0.  1.
         11    1    4    4    0    0  0.19255394843E+01  0.76216741144E+01 -0.60234435237E+01  0.99035090123E+01  0.51100000000E-03 0. -1.
        -11    1    4    4    0    0  0.12625812576E+01  0.69213614136E+01 -0.92995908974E+01  0.11661121145E+02  0.51100000000E-03 0.  1.
         12    1    4    4    0    0  0.16316229965E+02  0.15496209621E+02  0.23867309415E+02  0.32802443988E+02  0.00000000000E+00 0. -1.
</event>
<event>
 8    1  0.1247338E-006  0.9118800E+02  0.7816164E-02  0.1184000E+00
        -11   -1    0    0    0    0  0.00000000000E+00  0.00000000000E+00  0.45593999997E+02  0.45594000000E+02  0.51100000000E-03 0.  1.
         11   -1    0    0    0    0 -0.00000000000E+00 -0.00000000000E+00 -0.45593999997E+02  0.45594000000E+02  0.51100000000E-03 0. -1.
         23    2    1    2    0    0  0.00000000000E+00  0.35527136788E-14  0.17763568394E-14  0.91188000000E+02  0.91188000000E+02 0.  0.
    9900012    2    3    3    0    0  0.21747145958E+02  0.29418645665E+02 -0.41695153785E+01  0.54367083002E+02  0.39999997319E+02 0.  0.
         12    1    3    3    0    0 -0.21747145958E+02 -0.29418645665E+02  0.41695153785E+01  0.36820916998E+02  0.00000000000E+00 0. -1.
         11    1    4    4    0    0  0.22714043502E+01  0.65395965755E+00 -0.11290251498E+02  0.11535021461E+02  0.51100000000E-03 0. -1.
        -11    1    4    4    0    0  0.22225624611E+02  0.18726038071E+02  0.11867424433E+02  0.31392334321E+02  0.51100000000E-03 0.  1.
        -12    1    4    4    0    0 -0.27498830029E+01  0.10038647937E+02 -0.47466883137E+01  0.11439727220E+02  0.00000000000E+00 0.  1.
</event>
<event>
 8    1  0.1247338E-006  0.9118800E+02  0.7816164E-02  0.1184000E+00
        -11   -1    0    0    0    0  0.00000000000E+00  0.00000000000E+00  0.45593999997E+02  0.45594000000E+02  0.51100000000E-03 0.  1.
         11   -1    0    0    0    0 -0.00000000000E+00 -0.00000000000E+00 -0.45593999997E+02  0.45594000000E+02  0.51100000000E-03 0. -1.
         23    2    1    2    0    0  0.88817841970E-15  0.00000000000E+00  0.00000000000E+00  0.91188000000E+02  0.91188000000E+02 0.  0.
    9900012    2    3    3    0    0 -0.71182459918E+00  0.31956895806E+02  0.18276551083E+02  0.54367052113E+02  0.39999926902E+02 0.  0.
         12    1    3    3    0    0  0.71182459918E+00 -0.31956895806E+02 -0.18276551083E+02  0.36820947887E+02  0.00000000000E+00 0. -1.
         11    1    4    4    0    0 -0.14002099265E+02  0.16194110639E+02  0.10429367491E+02  0.23813435488E+02  0.51100000000E-03 0. -1.
        -11    1    4    4    0    0  0.81955007428E+01  0.20707545067E+02  0.45721613698E+01  0.22734848030E+02  0.51100000000E-03 0.  1.
         12    1    4    4    0    0  0.50947739226E+01 -0.49447598994E+01  0.32750222218E+01  0.78187685947E+01  0.00000000000E+00 0. -1.
</event>
<event>
 8    1  0.1247338E-006  0.9118800E+02  0.7816164E-02  0.1184000E+00
        -11   -1    0    0    0    0  0.00000000000E+00  0.00000000000E+00  0.45593999997E+02  0.45594000000E+02  0.51100000000E-03 0. -1.
         11   -1    0    0    0    0 -0.00000000000E+00 -0.00000000000E+00 -0.45593999997E+02  0.45594000000E+02  0.51100000000E-03 0.  1.
         23    2    1    2    0    0  0.00000000000E+00  0.35527136788E-14  0.00000000000E+00  0.91188000000E+02  0.91188000000E+02 0.  0.
    9900012    2    3    3    0    0 -0.11131532729E+02 -0.25367323196E+02 -0.24256272522E+02  0.54367097463E+02  0.40000030286E+02 0.  0.
         12    1    3    3    0    0  0.11131532729E+02  0.25367323196E+02  0.24256272522E+02  0.36820902537E+02  0.00000000000E+00 0. -1.
         11    1    4    4    0    0 -0.13168508902E+02 -0.71826449933E+01 -0.22733301059E+02  0.27236060528E+02  0.51100000000E-03 0. -1.
        -11    1    4    4    0    0  0.90704726922E+00 -0.22523862808E+02 -0.19530617788E+01  0.22626568037E+02  0.51100000000E-03 0.  1.
         12    1    4    4    0    0  0.11299289037E+01  0.43391846056E+01  0.43009031641E+00  0.45044688975E+01  0.00000000000E+00 0. -1.
</event>
<event>
 8    1  0.1247338E-006  0.9118800E+02  0.7816164E-02  0.1184000E+00
        -11   -1    0    0    0    0  0.00000000000E+00  0.00000000000E+00  0.45593999997E+02  0.45594000000E+02  0.51100000000E-03 0. -1.
         11   -1    0    0    0    0 -0.00000000000E+00 -0.00000000000E+00 -0.45593999997E+02  0.45594000000E+02  0.51100000000E-03 0.  1.
         23    2    1    2    0    0  0.00000000000E+00  0.00000000000E+00  0.17763568394E-14  0.91188000000E+02  0.91188000000E+02 0.  0.
    9900012    2    3    3    0    0  0.31066345693E+02 -0.16260187595E+02 -0.11236932186E+02  0.54367079584E+02  0.39999989528E+02 0.  0.
        -12    1    3    3    0    0 -0.31066345693E+02  0.16260187595E+02  0.11236932186E+02  0.36820920416E+02  0.00000000000E+00 0.  1.
         11    1    4    4    0    0  0.27105506363E+02 -0.17550967667E+02 -0.10118002796E+02  0.33839605820E+02  0.51100000000E-03 0. -1.
        -11    1    4    4    0    0  0.11852305095E+02 -0.12052808508E+00 -0.31363644328E+01  0.12260850101E+02  0.51100000000E-03 0.  1.
         12    1    4    4    0    0 -0.78914657650E+01  0.14113081566E+01  0.20174350426E+01  0.82666236629E+01  0.00000000000E+00 0. -1.
</event>
<event>
 8    1  0.1247338E-006  0.9118800E+02  0.7816164E-02  0.1184000E+00
        -11   -1    0    0    0    0  0.00000000000E+00  0.00000000000E+00  0.45593999997E+02  0.45594000000E+02  0.51100000000E-03 0. -1.
         11   -1    0    0    0    0 -0.00000000000E+00 -0.00000000000E+00 -0.45593999997E+02  0.45594000000E+02  0.51100000000E-03 0.  1.
         23    2    1    2    0    0  0.88817841970E-15  0.00000000000E+00 -0.17763568394E-14  0.91188000000E+02  0.91188000000E+02 0.  0.
    9900012    2    3    3    0    0 -0.52662725833E+01 -0.35067494213E+02 -0.99155121120E+01  0.54367079890E+02  0.39999990225E+02 0.  0.
         12    1    3    3    0    0  0.52662725833E+01  0.35067494213E+02  0.99155121120E+01  0.36820920110E+02  0.00000000000E+00 0. -1.
         11    1    4    4    0    0  0.45858125745E+01 -0.10705877492E+02  0.61892831721E+01  0.13189113552E+02  0.51100000000E-03 0. -1.
        -11    1    4    4    0    0 -0.44225923497E+01 -0.27952636007E+02 -0.56447972059E+01  0.28857805159E+02  0.51100000000E-03 0.  1.
        -12    1    4    4    0    0 -0.54294928081E+01  0.35910192863E+01 -0.10459998078E+02  0.12320161178E+02  0.00000000000E+00 0.  1.
</event>
<event>
 8    1  0.1247338E-006  0.9118800E+02  0.7816164E-02  0.1184000E+00
        -11   -1    0    0    0    0  0.00000000000E+00  0.00000000000E+00  0.45593999997E+02  0.45594000000E+02  0.51100000000E-03 0.  1.
         11   -1    0    0    0    0 -0.00000000000E+00 -0.00000000000E+00 -0.45593999997E+02  0.45594000000E+02  0.51100000000E-03 0. -1.
         23    2    1    2    0    0  0.00000000000E+00  0.00000000000E+00  0.00000000000E+00  0.91188000000E+02  0.91188000000E+02 0.  0.
    9900012    2    3    3    0    0 -0.31770809320E+02  0.17140102880E+02  0.72533968601E+01  0.54367092657E+02  0.40000019329E+02 0.  0.
         12    1    3    3    0    0  0.31770809320E+02 -0.17140102880E+02 -0.72533968601E+01  0.36820907343E+02  0.00000000000E+00 0. -1.
         11    1    4    4    0    0 -0.70555595787E+01 -0.32324066507E+01 -0.13159566929E+01  0.78715383505E+01  0.51100000000E-03 0. -1.
        -11    1    4    4    0    0 -0.76217933809E+01  0.11704698227E+01  0.17625918727E+02  0.19238886277E+02  0.51100000000E-03 0.  1.
        -12    1    4    4    0    0 -0.17093456360E+02  0.19202039708E+02 -0.90565651740E+01  0.27256668029E+02  0.00000000000E+00 0.  1.
</event>
<event>
 8    1  0.1247338E-006  0.9118800E+02  0.7816164E-02  0.1184000E+00
        -11   -1    0    0    0    0  0.00000000000E+00  0.00000000000E+00  0.45593999997E+02  0.45594000000E+02  0.51100000000E-03 0.  1.
         11   -1    0    0    0    0 -0.00000000000E+00 -0.00000000000E+00 -0.45593999997E+02  0.45594000000E+02  0.51100000000E-03 0. -1.
         23    2    1    2    0    0  0.88817841970E-15  0.71054273576E-14 -0.35527136788E-14  0.91188000000E+02  0.91188000000E+02 0.  0.
    9900012    2    3    3    0    0 -0.41553990906E+01 -0.29236263002E+02  0.21994395953E+02  0.54367083807E+02  0.39999999156E+02 0.  0.
         12    1    3    3    0    0  0.41553990906E+01  0.29236263002E+02 -0.21994395953E+02  0.36820916193E+02  0.00000000000E+00 0. -1.
         11    1    4    4    0    0 -0.49172594189E+00  0.15039536135E+01 -0.42881730776E+01  0.45707876212E+01  0.51100000000E-03 0. -1.
        -11    1    4    4    0    0 -0.12010051853E+02 -0.56425331910E+01  0.17427380877E+02  0.21904180670E+02  0.51100000000E-03 0.  1.
         12    1    4    4    0    0  0.83463787044E+01 -0.25097683424E+02  0.88551881536E+01  0.27892115517E+02  0.00000000000E+00 0. -1.
</event>
<event>
 8    1  0.1247338E-006  0.9118800E+02  0.7816164E-02  0.1184000E+00
        -11   -1    0    0    0    0  0.00000000000E+00  0.00000000000E+00  0.45593999997E+02  0.45594000000E+02  0.51100000000E-03 0. -1.
         11   -1    0    0    0    0 -0.00000000000E+00 -0.00000000000E+00 -0.45593999997E+02  0.45594000000E+02  0.51100000000E-03 0.  1.
         23    2    1    2    0    0  0.35527136788E-14 -0.35527136788E-14  0.00000000000E+00  0.91188000000E+02  0.91188000000E+02 0.  0.
    9900012    2    3    3    0    0  0.21974217533E+02 -0.21137116751E+02  0.20643049522E+02  0.54367089714E+02  0.40000012620E+02 0.  0.
        -12    1    3    3    0    0 -0.21974217533E+02  0.21137116751E+02 -0.20643049522E+02  0.36820910286E+02  0.00000000000E+00 0.  1.
         11    1    4    4    0    0  0.11822890036E+02 -0.10838981561E+02  0.18605359544E+02  0.24564683066E+02  0.51100000000E-03 0. -1.
        -11    1    4    4    0    0 -0.19610203127E+00 -0.15825389445E+02 -0.43921018844E+01  0.16424736416E+02  0.51100000000E-03 0.  1.
         12    1    4    4    0    0  0.10347429528E+02  0.55272542556E+01  0.64297918629E+01  0.13377670232E+02  0.00000000000E+00 0. -1.
</event>
<event>
 8    1  0.1247338E-006  0.9118800E+02  0.7816164E-02  0.1184000E+00
        -11   -1    0    0    0    0  0.00000000000E+00  0.00000000000E+00  0.45593999997E+02  0.45594000000E+02  0.51100000000E-03 0.  1.
         11   -1    0    0    0    0 -0.00000000000E+00 -0.00000000000E+00 -0.45593999997E+02  0.45594000000E+02  0.51100000000E-03 0. -1.
         23    2    1    2    0    0  0.17763568394E-14  0.00000000000E+00  0.00000000000E+00  0.91188000000E+02  0.91188000000E+02 0.  0.
    9900012    2    3    3    0    0 -0.43414882547E+01  0.11390892353E+02 -0.34744465243E+02  0.54367098139E+02  0.40000031826E+02 0.  0.
        -12    1    3    3    0    0  0.43414882547E+01 -0.11390892353E+02  0.34744465243E+02  0.36820901861E+02  0.00000000000E+00 0.  1.
         11    1    4    4    0    0 -0.26595484341E+01  0.11674726403E+02 -0.26700757992E+02  0.29262653879E+02  0.51100000000E-03 0. -1.
        -11    1    4    4    0    0  0.69662410359E+01  0.83124001662E+01 -0.69544384795E+00  0.10867757501E+02  0.51100000000E-03 0.  1.
        -12    1    4    4    0    0 -0.86481808565E+01 -0.85962342155E+01 -0.73482634033E+01  0.14236686758E+02  0.00000000000E+00 0.  1.
</event>
<event>
 8    1  0.1247338E-006  0.9118800E+02  0.7816164E-02  0.1184000E+00
        -11   -1    0    0    0    0  0.00000000000E+00  0.00000000000E+00  0.45593999997E+02  0.45594000000E+02  0.51100000000E-03 0. -1.
         11   -1    0    0    0    0 -0.00000000000E+00 -0.00000000000E+00 -0.45593999997E+02  0.45594000000E+02  0.51100000000E-03 0.  1.
         23    2    1    2    0    0  0.00000000000E+00  0.00000000000E+00  0.35527136788E-14  0.91188000000E+02  0.91188000000E+02 0.  0.
    9900012    2    3    3    0    0 -0.11376988774E+02  0.29639219329E+02  0.18650874719E+02  0.54367159111E+02  0.40000170825E+02 0.  0.
        -12    1    3    3    0    0  0.11376988774E+02 -0.29639219329E+02 -0.18650874719E+02  0.36820840889E+02  0.00000000000E+00 0.  1.
         11    1    4    4    0    0 -0.15739055446E+01  0.12370855183E+02  0.52543155381E+01  0.13532297242E+02  0.51100000000E-03 0. -1.
        -11    1    4    4    0    0 -0.21126396039E+01  0.24789985343E+02  0.16236479331E+02  0.29709087511E+02  0.51100000000E-03 0.  1.
        -12    1    4    4    0    0 -0.76904436255E+01 -0.75216211973E+01 -0.28399201499E+01  0.11125774357E+02  0.00000000000E+00 0.  1.
</event>
<event>
 8    1  0.1247338E-006  0.9118800E+02  0.7816164E-02  0.1184000E+00
        -11   -1    0    0    0    0  0.00000000000E+00  0.00000000000E+00  0.45593999997E+02  0.45594000000E+02  0.51100000000E-03 0.  1.
         11   -1    0    0    0    0 -0.00000000000E+00 -0.00000000000E+00 -0.45593999997E+02  0.45594000000E+02  0.51100000000E-03 0. -1.
         23    2    1    2    0    0  0.71054273576E-14  0.17763568394E-14  0.00000000000E+00  0.91188000000E+02  0.91188000000E+02 0.  0.
    9900012    2    3    3    0    0 -0.32353960059E+02  0.96240729655E+01 -0.14709811429E+02  0.54367081160E+02  0.39999993120E+02 0.  0.
        -12    1    3    3    0    0  0.32353960059E+02 -0.96240729655E+01  0.14709811429E+02  0.36820918840E+02  0.00000000000E+00 0.  1.
         11    1    4    4    0    0 -0.50749040890E+01  0.14210095071E+02 -0.25512927363E+01  0.15303285540E+02  0.51100000000E-03 0. -1.
        -11    1    4    4    0    0 -0.31567806086E+02 -0.68010921309E+01 -0.10777029904E+02  0.34042996476E+02  0.51100000000E-03 0.  1.
         12    1    4    4    0    0  0.42887501153E+01  0.22150700253E+01 -0.13814887892E+01  0.50207991439E+01  0.00000000000E+00 0. -1.
</event>
<event>
 8    1  0.1247338E-006  0.9118800E+02  0.7816164E-02  0.1184000E+00
        -11   -1    0    0    0    0  0.00000000000E+00  0.00000000000E+00  0.45593999997E+02  0.45594000000E+02  0.51100000000E-03 0.  1.
         11   -1    0    0    0    0 -0.00000000000E+00 -0.00000000000E+00 -0.45593999997E+02  0.45594000000E+02  0.51100000000E-03 0. -1.
         23    2    1    2    0    0  0.35527136788E-14  0.00000000000E+00 -0.17763568394E-14  0.91188000000E+02  0.91188000000E+02 0.  0.
    9900012    2    3    3    0    0  0.31378947333E+02 -0.17068708632E+02 -0.89331126845E+01  0.54367086753E+02  0.40000005872E+02 0.  0.
        -12    1    3    3    0    0 -0.31378947333E+02  0.17068708632E+02  0.89331126845E+01  0.36820913247E+02  0.00000000000E+00 0.  1.
         11    1    4    4    0    0 -0.15320934471E+01  0.59786768198E+01 -0.74979568360E+00  0.62172405997E+01  0.51100000000E-03 0. -1.
        -11    1    4    4    0    0  0.11347534552E+02 -0.11275840856E+02  0.88245256538E+01  0.18269739481E+02  0.51100000000E-03 0.  1.
         12    1    4    4    0    0  0.21563506228E+02 -0.11771544596E+02 -0.17007842655E+02  0.29880106673E+02  0.00000000000E+00 0. -1.
</event>
<event>
 8    1  0.1247338E-006  0.9118800E+02  0.7816164E-02  0.1184000E+00
        -11   -1    0    0    0    0  0.00000000000E+00  0.00000000000E+00  0.45593999997E+02  0.45594000000E+02  0.51100000000E-03 0. -1.
         11   -1    0    0    0    0 -0.00000000000E+00 -0.00000000000E+00 -0.45593999997E+02  0.45594000000E+02  0.51100000000E-03 0.  1.
         23    2    1    2    0    0 -0.88817841970E-15  0.00000000000E+00  0.00000000000E+00  0.91188000000E+02  0.91188000000E+02 0.  0.
    9900012    2    3    3    0    0 -0.50171210528E+01 -0.40016876792E+01 -0.36257325506E+02  0.54367100218E+02  0.40000036567E+02 0.  0.
         12    1    3    3    0    0  0.50171210528E+01  0.40016876792E+01  0.36257325506E+02  0.36820899782E+02  0.00000000000E+00 0. -1.
         11    1    4    4    0    0 -0.15867123003E+02  0.12091048986E+02 -0.13345390395E+02  0.24001218782E+02  0.51100000000E-03 0.  1.
        -11    1    4    4    0    0  0.73273033595E+01 -0.13983870613E+02 -0.17429137538E+02  0.23516225195E+02  0.51100000000E-03 0. -1.
        -12    1    4    4    0    0  0.35226985909E+01 -0.21088660518E+01 -0.54827975732E+01  0.68496562407E+01  0.00000000000E+00 0.  1.
</event>
<event>
 8    1  0.1247338E-006  0.9118800E+02  0.7816164E-02  0.1184000E+00
        -11   -1    0    0    0    0  0.00000000000E+00  0.00000000000E+00  0.45593999997E+02  0.45594000000E+02  0.51100000000E-03 0.  1.
         11   -1    0    0    0    0 -0.00000000000E+00 -0.00000000000E+00 -0.45593999997E+02  0.45594000000E+02  0.51100000000E-03 0. -1.
         23    2    1    2    0    0 -0.26645352591E-14  0.00000000000E+00 -0.71054273576E-14  0.91188000000E+02  0.91188000000E+02 0.  0.
    9900012    2    3    3    0    0  0.35309614769E+00  0.14028522761E+00 -0.36818944619E+02  0.54367095073E+02  0.40000024837E+02 0.  0.
        -12    1    3    3    0    0 -0.35309614769E+00 -0.14028522761E+00  0.36818944619E+02  0.36820904927E+02  0.00000000000E+00 0.  1.
         11    1    4    4    0    0 -0.65917956446E+01 -0.62147707886E+01 -0.20721527299E+02  0.22615411552E+02  0.51100000000E-03 0. -1.
        -11    1    4    4    0    0  0.86454823244E+01  0.12062141420E+01  0.49376626389E+01  0.10028949585E+02  0.51100000000E-03 0.  1.
        -12    1    4    4    0    0 -0.17005905321E+01  0.51488418742E+01 -0.21035079958E+02  0.21722733936E+02  0.00000000000E+00 0.  1.
</event>
<event>
 8    1  0.1247338E-006  0.9118800E+02  0.7816164E-02  0.1184000E+00
        -11   -1    0    0    0    0  0.00000000000E+00  0.00000000000E+00  0.45593999997E+02  0.45594000000E+02  0.51100000000E-03 0. -1.
         11   -1    0    0    0    0 -0.00000000000E+00 -0.00000000000E+00 -0.45593999997E+02  0.45594000000E+02  0.51100000000E-03 0.  1.
         23    2    1    2    0    0 -0.17763568394E-14  0.71054273576E-14  0.19984014443E-14  0.91188000000E+02  0.91188000000E+02 0.  0.
    9900012    2    3    3    0    0 -0.15401690410E+02  0.33409807457E+02  0.15337745653E+01  0.54367085206E+02  0.40000002345E+02 0.  0.
         12    1    3    3    0    0  0.15401690410E+02 -0.33409807457E+02 -0.15337745653E+01  0.36820914794E+02  0.00000000000E+00 0. -1.
         11    1    4    4    0    0 -0.81148137137E+00  0.83678289147E+01  0.16303859848E+02  0.18343797561E+02  0.51100000000E-03 0. -1.
        -11    1    4    4    0    0 -0.98966927262E+01  0.43360700987E+01 -0.88921699938E+01  0.13993452693E+02  0.51100000000E-03 0.  1.
        -12    1    4    4    0    0 -0.46935163122E+01  0.20705908444E+02 -0.58779152890E+01  0.22029834952E+02  0.00000000000E+00 0.  1.
</event>
<event>
 8    1  0.1247338E-006  0.9118800E+02  0.7816164E-02  0.1184000E+00
        -11   -1    0    0    0    0  0.00000000000E+00  0.00000000000E+00  0.45593999997E+02  0.45594000000E+02  0.51100000000E-03 0.  1.
         11   -1    0    0    0    0 -0.00000000000E+00 -0.00000000000E+00 -0.45593999997E+02  0.45594000000E+02  0.51100000000E-03 0. -1.
         23    2    1    2    0    0  0.00000000000E+00  0.00000000000E+00  0.00000000000E+00  0.91188000000E+02  0.91188000000E+02 0.  0.
    9900012    2    3    3    0    0  0.17405215457E+02 -0.20899232477E+02 -0.24820559258E+02  0.54367087394E+02  0.40000007333E+02 0.  0.
        -12    1    3    3    0    0 -0.17405215457E+02  0.20899232477E+02  0.24820559258E+02  0.36820912606E+02  0.00000000000E+00 0.  1.
         11    1    4    4    0    0  0.30720503729E+01 -0.97393952797E+01 -0.72289363967E+01  0.12512027637E+02  0.51100000000E-03 0. -1.
        -11    1    4    4    0    0  0.55624137708E+01  0.11893467602E+02 -0.80941481130E+01  0.15424339613E+02  0.51100000000E-03 0.  1.
        -12    1    4    4    0    0  0.87707513135E+01 -0.23053304799E+02 -0.94974747484E+01  0.26430720144E+02  0.00000000000E+00 0.  1.
</event>
<event>
 8    1  0.1247338E-006  0.9118800E+02  0.7816164E-02  0.1184000E+00
        -11   -1    0    0    0    0  0.00000000000E+00  0.00000000000E+00  0.45593999997E+02  0.45594000000E+02  0.51100000000E-03 0. -1.
         11   -1    0    0    0    0 -0.00000000000E+00 -0.00000000000E+00 -0.45593999997E+02  0.45594000000E+02  0.51100000000E-03 0.  1.
         23    2    1    2    0    0 -0.88817841970E-15  0.00000000000E+00  0.00000000000E+00  0.91188000000E+02  0.91188000000E+02 0.  0.
    9900012    2    3    3    0    0 -0.10881180082E+01  0.20151140438E+02  0.30798172594E+02  0.54367083432E+02  0.39999998300E+02 0.  0.
        -12    1    3    3    0    0  0.10881180082E+01 -0.20151140438E+02 -0.30798172594E+02  0.36820916568E+02  0.00000000000E+00 0.  1.
         11    1    4    4    0    0  0.50451399960E+01  0.42110839073E+01 -0.20178409180E+01  0.68744707058E+01  0.51100000000E-03 0.  1.
        -11    1    4    4    0    0  0.73174522774E+01  0.16731909724E+02  0.95542975538E+01  0.20610349654E+02  0.51100000000E-03 0. -1.
         12    1    4    4    0    0 -0.13450710282E+02 -0.79185319269E+00  0.23261715959E+02  0.26882263072E+02  0.00000000000E+00 0. -1.
</event>
<event>
 8    1  0.1247338E-006  0.9118800E+02  0.7816164E-02  0.1184000E+00
        -11   -1    0    0    0    0  0.00000000000E+00  0.00000000000E+00  0.45593999997E+02  0.45594000000E+02  0.51100000000E-03 0.  1.
         11   -1    0    0    0    0 -0.00000000000E+00 -0.00000000000E+00 -0.45593999997E+02  0.45594000000E+02  0.51100000000E-03 0. -1.
         23    2    1    2    0    0  0.00000000000E+00  0.00000000000E+00 -0.71054273576E-14  0.91188000000E+02  0.91188000000E+02 0.  0.
    9900012    2    3    3    0    0  0.69288812515E+01 -0.91817254832E+01 -0.34978068768E+02  0.54367098694E+02  0.40000033093E+02 0.  0.
        -12    1    3    3    0    0 -0.69288812515E+01  0.91817254832E+01  0.34978068768E+02  0.36820901306E+02  0.00000000000E+00 0.  1.
         11    1    4    4    0    0 -0.52440948758E+01 -0.19441195983E+01 -0.43328372144E+00  0.56096227256E+01  0.51100000000E-03 0. -1.
        -11    1    4    4    0    0  0.55155559457E+00 -0.49266667473E+01  0.52591383462E+01  0.72273643342E+01  0.51100000000E-03 0.  1.
         12    1    4    4    0    0  0.11621420533E+02 -0.23109391376E+01 -0.39803923393E+02  0.41530111634E+02  0.00000000000E+00 0. -1.
</event>
<event>
 8    1  0.1247338E-006  0.9118800E+02  0.7816164E-02  0.1184000E+00
        -11   -1    0    0    0    0  0.00000000000E+00  0.00000000000E+00  0.45593999997E+02  0.45594000000E+02  0.51100000000E-03 0. -1.
         11   -1    0    0    0    0 -0.00000000000E+00 -0.00000000000E+00 -0.45593999997E+02  0.45594000000E+02  0.51100000000E-03 0.  1.
         23    2    1    2    0    0  0.35527136788E-14  0.35527136788E-14 -0.35527136788E-14  0.91188000000E+02  0.91188000000E+02 0.  0.
    9900012    2    3    3    0    0 -0.28027642058E+02 -0.11129551104E+02  0.21127364268E+02  0.54367066443E+02  0.39999959570E+02 0.  0.
        -12    1    3    3    0    0  0.28027642058E+02  0.11129551104E+02 -0.21127364268E+02  0.36820933557E+02  0.00000000000E+00 0.  1.
         11    1    4    4    0    0 -0.18663639176E+02 -0.17998667215E+02  0.33055687694E+01  0.26138290570E+02  0.51100000000E-03 0. -1.
        -11    1    4    4    0    0  0.33652678421E+01 -0.35545385570E+01  0.16670409408E+01  0.51709571417E+01  0.51100000000E-03 0.  1.
        -12    1    4    4    0    0 -0.12729270725E+02  0.10423654668E+02  0.16154754558E+02  0.23057818731E+02  0.00000000000E+00 0.  1.
</event>
<event>
 8    1  0.1247338E-006  0.9118800E+02  0.7816164E-02  0.1184000E+00
        -11   -1    0    0    0    0  0.00000000000E+00  0.00000000000E+00  0.45593999997E+02  0.45594000000E+02  0.51100000000E-03 0.  1.
         11   -1    0    0    0    0 -0.00000000000E+00 -0.00000000000E+00 -0.45593999997E+02  0.45594000000E+02  0.51100000000E-03 0. -1.
         23    2    1    2    0    0  0.00000000000E+00  0.00000000000E+00  0.17763568394E-14  0.91188000000E+02  0.91188000000E+02 0.  0.
    9900012    2    3    3    0    0  0.32508865747E+02  0.99803260634E+01 -0.14119011783E+02  0.54367085370E+02  0.40000002717E+02 0.  0.
         12    1    3    3    0    0 -0.32508865747E+02 -0.99803260634E+01  0.14119011783E+02  0.36820914630E+02  0.00000000000E+00 0. -1.
         11    1    4    4    0    0 -0.50593986055E+01  0.37016957174E+01 -0.12736416676E+02  0.14195646355E+02  0.51100000000E-03 0. -1.
        -11    1    4    4    0    0  0.29690066990E+02  0.94847860508E+01  0.14626043429E+01  0.31202571305E+02  0.51100000000E-03 0.  1.
         12    1    4    4    0    0  0.78781973624E+01 -0.32061557048E+01 -0.28451994498E+01  0.89688677097E+01  0.00000000000E+00 0. -1.
</event>
<event>
 8    1  0.1247338E-006  0.9118800E+02  0.7816164E-02  0.1184000E+00
        -11   -1    0    0    0    0  0.00000000000E+00  0.00000000000E+00  0.45593999997E+02  0.45594000000E+02  0.51100000000E-03 0. -1.
         11   -1    0    0    0    0 -0.00000000000E+00 -0.00000000000E+00 -0.45593999997E+02  0.45594000000E+02  0.51100000000E-03 0.  1.
         23    2    1    2    0    0  0.17763568394E-14  0.00000000000E+00  0.35527136788E-14  0.91188000000E+02  0.91188000000E+02 0.  0.
    9900012    2    3    3    0    0  0.11690083638E+02  0.26988074465E+02  0.22153246649E+02  0.54367074483E+02  0.39999977900E+02 0.  0.
        -12    1    3    3    0    0 -0.11690083638E+02 -0.26988074465E+02 -0.22153246649E+02  0.36820925517E+02  0.00000000000E+00 0.  1.
         11    1    4    4    0    0  0.12190214950E+02  0.27196134947E+01 -0.45267448804E+01  0.13284918425E+02  0.51100000000E-03 0. -1.
        -11    1    4    4    0    0  0.72460593796E+01  0.21533362880E+02  0.16937345097E+02  0.28338397143E+02  0.51100000000E-03 0.  1.
        -12    1    4    4    0    0 -0.77461906912E+01  0.27350980908E+01  0.97426464329E+01  0.12743758916E+02  0.00000000000E+00 0.  1.
</event>
<event>
 8    1  0.1247338E-006  0.9118800E+02  0.7816164E-02  0.1184000E+00
        -11   -1    0    0    0    0  0.00000000000E+00  0.00000000000E+00  0.45593999997E+02  0.45594000000E+02  0.51100000000E-03 0.  1.
         11   -1    0    0    0    0 -0.00000000000E+00 -0.00000000000E+00 -0.45593999997E+02  0.45594000000E+02  0.51100000000E-03 0. -1.
         23    2    1    2    0    0 -0.17763568394E-14 -0.35527136788E-14  0.35527136788E-14  0.91188000000E+02  0.91188000000E+02 0.  0.
    9900012    2    3    3    0    0 -0.15808227070E+02 -0.28187975249E+02  0.17644188585E+02  0.54367090417E+02  0.40000014223E+02 0.  0.
         12    1    3    3    0    0  0.15808227070E+02  0.28187975249E+02 -0.17644188585E+02  0.36820909583E+02  0.00000000000E+00 0. -1.
         11    1    4    4    0    0 -0.52862182978E+01 -0.94148032720E+01 -0.13761282961E+00  0.10798220321E+02  0.51100000000E-03 0. -1.
        -11    1    4    4    0    0 -0.11045048847E+02 -0.27137450963E+02  0.73859822782E+01  0.30215676118E+02  0.51100000000E-03 0.  1.
         12    1    4    4    0    0  0.52304007479E+00  0.83642789867E+01  0.10395819137E+02  0.13353193978E+02  0.00000000000E+00 0. -1.
</event>
<event>
 8    1  0.1247338E-006  0.9118800E+02  0.7816164E-02  0.1184000E+00
        -11   -1    0    0    0    0  0.00000000000E+00  0.00000000000E+00  0.45593999997E+02  0.45594000000E+02  0.51100000000E-03 0.  1.
         11   -1    0    0    0    0 -0.00000000000E+00 -0.00000000000E+00 -0.45593999997E+02  0.45594000000E+02  0.51100000000E-03 0. -1.
         23    2    1    2    0    0  0.35527136788E-14  0.00000000000E+00 -0.22204460493E-15  0.91188000000E+02  0.91188000000E+02 0.  0.
    9900012    2    3    3    0    0  0.31629076201E+02 -0.18768597010E+02 -0.17662998577E+01  0.54367102261E+02  0.40000041225E+02 0.  0.
        -12    1    3    3    0    0 -0.31629076201E+02  0.18768597010E+02  0.17662998577E+01  0.36820897739E+02  0.00000000000E+00 0.  1.
         11    1    4    4    0    0  0.20082093858E+02 -0.16843445997E+01 -0.20865605802E+01  0.20260336763E+02  0.51100000000E-03 0. -1.
        -11    1    4    4    0    0 -0.35076632260E+01  0.55889973016E+01  0.18336757226E+01  0.68485735055E+01  0.51100000000E-03 0.  1.
         12    1    4    4    0    0  0.15054645570E+02 -0.22673249712E+02 -0.15134150000E+01  0.27258191993E+02  0.00000000000E+00 0. -1.
</event>
<event>
 8    1  0.1247338E-006  0.9118800E+02  0.7816164E-02  0.1184000E+00
        -11   -1    0    0    0    0  0.00000000000E+00  0.00000000000E+00  0.45593999997E+02  0.45594000000E+02  0.51100000000E-03 0.  1.
         11   -1    0    0    0    0 -0.00000000000E+00 -0.00000000000E+00 -0.45593999997E+02  0.45594000000E+02  0.51100000000E-03 0. -1.
         23    2    1    2    0    0  0.71054273576E-14  0.00000000000E+00  0.17763568394E-14  0.91188000000E+02  0.91188000000E+02 0.  0.
    9900012    2    3    3    0    0 -0.33842709667E+02 -0.82887322219E+01 -0.11905797392E+02  0.54367080796E+02  0.39999992291E+02 0.  0.
         12    1    3    3    0    0  0.33842709667E+02  0.82887322219E+01  0.11905797392E+02  0.36820919204E+02  0.00000000000E+00 0. -1.
         11    1    4    4    0    0 -0.78071847237E+01 -0.14893749805E+02 -0.13539099605E+02  0.21588958635E+02  0.51100000000E-03 0. -1.
        -11    1    4    4    0    0 -0.90427654106E+01  0.54515406903E+01  0.93276792054E+01  0.14088878656E+02  0.51100000000E-03 0.  1.
         12    1    4    4    0    0 -0.16992759533E+02  0.11534768930E+01 -0.76943769922E+01  0.18689243505E+02  0.00000000000E+00 0. -1.
</event>
<event>
 8    1  0.1247338E-006  0.9118800E+02  0.7816164E-02  0.1184000E+00
        -11   -1    0    0    0    0  0.00000000000E+00  0.00000000000E+00  0.45593999997E+02  0.45594000000E+02  0.51100000000E-03 0.  1.
         11   -1    0    0    0    0 -0.00000000000E+00 -0.00000000000E+00 -0.45593999997E+02  0.45594000000E+02  0.51100000000E-03 0. -1.
         23    2    1    2    0    0  0.35527136788E-14  0.88817841970E-15 -0.35527136788E-14  0.91188000000E+02  0.91188000000E+02 0.  0.
    9900012    2    3    3    0    0  0.20249820191E+02  0.78745275706E+01 -0.29727345475E+02  0.54367102792E+02  0.40000042435E+02 0.  0.
        -12    1    3    3    0    0 -0.20249820191E+02 -0.78745275706E+01  0.29727345475E+02  0.36820897208E+02  0.00000000000E+00 0.  1.
         11    1    4    4    0    0  0.15872075330E+02  0.14579680821E+02 -0.20573820747E+02  0.29795502488E+02  0.51100000000E-03 0. -1.
        -11    1    4    4    0    0  0.11969066933E+02 -0.18093395238E+01 -0.97145115634E+01  0.15521082692E+02  0.51100000000E-03 0.  1.
        -12    1    4    4    0    0 -0.75913220710E+01 -0.48958137262E+01  0.56098683590E+00  0.90505176127E+01  0.00000000000E+00 0.  1.
</event>
<event>
 8    1  0.1247338E-006  0.9118800E+02  0.7816164E-02  0.1184000E+00
        -11   -1    0    0    0    0  0.00000000000E+00  0.00000000000E+00  0.45593999997E+02  0.45594000000E+02  0.51100000000E-03 0.  1.
         11   -1    0    0    0    0 -0.00000000000E+00 -0.00000000000E+00 -0.45593999997E+02  0.45594000000E+02  0.51100000000E-03 0. -1.
         23    2    1    2    0    0  0.00000000000E+00 -0.35527136788E-14  0.35527136788E-14  0.91188000000E+02  0.91188000000E+02 0.  0.
    9900012    2    3    3    0    0  0.11125322586E+02 -0.17126968710E+02 -0.30637724147E+02  0.54367136339E+02  0.40000118911E+02 0.  0.
        -12    1    3    3    0    0 -0.11125322586E+02  0.17126968710E+02  0.30637724147E+02  0.36820863661E+02  0.00000000000E+00 0.  1.
         11    1    4    4    0    0 -0.52898087962E+01  0.10731730952E+01 -0.13294075221E+02  0.14348038675E+02  0.51100000000E-03 0.  1.
        -11    1    4    4    0    0  0.12834212271E+02 -0.19474569875E+02 -0.23290750007E+02  0.32961112126E+02  0.51100000000E-03 0. -1.
        -12    1    4    4    0    0  0.35809191119E+01  0.12744280698E+01  0.59471010802E+01  0.70579855376E+01  0.00000000000E+00 0.  1.
</event>
<event>
 8    1  0.1247338E-006  0.9118800E+02  0.7816164E-02  0.1184000E+00
        -11   -1    0    0    0    0  0.00000000000E+00  0.00000000000E+00  0.45593999997E+02  0.45594000000E+02  0.51100000000E-03 0. -1.
         11   -1    0    0    0    0 -0.00000000000E+00 -0.00000000000E+00 -0.45593999997E+02  0.45594000000E+02  0.51100000000E-03 0.  1.
         23    2    1    2    0    0  0.00000000000E+00  0.00000000000E+00  0.71054273576E-14  0.91188000000E+02  0.91188000000E+02 0.  0.
    9900012    2    3    3    0    0 -0.28842992395E+02 -0.10766121909E+02 -0.20197830034E+02  0.54367082991E+02  0.39999997295E+02 0.  0.
         12    1    3    3    0    0  0.28842992395E+02  0.10766121909E+02  0.20197830034E+02  0.36820917009E+02  0.00000000000E+00 0. -1.
         11    1    4    4    0    0 -0.10551755780E+02 -0.44544683705E+01 -0.16945281290E+02  0.20452980144E+02  0.51100000000E-03 0.  1.
        -11    1    4    4    0    0  0.63797668267E+01 -0.55689749136E+01 -0.36673117659E+01  0.92284387737E+01  0.51100000000E-03 0. -1.
        -12    1    4    4    0    0 -0.24671003442E+02 -0.74267862485E+00  0.41476302141E+00  0.24685664074E+02  0.00000000000E+00 0.  1.
</event>
<event>
 8    1  0.1247338E-006  0.9118800E+02  0.7816164E-02  0.1184000E+00
        -11   -1    0    0    0    0  0.00000000000E+00  0.00000000000E+00  0.45593999997E+02  0.45594000000E+02  0.51100000000E-03 0. -1.
         11   -1    0    0    0    0 -0.00000000000E+00 -0.00000000000E+00 -0.45593999997E+02  0.45594000000E+02  0.51100000000E-03 0.  1.
         23    2    1    2    0    0  0.17763568394E-14 -0.44408920985E-15  0.00000000000E+00  0.91188000000E+02  0.91188000000E+02 0.  0.
    9900012    2    3    3    0    0 -0.15569389155E+02  0.29124024062E+01  0.33239863865E+02  0.54367129339E+02  0.40000102954E+02 0.  0.
        -12    1    3    3    0    0  0.15569389155E+02 -0.29124024062E+01 -0.33239863865E+02  0.36820870661E+02  0.00000000000E+00 0.  1.
         11    1    4    4    0    0 -0.83119175339E+01  0.11216644115E+02  0.14209013411E+02  0.19919767586E+02  0.51100000000E-03 0. -1.
        -11    1    4    4    0    0 -0.99858136195E+01 -0.59270755386E+01 -0.31028917117E+01  0.12019760202E+02  0.51100000000E-03 0.  1.
        -12    1    4    4    0    0  0.27283419979E+01 -0.23771661702E+01  0.22133742166E+02  0.22427601551E+02  0.00000000000E+00 0.  1.
</event>
<event>
 8    1  0.1247338E-006  0.9118800E+02  0.7816164E-02  0.1184000E+00
        -11   -1    0    0    0    0  0.00000000000E+00  0.00000000000E+00  0.45593999997E+02  0.45594000000E+02  0.51100000000E-03 0.  1.
         11   -1    0    0    0    0 -0.00000000000E+00 -0.00000000000E+00 -0.45593999997E+02  0.45594000000E+02  0.51100000000E-03 0. -1.
         23    2    1    2    0    0  0.00000000000E+00  0.00000000000E+00  0.00000000000E+00  0.91188000000E+02  0.91188000000E+02 0.  0.
    9900012    2    3    3    0    0  0.12198165749E+02  0.29373733927E+02  0.18551796324E+02  0.54367073350E+02  0.39999975317E+02 0.  0.
         12    1    3    3    0    0 -0.12198165749E+02 -0.29373733927E+02 -0.18551796324E+02  0.36820926650E+02  0.00000000000E+00 0. -1.
         11    1    4    4    0    0  0.27388905551E+01 -0.98181104986E+01  0.47895309966E+01  0.11262167760E+02  0.51100000000E-03 0. -1.
        -11    1    4    4    0    0  0.56767916688E+01  0.11225778361E+02  0.52212984521E+01  0.13620059517E+02  0.51100000000E-03 0.  1.
         12    1    4    4    0    0  0.37824835251E+01  0.27966066065E+02  0.85409668755E+01  0.29484846073E+02  0.00000000000E+00 0. -1.
</event>
<event>
 8    1  0.1247338E-006  0.9118800E+02  0.7816164E-02  0.1184000E+00
        -11   -1    0    0    0    0  0.00000000000E+00  0.00000000000E+00  0.45593999997E+02  0.45594000000E+02  0.51100000000E-03 0. -1.
         11   -1    0    0    0    0 -0.00000000000E+00 -0.00000000000E+00 -0.45593999997E+02  0.45594000000E+02  0.51100000000E-03 0.  1.
         23    2    1    2    0    0  0.35527136788E-14  0.00000000000E+00  0.00000000000E+00  0.91188000000E+02  0.91188000000E+02 0.  0.
    9900012    2    3    3    0    0  0.20279402663E+02  0.30543132384E+02 -0.34119181085E+01  0.54367105207E+02  0.40000047940E+02 0.  0.
        -12    1    3    3    0    0 -0.20279402663E+02 -0.30543132384E+02  0.34119181085E+01  0.36820894793E+02  0.00000000000E+00 0.  1.
         11    1    4    4    0    0  0.19306961277E+02  0.41473977406E+01 -0.52147383512E+01  0.20424327605E+02  0.51100000000E-03 0. -1.
        -11    1    4    4    0    0 -0.32559312118E+01  0.98458886305E+01 -0.90007313296E+01  0.13731561299E+02  0.51100000000E-03 0.  1.
         12    1    4    4    0    0  0.42283725977E+01  0.16549846013E+02  0.10803551572E+02  0.20211216303E+02  0.00000000000E+00 0. -1.
</event>
<event>
 8    1  0.1247338E-006  0.9118800E+02  0.7816164E-02  0.1184000E+00
        -11   -1    0    0    0    0  0.00000000000E+00  0.00000000000E+00  0.45593999997E+02  0.45594000000E+02  0.51100000000E-03 0. -1.
         11   -1    0    0    0    0 -0.00000000000E+00 -0.00000000000E+00 -0.45593999997E+02  0.45594000000E+02  0.51100000000E-03 0.  1.
         23    2    1    2    0    0  0.35527136788E-14  0.00000000000E+00  0.00000000000E+00  0.91188000000E+02  0.91188000000E+02 0.  0.
    9900012    2    3    3    0    0 -0.12417768215E+02 -0.13138155407E+02  0.32077527771E+02  0.54367083623E+02  0.39999998736E+02 0.  0.
        -12    1    3    3    0    0  0.12417768215E+02  0.13138155407E+02 -0.32077527771E+02  0.36820916377E+02  0.00000000000E+00 0.  1.
         11    1    4    4    0    0 -0.24494795974E+01  0.18831770463E+01 -0.55705131153E+01  0.63700017829E+01  0.51100000000E-03 0. -1.
        -11    1    4    4    0    0  0.72197434300E+01 -0.81159452542E+01  0.10321839565E+02  0.14984446431E+02  0.51100000000E-03 0.  1.
         12    1    4    4    0    0 -0.17188032047E+02 -0.69053871990E+01  0.27326201321E+02  0.33012635409E+02  0.00000000000E+00 0. -1.
</event>
<event>
 8    1  0.1247338E-006  0.9118800E+02  0.7816164E-02  0.1184000E+00
        -11   -1    0    0    0    0  0.00000000000E+00  0.00000000000E+00  0.45593999997E+02  0.45594000000E+02  0.51100000000E-03 0.  1.
         11   -1    0    0    0    0 -0.00000000000E+00 -0.00000000000E+00 -0.45593999997E+02  0.45594000000E+02  0.51100000000E-03 0. -1.
         23    2    1    2    0    0  0.00000000000E+00  0.00000000000E+00  0.00000000000E+00  0.91188000000E+02  0.91188000000E+02 0.  0.
    9900012    2    3    3    0    0 -0.73195491103E+01 -0.27556129416E+02  0.23299425229E+02  0.54367091761E+02  0.40000017287E+02 0.  0.
        -12    1    3    3    0    0  0.73195491103E+01  0.27556129416E+02 -0.23299425229E+02  0.36820908239E+02  0.00000000000E+00 0.  1.
         11    1    4    4    0    0 -0.43065173746E+01 -0.10429736783E+02  0.49000877812E+01  0.12301884481E+02  0.51100000000E-03 0. -1.
        -11    1    4    4    0    0 -0.14985030835E+02  0.19319975460E+01  0.52294801694E+01  0.15988471683E+02  0.51100000000E-03 0.  1.
        -12    1    4    4    0    0  0.11971999100E+02 -0.19058390179E+02  0.13169857278E+02  0.26076735597E+02  0.00000000000E+00 0.  1.
</event>
<event>
 8    1  0.1247338E-006  0.9118800E+02  0.7816164E-02  0.1184000E+00
        -11   -1    0    0    0    0  0.00000000000E+00  0.00000000000E+00  0.45593999997E+02  0.45594000000E+02  0.51100000000E-03 0.  1.
         11   -1    0    0    0    0 -0.00000000000E+00 -0.00000000000E+00 -0.45593999997E+02  0.45594000000E+02  0.51100000000E-03 0. -1.
         23    2    1    2    0    0  0.11102230246E-15 -0.71054273576E-14 -0.14432899320E-14  0.91188000000E+02  0.91188000000E+02 0.  0.
    9900012    2    3    3    0    0 -0.95237131500E+00 -0.36798927736E+02  0.84291917603E+00  0.54367100956E+02  0.40000038249E+02 0.  0.
        -12    1    3    3    0    0  0.95237131500E+00  0.36798927736E+02 -0.84291917603E+00  0.36820899044E+02  0.00000000000E+00 0.  1.
         11    1    4    4    0    0 -0.16278218734E+02 -0.21066663644E+02 -0.89628400584E+01  0.28091230382E+02  0.51100000000E-03 0. -1.
        -11    1    4    4    0    0  0.48547104018E+00 -0.39735419346E+01  0.55941755365E+01  0.68789183621E+01  0.51100000000E-03 0.  1.
         12    1    4    4    0    0  0.14840376379E+02 -0.11758722158E+02  0.42115836979E+01  0.19396952212E+02  0.00000000000E+00 0. -1.
</event>
<event>
 8    1  0.1247338E-006  0.9118800E+02  0.7816164E-02  0.1184000E+00
        -11   -1    0    0    0    0  0.00000000000E+00  0.00000000000E+00  0.45593999997E+02  0.45594000000E+02  0.51100000000E-03 0.  1.
         11   -1    0    0    0    0 -0.00000000000E+00 -0.00000000000E+00 -0.45593999997E+02  0.45594000000E+02  0.51100000000E-03 0. -1.
         23    2    1    2    0    0  0.00000000000E+00  0.35527136788E-14  0.00000000000E+00  0.91188000000E+02  0.91188000000E+02 0.  0.
    9900012    2    3    3    0    0 -0.26784501270E+02 -0.21174653085E+02 -0.13784170940E+02  0.54367098191E+02  0.40000031946E+02 0.  0.
        -12    1    3    3    0    0  0.26784501270E+02  0.21174653085E+02  0.13784170940E+02  0.36820901809E+02  0.00000000000E+00 0.  1.
         11    1    4    4    0    0 -0.17476620904E+01  0.74167349935E+01 -0.22452530125E+01  0.79437675002E+01  0.51100000000E-03 0. -1.
        -11    1    4    4    0    0 -0.97462114121E+01 -0.77587656312E+01 -0.15917957375E+02  0.20213076170E+02  0.51100000000E-03 0.  1.
        -12    1    4    4    0    0 -0.15290627767E+02 -0.20832622447E+02  0.43790394477E+01  0.26210254520E+02  0.00000000000E+00 0.  1.
</event>
<event>
 8    1  0.1247338E-006  0.9118800E+02  0.7816164E-02  0.1184000E+00
        -11   -1    0    0    0    0  0.00000000000E+00  0.00000000000E+00  0.45593999997E+02  0.45594000000E+02  0.51100000000E-03 0. -1.
         11   -1    0    0    0    0 -0.00000000000E+00 -0.00000000000E+00 -0.45593999997E+02  0.45594000000E+02  0.51100000000E-03 0.  1.
         23    2    1    2    0    0 -0.17763568394E-14 -0.88817841970E-15  0.00000000000E+00  0.91188000000E+02  0.91188000000E+02 0.  0.
    9900012    2    3    3    0    0  0.13509636358E+02  0.47504274389E+01 -0.33922005942E+02  0.54367091231E+02  0.40000016080E+02 0.  0.
         12    1    3    3    0    0 -0.13509636358E+02 -0.47504274389E+01  0.33922005942E+02  0.36820908769E+02  0.00000000000E+00 0. -1.
         11    1    4    4    0    0  0.61484348864E+01 -0.94916429337E+00  0.23971682147E+01  0.66671268264E+01  0.51100000000E-03 0. -1.
        -11    1    4    4    0    0  0.18727780933E+02  0.55868503425E+01 -0.22316971650E+02  0.29664623701E+02  0.51100000000E-03 0.  1.
        -12    1    4    4    0    0 -0.11366579461E+02  0.11274138977E+00 -0.14002202507E+02  0.18035340704E+02  0.00000000000E+00 0.  1.
</event>
<event>
 8    1  0.1247338E-006  0.9118800E+02  0.7816164E-02  0.1184000E+00
        -11   -1    0    0    0    0  0.00000000000E+00  0.00000000000E+00  0.45593999997E+02  0.45594000000E+02  0.51100000000E-03 0. -1.
         11   -1    0    0    0    0 -0.00000000000E+00 -0.00000000000E+00 -0.45593999997E+02  0.45594000000E+02  0.51100000000E-03 0.  1.
         23    2    1    2    0    0  0.00000000000E+00 -0.17763568394E-14  0.00000000000E+00  0.91188000000E+02  0.91188000000E+02 0.  0.
    9900012    2    3    3    0    0  0.78484198378E+01 -0.15355681003E+02 -0.32532821001E+02  0.54367094589E+02  0.40000023734E+02 0.  0.
         12    1    3    3    0    0 -0.78484198378E+01  0.15355681003E+02  0.32532821001E+02  0.36820905411E+02  0.00000000000E+00 0. -1.
         11    1    4    4    0    0  0.72282128891E+01 -0.10231785470E+02 -0.28607924728E+02  0.31230591621E+02  0.51100000000E-03 0. -1.
        -11    1    4    4    0    0 -0.53183968784E+01  0.45275196758E+01 -0.84248870553E+01  0.10943605527E+02  0.51100000000E-03 0.  1.
         12    1    4    4    0    0  0.59386038272E+01 -0.96514152096E+01  0.44999907826E+01  0.12192897441E+02  0.00000000000E+00 0. -1.
</event>
<event>
 8    1  0.1247338E-006  0.9118800E+02  0.7816164E-02  0.1184000E+00
        -11   -1    0    0    0    0  0.00000000000E+00  0.00000000000E+00  0.45593999997E+02  0.45594000000E+02  0.51100000000E-03 0. -1.
         11   -1    0    0    0    0 -0.00000000000E+00 -0.00000000000E+00 -0.45593999997E+02  0.45594000000E+02  0.51100000000E-03 0.  1.
         23    2    1    2    0    0 -0.17763568394E-14  0.00000000000E+00  0.00000000000E+00  0.91188000000E+02  0.91188000000E+02 0.  0.
    9900012    2    3    3    0    0 -0.37025192945E+01 -0.16046243869E+02 -0.32933101194E+02  0.54367085486E+02  0.40000002982E+02 0.  0.
         12    1    3    3    0    0  0.37025192945E+01  0.16046243869E+02  0.32933101194E+02  0.36820914514E+02  0.00000000000E+00 0. -1.
         11    1    4    4    0    0 -0.95343613266E+01 -0.11230237000E+02 -0.41688518917E+01  0.15310179468E+02  0.51100000000E-03 0. -1.
        -11    1    4    4    0    0 -0.49992608236E+01  0.43742406676E+01  0.36077846411E+00  0.66525748069E+01  0.51100000000E-03 0.  1.
        -12    1    4    4    0    0  0.10831102856E+02 -0.91902475374E+01 -0.29125027766E+02  0.32404331211E+02  0.00000000000E+00 0.  1.
</event>
<event>
 8    1  0.1247338E-006  0.9118800E+02  0.7816164E-02  0.1184000E+00
        -11   -1    0    0    0    0  0.00000000000E+00  0.00000000000E+00  0.45593999997E+02  0.45594000000E+02  0.51100000000E-03 0.  1.
         11   -1    0    0    0    0 -0.00000000000E+00 -0.00000000000E+00 -0.45593999997E+02  0.45594000000E+02  0.51100000000E-03 0. -1.
         23    2    1    2    0    0 -0.17763568394E-14  0.00000000000E+00  0.00000000000E+00  0.91188000000E+02  0.91188000000E+02 0.  0.
    9900012    2    3    3    0    0 -0.12490529024E+02  0.45263442565E+01 -0.34340554988E+02  0.54367152311E+02  0.40000155324E+02 0.  0.
        -12    1    3    3    0    0  0.12490529024E+02 -0.45263442565E+01  0.34340554988E+02  0.36820847689E+02  0.00000000000E+00 0.  1.
         11    1    4    4    0    0  0.34479836652E+01  0.24125934387E+00 -0.30644571839E+01  0.46192743499E+01  0.51100000000E-03 0. -1.
        -11    1    4    4    0    0  0.85528761333E+00 -0.11506084122E+02 -0.84133137769E+00  0.11568462624E+02  0.51100000000E-03 0.  1.
         12    1    4    4    0    0 -0.16793800303E+02  0.15791169035E+02 -0.30434766426E+02  0.38179415338E+02  0.00000000000E+00 0. -1.
</event>
<event>
 8    1  0.1247338E-006  0.9118800E+02  0.7816164E-02  0.1184000E+00
        -11   -1    0    0    0    0  0.00000000000E+00  0.00000000000E+00  0.45593999997E+02  0.45594000000E+02  0.51100000000E-03 0.  1.
         11   -1    0    0    0    0 -0.00000000000E+00 -0.00000000000E+00 -0.45593999997E+02  0.45594000000E+02  0.51100000000E-03 0. -1.
         23    2    1    2    0    0 -0.44408920985E-15  0.00000000000E+00  0.17763568394E-14  0.91188000000E+02  0.91188000000E+02 0.  0.
    9900012    2    3    3    0    0  0.30639153815E+01 -0.34736460351E+02  0.11822467190E+02  0.54367082227E+02  0.39999995552E+02 0.  0.
         12    1    3    3    0    0 -0.30639153815E+01  0.34736460351E+02 -0.11822467190E+02  0.36820917773E+02  0.00000000000E+00 0. -1.
         11    1    4    4    0    0 -0.26699271594E+01 -0.24604495815E+01 -0.21245521924E+01  0.42066667873E+01  0.51100000000E-03 0. -1.
        -11    1    4    4    0    0  0.11829655381E+02 -0.17258492239E+02 -0.84067399351E+01  0.22549269997E+02  0.51100000000E-03 0.  1.
        -12    1    4    4    0    0 -0.60958128398E+01 -0.15017518531E+02  0.22353759318E+02  0.27611145443E+02  0.00000000000E+00 0.  1.
</event>
<event>
 8    1  0.1247338E-006  0.9118800E+02  0.7816164E-02  0.1184000E+00
        -11   -1    0    0    0    0  0.00000000000E+00  0.00000000000E+00  0.45593999997E+02  0.45594000000E+02  0.51100000000E-03 0.  1.
         11   -1    0    0    0    0 -0.00000000000E+00 -0.00000000000E+00 -0.45593999997E+02  0.45594000000E+02  0.51100000000E-03 0. -1.
         23    2    1    2    0    0 -0.17763568394E-14  0.00000000000E+00  0.00000000000E+00  0.91188000000E+02  0.91188000000E+02 0.  0.
    9900012    2    3    3    0    0  0.13434594041E+02  0.32309121580E+02  0.11463546549E+02  0.54367074512E+02  0.39999977965E+02 0.  0.
         12    1    3    3    0    0 -0.13434594041E+02 -0.32309121580E+02 -0.11463546549E+02  0.36820925488E+02  0.00000000000E+00 0. -1.
         11    1    4    4    0    0  0.33487505756E+01  0.29159115405E+02  0.22100847198E+01  0.29433868525E+02  0.51100000000E-03 0. -1.
        -11    1    4    4    0    0  0.10830802671E+02  0.75695613541E+00 -0.39050413722E+01  0.11538137521E+02  0.51100000000E-03 0.  1.
         12    1    4    4    0    0 -0.74495920529E+00  0.23930500397E+01  0.13158503201E+02  0.13395068466E+02  0.00000000000E+00 0. -1.
</event>
<event>
 8    1  0.1247338E-006  0.9118800E+02  0.7816164E-02  0.1184000E+00
        -11   -1    0    0    0    0  0.00000000000E+00  0.00000000000E+00  0.45593999997E+02  0.45594000000E+02  0.51100000000E-03 0. -1.
         11   -1    0    0    0    0 -0.00000000000E+00 -0.00000000000E+00 -0.45593999997E+02  0.45594000000E+02  0.51100000000E-03 0.  1.
         23    2    1    2    0    0  0.00000000000E+00 -0.17763568394E-14 -0.71054273576E-14  0.91188000000E+02  0.91188000000E+02 0.  0.
    9900012    2    3    3    0    0  0.14864111543E+02 -0.10287800607E+02 -0.32078009749E+02  0.54367090685E+02  0.40000014836E+02 0.  0.
         12    1    3    3    0    0 -0.14864111543E+02  0.10287800607E+02  0.32078009749E+02  0.36820909315E+02  0.00000000000E+00 0. -1.
         11    1    4    4    0    0  0.19843487760E+02 -0.17917832466E+01 -0.15591282493E+00  0.19924828802E+02  0.51100000000E-03 0.  1.
        -11    1    4    4    0    0 -0.70345145939E+01 -0.46749885483E+01 -0.23432363498E+02  0.24908142702E+02  0.51100000000E-03 0. -1.
        -12    1    4    4    0    0  0.20551383768E+01 -0.38210288123E+01 -0.84897334261E+01  0.95341191821E+01  0.00000000000E+00 0.  1.
</event>
<event>
 8    1  0.1247338E-006  0.9118800E+02  0.7816164E-02  0.1184000E+00
        -11   -1    0    0    0    0  0.00000000000E+00  0.00000000000E+00  0.45593999997E+02  0.45594000000E+02  0.51100000000E-03 0. -1.
         11   -1    0    0    0    0 -0.00000000000E+00 -0.00000000000E+00 -0.45593999997E+02  0.45594000000E+02  0.51100000000E-03 0.  1.
         23    2    1    2    0    0  0.88817841970E-15  0.71054273576E-14  0.17763568394E-14  0.91188000000E+02  0.91188000000E+02 0.  0.
    9900012    2    3    3    0    0  0.22502257995E+01  0.34541962949E+02  0.12552692197E+02  0.54367071142E+02  0.39999970283E+02 0.  0.
        -12    1    3    3    0    0 -0.22502257995E+01 -0.34541962949E+02 -0.12552692197E+02  0.36820928858E+02  0.00000000000E+00 0.  1.
         11    1    4    4    0    0 -0.73261243625E+01 -0.43914782467E+01  0.62445594566E+01  0.10580723153E+02  0.51100000000E-03 0. -1.
        -11    1    4    4    0    0  0.10275321467E+02  0.23267737967E+02 -0.29016245727E+01  0.25600572001E+02  0.51100000000E-03 0.  1.
         12    1    4    4    0    0 -0.69897130507E+00  0.15665703229E+02  0.92097573135E+01  0.18185775989E+02  0.00000000000E+00 0. -1.
</event>
<event>
 8    1  0.1247338E-006  0.9118800E+02  0.7816164E-02  0.1184000E+00
        -11   -1    0    0    0    0  0.00000000000E+00  0.00000000000E+00  0.45593999997E+02  0.45594000000E+02  0.51100000000E-03 0.  1.
         11   -1    0    0    0    0 -0.00000000000E+00 -0.00000000000E+00 -0.45593999997E+02  0.45594000000E+02  0.51100000000E-03 0. -1.
         23    2    1    2    0    0 -0.35527136788E-14 -0.17763568394E-14  0.00000000000E+00  0.91188000000E+02  0.91188000000E+02 0.  0.
    9900012    2    3    3    0    0  0.19398524472E+02 -0.13666296967E+02 -0.28155067303E+02  0.54367105941E+02  0.40000049614E+02 0.  0.
        -12    1    3    3    0    0 -0.19398524472E+02  0.13666296967E+02  0.28155067303E+02  0.36820894059E+02  0.00000000000E+00 0.  1.
         11    1    4    4    0    0  0.15685815757E+02  0.51344208982E+01 -0.96506164568E+00  0.16532950075E+02  0.51100000000E-03 0. -1.
        -11    1    4    4    0    0 -0.69192373736E+01 -0.49745241678E+01 -0.11919247275E+02  0.14652310138E+02  0.51100000000E-03 0.  1.
        -12    1    4    4    0    0  0.10631946088E+02 -0.13826193698E+02 -0.15270758382E+02  0.23181845728E+02  0.00000000000E+00 0.  1.
</event>
<event>
 8    1  0.1247338E-006  0.9118800E+02  0.7816164E-02  0.1184000E+00
        -11   -1    0    0    0    0  0.00000000000E+00  0.00000000000E+00  0.45593999997E+02  0.45594000000E+02  0.51100000000E-03 0.  1.
         11   -1    0    0    0    0 -0.00000000000E+00 -0.00000000000E+00 -0.45593999997E+02  0.45594000000E+02  0.51100000000E-03 0. -1.
         23    2    1    2    0    0 -0.35527136788E-14 -0.13322676296E-14  0.35527136788E-14  0.91188000000E+02  0.91188000000E+02 0.  0.
    9900012    2    3    3    0    0 -0.27295510655E+02 -0.26625701379E+01 -0.24569174070E+02  0.54367102453E+02  0.40000041663E+02 0.  0.
         12    1    3    3    0    0  0.27295510655E+02  0.26625701379E+01  0.24569174070E+02  0.36820897547E+02  0.00000000000E+00 0. -1.
         11    1    4    4    0    0  0.11799957737E+01  0.10553765170E+02 -0.15948157849E+02  0.19160325893E+02  0.51100000000E-03 0.  1.
        -11    1    4    4    0    0 -0.89499816921E+01  0.16797895903E+01 -0.49811689814E+01  0.10379591034E+02  0.51100000000E-03 0. -1.
        -12    1    4    4    0    0 -0.19525524737E+02 -0.14896124898E+02 -0.36398472398E+01  0.24827185526E+02  0.00000000000E+00 0.  1.
</event>
<event>
 8    1  0.1247338E-006  0.9118800E+02  0.7816164E-02  0.1184000E+00
        -11   -1    0    0    0    0  0.00000000000E+00  0.00000000000E+00  0.45593999997E+02  0.45594000000E+02  0.51100000000E-03 0.  1.
         11   -1    0    0    0    0 -0.00000000000E+00 -0.00000000000E+00 -0.45593999997E+02  0.45594000000E+02  0.51100000000E-03 0. -1.
         23    2    1    2    0    0  0.44408920985E-15  0.17763568394E-14  0.00000000000E+00  0.91188000000E+02  0.91188000000E+02 0.  0.
    9900012    2    3    3    0    0 -0.25680247146E+01  0.82689263244E+01  0.35788410682E+02  0.54367078873E+02  0.39999987907E+02 0.  0.
         12    1    3    3    0    0  0.25680247146E+01 -0.82689263244E+01 -0.35788410682E+02  0.36820921127E+02  0.00000000000E+00 0. -1.
         11    1    4    4    0    0 -0.30727221818E+01 -0.36475952272E+01  0.11076711609E+02  0.12059855425E+02  0.51100000000E-03 0. -1.
        -11    1    4    4    0    0  0.66247071250E+01 -0.56065338863E+01  0.21871095538E+02  0.23530082597E+02  0.51100000000E-03 0.  1.
         12    1    4    4    0    0 -0.61200096578E+01  0.17523055438E+02  0.28406035349E+01  0.18777140851E+02  0.00000000000E+00 0. -1.
</event>
<event>
 8    1  0.1247338E-006  0.9118800E+02  0.7816164E-02  0.1184000E+00
        -11   -1    0    0    0    0  0.00000000000E+00  0.00000000000E+00  0.45593999997E+02  0.45594000000E+02  0.51100000000E-03 0. -1.
         11   -1    0    0    0    0 -0.00000000000E+00 -0.00000000000E+00 -0.45593999997E+02  0.45594000000E+02  0.51100000000E-03 0.  1.
         23    2    1    2    0    0  0.00000000000E+00 -0.22204460493E-14 -0.71054273576E-14  0.91188000000E+02  0.91188000000E+02 0.  0.
    9900012    2    3    3    0    0 -0.47856095411E+01 -0.16503525286E+01 -0.36471278724E+02  0.54367083473E+02  0.39999998394E+02 0.  0.
         12    1    3    3    0    0  0.47856095411E+01  0.16503525286E+01  0.36471278724E+02  0.36820916527E+02  0.00000000000E+00 0. -1.
         11    1    4    4    0    0  0.18165214537E+01 -0.17942650155E+02 -0.66824216665E+01  0.19232607841E+02  0.51100000000E-03 0. -1.
        -11    1    4    4    0    0 -0.77428708754E+01  0.13099366584E+02 -0.23675504022E+02  0.28143826059E+02  0.51100000000E-03 0.  1.
         12    1    4    4    0    0  0.11407398807E+01  0.31929310426E+01 -0.61133530355E+01  0.69906495732E+01  0.00000000000E+00 0. -1.
</event>
<event>
 8    1  0.1247338E-006  0.9118800E+02  0.7816164E-02  0.1184000E+00
        -11   -1    0    0    0    0  0.00000000000E+00  0.00000000000E+00  0.45593999997E+02  0.45594000000E+02  0.51100000000E-03 0. -1.
         11   -1    0    0    0    0 -0.00000000000E+00 -0.00000000000E+00 -0.45593999997E+02  0.45594000000E+02  0.51100000000E-03 0.  1.
         23    2    1    2    0    0  0.35527136788E-14  0.00000000000E+00 -0.35527136788E-14  0.91188000000E+02  0.91188000000E+02 0.  0.
    9900012    2    3    3    0    0  0.20011310878E+02 -0.14553791872E+02 -0.27267393117E+02  0.54367134335E+02  0.40000114343E+02 0.  0.
         12    1    3    3    0    0 -0.20011310878E+02  0.14553791872E+02  0.27267393117E+02  0.36820865665E+02  0.00000000000E+00 0. -1.
         11    1    4    4    0    0  0.68665281749E+01  0.69598913880E+01 -0.39952298664E+01  0.10561778224E+02  0.51100000000E-03 0. -1.
        -11    1    4    4    0    0  0.12512712455E+00 -0.31421917212E+00  0.56473078624E+01  0.56574266977E+01  0.51100000000E-03 0.  1.
        -12    1    4    4    0    0  0.13019655579E+02 -0.21199464088E+02 -0.28919471113E+02  0.38147929413E+02  0.00000000000E+00 0.  1.
</event>
<event>
 8    1  0.1247338E-006  0.9118800E+02  0.7816164E-02  0.1184000E+00
        -11   -1    0    0    0    0  0.00000000000E+00  0.00000000000E+00  0.45593999997E+02  0.45594000000E+02  0.51100000000E-03 0.  1.
         11   -1    0    0    0    0 -0.00000000000E+00 -0.00000000000E+00 -0.45593999997E+02  0.45594000000E+02  0.51100000000E-03 0. -1.
         23    2    1    2    0    0  0.00000000000E+00  0.00000000000E+00  0.00000000000E+00  0.91188000000E+02  0.91188000000E+02 0.  0.
    9900012    2    3    3    0    0  0.16984013883E+02 -0.31340662483E+02 -0.92241670357E+01  0.54367094118E+02  0.40000022661E+02 0.  0.
        -12    1    3    3    0    0 -0.16984013883E+02  0.31340662483E+02  0.92241670357E+01  0.36820905882E+02  0.00000000000E+00 0.  1.
         11    1    4    4    0    0 -0.10002372284E+02 -0.93153148654E+01  0.17095171325E+01  0.13774795513E+02  0.51100000000E-03 0.  1.
        -11    1    4    4    0    0  0.19146288577E+02 -0.22157813308E+02 -0.13629853830E+02  0.32300494928E+02  0.51100000000E-03 0. -1.
         12    1    4    4    0    0  0.78400975896E+01  0.13246569024E+00  0.26961696615E+01  0.82918036770E+01  0.00000000000E+00 0. -1.
</event>
<event>
 8    1  0.1247338E-006  0.9118800E+02  0.7816164E-02  0.1184000E+00
        -11   -1    0    0    0    0  0.00000000000E+00  0.00000000000E+00  0.45593999997E+02  0.45594000000E+02  0.51100000000E-03 0.  1.
         11   -1    0    0    0    0 -0.00000000000E+00 -0.00000000000E+00 -0.45593999997E+02  0.45594000000E+02  0.51100000000E-03 0. -1.
         23    2    1    2    0    0  0.00000000000E+00  0.88817841970E-15  0.00000000000E+00  0.91188000000E+02  0.91188000000E+02 0.  0.
    9900012    2    3    3    0    0  0.18158550324E+02 -0.54473480509E+01  0.31565387629E+02  0.54367078680E+02  0.39999987467E+02 0.  0.
         12    1    3    3    0    0 -0.18158550324E+02  0.54473480509E+01 -0.31565387629E+02  0.36820921320E+02  0.00000000000E+00 0. -1.
         11    1    4    4    0    0  0.16653689975E+02  0.38965103091E+01  0.16322074654E+02  0.23641876060E+02  0.51100000000E-03 0. -1.
        -11    1    4    4    0    0 -0.10073728245E+02  0.47204459957E+00  0.11086030068E+02  0.14986757147E+02  0.51100000000E-03 0.  1.
        -12    1    4    4    0    0  0.11578588594E+02 -0.98159029595E+01  0.41572829074E+01  0.15738445473E+02  0.00000000000E+00 0.  1.
</event>
<event>
 8    1  0.1247338E-006  0.9118800E+02  0.7816164E-02  0.1184000E+00
        -11   -1    0    0    0    0  0.00000000000E+00  0.00000000000E+00  0.45593999997E+02  0.45594000000E+02  0.51100000000E-03 0. -1.
         11   -1    0    0    0    0 -0.00000000000E+00 -0.00000000000E+00 -0.45593999997E+02  0.45594000000E+02  0.51100000000E-03 0.  1.
         23    2    1    2    0    0 -0.17763568394E-14  0.00000000000E+00  0.15543122345E-14  0.91188000000E+02  0.91188000000E+02 0.  0.
    9900012    2    3    3    0    0 -0.13655603098E+02  0.34172011228E+02  0.12558789613E+01  0.54367094535E+02  0.40000023611E+02 0.  0.
        -12    1    3    3    0    0  0.13655603098E+02 -0.34172011228E+02 -0.12558789613E+01  0.36820905465E+02  0.00000000000E+00 0.  1.
         11    1    4    4    0    0  0.30601595456E+01 -0.14710695618E+01 -0.23657413319E+01  0.41382791606E+01  0.51100000000E-03 0. -1.
        -11    1    4    4    0    0 -0.22523879848E+01  0.16381679848E+02 -0.12940257686E+02  0.20997213041E+02  0.51100000000E-03 0.  1.
         12    1    4    4    0    0 -0.14463374659E+02  0.19261400942E+02  0.16561877979E+02  0.29231602333E+02  0.00000000000E+00 0. -1.
</event>
<event>
 8    1  0.1247338E-006  0.9118800E+02  0.7816164E-02  0.1184000E+00
        -11   -1    0    0    0    0  0.00000000000E+00  0.00000000000E+00  0.45593999997E+02  0.45594000000E+02  0.51100000000E-03 0.  1.
         11   -1    0    0    0    0 -0.00000000000E+00 -0.00000000000E+00 -0.45593999997E+02  0.45594000000E+02  0.51100000000E-03 0. -1.
         23    2    1    2    0    0 -0.88817841970E-15  0.17763568394E-14 -0.71054273576E-14  0.91188000000E+02  0.91188000000E+02 0.  0.
    9900012    2    3    3    0    0 -0.79084329157E+01 -0.10967713433E+02 -0.34248299972E+02  0.54367080673E+02  0.39999992011E+02 0.  0.
        -12    1    3    3    0    0  0.79084329157E+01  0.10967713433E+02  0.34248299972E+02  0.36820919327E+02  0.00000000000E+00 0.  1.
         11    1    4    4    0    0 -0.30384640771E+01  0.25427778163E+01 -0.18061720783E+02  0.18491180083E+02  0.51100000000E-03 0. -1.
        -11    1    4    4    0    0  0.21197548063E+01  0.63053691457E+01  0.31136689131E+01  0.73447923636E+01  0.51100000000E-03 0.  1.
         12    1    4    4    0    0 -0.69897236449E+01 -0.19815860395E+02 -0.19300248102E+02  0.28531108227E+02  0.00000000000E+00 0. -1.
</event>
<event>
 8    1  0.1247338E-006  0.9118800E+02  0.7816164E-02  0.1184000E+00
        -11   -1    0    0    0    0  0.00000000000E+00  0.00000000000E+00  0.45593999997E+02  0.45594000000E+02  0.51100000000E-03 0.  1.
         11   -1    0    0    0    0 -0.00000000000E+00 -0.00000000000E+00 -0.45593999997E+02  0.45594000000E+02  0.51100000000E-03 0. -1.
         23    2    1    2    0    0 -0.17763568394E-14 -0.71054273576E-14 -0.88817841970E-15  0.91188000000E+02  0.91188000000E+02 0.  0.
    9900012    2    3    3    0    0  0.93043788024E+01 -0.35404131696E+02 -0.39694540014E+01  0.54367074277E+02  0.39999977429E+02 0.  0.
        -12    1    3    3    0    0 -0.93043788024E+01  0.35404131696E+02  0.39694540014E+01  0.36820925723E+02  0.00000000000E+00 0.  1.
         11    1    4    4    0    0 -0.12968706454E+02 -0.10872114318E+02  0.43908330869E+01  0.17483410202E+02  0.51100000000E-03 0. -1.
        -11    1    4    4    0    0  0.19325167269E+02 -0.25080832256E+02 -0.10319602729E+02  0.33301718234E+02  0.51100000000E-03 0.  1.
        -12    1    4    4    0    0  0.29479179870E+01  0.54881487765E+00  0.19593156410E+01  0.35819458411E+01  0.00000000000E+00 0.  1.
</event>
<event>
 8    1  0.1247338E-006  0.9118800E+02  0.7816164E-02  0.1184000E+00
        -11   -1    0    0    0    0  0.00000000000E+00  0.00000000000E+00  0.45593999997E+02  0.45594000000E+02  0.51100000000E-03 0.  1.
         11   -1    0    0    0    0 -0.00000000000E+00 -0.00000000000E+00 -0.45593999997E+02  0.45594000000E+02  0.51100000000E-03 0. -1.
         23    2    1    2    0    0  0.00000000000E+00  0.61062266354E-15  0.00000000000E+00  0.91188000000E+02  0.91188000000E+02 0.  0.
    9900012    2    3    3    0    0 -0.19046264131E+02 -0.25649204407E+00 -0.31511031581E+02  0.54367203202E+02  0.40000271339E+02 0.  0.
        -12    1    3    3    0    0  0.19046264131E+02  0.25649204407E+00  0.31511031581E+02  0.36820796798E+02  0.00000000000E+00 0.  1.
         11    1    4    4    0    0 -0.11067264030E+02 -0.11703716175E+02 -0.15037986376E+02  0.22036386726E+02  0.51100000000E-03 0. -1.
        -11    1    4    4    0    0 -0.12275360922E+02 -0.30758009443E+01 -0.68987290007E+01  0.14413101655E+02  0.51100000000E-03 0.  1.
        -12    1    4    4    0    0  0.42963608219E+01  0.14523025075E+02 -0.95743162043E+01  0.17917714821E+02  0.00000000000E+00 0.  1.
</event>
<event>
 8    1  0.1247338E-006  0.9118800E+02  0.7816164E-02  0.1184000E+00
        -11   -1    0    0    0    0  0.00000000000E+00  0.00000000000E+00  0.45593999997E+02  0.45594000000E+02  0.51100000000E-03 0. -1.
         11   -1    0    0    0    0 -0.00000000000E+00 -0.00000000000E+00 -0.45593999997E+02  0.45594000000E+02  0.51100000000E-03 0.  1.
         23    2    1    2    0    0  0.00000000000E+00  0.00000000000E+00  0.00000000000E+00  0.91188000000E+02  0.91188000000E+02 0.  0.
    9900012    2    3    3    0    0 -0.24752902156E+02  0.16752815327E+02  0.21503895523E+02  0.54367075118E+02  0.39999979347E+02 0.  0.
        -12    1    3    3    0    0  0.24752902156E+02 -0.16752815327E+02 -0.21503895523E+02  0.36820924882E+02  0.00000000000E+00 0.  1.
         11    1    4    4    0    0 -0.42206562006E+01  0.37090520176E+01  0.26408905988E+02  0.27000024470E+02  0.51100000000E-03 0. -1.
        -11    1    4    4    0    0 -0.11055107080E+02  0.13460742465E+02 -0.26832566724E+01  0.17624041730E+02  0.51100000000E-03 0.  1.
         12    1    4    4    0    0 -0.94771388752E+01 -0.41697915553E+00 -0.22217537929E+01  0.97430089188E+01  0.00000000000E+00 0. -1.
</event>
<event>
 8    1  0.1247338E-006  0.9118800E+02  0.7816164E-02  0.1184000E+00
        -11   -1    0    0    0    0  0.00000000000E+00  0.00000000000E+00  0.45593999997E+02  0.45594000000E+02  0.51100000000E-03 0. -1.
         11   -1    0    0    0    0 -0.00000000000E+00 -0.00000000000E+00 -0.45593999997E+02  0.45594000000E+02  0.51100000000E-03 0.  1.
         23    2    1    2    0    0  0.17763568394E-14  0.00000000000E+00  0.35527136788E-14  0.91188000000E+02  0.91188000000E+02 0.  0.
    9900012    2    3    3    0    0 -0.11961811285E+02  0.19736941071E+02  0.28690479235E+02  0.54367144893E+02  0.40000138412E+02 0.  0.
        -12    1    3    3    0    0  0.11961811285E+02 -0.19736941071E+02 -0.28690479235E+02  0.36820855107E+02  0.00000000000E+00 0.  1.
         11    1    4    4    0    0  0.90425033145E+01  0.82480785102E+01 -0.34690879408E+01  0.12721329990E+02  0.51100000000E-03 0. -1.
        -11    1    4    4    0    0 -0.14661507551E+02  0.12907199028E+02  0.20629574167E+02  0.28410120045E+02  0.51100000000E-03 0.  1.
         12    1    4    4    0    0 -0.63428070479E+01 -0.14183364666E+01  0.11529993009E+02  0.13235694858E+02  0.00000000000E+00 0. -1.
</event>
<event>
 8    1  0.1247338E-006  0.9118800E+02  0.7816164E-02  0.1184000E+00
        -11   -1    0    0    0    0  0.00000000000E+00  0.00000000000E+00  0.45593999997E+02  0.45594000000E+02  0.51100000000E-03 0.  1.
         11   -1    0    0    0    0 -0.00000000000E+00 -0.00000000000E+00 -0.45593999997E+02  0.45594000000E+02  0.51100000000E-03 0. -1.
         23    2    1    2    0    0 -0.35527136788E-14  0.00000000000E+00  0.00000000000E+00  0.91188000000E+02  0.91188000000E+02 0.  0.
    9900012    2    3    3    0    0 -0.26212646559E+02 -0.14452008129E+02  0.21443294024E+02  0.54367105969E+02  0.40000049678E+02 0.  0.
         12    1    3    3    0    0  0.26212646559E+02  0.14452008129E+02 -0.21443294024E+02  0.36820894031E+02  0.00000000000E+00 0. -1.
         11    1    4    4    0    0  0.14704023917E+01 -0.78286878694E+01 -0.41104581073E+00  0.79761767703E+01  0.51100000000E-03 0. -1.
        -11    1    4    4    0    0 -0.53188980472E+01 -0.15234036181E+02  0.13414314974E+02  0.20983574083E+02  0.51100000000E-03 0.  1.
        -12    1    4    4    0    0 -0.22364150904E+02  0.86107159221E+01  0.84400248610E+01  0.25407355116E+02  0.00000000000E+00 0.  1.
</event>
<event>
 8    1  0.1247338E-006  0.9118800E+02  0.7816164E-02  0.1184000E+00
        -11   -1    0    0    0    0  0.00000000000E+00  0.00000000000E+00  0.45593999997E+02  0.45594000000E+02  0.51100000000E-03 0.  1.
         11   -1    0    0    0    0 -0.00000000000E+00 -0.00000000000E+00 -0.45593999997E+02  0.45594000000E+02  0.51100000000E-03 0. -1.
         23    2    1    2    0    0 -0.17763568394E-14  0.35527136788E-14  0.00000000000E+00  0.91188000000E+02  0.91188000000E+02 0.  0.
    9900012    2    3    3    0    0 -0.15096101800E+02  0.24517465936E+02  0.22951723174E+02  0.54367081732E+02  0.39999994424E+02 0.  0.
         12    1    3    3    0    0  0.15096101800E+02 -0.24517465936E+02 -0.22951723174E+02  0.36820918268E+02  0.00000000000E+00 0. -1.
         11    1    4    4    0    0 -0.10693665004E+02  0.72722821201E+00 -0.64055351980E+00  0.10737487656E+02  0.51100000000E-03 0. -1.
        -11    1    4    4    0    0 -0.10899149869E+01  0.23601296217E+01  0.21708182068E+02  0.21863286475E+02  0.51100000000E-03 0.  1.
         12    1    4    4    0    0 -0.33125218085E+01  0.21430108102E+02  0.18840946258E+01  0.21766307600E+02  0.00000000000E+00 0. -1.
</event>
<event>
 8    1  0.1247338E-006  0.9118800E+02  0.7816164E-02  0.1184000E+00
        -11   -1    0    0    0    0  0.00000000000E+00  0.00000000000E+00  0.45593999997E+02  0.45594000000E+02  0.51100000000E-03 0. -1.
         11   -1    0    0    0    0 -0.00000000000E+00 -0.00000000000E+00 -0.45593999997E+02  0.45594000000E+02  0.51100000000E-03 0.  1.
         23    2    1    2    0    0  0.00000000000E+00  0.00000000000E+00  0.00000000000E+00  0.91188000000E+02  0.91188000000E+02 0.  0.
    9900012    2    3    3    0    0 -0.54342263816E+01  0.35653441119E+02  0.74216722921E+01  0.54367083395E+02  0.39999998217E+02 0.  0.
        -12    1    3    3    0    0  0.54342263816E+01 -0.35653441119E+02 -0.74216722921E+01  0.36820916605E+02  0.00000000000E+00 0.  1.
         11    1    4    4    0    0  0.35859367255E+00 -0.25024853019E-01  0.40376049839E+01  0.40535749571E+01  0.51100000000E-03 0. -1.
        -11    1    4    4    0    0 -0.50949288414E+01 -0.35840392698E+01 -0.73202810981E+01  0.96119796610E+01  0.51100000000E-03 0.  1.
         12    1    4    4    0    0 -0.69789121275E+00  0.39262505242E+02  0.10704348406E+02  0.40701528777E+02  0.00000000000E+00 0. -1.
</event>
<event>
 8    1  0.1247338E-006  0.9118800E+02  0.7816164E-02  0.1184000E+00
        -11   -1    0    0    0    0  0.00000000000E+00  0.00000000000E+00  0.45593999997E+02  0.45594000000E+02  0.51100000000E-03 0.  1.
         11   -1    0    0    0    0 -0.00000000000E+00 -0.00000000000E+00 -0.45593999997E+02  0.45594000000E+02  0.51100000000E-03 0. -1.
         23    2    1    2    0    0  0.00000000000E+00  0.17763568394E-14 -0.66613381478E-15  0.91188000000E+02  0.91188000000E+02 0.  0.
    9900012    2    3    3    0    0  0.33252515164E+02 -0.15792856503E+02 -0.79752454815E+00  0.54367080313E+02  0.39999991189E+02 0.  0.
         12    1    3    3    0    0 -0.33252515164E+02  0.15792856503E+02  0.79752454815E+00  0.36820919687E+02  0.00000000000E+00 0. -1.
         11    1    4    4    0    0  0.33310651927E+02 -0.20566456347E+02 -0.91387267962E+01  0.40200683902E+02  0.51100000000E-03 0. -1.
        -11    1    4    4    0    0  0.36526055554E+01 -0.11813697605E+01  0.90831477276E+00  0.39448951623E+01  0.51100000000E-03 0.  1.
         12    1    4    4    0    0 -0.37107423191E+01  0.59549696043E+01  0.74328874752E+01  0.10221501248E+02  0.00000000000E+00 0. -1.
</event>
<event>
 8    1  0.1247338E-006  0.9118800E+02  0.7816164E-02  0.1184000E+00
        -11   -1    0    0    0    0  0.00000000000E+00  0.00000000000E+00  0.45593999997E+02  0.45594000000E+02  0.51100000000E-03 0.  1.
         11   -1    0    0    0    0 -0.00000000000E+00 -0.00000000000E+00 -0.45593999997E+02  0.45594000000E+02  0.51100000000E-03 0. -1.
         23    2    1    2    0    0  0.17763568394E-14  0.00000000000E+00  0.00000000000E+00  0.91188000000E+02  0.91188000000E+02 0.  0.
    9900012    2    3    3    0    0 -0.84198652252E+01 -0.11749001521E+02  0.33865123569E+02  0.54367085271E+02  0.40000002492E+02 0.  0.
         12    1    3    3    0    0  0.84198652252E+01  0.11749001521E+02 -0.33865123569E+02  0.36820914729E+02  0.00000000000E+00 0. -1.
         11    1    4    4    0    0 -0.12136814511E+00 -0.26502127568E+01  0.14244849720E+02  0.14489793018E+02  0.51100000000E-03 0. -1.
        -11    1    4    4    0    0  0.11658225444E+02  0.50203098808E+00  0.11230379964E+02  0.16195298392E+02  0.51100000000E-03 0.  1.
         12    1    4    4    0    0 -0.19956722524E+02 -0.96008197524E+01  0.83898938847E+01  0.23681993861E+02  0.00000000000E+00 0. -1.
</event>
<event>
 8    1  0.1247338E-006  0.9118800E+02  0.7816164E-02  0.1184000E+00
        -11   -1    0    0    0    0  0.00000000000E+00  0.00000000000E+00  0.45593999997E+02  0.45594000000E+02  0.51100000000E-03 0.  1.
         11   -1    0    0    0    0 -0.00000000000E+00 -0.00000000000E+00 -0.45593999997E+02  0.45594000000E+02  0.51100000000E-03 0. -1.
         23    2    1    2    0    0 -0.35527136788E-14 -0.17763568394E-14  0.35527136788E-14  0.91188000000E+02  0.91188000000E+02 0.  0.
    9900012    2    3    3    0    0 -0.31887228749E+02  0.71020669926E+01  0.16986659800E+02  0.54367064053E+02  0.39999954121E+02 0.  0.
        -12    1    3    3    0    0  0.31887228749E+02 -0.71020669926E+01 -0.16986659800E+02  0.36820935947E+02  0.00000000000E+00 0.  1.
         11    1    4    4    0    0 -0.15365418820E+02 -0.12233096489E+02  0.17019942438E+02  0.25988905057E+02  0.51100000000E-03 0.  1.
        -11    1    4    4    0    0 -0.36078343129E+01  0.97119751608E+01  0.50012658654E+01  0.11504416129E+02  0.51100000000E-03 0. -1.
        -12    1    4    4    0    0 -0.12913975616E+02  0.96231883206E+01 -0.50345485040E+01  0.16873742866E+02  0.00000000000E+00 0.  1.
</event>
<event>
 8    1  0.1247338E-006  0.9118800E+02  0.7816164E-02  0.1184000E+00
        -11   -1    0    0    0    0  0.00000000000E+00  0.00000000000E+00  0.45593999997E+02  0.45594000000E+02  0.51100000000E-03 0.  1.
         11   -1    0    0    0    0 -0.00000000000E+00 -0.00000000000E+00 -0.45593999997E+02  0.45594000000E+02  0.51100000000E-03 0. -1.
         23    2    1    2    0    0 -0.35527136788E-14  0.55511151231E-15  0.00000000000E+00  0.91188000000E+02  0.91188000000E+02 0.  0.
    9900012    2    3    3    0    0  0.26870550915E+02  0.62386851199E+00  0.25166682795E+02  0.54367114062E+02  0.40000068126E+02 0.  0.
         12    1    3    3    0    0 -0.26870550915E+02 -0.62386851199E+00 -0.25166682795E+02  0.36820885938E+02  0.00000000000E+00 0. -1.
         11    1    4    4    0    0  0.27758393048E+02 -0.59174817904E+00  0.18415047554E+02  0.33316550350E+02  0.51100000000E-03 0.  1.
        -11    1    4    4    0    0  0.47046504650E+01 -0.75233898765E+01  0.58672780151E+01  0.10637672809E+02  0.51100000000E-03 0. -1.
         12    1    4    4    0    0 -0.55924925980E+01  0.87390065675E+01  0.88435722553E+00  0.10412890903E+02  0.00000000000E+00 0. -1.
</event>
<event>
 8    1  0.1247338E-006  0.9118800E+02  0.7816164E-02  0.1184000E+00
        -11   -1    0    0    0    0  0.00000000000E+00  0.00000000000E+00  0.45593999997E+02  0.45594000000E+02  0.51100000000E-03 0. -1.
         11   -1    0    0    0    0 -0.00000000000E+00 -0.00000000000E+00 -0.45593999997E+02  0.45594000000E+02  0.51100000000E-03 0.  1.
         23    2    1    2    0    0  0.00000000000E+00 -0.17763568394E-14 -0.13322676296E-14  0.91188000000E+02  0.91188000000E+02 0.  0.
    9900012    2    3    3    0    0 -0.33297223953E+02  0.15394660087E+02  0.31747666399E+01  0.54367084403E+02  0.40000000514E+02 0.  0.
         12    1    3    3    0    0  0.33297223953E+02 -0.15394660087E+02 -0.31747666399E+01  0.36820915597E+02  0.00000000000E+00 0. -1.
         11    1    4    4    0    0 -0.93547716254E+01  0.18091879516E+01  0.13586621748E+02  0.16594613704E+02  0.51100000000E-03 0. -1.
        -11    1    4    4    0    0  0.19458222116E+01  0.78870134726E+01  0.22014982117E+01  0.84165194846E+01  0.51100000000E-03 0.  1.
        -12    1    4    4    0    0 -0.25888274539E+02  0.56984586632E+01 -0.12613353320E+02  0.29355951215E+02  0.00000000000E+00 0.  1.
</event>
<event>
 8    1  0.1247338E-006  0.9118800E+02  0.7816164E-02  0.1184000E+00
        -11   -1    0    0    0    0  0.00000000000E+00  0.00000000000E+00  0.45593999997E+02  0.45594000000E+02  0.51100000000E-03 0. -1.
         11   -1    0    0    0    0 -0.00000000000E+00 -0.00000000000E+00 -0.45593999997E+02  0.45594000000E+02  0.51100000000E-03 0.  1.
         23    2    1    2    0    0  0.17763568394E-14 -0.71054273576E-14 -0.12212453271E-14  0.91188000000E+02  0.91188000000E+02 0.  0.
    9900012    2    3    3    0    0 -0.76690149741E+01  0.36006657667E+02 -0.69897820547E+00  0.54367058166E+02  0.39999940702E+02 0.  0.
        -12    1    3    3    0    0  0.76690149741E+01 -0.36006657667E+02  0.69897820547E+00  0.36820941834E+02  0.00000000000E+00 0.  1.
         11    1    4    4    0    0  0.65032471122E+01  0.22964288337E+02  0.89720171202E+01  0.25497997044E+02  0.51100000000E-03 0. -1.
        -11    1    4    4    0    0 -0.15184729985E+01  0.84844458068E+01  0.41653882705E+01  0.95729849368E+01  0.51100000000E-03 0.  1.
        -12    1    4    4    0    0 -0.12653789088E+02  0.45579235231E+01 -0.13836383596E+02  0.19296076185E+02  0.00000000000E+00 0.  1.
</event>
<event>
 8    1  0.1247338E-006  0.9118800E+02  0.7816164E-02  0.1184000E+00
        -11   -1    0    0    0    0  0.00000000000E+00  0.00000000000E+00  0.45593999997E+02  0.45594000000E+02  0.51100000000E-03 0. -1.
         11   -1    0    0    0    0 -0.00000000000E+00 -0.00000000000E+00 -0.45593999997E+02  0.45594000000E+02  0.51100000000E-03 0.  1.
         23    2    1    2    0    0  0.35527136788E-14  0.17763568394E-14  0.35527136788E-14  0.91188000000E+02  0.91188000000E+02 0.  0.
    9900012    2    3    3    0    0 -0.21937971041E+02 -0.15517992691E+02 -0.25173354374E+02  0.54367076044E+02  0.39999981457E+02 0.  0.
         12    1    3    3    0    0  0.21937971041E+02  0.15517992691E+02  0.25173354374E+02  0.36820923956E+02  0.00000000000E+00 0. -1.
         11    1    4    4    0    0 -0.40418029103E+01  0.62890231034E-01 -0.11071049171E+02  0.11785934666E+02  0.51100000000E-03 0. -1.
        -11    1    4    4    0    0 -0.73661374284E+01 -0.45549206344E+01 -0.23243326048E+02  0.24804424779E+02  0.51100000000E-03 0.  1.
         12    1    4    4    0    0 -0.10530030702E+02 -0.11025962288E+02  0.91410208443E+01  0.17776716599E+02  0.00000000000E+00 0. -1.
</event>
<event>
 8    1  0.1247338E-006  0.9118800E+02  0.7816164E-02  0.1184000E+00
        -11   -1    0    0    0    0  0.00000000000E+00  0.00000000000E+00  0.45593999997E+02  0.45594000000E+02  0.51100000000E-03 0. -1.
         11   -1    0    0    0    0 -0.00000000000E+00 -0.00000000000E+00 -0.45593999997E+02  0.45594000000E+02  0.51100000000E-03 0.  1.
         23    2    1    2    0    0 -0.71054273576E-14  0.00000000000E+00 -0.35527136788E-14  0.91188000000E+02  0.91188000000E+02 0.  0.
    9900012    2    3    3    0    0 -0.28015704494E+02 -0.14735951195E+02 -0.18808269063E+02  0.54367096412E+02  0.40000027889E+02 0.  0.
         12    1    3    3    0    0  0.28015704494E+02  0.14735951195E+02  0.18808269063E+02  0.36820903588E+02  0.00000000000E+00 0. -1.
         11    1    4    4    0    0 -0.14050027810E+01 -0.94816921200E+00  0.23097537038E+01  0.28649642410E+01  0.51100000000E-03 0. -1.
        -11    1    4    4    0    0 -0.25855385704E+01 -0.81172826335E+00  0.98495819461E+01  0.10215585017E+02  0.51100000000E-03 0.  1.
        -12    1    4    4    0    0 -0.24025163143E+02 -0.12976053720E+02 -0.30967604713E+02  0.41286547153E+02  0.00000000000E+00 0.  1.
</event>
<event>
 8    1  0.1247338E-006  0.9118800E+02  0.7816164E-02  0.1184000E+00
        -11   -1    0    0    0    0  0.00000000000E+00  0.00000000000E+00  0.45593999997E+02  0.45594000000E+02  0.51100000000E-03 0.  1.
         11   -1    0    0    0    0 -0.00000000000E+00 -0.00000000000E+00 -0.45593999997E+02  0.45594000000E+02  0.51100000000E-03 0. -1.
         23    2    1    2    0    0  0.00000000000E+00 -0.35527136788E-14  0.00000000000E+00  0.91188000000E+02  0.91188000000E+02 0.  0.
    9900012    2    3    3    0    0 -0.27032362118E+02  0.16404194408E+02  0.18866223026E+02  0.54367074331E+02  0.39999977552E+02 0.  0.
         12    1    3    3    0    0  0.27032362118E+02 -0.16404194408E+02 -0.18866223026E+02  0.36820925669E+02  0.00000000000E+00 0. -1.
         11    1    4    4    0    0 -0.17842204994E+01  0.53384517856E+01 -0.48169599911E+01  0.74084825757E+01  0.51100000000E-03 0. -1.
        -11    1    4    4    0    0 -0.19829518598E+02  0.21159699181E+02  0.15516005996E+02  0.32889042546E+02  0.51100000000E-03 0.  1.
        -12    1    4    4    0    0 -0.54186230211E+01 -0.10093956559E+02  0.81671770208E+01  0.14069549209E+02  0.00000000000E+00 0.  1.
</event>
<event>
 8    1  0.1247338E-006  0.9118800E+02  0.7816164E-02  0.1184000E+00
        -11   -1    0    0    0    0  0.00000000000E+00  0.00000000000E+00  0.45593999997E+02  0.45594000000E+02  0.51100000000E-03 0. -1.
         11   -1    0    0    0    0 -0.00000000000E+00 -0.00000000000E+00 -0.45593999997E+02  0.45594000000E+02  0.51100000000E-03 0.  1.
         23    2    1    2    0    0 -0.17763568394E-14  0.00000000000E+00  0.00000000000E+00  0.91188000000E+02  0.91188000000E+02 0.  0.
    9900012    2    3    3    0    0  0.11061696910E+02  0.28187833822E+02 -0.20949101881E+02  0.54367082253E+02  0.39999995613E+02 0.  0.
         12    1    3    3    0    0 -0.11061696910E+02 -0.28187833822E+02  0.20949101881E+02  0.36820917747E+02  0.00000000000E+00 0. -1.
         11    1    4    4    0    0  0.27294846367E+00 -0.22377582849E+01  0.61055367337E+00  0.23355596877E+01  0.51100000000E-03 0. -1.
        -11    1    4    4    0    0  0.16937348824E+02  0.27744530164E+02 -0.34126908172E+01  0.32684540659E+02  0.51100000000E-03 0.  1.
         12    1    4    4    0    0 -0.61486003774E+01  0.26810619428E+01 -0.18146964737E+02  0.19346981907E+02  0.00000000000E+00 0. -1.
</event>
<event>
 8    1  0.1247338E-006  0.9118800E+02  0.7816164E-02  0.1184000E+00
        -11   -1    0    0    0    0  0.00000000000E+00  0.00000000000E+00  0.45593999997E+02  0.45594000000E+02  0.51100000000E-03 0.  1.
         11   -1    0    0    0    0 -0.00000000000E+00 -0.00000000000E+00 -0.45593999997E+02  0.45594000000E+02  0.51100000000E-03 0. -1.
         23    2    1    2    0    0 -0.17763568394E-14 -0.17763568394E-14  0.00000000000E+00  0.91188000000E+02  0.91188000000E+02 0.  0.
    9900012    2    3    3    0    0  0.10235449005E+02 -0.14801436062E+02  0.32123709428E+02  0.54367087012E+02  0.40000006461E+02 0.  0.
         12    1    3    3    0    0 -0.10235449005E+02  0.14801436062E+02 -0.32123709428E+02  0.36820912988E+02  0.00000000000E+00 0. -1.
         11    1    4    4    0    0 -0.87052764751E+01 -0.99954295047E+01  0.11226836317E+02  0.17370443387E+02  0.51100000000E-03 0. -1.
        -11    1    4    4    0    0  0.15874765280E+02 -0.10889235686E+02  0.22880514365E+02  0.29901531138E+02  0.51100000000E-03 0.  1.
         12    1    4    4    0    0  0.30659602001E+01  0.60832291290E+01 -0.19836412541E+01  0.70951124874E+01  0.00000000000E+00 0. -1.
</event>
<event>
 8    1  0.1247338E-006  0.9118800E+02  0.7816164E-02  0.1184000E+00
        -11   -1    0    0    0    0  0.00000000000E+00  0.00000000000E+00  0.45593999997E+02  0.45594000000E+02  0.51100000000E-03 0. -1.
         11   -1    0    0    0    0 -0.00000000000E+00 -0.00000000000E+00 -0.45593999997E+02  0.45594000000E+02  0.51100000000E-03 0.  1.
         23    2    1    2    0    0 -0.88817841970E-15  0.00000000000E+00  0.00000000000E+00  0.91188000000E+02  0.91188000000E+02 0.  0.
    9900012    2    3    3    0    0 -0.75389951259E+01  0.29466707143E+02  0.20752307122E+02  0.54367061280E+02  0.39999947799E+02 0.  0.
         12    1    3    3    0    0  0.75389951259E+01 -0.29466707143E+02 -0.20752307122E+02  0.36820938720E+02  0.00000000000E+00 0. -1.
         11    1    4    4    0    0  0.23972563015E+01  0.13574156304E+02  0.91735205204E+01  0.16557718325E+02  0.51100000000E-03 0. -1.
        -11    1    4    4    0    0  0.84923320510E+01  0.10787292428E+01 -0.40460807116E+01  0.94685864747E+01  0.51100000000E-03 0.  1.
        -12    1    4    4    0    0 -0.18428583478E+02  0.14813821596E+02  0.15624867313E+02  0.28340756480E+02  0.00000000000E+00 0.  1.
</event>
<event>
 8    1  0.1247338E-006  0.9118800E+02  0.7816164E-02  0.1184000E+00
        -11   -1    0    0    0    0  0.00000000000E+00  0.00000000000E+00  0.45593999997E+02  0.45594000000E+02  0.51100000000E-03 0. -1.
         11   -1    0    0    0    0 -0.00000000000E+00 -0.00000000000E+00 -0.45593999997E+02  0.45594000000E+02  0.51100000000E-03 0.  1.
         23    2    1    2    0    0  0.00000000000E+00  0.00000000000E+00  0.00000000000E+00  0.91188000000E+02  0.91188000000E+02 0.  0.
    9900012    2    3    3    0    0 -0.25254917499E+02 -0.98933945233E+01  0.24901581812E+02  0.54367097107E+02  0.40000029475E+02 0.  0.
        -12    1    3    3    0    0  0.25254917499E+02  0.98933945233E+01 -0.24901581812E+02  0.36820902893E+02  0.00000000000E+00 0.  1.
         11    1    4    4    0    0 -0.11671393753E+02  0.59939819901E+01  0.16360999907E+02  0.20972161797E+02  0.51100000000E-03 0. -1.
        -11    1    4    4    0    0 -0.12870645091E+02 -0.21942419513E+02  0.96321400066E+01  0.27201128662E+02  0.51100000000E-03 0.  1.
        -12    1    4    4    0    0 -0.71287865575E+00  0.60550429992E+01 -0.10915581016E+01  0.61938066477E+01  0.00000000000E+00 0.  1.
</event>
<event>
 8    1  0.1247338E-006  0.9118800E+02  0.7816164E-02  0.1184000E+00
        -11   -1    0    0    0    0  0.00000000000E+00  0.00000000000E+00  0.45593999997E+02  0.45594000000E+02  0.51100000000E-03 0.  1.
         11   -1    0    0    0    0 -0.00000000000E+00 -0.00000000000E+00 -0.45593999997E+02  0.45594000000E+02  0.51100000000E-03 0. -1.
         23    2    1    2    0    0  0.00000000000E+00  0.00000000000E+00  0.00000000000E+00  0.91188000000E+02  0.91188000000E+02 0.  0.
    9900012    2    3    3    0    0 -0.20192612189E+02 -0.12709051511E+02  0.28044927595E+02  0.54367088263E+02  0.40000009313E+02 0.  0.
         12    1    3    3    0    0  0.20192612189E+02  0.12709051511E+02 -0.28044927595E+02  0.36820911737E+02  0.00000000000E+00 0. -1.
         11    1    4    4    0    0  0.52597813861E+01 -0.75402657405E+01 -0.11373021093E+01  0.92636042670E+01  0.51100000000E-03 0. -1.
        -11    1    4    4    0    0 -0.17358292786E+02  0.63225486653E+01  0.23621575124E+02  0.29987726851E+02  0.51100000000E-03 0.  1.
        -12    1    4    4    0    0 -0.80941007896E+01 -0.11491334436E+02  0.55606545805E+01  0.15115757145E+02  0.00000000000E+00 0.  1.
</event>
<event>
 8    1  0.1247338E-006  0.9118800E+02  0.7816164E-02  0.1184000E+00
        -11   -1    0    0    0    0  0.00000000000E+00  0.00000000000E+00  0.45593999997E+02  0.45594000000E+02  0.51100000000E-03 0. -1.
         11   -1    0    0    0    0 -0.00000000000E+00 -0.00000000000E+00 -0.45593999997E+02  0.45594000000E+02  0.51100000000E-03 0.  1.
         23    2    1    2    0    0 -0.35527136788E-14  0.00000000000E+00  0.00000000000E+00  0.91188000000E+02  0.91188000000E+02 0.  0.
    9900012    2    3    3    0    0  0.17714322447E+02  0.11466197529E+01  0.32259401747E+02  0.54367069028E+02  0.39999965463E+02 0.  0.
        -12    1    3    3    0    0 -0.17714322447E+02 -0.11466197529E+01 -0.32259401747E+02  0.36820930972E+02  0.00000000000E+00 0.  1.
         11    1    4    4    0    0 -0.30954756107E+01  0.15060220431E+00  0.52241585021E+00  0.31428599813E+01  0.51100000000E-03 0. -1.
        -11    1    4    4    0    0  0.21519275569E+02 -0.10902396349E+01  0.22601151238E+01  0.21665086293E+02  0.51100000000E-03 0.  1.
         12    1    4    4    0    0 -0.70947751126E+00  0.20862571836E+01  0.29476870773E+02  0.29559122753E+02  0.00000000000E+00 0. -1.
</event>
<event>
 8    1  0.1247338E-006  0.9118800E+02  0.7816164E-02  0.1184000E+00
        -11   -1    0    0    0    0  0.00000000000E+00  0.00000000000E+00  0.45593999997E+02  0.45594000000E+02  0.51100000000E-03 0.  1.
         11   -1    0    0    0    0 -0.00000000000E+00 -0.00000000000E+00 -0.45593999997E+02  0.45594000000E+02  0.51100000000E-03 0. -1.
         23    2    1    2    0    0  0.00000000000E+00 -0.35527136788E-14  0.00000000000E+00  0.91188000000E+02  0.91188000000E+02 0.  0.
    9900012    2    3    3    0    0 -0.18633068848E+02 -0.28609263085E+02  0.13787608257E+02  0.54367091125E+02  0.40000015837E+02 0.  0.
         12    1    3    3    0    0  0.18633068848E+02  0.28609263085E+02 -0.13787608257E+02  0.36820908875E+02  0.00000000000E+00 0. -1.
         11    1    4    4    0    0 -0.29275527470E+02 -0.14471068378E+02  0.14141784370E+02  0.35587334742E+02  0.51100000000E-03 0. -1.
        -11    1    4    4    0    0  0.75900000814E+01 -0.77103488384E+01 -0.29350713286E+01  0.11210362367E+02  0.51100000000E-03 0.  1.
         12    1    4    4    0    0  0.30524585402E+01 -0.64278458681E+01  0.25808952149E+01  0.75693940150E+01  0.00000000000E+00 0. -1.
</event>
<event>
 8    1  0.1247338E-006  0.9118800E+02  0.7816164E-02  0.1184000E+00
        -11   -1    0    0    0    0  0.00000000000E+00  0.00000000000E+00  0.45593999997E+02  0.45594000000E+02  0.51100000000E-03 0. -1.
         11   -1    0    0    0    0 -0.00000000000E+00 -0.00000000000E+00 -0.45593999997E+02  0.45594000000E+02  0.51100000000E-03 0.  1.
         23    2    1    2    0    0  0.00000000000E+00  0.00000000000E+00 -0.35527136788E-14  0.91188000000E+02  0.91188000000E+02 0.  0.
    9900012    2    3    3    0    0  0.93092396535E+01 -0.23507543271E+02 -0.26767771185E+02  0.54367080569E+02  0.39999991772E+02 0.  0.
         12    1    3    3    0    0 -0.93092396535E+01  0.23507543271E+02  0.26767771185E+02  0.36820919431E+02  0.00000000000E+00 0. -1.
         11    1    4    4    0    0  0.24278842417E+01  0.41170500639E+01  0.28792354430E+01  0.55798494709E+01  0.51100000000E-03 0. -1.
        -11    1    4    4    0    0  0.15052008411E+02 -0.95917565700E+01 -0.19862971147E+02  0.26703976751E+02  0.51100000000E-03 0.  1.
         12    1    4    4    0    0 -0.81706529990E+01 -0.18032836765E+02 -0.97840354811E+01  0.22083254346E+02  0.00000000000E+00 0. -1.
</event>
<event>
 8    1  0.1247338E-006  0.9118800E+02  0.7816164E-02  0.1184000E+00
        -11   -1    0    0    0    0  0.00000000000E+00  0.00000000000E+00  0.45593999997E+02  0.45594000000E+02  0.51100000000E-03 0. -1.
         11   -1    0    0    0    0 -0.00000000000E+00 -0.00000000000E+00 -0.45593999997E+02  0.45594000000E+02  0.51100000000E-03 0.  1.
         23    2    1    2    0    0  0.11102230246E-15  0.00000000000E+00  0.00000000000E+00  0.91188000000E+02  0.91188000000E+02 0.  0.
    9900012    2    3    3    0    0  0.50428589303E+00  0.36005180093E+02 -0.76910363685E+01  0.54367091019E+02  0.40000015596E+02 0.  0.
        -12    1    3    3    0    0 -0.50428589303E+00 -0.36005180093E+02  0.76910363685E+01  0.36820908981E+02  0.00000000000E+00 0.  1.
         11    1    4    4    0    0  0.46959266995E+01  0.16257193327E+01  0.18902329845E+01  0.53167350802E+01  0.51100000000E-03 0. -1.
        -11    1    4    4    0    0  0.10413985664E+02  0.30714122605E+02 -0.28523064983E+01  0.32556782357E+02  0.51100000000E-03 0.  1.
        -12    1    4    4    0    0 -0.14605626471E+02  0.36653381546E+01 -0.67289628547E+01  0.16493573582E+02  0.00000000000E+00 0.  1.
</event>
<event>
 8    1  0.1247338E-006  0.9118800E+02  0.7816164E-02  0.1184000E+00
        -11   -1    0    0    0    0  0.00000000000E+00  0.00000000000E+00  0.45593999997E+02  0.45594000000E+02  0.51100000000E-03 0. -1.
         11   -1    0    0    0    0 -0.00000000000E+00 -0.00000000000E+00 -0.45593999997E+02  0.45594000000E+02  0.51100000000E-03 0.  1.
         23    2    1    2    0    0 -0.17763568394E-14 -0.35527136788E-14  0.00000000000E+00  0.91188000000E+02  0.91188000000E+02 0.  0.
    9900012    2    3    3    0    0 -0.12669806075E+02 -0.18479000972E+02  0.29219564952E+02  0.54367076073E+02  0.39999981523E+02 0.  0.
        -12    1    3    3    0    0  0.12669806075E+02  0.18479000972E+02 -0.29219564952E+02  0.36820923927E+02  0.00000000000E+00 0.  1.
         11    1    4    4    0    0  0.87561779070E+01  0.30389337760E+01 -0.68806446680E+00  0.92940412634E+01  0.51100000000E-03 0. -1.
        -11    1    4    4    0    0 -0.16122318130E+02 -0.76702418269E+01  0.10726331623E+02  0.20828248652E+02  0.51100000000E-03 0.  1.
         12    1    4    4    0    0 -0.53036658519E+01 -0.13847692921E+02  0.19181297796E+02  0.24244786158E+02  0.00000000000E+00 0. -1.
</event>
<event>
 8    1  0.1247338E-006  0.9118800E+02  0.7816164E-02  0.1184000E+00
        -11   -1    0    0    0    0  0.00000000000E+00  0.00000000000E+00  0.45593999997E+02  0.45594000000E+02  0.51100000000E-03 0. -1.
         11   -1    0    0    0    0 -0.00000000000E+00 -0.00000000000E+00 -0.45593999997E+02  0.45594000000E+02  0.51100000000E-03 0.  1.
         23    2    1    2    0    0  0.00000000000E+00 -0.35527136788E-14  0.00000000000E+00  0.91188000000E+02  0.91188000000E+02 0.  0.
    9900012    2    3    3    0    0 -0.28516211960E+02 -0.16952601999E+02 -0.15975492445E+02  0.54367062777E+02  0.39999951214E+02 0.  0.
         12    1    3    3    0    0  0.28516211960E+02  0.16952601999E+02  0.15975492445E+02  0.36820937223E+02  0.00000000000E+00 0. -1.
         11    1    4    4    0    0  0.19808232392E+01  0.53406854050E+00 -0.35736326824E+01  0.41206480947E+01  0.51100000000E-03 0. -1.
        -11    1    4    4    0    0  0.26060208243E+01  0.28391874079E+01 -0.10690002497E+02  0.11363471447E+02  0.51100000000E-03 0.  1.
        -12    1    4    4    0    0 -0.33103056023E+02 -0.20325857948E+02 -0.17118572656E+01  0.38882943236E+02  0.00000000000E+00 0.  1.
</event>
<event>
 8    1  0.1247338E-006  0.9118800E+02  0.7816164E-02  0.1184000E+00
        -11   -1    0    0    0    0  0.00000000000E+00  0.00000000000E+00  0.45593999997E+02  0.45594000000E+02  0.51100000000E-03 0.  1.
         11   -1    0    0    0    0 -0.00000000000E+00 -0.00000000000E+00 -0.45593999997E+02  0.45594000000E+02  0.51100000000E-03 0. -1.
         23    2    1    2    0    0  0.00000000000E+00  0.17763568394E-14  0.00000000000E+00  0.91188000000E+02  0.91188000000E+02 0.  0.
    9900012    2    3    3    0    0 -0.34215097457E+02 -0.13538581696E+02  0.13442399226E+01  0.54367176146E+02  0.40000209660E+02 0.  0.
         12    1    3    3    0    0  0.34215097457E+02  0.13538581696E+02 -0.13442399226E+01  0.36820823854E+02  0.00000000000E+00 0. -1.
         11    1    4    4    0    0 -0.94007283754E+01  0.33143679463E+01 -0.99977313211E+01  0.14117838386E+02  0.51100000000E-03 0. -1.
        -11    1    4    4    0    0 -0.26745913532E+02 -0.71862357002E+01  0.12382746324E+02  0.30336748029E+02  0.51100000000E-03 0.  1.
         12    1    4    4    0    0  0.19315444507E+01 -0.96667139417E+01 -0.10407750805E+01  0.99125897305E+01  0.00000000000E+00 0. -1.
</event>
<event>
 8    1  0.1247338E-006  0.9118800E+02  0.7816164E-02  0.1184000E+00
        -11   -1    0    0    0    0  0.00000000000E+00  0.00000000000E+00  0.45593999997E+02  0.45594000000E+02  0.51100000000E-03 0.  1.
         11   -1    0    0    0    0 -0.00000000000E+00 -0.00000000000E+00 -0.45593999997E+02  0.45594000000E+02  0.51100000000E-03 0. -1.
         23    2    1    2    0    0  0.00000000000E+00  0.00000000000E+00  0.17763568394E-14  0.91188000000E+02  0.91188000000E+02 0.  0.
    9900012    2    3    3    0    0 -0.31920167727E+02  0.14812105908E+02  0.10839042300E+02  0.54367076231E+02  0.39999981885E+02 0.  0.
        -12    1    3    3    0    0  0.31920167727E+02 -0.14812105908E+02 -0.10839042300E+02  0.36820923769E+02  0.00000000000E+00 0.  1.
         11    1    4    4    0    0 -0.40083980374E+01 -0.77848763528E+01  0.42016032290E+01  0.97121071148E+01  0.51100000000E-03 0. -1.
        -11    1    4    4    0    0 -0.35251361866E+01 -0.57209739839E+01  0.12844203638E+00  0.67210584045E+01  0.51100000000E-03 0.  1.
         12    1    4    4    0    0 -0.24386633503E+02  0.28317956245E+02  0.65089970350E+01  0.37933910712E+02  0.00000000000E+00 0. -1.
</event>
<event>
 8    1  0.1247338E-006  0.9118800E+02  0.7816164E-02  0.1184000E+00
        -11   -1    0    0    0    0  0.00000000000E+00  0.00000000000E+00  0.45593999997E+02  0.45594000000E+02  0.51100000000E-03 0.  1.
         11   -1    0    0    0    0 -0.00000000000E+00 -0.00000000000E+00 -0.45593999997E+02  0.45594000000E+02  0.51100000000E-03 0. -1.
         23    2    1    2    0    0  0.00000000000E+00  0.00000000000E+00  0.71054273576E-14  0.91188000000E+02  0.91188000000E+02 0.  0.
    9900012    2    3    3    0    0 -0.13140375282E+02  0.12117634335E+02 -0.32191338573E+02  0.54366962487E+02  0.39999722580E+02 0.  0.
        -12    1    3    3    0    0  0.13140375282E+02 -0.12117634335E+02  0.32191338573E+02  0.36821037513E+02  0.00000000000E+00 0.  1.
         11    1    4    4    0    0 -0.97262933108E+01  0.21091012624E+01 -0.17318906436E+02  0.19974824407E+02  0.51100000000E-03 0. -1.
        -11    1    4    4    0    0  0.86310516334E+01  0.14531905496E+02 -0.35884183445E+01  0.17278543808E+02  0.51100000000E-03 0.  1.
        -12    1    4    4    0    0 -0.12045133605E+02 -0.45233724229E+01 -0.11284013793E+02  0.17113594272E+02  0.00000000000E+00 0.  1.
</event>
<event>
 8    1  0.1247338E-006  0.9118800E+02  0.7816164E-02  0.1184000E+00
        -11   -1    0    0    0    0  0.00000000000E+00  0.00000000000E+00  0.45593999997E+02  0.45594000000E+02  0.51100000000E-03 0. -1.
         11   -1    0    0    0    0 -0.00000000000E+00 -0.00000000000E+00 -0.45593999997E+02  0.45594000000E+02  0.51100000000E-03 0.  1.
         23    2    1    2    0    0 -0.35527136788E-14  0.00000000000E+00  0.35527136788E-14  0.91188000000E+02  0.91188000000E+02 0.  0.
    9900012    2    3    3    0    0 -0.21555453662E+02 -0.80938473026E+01  0.28733862568E+02  0.54367043945E+02  0.39999908281E+02 0.  0.
        -12    1    3    3    0    0  0.21555453662E+02  0.80938473026E+01 -0.28733862568E+02  0.36820956055E+02  0.00000000000E+00 0.  1.
         11    1    4    4    0    0  0.33070204935E+01  0.36026964204E+01  0.10811068185E+02  0.11865706958E+02  0.51100000000E-03 0. -1.
        -11    1    4    4    0    0  0.33682505055E+01  0.33675414724E+01  0.74316619581E+01  0.88269500258E+01  0.51100000000E-03 0.  1.
        -12    1    4    4    0    0 -0.28230724661E+02 -0.15064085195E+02  0.10491132424E+02  0.33674386961E+02  0.00000000000E+00 0.  1.
</event>
<event>
 8    1  0.1247338E-006  0.9118800E+02  0.7816164E-02  0.1184000E+00
        -11   -1    0    0    0    0  0.00000000000E+00  0.00000000000E+00  0.45593999997E+02  0.45594000000E+02  0.51100000000E-03 0.  1.
         11   -1    0    0    0    0 -0.00000000000E+00 -0.00000000000E+00 -0.45593999997E+02  0.45594000000E+02  0.51100000000E-03 0. -1.
         23    2    1    2    0    0  0.00000000000E+00 -0.17763568394E-14  0.00000000000E+00  0.91188000000E+02  0.91188000000E+02 0.  0.
    9900012    2    3    3    0    0  0.30061158690E+02  0.12963364894E+02 -0.16854088230E+02  0.54367049697E+02  0.39999921393E+02 0.  0.
        -12    1    3    3    0    0 -0.30061158690E+02 -0.12963364894E+02  0.16854088230E+02  0.36820950303E+02  0.00000000000E+00 0.  1.
         11    1    4    4    0    0  0.24420698959E+02 -0.65836119184E+01 -0.32648332820E+01  0.25502423809E+02  0.51100000000E-03 0. -1.
        -11    1    4    4    0    0  0.19648793251E+01  0.94008525937E+01  0.20917925944E+01  0.98291595149E+01  0.51100000000E-03 0.  1.
        -12    1    4    4    0    0  0.36755804065E+01  0.10146124219E+02 -0.15681047543E+02  0.19035466373E+02  0.00000000000E+00 0.  1.
</event>
<event>
 8    1  0.1247338E-006  0.9118800E+02  0.7816164E-02  0.1184000E+00
        -11   -1    0    0    0    0  0.00000000000E+00  0.00000000000E+00  0.45593999997E+02  0.45594000000E+02  0.51100000000E-03 0.  1.
         11   -1    0    0    0    0 -0.00000000000E+00 -0.00000000000E+00 -0.45593999997E+02  0.45594000000E+02  0.51100000000E-03 0. -1.
         23    2    1    2    0    0  0.17763568394E-14 -0.71054273576E-14 -0.35527136788E-14  0.91188000000E+02  0.91188000000E+02 0.  0.
    9900012    2    3    3    0    0 -0.11587250402E+02  0.23983179556E+02  0.25422831272E+02  0.54367114305E+02  0.40000068681E+02 0.  0.
        -12    1    3    3    0    0  0.11587250402E+02 -0.23983179556E+02 -0.25422831272E+02  0.36820885695E+02  0.00000000000E+00 0.  1.
         11    1    4    4    0    0 -0.68171679654E+01 -0.59782725947E+01  0.67170751164E+00  0.90920137223E+01  0.51100000000E-03 0. -1.
        -11    1    4    4    0    0  0.31309238662E+01 -0.22314335551E+01  0.61821403753E+01  0.72801675701E+01  0.51100000000E-03 0.  1.
        -12    1    4    4    0    0 -0.79010063030E+01  0.32192885706E+02  0.18568983385E+02  0.37994933012E+02  0.00000000000E+00 0.  1.
</event>
<event>
 8    1  0.1247338E-006  0.9118800E+02  0.7816164E-02  0.1184000E+00
        -11   -1    0    0    0    0  0.00000000000E+00  0.00000000000E+00  0.45593999997E+02  0.45594000000E+02  0.51100000000E-03 0.  1.
         11   -1    0    0    0    0 -0.00000000000E+00 -0.00000000000E+00 -0.45593999997E+02  0.45594000000E+02  0.51100000000E-03 0. -1.
         23    2    1    2    0    0 -0.35527136788E-14  0.00000000000E+00 -0.17763568394E-14  0.91188000000E+02  0.91188000000E+02 0.  0.
    9900012    2    3    3    0    0 -0.26563882526E+02 -0.22816013212E+02 -0.11382885853E+02  0.54367076545E+02  0.39999982600E+02 0.  0.
         12    1    3    3    0    0  0.26563882526E+02  0.22816013212E+02  0.11382885853E+02  0.36820923455E+02  0.00000000000E+00 0. -1.
         11    1    4    4    0    0  0.26756062751E+01 -0.61109022141E+01  0.83010869751E+01  0.10649415009E+02  0.51100000000E-03 0. -1.
        -11    1    4    4    0    0 -0.93542539663E+01  0.51819558352E+00 -0.13932049669E+02  0.16789061980E+02  0.51100000000E-03 0.  1.
        -12    1    4    4    0    0 -0.19885234834E+02 -0.17223306581E+02 -0.57519231587E+01  0.26928599556E+02  0.00000000000E+00 0.  1.
</event>
<event>
 8    1  0.1247338E-006  0.9118800E+02  0.7816164E-02  0.1184000E+00
        -11   -1    0    0    0    0  0.00000000000E+00  0.00000000000E+00  0.45593999997E+02  0.45594000000E+02  0.51100000000E-03 0.  1.
         11   -1    0    0    0    0 -0.00000000000E+00 -0.00000000000E+00 -0.45593999997E+02  0.45594000000E+02  0.51100000000E-03 0. -1.
         23    2    1    2    0    0  0.35527136788E-14  0.35527136788E-14  0.00000000000E+00  0.91188000000E+02  0.91188000000E+02 0.  0.
    9900012    2    3    3    0    0 -0.30932866288E+02 -0.17172700154E+02  0.10199675716E+02  0.54367119618E+02  0.40000080794E+02 0.  0.
        -12    1    3    3    0    0  0.30932866288E+02  0.17172700154E+02 -0.10199675716E+02  0.36820880382E+02  0.00000000000E+00 0.  1.
         11    1    4    4    0    0 -0.21128083920E+02 -0.19958808810E+02  0.12950718287E+02  0.31819350773E+02  0.51100000000E-03 0. -1.
        -11    1    4    4    0    0  0.35146099038E+01 -0.56099136337E+01 -0.44387845786E+00  0.66348053551E+01  0.51100000000E-03 0.  1.
         12    1    4    4    0    0 -0.13319392272E+02  0.83960222895E+01 -0.23071641132E+01  0.15912963490E+02  0.00000000000E+00 0. -1.
</event>
<event>
 8    1  0.1247338E-006  0.9118800E+02  0.7816164E-02  0.1184000E+00
        -11   -1    0    0    0    0  0.00000000000E+00  0.00000000000E+00  0.45593999997E+02  0.45594000000E+02  0.51100000000E-03 0. -1.
         11   -1    0    0    0    0 -0.00000000000E+00 -0.00000000000E+00 -0.45593999997E+02  0.45594000000E+02  0.51100000000E-03 0.  1.
         23    2    1    2    0    0  0.00000000000E+00 -0.35527136788E-14 -0.35527136788E-14  0.91188000000E+02  0.91188000000E+02 0.  0.
    9900012    2    3    3    0    0  0.11851586088E+02  0.26436665357E+02  0.22724925019E+02  0.54367087666E+02  0.40000007953E+02 0.  0.
        -12    1    3    3    0    0 -0.11851586088E+02 -0.26436665357E+02 -0.22724925019E+02  0.36820912334E+02  0.00000000000E+00 0.  1.
         11    1    4    4    0    0 -0.25755090115E+01  0.22128847558E+02  0.14092323674E+02  0.26361197387E+02  0.51100000000E-03 0. -1.
        -11    1    4    4    0    0  0.19029693383E+02  0.75414739988E+01  0.90174058197E+01  0.22367759572E+02  0.51100000000E-03 0.  1.
        -12    1    4    4    0    0 -0.46025982832E+01 -0.32336562002E+01 -0.38480447446E+00  0.56381307063E+01  0.00000000000E+00 0.  1.
</event>
<event>
 8    1  0.1247338E-006  0.9118800E+02  0.7816164E-02  0.1184000E+00
        -11   -1    0    0    0    0  0.00000000000E+00  0.00000000000E+00  0.45593999997E+02  0.45594000000E+02  0.51100000000E-03 0.  1.
         11   -1    0    0    0    0 -0.00000000000E+00 -0.00000000000E+00 -0.45593999997E+02  0.45594000000E+02  0.51100000000E-03 0. -1.
         23    2    1    2    0    0  0.00000000000E+00  0.17763568394E-14  0.71054273576E-14  0.91188000000E+02  0.91188000000E+02 0.  0.
    9900012    2    3    3    0    0 -0.98912099248E+01  0.87296042561E+01  0.34376404625E+02  0.54367092635E+02  0.40000019280E+02 0.  0.
         12    1    3    3    0    0  0.98912099248E+01 -0.87296042561E+01 -0.34376404625E+02  0.36820907365E+02  0.00000000000E+00 0. -1.
         11    1    4    4    0    0 -0.15922632280E+02 -0.75948365196E+01  0.38159452005E+01  0.18049188307E+02  0.51100000000E-03 0. -1.
        -11    1    4    4    0    0 -0.13631415855E+01  0.72603513682E+01  0.78968783316E+01  0.10813489012E+02  0.51100000000E-03 0.  1.
         12    1    4    4    0    0  0.73945639410E+01  0.90640894075E+01  0.22663581093E+02  0.25504415316E+02  0.00000000000E+00 0. -1.
</event>
<event>
 8    1  0.1247338E-006  0.9118800E+02  0.7816164E-02  0.1184000E+00
        -11   -1    0    0    0    0  0.00000000000E+00  0.00000000000E+00  0.45593999997E+02  0.45594000000E+02  0.51100000000E-03 0.  1.
         11   -1    0    0    0    0 -0.00000000000E+00 -0.00000000000E+00 -0.45593999997E+02  0.45594000000E+02  0.51100000000E-03 0. -1.
         23    2    1    2    0    0  0.00000000000E+00 -0.88817841970E-15 -0.71054273576E-14  0.91188000000E+02  0.91188000000E+02 0.  0.
    9900012    2    3    3    0    0  0.54347611387E+01  0.61665630427E+01  0.35891754739E+02  0.54367065919E+02  0.39999958375E+02 0.  0.
         12    1    3    3    0    0 -0.54347611387E+01 -0.61665630427E+01 -0.35891754739E+02  0.36820934081E+02  0.00000000000E+00 0. -1.
         11    1    4    4    0    0 -0.26989790479E+01 -0.27166023535E+01  0.77511925371E+01  0.86455423344E+01  0.51100000000E-03 0. -1.
        -11    1    4    4    0    0 -0.99292207589E-01 -0.79228970246E-01  0.32718709315E+02  0.32718955908E+02  0.51100000000E-03 0.  1.
        -12    1    4    4    0    0  0.82330323942E+01  0.89623943664E+01 -0.45781471137E+01  0.13002567676E+02  0.00000000000E+00 0.  1.
</event>
<event>
 8    1  0.1247338E-006  0.9118800E+02  0.7816164E-02  0.1184000E+00
        -11   -1    0    0    0    0  0.00000000000E+00  0.00000000000E+00  0.45593999997E+02  0.45594000000E+02  0.51100000000E-03 0. -1.
         11   -1    0    0    0    0 -0.00000000000E+00 -0.00000000000E+00 -0.45593999997E+02  0.45594000000E+02  0.51100000000E-03 0.  1.
         23    2    1    2    0    0  0.00000000000E+00  0.00000000000E+00  0.00000000000E+00  0.91188000000E+02  0.91188000000E+02 0.  0.
    9900012    2    3    3    0    0 -0.94281126605E+01  0.30355164339E+02  0.18586421607E+02  0.54367076892E+02  0.39999983391E+02 0.  0.
        -12    1    3    3    0    0  0.94281126605E+01 -0.30355164339E+02 -0.18586421607E+02  0.36820923108E+02  0.00000000000E+00 0.  1.
         11    1    4    4    0    0 -0.77353549838E+01  0.26227103503E-01  0.14675469412E+02  0.16589328115E+02  0.51100000000E-03 0. -1.
        -11    1    4    4    0    0  0.86091317161E+01  0.18467575596E+02  0.74118393800E+01  0.21681878621E+02  0.51100000000E-03 0.  1.
         12    1    4    4    0    0 -0.10301889393E+02  0.11861361640E+02 -0.35008871850E+01  0.16095870156E+02  0.00000000000E+00 0. -1.
</event>
<event>
 8    1  0.1247338E-006  0.9118800E+02  0.7816164E-02  0.1184000E+00
        -11   -1    0    0    0    0  0.00000000000E+00  0.00000000000E+00  0.45593999997E+02  0.45594000000E+02  0.51100000000E-03 0. -1.
         11   -1    0    0    0    0 -0.00000000000E+00 -0.00000000000E+00 -0.45593999997E+02  0.45594000000E+02  0.51100000000E-03 0.  1.
         23    2    1    2    0    0  0.00000000000E+00 -0.17763568394E-14  0.17763568394E-14  0.91188000000E+02  0.91188000000E+02 0.  0.
    9900012    2    3    3    0    0  0.32067405900E+02  0.15030842825E+02 -0.10076441578E+02  0.54367089744E+02  0.40000012689E+02 0.  0.
        -12    1    3    3    0    0 -0.32067405900E+02 -0.15030842825E+02  0.10076441578E+02  0.36820910256E+02  0.00000000000E+00 0.  1.
         11    1    4    4    0    0  0.37265626059E+02  0.41531368508E+01 -0.44761837175E+01  0.37762569460E+02  0.51100000000E-03 0. -1.
        -11    1    4    4    0    0 -0.16177887546E+01  0.34919389196E+01  0.28768641729E+01  0.48049168154E+01  0.51100000000E-03 0.  1.
         12    1    4    4    0    0 -0.35804314044E+01  0.73857670550E+01 -0.84771220335E+01  0.11799603468E+02  0.00000000000E+00 0. -1.
</event>
<event>
 8    1  0.1247338E-006  0.9118800E+02  0.7816164E-02  0.1184000E+00
        -11   -1    0    0    0    0  0.00000000000E+00  0.00000000000E+00  0.45593999997E+02  0.45594000000E+02  0.51100000000E-03 0.  1.
         11   -1    0    0    0    0 -0.00000000000E+00 -0.00000000000E+00 -0.45593999997E+02  0.45594000000E+02  0.51100000000E-03 0. -1.
         23    2    1    2    0    0  0.00000000000E+00  0.17763568394E-14 -0.15421691701E-14  0.91188000000E+02  0.91188000000E+02 0.  0.
    9900012    2    3    3    0    0 -0.33428912722E+02  0.15436590496E+02  0.11881891927E-01  0.54367072892E+02  0.39999974272E+02 0.  0.
         12    1    3    3    0    0  0.33428912722E+02 -0.15436590496E+02 -0.11881891927E-01  0.36820927108E+02  0.00000000000E+00 0. -1.
         11    1    4    4    0    0 -0.10552072133E+02  0.23625037016E+02  0.61783775646E+01  0.26601897486E+02  0.51100000000E-03 0. -1.
        -11    1    4    4    0    0 -0.12717866629E+02 -0.57885378679E+01  0.25033485256E+01  0.14195705560E+02  0.51100000000E-03 0.  1.
        -12    1    4    4    0    0 -0.10158973961E+02 -0.23999086522E+01 -0.86698441982E+01  0.13569469846E+02  0.00000000000E+00 0.  1.
</event>
<event>
 8    1  0.1247338E-006  0.9118800E+02  0.7816164E-02  0.1184000E+00
        -11   -1    0    0    0    0  0.00000000000E+00  0.00000000000E+00  0.45593999997E+02  0.45594000000E+02  0.51100000000E-03 0.  1.
         11   -1    0    0    0    0 -0.00000000000E+00 -0.00000000000E+00 -0.45593999997E+02  0.45594000000E+02  0.51100000000E-03 0. -1.
         23    2    1    2    0    0  0.00000000000E+00  0.00000000000E+00  0.35527136788E-14  0.91188000000E+02  0.91188000000E+02 0.  0.
    9900012    2    3    3    0    0  0.18143757326E+02 -0.80385461148E+01 -0.31015587010E+02  0.54367071289E+02  0.39999970618E+02 0.  0.
        -12    1    3    3    0    0 -0.18143757326E+02  0.80385461148E+01  0.31015587010E+02  0.36820928711E+02  0.00000000000E+00 0.  1.
         11    1    4    4    0    0  0.21108424932E+02 -0.51501700619E+01 -0.24561236596E+02  0.32792441174E+02  0.51100000000E-03 0. -1.
        -11    1    4    4    0    0  0.85027737139E+01 -0.17295110573E+01 -0.73553835336E+00  0.87080070199E+01  0.51100000000E-03 0.  1.
        -12    1    4    4    0    0 -0.11467441319E+02 -0.11588649955E+01 -0.57188120607E+01  0.12866623095E+02  0.00000000000E+00 0.  1.
</event>
<event>
 8    1  0.1247338E-006  0.9118800E+02  0.7816164E-02  0.1184000E+00
        -11   -1    0    0    0    0  0.00000000000E+00  0.00000000000E+00  0.45593999997E+02  0.45594000000E+02  0.51100000000E-03 0.  1.
         11   -1    0    0    0    0 -0.00000000000E+00 -0.00000000000E+00 -0.45593999997E+02  0.45594000000E+02  0.51100000000E-03 0. -1.
         23    2    1    2    0    0  0.00000000000E+00  0.71054273576E-14  0.00000000000E+00  0.91188000000E+02  0.91188000000E+02 0.  0.
    9900012    2    3    3    0    0  0.79629243163E+01 -0.35785715642E+02  0.34283916898E+01  0.54367089130E+02  0.40000011291E+02 0.  0.
        -12    1    3    3    0    0 -0.79629243163E+01  0.35785715642E+02 -0.34283916898E+01  0.36820910870E+02  0.00000000000E+00 0.  1.
         11    1    4    4    0    0  0.86703389950E+01 -0.17045537061E+02  0.34175377317E+01  0.19426905991E+02  0.51100000000E-03 0. -1.
        -11    1    4    4    0    0 -0.94232333485E+01 -0.22411957683E+02  0.40655599770E+01  0.24649988886E+02  0.51100000000E-03 0.  1.
        -12    1    4    4    0    0  0.87158186699E+01  0.36717791018E+01 -0.40547060189E+01  0.10290194253E+02  0.00000000000E+00 0.  1.
</event>
<event>
 8    1  0.1247338E-006  0.9118800E+02  0.7816164E-02  0.1184000E+00
        -11   -1    0    0    0    0  0.00000000000E+00  0.00000000000E+00  0.45593999997E+02  0.45594000000E+02  0.51100000000E-03 0. -1.
         11   -1    0    0    0    0 -0.00000000000E+00 -0.00000000000E+00 -0.45593999997E+02  0.45594000000E+02  0.51100000000E-03 0.  1.
         23    2    1    2    0    0  0.00000000000E+00 -0.35527136788E-14 -0.44408920985E-15  0.91188000000E+02  0.91188000000E+02 0.  0.
    9900012    2    3    3    0    0 -0.28835329319E+02  0.22765850712E+02  0.24533168972E+01  0.54367096435E+02  0.40000027943E+02 0.  0.
         12    1    3    3    0    0  0.28835329319E+02 -0.22765850712E+02 -0.24533168972E+01  0.36820903565E+02  0.00000000000E+00 0. -1.
         11    1    4    4    0    0 -0.91288830963E+01 -0.35332672778E+01 -0.55283246149E+01  0.11242013056E+02  0.51100000000E-03 0. -1.
        -11    1    4    4    0    0 -0.74464006158E+01 -0.16253674302E+01 -0.58791214529E+01  0.96257348152E+01  0.51100000000E-03 0.  1.
        -12    1    4    4    0    0 -0.12260045607E+02  0.27924485419E+02  0.13860762965E+02  0.33499348564E+02  0.00000000000E+00 0.  1.
</event>
<event>
 8    1  0.1247338E-006  0.9118800E+02  0.7816164E-02  0.1184000E+00
        -11   -1    0    0    0    0  0.00000000000E+00  0.00000000000E+00  0.45593999997E+02  0.45594000000E+02  0.51100000000E-03 0. -1.
         11   -1    0    0    0    0 -0.00000000000E+00 -0.00000000000E+00 -0.45593999997E+02  0.45594000000E+02  0.51100000000E-03 0.  1.
         23    2    1    2    0    0  0.00000000000E+00  0.35527136788E-14 -0.17763568394E-14  0.91188000000E+02  0.91188000000E+02 0.  0.
    9900012    2    3    3    0    0 -0.23577348203E+02  0.23797396719E+02  0.15283109228E+02  0.54367070265E+02  0.39999968282E+02 0.  0.
        -12    1    3    3    0    0  0.23577348203E+02 -0.23797396719E+02 -0.15283109228E+02  0.36820929735E+02  0.00000000000E+00 0.  1.
         11    1    4    4    0    0 -0.71697736442E+01 -0.44274836565E+01  0.13949305649E+02  0.16296974995E+02  0.51100000000E-03 0. -1.
        -11    1    4    4    0    0 -0.53789532568E+01 -0.17961502027E+01  0.21818386487E+01  0.60761594646E+01  0.51100000000E-03 0.  1.
        -12    1    4    4    0    0 -0.11028621302E+02  0.30021030579E+02 -0.84803506966E+00  0.31993935805E+02  0.00000000000E+00 0.  1.
</event>
<event>
 8    1  0.1247338E-006  0.9118800E+02  0.7816164E-02  0.1184000E+00
        -11   -1    0    0    0    0  0.00000000000E+00  0.00000000000E+00  0.45593999997E+02  0.45594000000E+02  0.51100000000E-03 0.  1.
         11   -1    0    0    0    0 -0.00000000000E+00 -0.00000000000E+00 -0.45593999997E+02  0.45594000000E+02  0.51100000000E-03 0. -1.
         23    2    1    2    0    0 -0.35527136788E-14  0.00000000000E+00  0.35527136788E-14  0.91188000000E+02  0.91188000000E+02 0.  0.
    9900012    2    3    3    0    0  0.21172046637E+02 -0.22178511534E+02 -0.20387230469E+02  0.54367067111E+02  0.39999961092E+02 0.  0.
        -12    1    3    3    0    0 -0.21172046637E+02  0.22178511534E+02  0.20387230469E+02  0.36820932889E+02  0.00000000000E+00 0.  1.
         11    1    4    4    0    0  0.18743800605E+02 -0.25919691115E+02 -0.23341885402E+02  0.39598031049E+02  0.51100000000E-03 0. -1.
        -11    1    4    4    0    0 -0.49755057812E+00 -0.26733994592E+01  0.63765480837E+01  0.69321704372E+01  0.51100000000E-03 0.  1.
         12    1    4    4    0    0  0.29257966104E+01  0.64145790405E+01 -0.34218931506E+01  0.78368656239E+01  0.00000000000E+00 0. -1.
</event>
<event>
 8    1  0.1247338E-006  0.9118800E+02  0.7816164E-02  0.1184000E+00
        -11   -1    0    0    0    0  0.00000000000E+00  0.00000000000E+00  0.45593999997E+02  0.45594000000E+02  0.51100000000E-03 0. -1.
         11   -1    0    0    0    0 -0.00000000000E+00 -0.00000000000E+00 -0.45593999997E+02  0.45594000000E+02  0.51100000000E-03 0.  1.
         23    2    1    2    0    0  0.55511151231E-15  0.00000000000E+00  0.00000000000E+00  0.91188000000E+02  0.91188000000E+02 0.  0.
    9900012    2    3    3    0    0 -0.92405252970E+00  0.33695104507E+02 -0.14817827384E+02  0.54367055564E+02  0.39999934768E+02 0.  0.
         12    1    3    3    0    0  0.92405252970E+00 -0.33695104507E+02  0.14817827384E+02  0.36820944436E+02  0.00000000000E+00 0. -1.
         11    1    4    4    0    0 -0.10124752378E+02  0.10377368833E+02  0.71967103342E+01  0.16186198890E+02  0.51100000000E-03 0. -1.
        -11    1    4    4    0    0  0.13637369483E+02  0.16724041675E+02 -0.10019845672E+02  0.23792198804E+02  0.51100000000E-03 0.  1.
        -12    1    4    4    0    0 -0.44366696353E+01  0.65936939993E+01 -0.11994692047E+02  0.14388657870E+02  0.00000000000E+00 0.  1.
</event>
<event>
 8    1  0.1247338E-006  0.9118800E+02  0.7816164E-02  0.1184000E+00
        -11   -1    0    0    0    0  0.00000000000E+00  0.00000000000E+00  0.45593999997E+02  0.45594000000E+02  0.51100000000E-03 0. -1.
         11   -1    0    0    0    0 -0.00000000000E+00 -0.00000000000E+00 -0.45593999997E+02  0.45594000000E+02  0.51100000000E-03 0.  1.
         23    2    1    2    0    0  0.00000000000E+00  0.00000000000E+00  0.00000000000E+00  0.91188000000E+02  0.91188000000E+02 0.  0.
    9900012    2    3    3    0    0 -0.34410858015E+02 -0.11387119019E+02  0.64812470195E+01  0.54367079427E+02  0.39999989170E+02 0.  0.
        -12    1    3    3    0    0  0.34410858015E+02  0.11387119019E+02 -0.64812470195E+01  0.36820920573E+02  0.00000000000E+00 0.  1.
         11    1    4    4    0    0 -0.95396416349E+01  0.60962918445E+01  0.92958738869E+01  0.14648645274E+02  0.51100000000E-03 0. -1.
        -11    1    4    4    0    0 -0.25875172988E+02 -0.11529720545E+02 -0.10263680485E+02  0.30129755564E+02  0.51100000000E-03 0.  1.
        -12    1    4    4    0    0  0.10039566076E+01 -0.59536903188E+01  0.74490536174E+01  0.95886785887E+01  0.00000000000E+00 0.  1.
</event>
<event>
 8    1  0.1247338E-006  0.9118800E+02  0.7816164E-02  0.1184000E+00
        -11   -1    0    0    0    0  0.00000000000E+00  0.00000000000E+00  0.45593999997E+02  0.45594000000E+02  0.51100000000E-03 0.  1.
         11   -1    0    0    0    0 -0.00000000000E+00 -0.00000000000E+00 -0.45593999997E+02  0.45594000000E+02  0.51100000000E-03 0. -1.
         23    2    1    2    0    0  0.00000000000E+00  0.44408920985E-15  0.00000000000E+00  0.91188000000E+02  0.91188000000E+02 0.  0.
    9900012    2    3    3    0    0 -0.12857945374E+02  0.16705807766E+01  0.34462468371E+02  0.54367091190E+02  0.40000015985E+02 0.  0.
         12    1    3    3    0    0  0.12857945374E+02 -0.16705807766E+01 -0.34462468371E+02  0.36820908810E+02  0.00000000000E+00 0. -1.
         11    1    4    4    0    0 -0.15562312292E+02  0.39810497500E+01  0.36225396318E+01  0.16466848958E+02  0.51100000000E-03 0. -1.
        -11    1    4    4    0    0 -0.51131706339E+01 -0.33754745277E+01  0.29207741992E+02  0.29843433696E+02  0.51100000000E-03 0.  1.
         12    1    4    4    0    0  0.78175375512E+01  0.10650055544E+01  0.16321867468E+01  0.80568085351E+01  0.00000000000E+00 0. -1.
</event>
<event>
 8    1  0.1247338E-006  0.9118800E+02  0.7816164E-02  0.1184000E+00
        -11   -1    0    0    0    0  0.00000000000E+00  0.00000000000E+00  0.45593999997E+02  0.45594000000E+02  0.51100000000E-03 0. -1.
         11   -1    0    0    0    0 -0.00000000000E+00 -0.00000000000E+00 -0.45593999997E+02  0.45594000000E+02  0.51100000000E-03 0.  1.
         23    2    1    2    0    0 -0.35527136788E-14  0.35527136788E-14  0.44408920985E-15  0.91188000000E+02  0.91188000000E+02 0.  0.
    9900012    2    3    3    0    0 -0.22634007093E+02 -0.28788799754E+02  0.38322856639E+01  0.54367086353E+02  0.40000004960E+02 0.  0.
         12    1    3    3    0    0  0.22634007093E+02  0.28788799754E+02 -0.38322856639E+01  0.36820913647E+02  0.00000000000E+00 0. -1.
         11    1    4    4    0    0 -0.33392110937E+02 -0.23644392550E+02  0.29550303046E-01  0.40915660148E+02  0.51100000000E-03 0. -1.
        -11    1    4    4    0    0  0.86140958149E+01 -0.39030503899E+01  0.70283958768E+00  0.94831657584E+01  0.51100000000E-03 0.  1.
         12    1    4    4    0    0  0.21440080291E+01 -0.12413568139E+01  0.30998957731E+01  0.39682604467E+01  0.00000000000E+00 0. -1.
</event>
<event>
 8    1  0.1247338E-006  0.9118800E+02  0.7816164E-02  0.1184000E+00
        -11   -1    0    0    0    0  0.00000000000E+00  0.00000000000E+00  0.45593999997E+02  0.45594000000E+02  0.51100000000E-03 0. -1.
         11   -1    0    0    0    0 -0.00000000000E+00 -0.00000000000E+00 -0.45593999997E+02  0.45594000000E+02  0.51100000000E-03 0.  1.
         23    2    1    2    0    0  0.00000000000E+00 -0.71054273576E-14 -0.88817841970E-15  0.91188000000E+02  0.91188000000E+02 0.  0.
    9900012    2    3    3    0    0  0.23673870809E+02 -0.27575249048E+02  0.59105069054E+01  0.54367073735E+02  0.39999976193E+02 0.  0.
        -12    1    3    3    0    0 -0.23673870809E+02  0.27575249048E+02 -0.59105069054E+01  0.36820926265E+02  0.00000000000E+00 0.  1.
         11    1    4    4    0    0  0.22887949271E+01  0.48077547180E+01  0.42603148309E+01  0.68193379713E+01  0.51100000000E-03 0. -1.
        -11    1    4    4    0    0  0.21620452183E+02 -0.94324192478E+01  0.56360637713E+01  0.24252416386E+02  0.51100000000E-03 0.  1.
        -12    1    4    4    0    0 -0.23537630094E+00 -0.22950584518E+02 -0.39858716968E+01  0.23295319378E+02  0.00000000000E+00 0.  1.
</event>
<event>
 8    1  0.1247338E-006  0.9118800E+02  0.7816164E-02  0.1184000E+00
        -11   -1    0    0    0    0  0.00000000000E+00  0.00000000000E+00  0.45593999997E+02  0.45594000000E+02  0.51100000000E-03 0.  1.
         11   -1    0    0    0    0 -0.00000000000E+00 -0.00000000000E+00 -0.45593999997E+02  0.45594000000E+02  0.51100000000E-03 0. -1.
         23    2    1    2    0    0  0.35527136788E-14  0.00000000000E+00 -0.17763568394E-14  0.91188000000E+02  0.91188000000E+02 0.  0.
    9900012    2    3    3    0    0 -0.28437528566E+02 -0.23000089193E+02  0.42524561472E+01  0.54367075010E+02  0.39999979100E+02 0.  0.
        -12    1    3    3    0    0  0.28437528566E+02  0.23000089193E+02 -0.42524561472E+01  0.36820924990E+02  0.00000000000E+00 0.  1.
         11    1    4    4    0    0 -0.15810561838E+02 -0.41642946982E+01 -0.11821070139E+02  0.20175552420E+02  0.51100000000E-03 0. -1.
        -11    1    4    4    0    0 -0.15373888414E+02 -0.11459364888E+02  0.17766266975E+02  0.26140270295E+02  0.51100000000E-03 0.  1.
         12    1    4    4    0    0  0.27469216855E+01 -0.73764296061E+01 -0.16927406888E+01  0.80512522951E+01  0.00000000000E+00 0. -1.
</event>
<event>
 8    1  0.1247338E-006  0.9118800E+02  0.7816164E-02  0.1184000E+00
        -11   -1    0    0    0    0  0.00000000000E+00  0.00000000000E+00  0.45593999997E+02  0.45594000000E+02  0.51100000000E-03 0.  1.
         11   -1    0    0    0    0 -0.00000000000E+00 -0.00000000000E+00 -0.45593999997E+02  0.45594000000E+02  0.51100000000E-03 0. -1.
         23    2    1    2    0    0  0.00000000000E+00 -0.17763568394E-14  0.00000000000E+00  0.91188000000E+02  0.91188000000E+02 0.  0.
    9900012    2    3    3    0    0 -0.35944741743E+02 -0.74703648802E+01  0.28195429243E+01  0.54367073441E+02  0.39999975523E+02 0.  0.
        -12    1    3    3    0    0  0.35944741743E+02  0.74703648802E+01 -0.28195429243E+01  0.36820926559E+02  0.00000000000E+00 0.  1.
         11    1    4    4    0    0 -0.34354497813E+01  0.12323347571E+02 -0.49750194978E+01  0.13726544715E+02  0.51100000000E-03 0. -1.
        -11    1    4    4    0    0 -0.10269796924E+02 -0.11278108072E+02 -0.92235763052E+00  0.15281203958E+02  0.51100000000E-03 0.  1.
         12    1    4    4    0    0 -0.22239495037E+02 -0.85156043787E+01  0.87169200526E+01  0.25359324767E+02  0.00000000000E+00 0. -1.
</event>
<event>
 8    1  0.1247338E-006  0.9118800E+02  0.7816164E-02  0.1184000E+00
        -11   -1    0    0    0    0  0.00000000000E+00  0.00000000000E+00  0.45593999997E+02  0.45594000000E+02  0.51100000000E-03 0. -1.
         11   -1    0    0    0    0 -0.00000000000E+00 -0.00000000000E+00 -0.45593999997E+02  0.45594000000E+02  0.51100000000E-03 0.  1.
         23    2    1    2    0    0  0.00000000000E+00  0.00000000000E+00  0.17763568394E-14  0.91188000000E+02  0.91188000000E+02 0.  0.
    9900012    2    3    3    0    0  0.31403273949E+02  0.13792278293E+02  0.13393539923E+02  0.54367089271E+02  0.40000011612E+02 0.  0.
         12    1    3    3    0    0 -0.31403273949E+02 -0.13792278293E+02 -0.13393539923E+02  0.36820910729E+02  0.00000000000E+00 0. -1.
         11    1    4    4    0    0  0.16162918268E+02  0.17553800269E+02 -0.17599958821E+00  0.23862246477E+02  0.51100000000E-03 0. -1.
        -11    1    4    4    0    0  0.19764913409E+02 -0.12042884757E+01  0.49032382279E+01  0.20399604363E+02  0.51100000000E-03 0.  1.
         12    1    4    4    0    0 -0.45245577285E+01 -0.25572335000E+01  0.86663012831E+01  0.10105238431E+02  0.00000000000E+00 0. -1.
</event>
<event>
 8    1  0.1247338E-006  0.9118800E+02  0.7816164E-02  0.1184000E+00
        -11   -1    0    0    0    0  0.00000000000E+00  0.00000000000E+00  0.45593999997E+02  0.45594000000E+02  0.51100000000E-03 0.  1.
         11   -1    0    0    0    0 -0.00000000000E+00 -0.00000000000E+00 -0.45593999997E+02  0.45594000000E+02  0.51100000000E-03 0. -1.
         23    2    1    2    0    0  0.00000000000E+00  0.88817841970E-15  0.71054273576E-14  0.91188000000E+02  0.91188000000E+02 0.  0.
    9900012    2    3    3    0    0  0.18951512987E+02  0.33655826111E+01 -0.31389384144E+02  0.54367076223E+02  0.39999981867E+02 0.  0.
        -12    1    3    3    0    0 -0.18951512987E+02 -0.33655826111E+01  0.31389384144E+02  0.36820923777E+02  0.00000000000E+00 0.  1.
         11    1    4    4    0    0 -0.72247302311E+01 -0.51872977382E+01  0.15191249234E+01  0.90228889792E+01  0.51100000000E-03 0. -1.
        -11    1    4    4    0    0  0.27939626693E+02  0.90243815400E+01 -0.31226294645E+02  0.42861914090E+02  0.51100000000E-03 0.  1.
        -12    1    4    4    0    0 -0.17633834745E+01 -0.47150119064E+00 -0.16822144224E+01  0.24822731546E+01  0.00000000000E+00 0.  1.
</event>
<event>
 8    1  0.1247338E-006  0.9118800E+02  0.7816164E-02  0.1184000E+00
        -11   -1    0    0    0    0  0.00000000000E+00  0.00000000000E+00  0.45593999997E+02  0.45594000000E+02  0.51100000000E-03 0.  1.
         11   -1    0    0    0    0 -0.00000000000E+00 -0.00000000000E+00 -0.45593999997E+02  0.45594000000E+02  0.51100000000E-03 0. -1.
         23    2    1    2    0    0 -0.35527136788E-14  0.17763568394E-14 -0.71054273576E-14  0.91188000000E+02  0.91188000000E+02 0.  0.
    9900012    2    3    3    0    0  0.83721821269E+01 -0.15598158444E+02  0.32286007205E+02  0.54367051592E+02  0.39999925714E+02 0.  0.
         12    1    3    3    0    0 -0.83721821269E+01  0.15598158444E+02 -0.32286007205E+02  0.36820948408E+02  0.00000000000E+00 0. -1.
         11    1    4    4    0    0 -0.40042667430E+01 -0.53826416785E+01 -0.13310977556E+01  0.68395032776E+01  0.51100000000E-03 0. -1.
        -11    1    4    4    0    0 -0.84169510889E+01 -0.71812647236E+01  0.53076512638E+01  0.12271380968E+02  0.51100000000E-03 0.  1.
        -12    1    4    4    0    0  0.20793399959E+02 -0.30342520419E+01  0.28309453697E+02  0.35256167346E+02  0.00000000000E+00 0.  1.
</event>
<event>
 8    1  0.1247338E-006  0.9118800E+02  0.7816164E-02  0.1184000E+00
        -11   -1    0    0    0    0  0.00000000000E+00  0.00000000000E+00  0.45593999997E+02  0.45594000000E+02  0.51100000000E-03 0.  1.
         11   -1    0    0    0    0 -0.00000000000E+00 -0.00000000000E+00 -0.45593999997E+02  0.45594000000E+02  0.51100000000E-03 0. -1.
         23    2    1    2    0    0  0.00000000000E+00 -0.71054273576E-14  0.00000000000E+00  0.91188000000E+02  0.91188000000E+02 0.  0.
    9900012    2    3    3    0    0  0.15596879983E+02  0.32969929880E+02  0.50499248179E+01  0.54367072769E+02  0.39999973992E+02 0.  0.
        -12    1    3    3    0    0 -0.15596879983E+02 -0.32969929880E+02 -0.50499248179E+01  0.36820927231E+02  0.00000000000E+00 0.  1.
         11    1    4    4    0    0 -0.24037125061E+01 -0.42226432235E+01  0.29322111534E+01  0.56750693488E+01  0.51100000000E-03 0. -1.
        -11    1    4    4    0    0  0.85503360900E+01 -0.83772263974E+00  0.39639735935E+01  0.94616654656E+01  0.51100000000E-03 0.  1.
         12    1    4    4    0    0  0.94502563990E+01  0.38030295743E+02 -0.18462599290E+01  0.39230337955E+02  0.00000000000E+00 0. -1.
</event>
<event>
 8    1  0.1247338E-006  0.9118800E+02  0.7816164E-02  0.1184000E+00
        -11   -1    0    0    0    0  0.00000000000E+00  0.00000000000E+00  0.45593999997E+02  0.45594000000E+02  0.51100000000E-03 0.  1.
         11   -1    0    0    0    0 -0.00000000000E+00 -0.00000000000E+00 -0.45593999997E+02  0.45594000000E+02  0.51100000000E-03 0. -1.
         23    2    1    2    0    0  0.00000000000E+00  0.00000000000E+00 -0.22204460493E-15  0.91188000000E+02  0.91188000000E+02 0.  0.
    9900012    2    3    3    0    0  0.29986882718E+02 -0.21342386261E+02  0.10337571395E+01  0.54367092348E+02  0.40000018626E+02 0.  0.
        -12    1    3    3    0    0 -0.29986882718E+02  0.21342386261E+02 -0.10337571395E+01  0.36820907652E+02  0.00000000000E+00 0.  1.
         11    1    4    4    0    0 -0.30223030590E+01 -0.17746893935E+02 -0.72212729878E+01  0.19396735394E+02  0.51100000000E-03 0. -1.
        -11    1    4    4    0    0  0.22395189784E+02  0.24537682619E+00  0.32815582644E+01  0.22635665666E+02  0.51100000000E-03 0.  1.
        -12    1    4    4    0    0  0.10613995993E+02 -0.38408691526E+01  0.49734718629E+01  0.12334691288E+02  0.00000000000E+00 0.  1.
</event>
<event>
 8    1  0.1247338E-006  0.9118800E+02  0.7816164E-02  0.1184000E+00
        -11   -1    0    0    0    0  0.00000000000E+00  0.00000000000E+00  0.45593999997E+02  0.45594000000E+02  0.51100000000E-03 0.  1.
         11   -1    0    0    0    0 -0.00000000000E+00 -0.00000000000E+00 -0.45593999997E+02  0.45594000000E+02  0.51100000000E-03 0. -1.
         23    2    1    2    0    0  0.00000000000E+00  0.00000000000E+00  0.35527136788E-14  0.91188000000E+02  0.91188000000E+02 0.  0.
    9900012    2    3    3    0    0 -0.86248260379E+01  0.33089770579E+02  0.13655063357E+02  0.54367064427E+02  0.39999954975E+02 0.  0.
        -12    1    3    3    0    0  0.86248260379E+01 -0.33089770579E+02 -0.13655063357E+02  0.36820935573E+02  0.00000000000E+00 0.  1.
         11    1    4    4    0    0 -0.42418673705E+01  0.25807272960E+02 -0.63642378973E+01  0.26916766164E+02  0.51100000000E-03 0. -1.
        -11    1    4    4    0    0  0.42368352096E+01 -0.55806138224E+00 -0.15436345925E-01  0.42734580425E+01  0.51100000000E-03 0.  1.
         12    1    4    4    0    0 -0.86197938769E+01  0.78405590011E+01  0.20034737600E+02  0.23176840221E+02  0.00000000000E+00 0. -1.
</event>
<event>
 8    1  0.1247338E-006  0.9118800E+02  0.7816164E-02  0.1184000E+00
        -11   -1    0    0    0    0  0.00000000000E+00  0.00000000000E+00  0.45593999997E+02  0.45594000000E+02  0.51100000000E-03 0.  1.
         11   -1    0    0    0    0 -0.00000000000E+00 -0.00000000000E+00 -0.45593999997E+02  0.45594000000E+02  0.51100000000E-03 0. -1.
         23    2    1    2    0    0  0.00000000000E+00  0.88817841970E-15 -0.88817841970E-15  0.91188000000E+02  0.91188000000E+02 0.  0.
    9900012    2    3    3    0    0 -0.35468761686E+02 -0.75334081237E+01  0.64026813681E+01  0.54367087163E+02  0.40000006805E+02 0.  0.
         12    1    3    3    0    0  0.35468761686E+02  0.75334081237E+01 -0.64026813681E+01  0.36820912837E+02  0.00000000000E+00 0. -1.
         11    1    4    4    0    0 -0.74467786429E+01 -0.36433436197E+01  0.17261615260E+02  0.19149199110E+02  0.51100000000E-03 0. -1.
        -11    1    4    4    0    0 -0.19384643627E+01  0.14150638723E+01  0.40512174284E+01  0.47087591531E+01  0.51100000000E-03 0.  1.
         12    1    4    4    0    0 -0.26083518680E+02 -0.53051283762E+01 -0.14910151321E+02  0.30509128900E+02  0.00000000000E+00 0. -1.
</event>
<event>
 8    1  0.1247338E-006  0.9118800E+02  0.7816164E-02  0.1184000E+00
        -11   -1    0    0    0    0  0.00000000000E+00  0.00000000000E+00  0.45593999997E+02  0.45594000000E+02  0.51100000000E-03 0. -1.
         11   -1    0    0    0    0 -0.00000000000E+00 -0.00000000000E+00 -0.45593999997E+02  0.45594000000E+02  0.51100000000E-03 0.  1.
         23    2    1    2    0    0  0.88817841970E-15  0.00000000000E+00  0.00000000000E+00  0.91188000000E+02  0.91188000000E+02 0.  0.
    9900012    2    3    3    0    0  0.59331174268E+01  0.18401073546E+01  0.36293146760E+02  0.54367076882E+02  0.39999983368E+02 0.  0.
        -12    1    3    3    0    0 -0.59331174268E+01 -0.18401073546E+01 -0.36293146760E+02  0.36820923118E+02  0.00000000000E+00 0.  1.
         11    1    4    4    0    0  0.13472007992E+02  0.26572533763E+00  0.19363013279E+02  0.23590080390E+02  0.51100000000E-03 0. -1.
        -11    1    4    4    0    0  0.35174533792E+01 -0.99817149728E+00 -0.49343120973E+01  0.61413565885E+01  0.51100000000E-03 0.  1.
        -12    1    4    4    0    0 -0.11056343945E+02  0.25725535142E+01  0.21864445578E+02  0.24635639903E+02  0.00000000000E+00 0.  1.
</event>
<event>
 8    1  0.1247338E-006  0.9118800E+02  0.7816164E-02  0.1184000E+00
        -11   -1    0    0    0    0  0.00000000000E+00  0.00000000000E+00  0.45593999997E+02  0.45594000000E+02  0.51100000000E-03 0.  1.
         11   -1    0    0    0    0 -0.00000000000E+00 -0.00000000000E+00 -0.45593999997E+02  0.45594000000E+02  0.51100000000E-03 0. -1.
         23    2    1    2    0    0  0.00000000000E+00 -0.88817841970E-15 -0.71054273576E-14  0.91188000000E+02  0.91188000000E+02 0.  0.
    9900012    2    3    3    0    0 -0.72276260384E+01 -0.11881346517E+00 -0.36104384588E+02  0.54367091791E+02  0.40000017357E+02 0.  0.
        -12    1    3    3    0    0  0.72276260384E+01  0.11881346517E+00  0.36104384588E+02  0.36820908209E+02  0.00000000000E+00 0.  1.
         11    1    4    4    0    0 -0.74932689261E+01 -0.12683952381E+02 -0.33048529035E+02  0.36183380146E+02  0.51100000000E-03 0. -1.
        -11    1    4    4    0    0  0.55081049128E+01  0.58789821407E+01 -0.49814508070E+01  0.94718795994E+01  0.51100000000E-03 0.  1.
         12    1    4    4    0    0 -0.52424620251E+01  0.66861567755E+01  0.19255952531E+01  0.87118320456E+01  0.00000000000E+00 0. -1.
</event>
<event>
 8    1  0.1247338E-006  0.9118800E+02  0.7816164E-02  0.1184000E+00
        -11   -1    0    0    0    0  0.00000000000E+00  0.00000000000E+00  0.45593999997E+02  0.45594000000E+02  0.51100000000E-03 0. -1.
         11   -1    0    0    0    0 -0.00000000000E+00 -0.00000000000E+00 -0.45593999997E+02  0.45594000000E+02  0.51100000000E-03 0.  1.
         23    2    1    2    0    0  0.35527136788E-14  0.00000000000E+00  0.71054273576E-14  0.91188000000E+02  0.91188000000E+02 0.  0.
    9900012    2    3    3    0    0 -0.24043503564E+02  0.12643013325E+02 -0.24856514254E+02  0.54367052831E+02  0.39999928538E+02 0.  0.
         12    1    3    3    0    0  0.24043503564E+02 -0.12643013325E+02  0.24856514254E+02  0.36820947169E+02  0.00000000000E+00 0. -1.
         11    1    4    4    0    0 -0.66101577358E+01  0.74971083160E+01  0.85355811020E+01  0.13143704326E+02  0.51100000000E-03 0. -1.
        -11    1    4    4    0    0  0.28337485490E+00 -0.13590802296E+01  0.11886201941E+01  0.18276264952E+01  0.51100000000E-03 0.  1.
        -12    1    4    4    0    0 -0.17716720684E+02  0.65049852382E+01 -0.34580715550E+02  0.39395722010E+02  0.00000000000E+00 0.  1.
</event>
<event>
 8    1  0.1247338E-006  0.9118800E+02  0.7816164E-02  0.1184000E+00
        -11   -1    0    0    0    0  0.00000000000E+00  0.00000000000E+00  0.45593999997E+02  0.45594000000E+02  0.51100000000E-03 0. -1.
         11   -1    0    0    0    0 -0.00000000000E+00 -0.00000000000E+00 -0.45593999997E+02  0.45594000000E+02  0.51100000000E-03 0.  1.
         23    2    1    2    0    0  0.00000000000E+00  0.00000000000E+00  0.35527136788E-14  0.91188000000E+02  0.91188000000E+02 0.  0.
    9900012    2    3    3    0    0 -0.26778147032E+02  0.17053676579E+02  0.18651609878E+02  0.54367087540E+02  0.40000007665E+02 0.  0.
        -12    1    3    3    0    0  0.26778147032E+02 -0.17053676579E+02 -0.18651609878E+02  0.36820912460E+02  0.00000000000E+00 0.  1.
         11    1    4    4    0    0 -0.22050262972E+02  0.45537475482E+01  0.19086438144E+02  0.29516822918E+02  0.51100000000E-03 0. -1.
        -11    1    4    4    0    0 -0.58301613613E+00  0.56477476083E+01  0.10118382106E+02  0.11602526344E+02  0.51100000000E-03 0.  1.
         12    1    4    4    0    0 -0.41448679244E+01  0.68521814221E+01 -0.10553210372E+02  0.13247738279E+02  0.00000000000E+00 0. -1.
</event>
<event>
 8    1  0.1247338E-006  0.9118800E+02  0.7816164E-02  0.1184000E+00
        -11   -1    0    0    0    0  0.00000000000E+00  0.00000000000E+00  0.45593999997E+02  0.45594000000E+02  0.51100000000E-03 0.  1.
         11   -1    0    0    0    0 -0.00000000000E+00 -0.00000000000E+00 -0.45593999997E+02  0.45594000000E+02  0.51100000000E-03 0. -1.
         23    2    1    2    0    0  0.00000000000E+00 -0.44408920985E-15 -0.17763568394E-14  0.91188000000E+02  0.91188000000E+02 0.  0.
    9900012    2    3    3    0    0 -0.33798241094E+02 -0.17857205595E+01  0.14500667980E+02  0.54367091934E+02  0.40000017681E+02 0.  0.
        -12    1    3    3    0    0  0.33798241094E+02  0.17857205595E+01 -0.14500667980E+02  0.36820908066E+02  0.00000000000E+00 0.  1.
         11    1    4    4    0    0 -0.59098904540E+01 -0.59300052191E+00 -0.13338947404E+01  0.60875060769E+01  0.51100000000E-03 0. -1.
        -11    1    4    4    0    0 -0.16578803946E+01  0.58601332160E+01 -0.94026618254E+01  0.11202668360E+02  0.51100000000E-03 0.  1.
        -12    1    4    4    0    0 -0.26230470245E+02 -0.70528532536E+01  0.25237224546E+02  0.37076917497E+02  0.00000000000E+00 0.  1.
</event>
<event>
 8    1  0.1247338E-006  0.9118800E+02  0.7816164E-02  0.1184000E+00
        -11   -1    0    0    0    0  0.00000000000E+00  0.00000000000E+00  0.45593999997E+02  0.45594000000E+02  0.51100000000E-03 0. -1.
         11   -1    0    0    0    0 -0.00000000000E+00 -0.00000000000E+00 -0.45593999997E+02  0.45594000000E+02  0.51100000000E-03 0.  1.
         23    2    1    2    0    0  0.35527136788E-14 -0.35527136788E-14  0.00000000000E+00  0.91188000000E+02  0.91188000000E+02 0.  0.
    9900012    2    3    3    0    0  0.22240441364E+02  0.26036706357E+02 -0.13536334920E+02  0.54367086472E+02  0.40000005229E+02 0.  0.
         12    1    3    3    0    0 -0.22240441364E+02 -0.26036706357E+02  0.13536334920E+02  0.36820913528E+02  0.00000000000E+00 0. -1.
         11    1    4    4    0    0  0.59333072684E+00 -0.68227562070E+00 -0.15762323929E+02  0.15788236040E+02  0.51100000000E-03 0. -1.
        -11    1    4    4    0    0  0.24384540981E+01  0.78661764934E+01  0.75155818563E+01  0.11149294234E+02  0.51100000000E-03 0.  1.
        -12    1    4    4    0    0  0.19208656539E+02  0.18852805485E+02 -0.52895928472E+01  0.27429556197E+02  0.00000000000E+00 0.  1.
</event>
<event>
 8    1  0.1247338E-006  0.9118800E+02  0.7816164E-02  0.1184000E+00
        -11   -1    0    0    0    0  0.00000000000E+00  0.00000000000E+00  0.45593999997E+02  0.45594000000E+02  0.51100000000E-03 0. -1.
         11   -1    0    0    0    0 -0.00000000000E+00 -0.00000000000E+00 -0.45593999997E+02  0.45594000000E+02  0.51100000000E-03 0.  1.
         23    2    1    2    0    0  0.00000000000E+00  0.00000000000E+00  0.17763568394E-14  0.91188000000E+02  0.91188000000E+02 0.  0.
    9900012    2    3    3    0    0 -0.29905896624E+02  0.18906011888E+02 -0.10197047789E+02  0.54367085807E+02  0.40000003715E+02 0.  0.
         12    1    3    3    0    0  0.29905896624E+02 -0.18906011888E+02  0.10197047789E+02  0.36820914193E+02  0.00000000000E+00 0. -1.
         11    1    4    4    0    0 -0.17807475442E+02  0.28434165602E+02  0.43909178252E+00  0.33552954519E+02  0.51100000000E-03 0. -1.
        -11    1    4    4    0    0 -0.59588633892E+01 -0.96864205149E+01 -0.48072783083E+01  0.12346850622E+02  0.51100000000E-03 0.  1.
         12    1    4    4    0    0 -0.61395577927E+01  0.15826680099E+00 -0.58288612629E+01  0.84672806670E+01  0.00000000000E+00 0. -1.
</event>
<event>
 8    1  0.1247338E-006  0.9118800E+02  0.7816164E-02  0.1184000E+00
        -11   -1    0    0    0    0  0.00000000000E+00  0.00000000000E+00  0.45593999997E+02  0.45594000000E+02  0.51100000000E-03 0.  1.
         11   -1    0    0    0    0 -0.00000000000E+00 -0.00000000000E+00 -0.45593999997E+02  0.45594000000E+02  0.51100000000E-03 0. -1.
         23    2    1    2    0    0  0.00000000000E+00  0.88817841970E-15  0.35527136788E-14  0.91188000000E+02  0.91188000000E+02 0.  0.
    9900012    2    3    3    0    0 -0.21346500753E+02 -0.42300785412E+01 -0.29702239603E+02  0.54366950364E+02  0.39999694943E+02 0.  0.
        -12    1    3    3    0    0  0.21346500753E+02  0.42300785412E+01  0.29702239603E+02  0.36821049636E+02  0.00000000000E+00 0.  1.
         11    1    4    4    0    0 -0.46331068017E+01 -0.10512106414E+02 -0.17436431405E+02  0.20880593868E+02  0.51100000000E-03 0. -1.
        -11    1    4    4    0    0 -0.15341877899E+02  0.14115974618E+02 -0.26622222024E+01  0.21017168796E+02  0.51100000000E-03 0.  1.
        -12    1    4    4    0    0 -0.13715160525E+01 -0.78339467458E+01 -0.96035859961E+01  0.12469187699E+02  0.00000000000E+00 0.  1.
</event>
<event>
 8    1  0.1247338E-006  0.9118800E+02  0.7816164E-02  0.1184000E+00
        -11   -1    0    0    0    0  0.00000000000E+00  0.00000000000E+00  0.45593999997E+02  0.45594000000E+02  0.51100000000E-03 0.  1.
         11   -1    0    0    0    0 -0.00000000000E+00 -0.00000000000E+00 -0.45593999997E+02  0.45594000000E+02  0.51100000000E-03 0. -1.
         23    2    1    2    0    0  0.00000000000E+00  0.35527136788E-14  0.00000000000E+00  0.91188000000E+02  0.91188000000E+02 0.  0.
    9900012    2    3    3    0    0 -0.16963300387E+02 -0.14436901968E+02 -0.29318983797E+02  0.54367075116E+02  0.39999979341E+02 0.  0.
        -12    1    3    3    0    0  0.16963300387E+02  0.14436901968E+02  0.29318983797E+02  0.36820924884E+02  0.00000000000E+00 0.  1.
         11    1    4    4    0    0  0.41955070317E+01 -0.21064475518E+02 -0.15193513068E+02  0.26308881536E+02  0.51100000000E-03 0. -1.
        -11    1    4    4    0    0 -0.67207823525E+01 -0.23880658624E+01 -0.30953584713E+01  0.77751539097E+01  0.51100000000E-03 0.  1.
         12    1    4    4    0    0 -0.14438025067E+02  0.90156394121E+01 -0.11030112258E+02  0.20283039670E+02  0.00000000000E+00 0. -1.
</event>
<event>
 8    1  0.1247338E-006  0.9118800E+02  0.7816164E-02  0.1184000E+00
        -11   -1    0    0    0    0  0.00000000000E+00  0.00000000000E+00  0.45593999997E+02  0.45594000000E+02  0.51100000000E-03 0. -1.
         11   -1    0    0    0    0 -0.00000000000E+00 -0.00000000000E+00 -0.45593999997E+02  0.45594000000E+02  0.51100000000E-03 0.  1.
         23    2    1    2    0    0  0.00000000000E+00 -0.17763568394E-14  0.00000000000E+00  0.91188000000E+02  0.91188000000E+02 0.  0.
    9900012    2    3    3    0    0 -0.64179957942E+01 -0.14741905045E+02 -0.33124984874E+02  0.54367094833E+02  0.40000024292E+02 0.  0.
         12    1    3    3    0    0  0.64179957942E+01  0.14741905045E+02  0.33124984874E+02  0.36820905167E+02  0.00000000000E+00 0. -1.
         11    1    4    4    0    0  0.26086982871E+01  0.72933500900E+01 -0.11848977952E+02  0.14156148525E+02  0.51100000000E-03 0. -1.
        -11    1    4    4    0    0  0.41135067783E+01  0.33655880691E+01 -0.18033391396E+01  0.56124997443E+01  0.51100000000E-03 0.  1.
         12    1    4    4    0    0 -0.13140200860E+02 -0.25400843204E+02 -0.19472667783E+02  0.34598446564E+02  0.00000000000E+00 0. -1.
</event>
<event>
 8    1  0.1247338E-006  0.9118800E+02  0.7816164E-02  0.1184000E+00
        -11   -1    0    0    0    0  0.00000000000E+00  0.00000000000E+00  0.45593999997E+02  0.45594000000E+02  0.51100000000E-03 0.  1.
         11   -1    0    0    0    0 -0.00000000000E+00 -0.00000000000E+00 -0.45593999997E+02  0.45594000000E+02  0.51100000000E-03 0. -1.
         23    2    1    2    0    0 -0.35527136788E-14  0.00000000000E+00  0.35527136788E-14  0.91188000000E+02  0.91188000000E+02 0.  0.
    9900012    2    3    3    0    0 -0.21328256026E+02  0.20544503355E+02 -0.21881686825E+02  0.54367090974E+02  0.40000015493E+02 0.  0.
        -12    1    3    3    0    0  0.21328256026E+02 -0.20544503355E+02  0.21881686825E+02  0.36820909026E+02  0.00000000000E+00 0.  1.
         11    1    4    4    0    0 -0.10590895943E+02  0.43357821917E+01 -0.55135551385E+01  0.12702967158E+02  0.51100000000E-03 0. -1.
        -11    1    4    4    0    0 -0.17299344638E+02  0.69550701452E+01  0.33230964150E+01  0.18938935970E+02  0.51100000000E-03 0.  1.
         12    1    4    4    0    0  0.65619845558E+01  0.92536510178E+01 -0.19691228102E+02  0.22725187846E+02  0.00000000000E+00 0. -1.
</event>
<event>
 8    1  0.1247338E-006  0.9118800E+02  0.7816164E-02  0.1184000E+00
        -11   -1    0    0    0    0  0.00000000000E+00  0.00000000000E+00  0.45593999997E+02  0.45594000000E+02  0.51100000000E-03 0. -1.
         11   -1    0    0    0    0 -0.00000000000E+00 -0.00000000000E+00 -0.45593999997E+02  0.45594000000E+02  0.51100000000E-03 0.  1.
         23    2    1    2    0    0 -0.35527136788E-14 -0.88817841970E-15  0.00000000000E+00  0.91188000000E+02  0.91188000000E+02 0.  0.
    9900012    2    3    3    0    0  0.30350072236E+02  0.79492874077E+01 -0.19273377701E+02  0.54367066510E+02  0.39999959724E+02 0.  0.
         12    1    3    3    0    0 -0.30350072236E+02 -0.79492874077E+01  0.19273377701E+02  0.36820933490E+02  0.00000000000E+00 0. -1.
         11    1    4    4    0    0 -0.36635171929E+01 -0.50336606649E+01 -0.10553950234E+02  0.12253365404E+02  0.51100000000E-03 0. -1.
        -11    1    4    4    0    0  0.20416460775E+02  0.12103017777E+02 -0.13936541888E+02  0.27523482882E+02  0.51100000000E-03 0.  1.
        -12    1    4    4    0    0  0.13597128654E+02  0.87993029574E+00  0.52171144211E+01  0.14590218225E+02  0.00000000000E+00 0.  1.
</event>
<event>
 8    1  0.1247338E-006  0.9118800E+02  0.7816164E-02  0.1184000E+00
        -11   -1    0    0    0    0  0.00000000000E+00  0.00000000000E+00  0.45593999997E+02  0.45594000000E+02  0.51100000000E-03 0. -1.
         11   -1    0    0    0    0 -0.00000000000E+00 -0.00000000000E+00 -0.45593999997E+02  0.45594000000E+02  0.51100000000E-03 0.  1.
         23    2    1    2    0    0  0.00000000000E+00  0.54123372450E-15  0.00000000000E+00  0.91188000000E+02  0.91188000000E+02 0.  0.
    9900012    2    3    3    0    0 -0.25866888832E+02 -0.87306123710E-01  0.26204495185E+02  0.54367093872E+02  0.40000022099E+02 0.  0.
        -12    1    3    3    0    0  0.25866888832E+02  0.87306123710E-01 -0.26204495185E+02  0.36820906128E+02  0.00000000000E+00 0.  1.
         11    1    4    4    0    0 -0.99539063545E+01  0.13657139038E+02  0.20577015737E+02  0.26627265637E+02  0.51100000000E-03 0. -1.
        -11    1    4    4    0    0 -0.34952256638E+01 -0.18171510135E+01  0.93305566066E+01  0.10128076179E+02  0.51100000000E-03 0.  1.
        -12    1    4    4    0    0 -0.12417756814E+02 -0.11927294149E+02 -0.37030771584E+01  0.17611752055E+02  0.00000000000E+00 0.  1.
</event>
<event>
 8    1  0.1247338E-006  0.9118800E+02  0.7816164E-02  0.1184000E+00
        -11   -1    0    0    0    0  0.00000000000E+00  0.00000000000E+00  0.45593999997E+02  0.45594000000E+02  0.51100000000E-03 0.  1.
         11   -1    0    0    0    0 -0.00000000000E+00 -0.00000000000E+00 -0.45593999997E+02  0.45594000000E+02  0.51100000000E-03 0. -1.
         23    2    1    2    0    0  0.17763568394E-14  0.44408920985E-15  0.00000000000E+00  0.91188000000E+02  0.91188000000E+02 0.  0.
    9900012    2    3    3    0    0 -0.10501176047E+02 -0.38421548640E+01 -0.35081896805E+02  0.54367131789E+02  0.40000108539E+02 0.  0.
        -12    1    3    3    0    0  0.10501176047E+02  0.38421548640E+01  0.35081896805E+02  0.36820868211E+02  0.00000000000E+00 0.  1.
         11    1    4    4    0    0 -0.40793364135E+01 -0.17159139517E+01 -0.16424194969E+02  0.17009983155E+02  0.51100000000E-03 0. -1.
        -11    1    4    4    0    0 -0.54501921332E+01 -0.16508937425E+02 -0.13625627268E+02  0.22088624400E+02  0.51100000000E-03 0.  1.
         12    1    4    4    0    0 -0.97164750003E+00  0.14382696512E+02 -0.50320745684E+01  0.15268524234E+02  0.00000000000E+00 0. -1.
</event>
<event>
 8    1  0.1247338E-006  0.9118800E+02  0.7816164E-02  0.1184000E+00
        -11   -1    0    0    0    0  0.00000000000E+00  0.00000000000E+00  0.45593999997E+02  0.45594000000E+02  0.51100000000E-03 0.  1.
         11   -1    0    0    0    0 -0.00000000000E+00 -0.00000000000E+00 -0.45593999997E+02  0.45594000000E+02  0.51100000000E-03 0. -1.
         23    2    1    2    0    0  0.00000000000E+00  0.17763568394E-14  0.00000000000E+00  0.91188000000E+02  0.91188000000E+02 0.  0.
    9900012    2    3    3    0    0  0.32318021755E+02 -0.11267120850E+02  0.13578588146E+02  0.54367073906E+02  0.39999976584E+02 0.  0.
        -12    1    3    3    0    0 -0.32318021755E+02  0.11267120850E+02 -0.13578588146E+02  0.36820926094E+02  0.00000000000E+00 0.  1.
         11    1    4    4    0    0  0.18320423040E+02  0.61844397115E+01  0.16555493178E+02  0.25455246012E+02  0.51100000000E-03 0. -1.
        -11    1    4    4    0    0  0.36151313573E+01 -0.12288573988E+02  0.60987142702E+01  0.14187055417E+02  0.51100000000E-03 0.  1.
         12    1    4    4    0    0  0.10382467357E+02 -0.51629865728E+01 -0.90756193022E+01  0.14724772477E+02  0.00000000000E+00 0. -1.
</event>
<event>
 8    1  0.1247338E-006  0.9118800E+02  0.7816164E-02  0.1184000E+00
        -11   -1    0    0    0    0  0.00000000000E+00  0.00000000000E+00  0.45593999997E+02  0.45594000000E+02  0.51100000000E-03 0.  1.
         11   -1    0    0    0    0 -0.00000000000E+00 -0.00000000000E+00 -0.45593999997E+02  0.45594000000E+02  0.51100000000E-03 0. -1.
         23    2    1    2    0    0  0.88817841970E-15 -0.44408920985E-15  0.71054273576E-14  0.91188000000E+02  0.91188000000E+02 0.  0.
    9900012    2    3    3    0    0  0.50269091082E+01 -0.34213275114E+01  0.36315355707E+02  0.54367077181E+02  0.39999984049E+02 0.  0.
         12    1    3    3    0    0 -0.50269091082E+01  0.34213275114E+01 -0.36315355707E+02  0.36820922819E+02  0.00000000000E+00 0. -1.
         11    1    4    4    0    0 -0.12423581841E-01 -0.93833794237E+00 -0.46246467557E+01  0.47188971504E+01  0.51100000000E-03 0. -1.
        -11    1    4    4    0    0 -0.10491554737E+02  0.37501513947E+01  0.13454983808E+02  0.17469199919E+02  0.51100000000E-03 0.  1.
        -12    1    4    4    0    0  0.15530887427E+02 -0.62331409638E+01  0.27485018655E+02  0.32178980111E+02  0.00000000000E+00 0.  1.
</event>
<event>
 8    1  0.1247338E-006  0.9118800E+02  0.7816164E-02  0.1184000E+00
        -11   -1    0    0    0    0  0.00000000000E+00  0.00000000000E+00  0.45593999997E+02  0.45594000000E+02  0.51100000000E-03 0. -1.
         11   -1    0    0    0    0 -0.00000000000E+00 -0.00000000000E+00 -0.45593999997E+02  0.45594000000E+02  0.51100000000E-03 0.  1.
         23    2    1    2    0    0  0.17763568394E-14 -0.22204460493E-15  0.00000000000E+00  0.91188000000E+02  0.91188000000E+02 0.  0.
    9900012    2    3    3    0    0 -0.88442180374E+01  0.11142624984E+01 -0.35725582409E+02  0.54367095447E+02  0.40000025691E+02 0.  0.
         12    1    3    3    0    0  0.88442180374E+01 -0.11142624984E+01  0.35725582409E+02  0.36820904553E+02  0.00000000000E+00 0. -1.
         11    1    4    4    0    0 -0.76082695686E+01  0.12197552903E+02 -0.70747096921E+01  0.16022408687E+02  0.51100000000E-03 0. -1.
        -11    1    4    4    0    0  0.43882301582E+01  0.58968335284E+01 -0.60379970826E+01  0.95124454592E+01  0.51100000000E-03 0.  1.
        -12    1    4    4    0    0 -0.56241786269E+01 -0.16980123933E+02 -0.22612875634E+02  0.28832241301E+02  0.00000000000E+00 0.  1.
</event>
<event>
 8    1  0.1247338E-006  0.9118800E+02  0.7816164E-02  0.1184000E+00
        -11   -1    0    0    0    0  0.00000000000E+00  0.00000000000E+00  0.45593999997E+02  0.45594000000E+02  0.51100000000E-03 0. -1.
         11   -1    0    0    0    0 -0.00000000000E+00 -0.00000000000E+00 -0.45593999997E+02  0.45594000000E+02  0.51100000000E-03 0.  1.
         23    2    1    2    0    0 -0.17763568394E-14  0.00000000000E+00 -0.35527136788E-14  0.91188000000E+02  0.91188000000E+02 0.  0.
    9900012    2    3    3    0    0 -0.62531454327E+01  0.30635288234E+02  0.19446276396E+02  0.54367076890E+02  0.39999983386E+02 0.  0.
         12    1    3    3    0    0  0.62531454327E+01 -0.30635288234E+02 -0.19446276396E+02  0.36820923110E+02  0.00000000000E+00 0. -1.
         11    1    4    4    0    0 -0.53942009108E+00  0.57346987601E+01  0.15812042815E+02  0.16828500889E+02  0.51100000000E-03 0. -1.
        -11    1    4    4    0    0 -0.16324000922E+02  0.12662214861E+02 -0.10241023955E+01  0.20684619340E+02  0.51100000000E-03 0.  1.
        -12    1    4    4    0    0  0.10610275580E+02  0.12238374613E+02  0.46583359763E+01  0.16853956661E+02  0.00000000000E+00 0.  1.
</event>
<event>
 8    1  0.1247338E-006  0.9118800E+02  0.7816164E-02  0.1184000E+00
        -11   -1    0    0    0    0  0.00000000000E+00  0.00000000000E+00  0.45593999997E+02  0.45594000000E+02  0.51100000000E-03 0.  1.
         11   -1    0    0    0    0 -0.00000000000E+00 -0.00000000000E+00 -0.45593999997E+02  0.45594000000E+02  0.51100000000E-03 0. -1.
         23    2    1    2    0    0  0.00000000000E+00  0.00000000000E+00  0.35527136788E-14  0.91188000000E+02  0.91188000000E+02 0.  0.
    9900012    2    3    3    0    0 -0.96792757075E+01  0.31801478734E+02 -0.15835326191E+02  0.54367082257E+02  0.39999995621E+02 0.  0.
         12    1    3    3    0    0  0.96792757075E+01 -0.31801478734E+02  0.15835326191E+02  0.36820917743E+02  0.00000000000E+00 0. -1.
         11    1    4    4    0    0 -0.14729082155E+02  0.18168724312E+02  0.30551469910E+01  0.23587758004E+02  0.51100000000E-03 0.  1.
        -11    1    4    4    0    0  0.76185722904E+01  0.93019131004E+00 -0.15634590958E+02  0.17416897953E+02  0.51100000000E-03 0. -1.
         12    1    4    4    0    0 -0.25687658432E+01  0.12702563112E+02 -0.32558822239E+01  0.13362426300E+02  0.00000000000E+00 0. -1.
</event>
<event>
 8    1  0.1247338E-006  0.9118800E+02  0.7816164E-02  0.1184000E+00
        -11   -1    0    0    0    0  0.00000000000E+00  0.00000000000E+00  0.45593999997E+02  0.45594000000E+02  0.51100000000E-03 0.  1.
         11   -1    0    0    0    0 -0.00000000000E+00 -0.00000000000E+00 -0.45593999997E+02  0.45594000000E+02  0.51100000000E-03 0. -1.
         23    2    1    2    0    0  0.00000000000E+00 -0.35527136788E-14  0.00000000000E+00  0.91188000000E+02  0.91188000000E+02 0.  0.
    9900012    2    3    3    0    0  0.15281794510E+02 -0.24403731984E+02 -0.22950049081E+02  0.54367080253E+02  0.39999991053E+02 0.  0.
        -12    1    3    3    0    0 -0.15281794510E+02  0.24403731984E+02  0.22950049081E+02  0.36820919747E+02  0.00000000000E+00 0.  1.
         11    1    4    4    0    0 -0.80404385411E+01 -0.12724076910E+02 -0.11112296328E+02  0.18709193331E+02  0.51100000000E-03 0. -1.
        -11    1    4    4    0    0  0.59318684070E+01 -0.11353769149E+02  0.25783276645E+01  0.13066863070E+02  0.51100000000E-03 0.  1.
         12    1    4    4    0    0  0.17390364645E+02 -0.32588592451E+00 -0.14416080417E+02  0.22591023853E+02  0.00000000000E+00 0. -1.
</event>
<event>
 8    1  0.1247338E-006  0.9118800E+02  0.7816164E-02  0.1184000E+00
        -11   -1    0    0    0    0  0.00000000000E+00  0.00000000000E+00  0.45593999997E+02  0.45594000000E+02  0.51100000000E-03 0.  1.
         11   -1    0    0    0    0 -0.00000000000E+00 -0.00000000000E+00 -0.45593999997E+02  0.45594000000E+02  0.51100000000E-03 0. -1.
         23    2    1    2    0    0  0.00000000000E+00 -0.55511151231E-16  0.35527136788E-14  0.91188000000E+02  0.91188000000E+02 0.  0.
    9900012    2    3    3    0    0 -0.23162576487E+02  0.31756610651E+00  0.28621225489E+02  0.54367077331E+02  0.39999984391E+02 0.  0.
         12    1    3    3    0    0  0.23162576487E+02 -0.31756610651E+00 -0.28621225489E+02  0.36820922669E+02  0.00000000000E+00 0. -1.
         11    1    4    4    0    0  0.73092266935E+01 -0.82386590279E+00  0.12479410898E+02  0.14485829162E+02  0.51100000000E-03 0. -1.
        -11    1    4    4    0    0 -0.31640954588E+02  0.51673751063E+01  0.15600172113E+02  0.35654132200E+02  0.51100000000E-03 0.  1.
         12    1    4    4    0    0  0.11691514079E+01 -0.40259430970E+01  0.54164247779E+00  0.42271159682E+01  0.00000000000E+00 0. -1.
</event>
<event>
 8    1  0.1247338E-006  0.9118800E+02  0.7816164E-02  0.1184000E+00
        -11   -1    0    0    0    0  0.00000000000E+00  0.00000000000E+00  0.45593999997E+02  0.45594000000E+02  0.51100000000E-03 0. -1.
         11   -1    0    0    0    0 -0.00000000000E+00 -0.00000000000E+00 -0.45593999997E+02  0.45594000000E+02  0.51100000000E-03 0.  1.
         23    2    1    2    0    0  0.00000000000E+00  0.17763568394E-14  0.00000000000E+00  0.91188000000E+02  0.91188000000E+02 0.  0.
    9900012    2    3    3    0    0  0.11848793502E+02  0.15237114229E+02 -0.31356244544E+02  0.54367114224E+02  0.40000068495E+02 0.  0.
         12    1    3    3    0    0 -0.11848793502E+02 -0.15237114229E+02  0.31356244544E+02  0.36820885776E+02  0.00000000000E+00 0. -1.
         11    1    4    4    0    0 -0.80734482816E+01 -0.24482229561E+01 -0.46321291343E+01  0.96244991234E+01  0.51100000000E-03 0. -1.
        -11    1    4    4    0    0  0.69405184855E+01  0.65081360032E+01 -0.25899940219E+02  0.27592273098E+02  0.51100000000E-03 0.  1.
         12    1    4    4    0    0  0.12981723298E+02  0.11177201182E+02 -0.82417519005E+00  0.17150342002E+02  0.00000000000E+00 0. -1.
</event>
<event>
 8    1  0.1247338E-006  0.9118800E+02  0.7816164E-02  0.1184000E+00
        -11   -1    0    0    0    0  0.00000000000E+00  0.00000000000E+00  0.45593999997E+02  0.45594000000E+02  0.51100000000E-03 0.  1.
         11   -1    0    0    0    0 -0.00000000000E+00 -0.00000000000E+00 -0.45593999997E+02  0.45594000000E+02  0.51100000000E-03 0. -1.
         23    2    1    2    0    0  0.00000000000E+00  0.00000000000E+00  0.00000000000E+00  0.91188000000E+02  0.91188000000E+02 0.  0.
    9900012    2    3    3    0    0 -0.48325804346E+01  0.21373819852E+02 -0.29590263800E+02  0.54367112986E+02  0.40000065675E+02 0.  0.
        -12    1    3    3    0    0  0.48325804346E+01 -0.21373819852E+02  0.29590263800E+02  0.36820887014E+02  0.00000000000E+00 0.  1.
         11    1    4    4    0    0  0.43622745672E+01  0.24267881642E+02 -0.26542784388E+02  0.36228150962E+02  0.51100000000E-03 0. -1.
        -11    1    4    4    0    0  0.27598666307E+01  0.74277573082E+00 -0.47341274586E+01  0.55299676907E+01  0.51100000000E-03 0.  1.
        -12    1    4    4    0    0 -0.11954721633E+02 -0.36368375212E+01  0.16866480467E+01  0.12608994333E+02  0.00000000000E+00 0.  1.
</event>
<event>
 8    1  0.1247338E-006  0.9118800E+02  0.7816164E-02  0.1184000E+00
        -11   -1    0    0    0    0  0.00000000000E+00  0.00000000000E+00  0.45593999997E+02  0.45594000000E+02  0.51100000000E-03 0. -1.
         11   -1    0    0    0    0 -0.00000000000E+00 -0.00000000000E+00 -0.45593999997E+02  0.45594000000E+02  0.51100000000E-03 0.  1.
         23    2    1    2    0    0  0.00000000000E+00  0.00000000000E+00  0.00000000000E+00  0.91188000000E+02  0.91188000000E+02 0.  0.
    9900012    2    3    3    0    0 -0.86338046163E+01 -0.35617266231E+02  0.35563774628E+01  0.54367081264E+02  0.39999993357E+02 0.  0.
        -12    1    3    3    0    0  0.86338046163E+01  0.35617266231E+02 -0.35563774628E+01  0.36820918736E+02  0.00000000000E+00 0.  1.
         11    1    4    4    0    0  0.71478899777E+01  0.22518529957E+01  0.46875471247E+01  0.88394723460E+01  0.51100000000E-03 0. -1.
        -11    1    4    4    0    0 -0.66395518259E+01 -0.40816828769E+00 -0.20358110111E+01  0.69566354320E+01  0.51100000000E-03 0.  1.
         12    1    4    4    0    0 -0.91421427681E+01 -0.37460950939E+02  0.90464134914E+00  0.38570973486E+02  0.00000000000E+00 0. -1.
</event>
<event>
 8    1  0.1247338E-006  0.9118800E+02  0.7816164E-02  0.1184000E+00
        -11   -1    0    0    0    0  0.00000000000E+00  0.00000000000E+00  0.45593999997E+02  0.45594000000E+02  0.51100000000E-03 0. -1.
         11   -1    0    0    0    0 -0.00000000000E+00 -0.00000000000E+00 -0.45593999997E+02  0.45594000000E+02  0.51100000000E-03 0.  1.
         23    2    1    2    0    0 -0.35527136788E-14  0.00000000000E+00  0.00000000000E+00  0.91188000000E+02  0.91188000000E+02 0.  0.
    9900012    2    3    3    0    0 -0.29671930481E+02 -0.18602895619E+02  0.11370578703E+02  0.54367065141E+02  0.39999956601E+02 0.  0.
        -12    1    3    3    0    0  0.29671930481E+02  0.18602895619E+02 -0.11370578703E+02  0.36820934859E+02  0.00000000000E+00 0.  1.
         11    1    4    4    0    0 -0.22212086695E+02 -0.11802312796E+02  0.14168902414E+02  0.28869173499E+02  0.51100000000E-03 0. -1.
        -11    1    4    4    0    0 -0.10940259199E+02 -0.13714131153E+02 -0.11278279605E+01  0.17579495465E+02  0.51100000000E-03 0.  1.
         12    1    4    4    0    0  0.34804154125E+01  0.69135483302E+01 -0.16704957505E+01  0.79183961766E+01  0.00000000000E+00 0. -1.
</event>
<event>
 8    1  0.1247338E-006  0.9118800E+02  0.7816164E-02  0.1184000E+00
        -11   -1    0    0    0    0  0.00000000000E+00  0.00000000000E+00  0.45593999997E+02  0.45594000000E+02  0.51100000000E-03 0.  1.
         11   -1    0    0    0    0 -0.00000000000E+00 -0.00000000000E+00 -0.45593999997E+02  0.45594000000E+02  0.51100000000E-03 0. -1.
         23    2    1    2    0    0 -0.17763568394E-14  0.00000000000E+00  0.00000000000E+00  0.91188000000E+02  0.91188000000E+02 0.  0.
    9900012    2    3    3    0    0 -0.45098571906E+01 -0.19093861477E+02 -0.31158731377E+02  0.54367069824E+02  0.39999967279E+02 0.  0.
        -12    1    3    3    0    0  0.45098571906E+01  0.19093861477E+02  0.31158731377E+02  0.36820930176E+02  0.00000000000E+00 0.  1.
         11    1    4    4    0    0 -0.49404507777E+01 -0.11759109486E+02 -0.11490474540E+02  0.17167286192E+02  0.51100000000E-03 0. -1.
        -11    1    4    4    0    0 -0.11683295122E+02 -0.14499403027E+01  0.17469119793E+01  0.11901823958E+02  0.51100000000E-03 0.  1.
        -12    1    4    4    0    0  0.12113888710E+02 -0.58848116884E+01 -0.21415168816E+02  0.25297959674E+02  0.00000000000E+00 0.  1.
</event>
<event>
 8    1  0.1247338E-006  0.9118800E+02  0.7816164E-02  0.1184000E+00
        -11   -1    0    0    0    0  0.00000000000E+00  0.00000000000E+00  0.45593999997E+02  0.45594000000E+02  0.51100000000E-03 0. -1.
         11   -1    0    0    0    0 -0.00000000000E+00 -0.00000000000E+00 -0.45593999997E+02  0.45594000000E+02  0.51100000000E-03 0.  1.
         23    2    1    2    0    0  0.00000000000E+00  0.00000000000E+00  0.00000000000E+00  0.91188000000E+02  0.91188000000E+02 0.  0.
    9900012    2    3    3    0    0 -0.10932136742E+02 -0.53271093402E+01  0.34754733545E+02  0.54367065582E+02  0.39999957607E+02 0.  0.
        -12    1    3    3    0    0  0.10932136742E+02  0.53271093402E+01 -0.34754733545E+02  0.36820934418E+02  0.00000000000E+00 0.  1.
         11    1    4    4    0    0  0.77894028013E+01  0.87933907944E+01  0.16531819859E+01  0.11863032016E+02  0.51100000000E-03 0. -1.
        -11    1    4    4    0    0 -0.14630433028E+02 -0.33842729563E+01  0.21005176784E+02  0.25820928062E+02  0.51100000000E-03 0.  1.
         12    1    4    4    0    0 -0.40911065146E+01 -0.10736227178E+02  0.12096374775E+02  0.16683105504E+02  0.00000000000E+00 0. -1.
</event>
<event>
 8    1  0.1247338E-006  0.9118800E+02  0.7816164E-02  0.1184000E+00
        -11   -1    0    0    0    0  0.00000000000E+00  0.00000000000E+00  0.45593999997E+02  0.45594000000E+02  0.51100000000E-03 0. -1.
         11   -1    0    0    0    0 -0.00000000000E+00 -0.00000000000E+00 -0.45593999997E+02  0.45594000000E+02  0.51100000000E-03 0.  1.
         23    2    1    2    0    0  0.00000000000E+00  0.00000000000E+00  0.35527136788E-14  0.91188000000E+02  0.91188000000E+02 0.  0.
    9900012    2    3    3    0    0  0.32722927488E+02  0.36890332186E+01  0.16473758795E+02  0.54367032083E+02  0.39999881240E+02 0.  0.
         12    1    3    3    0    0 -0.32722927488E+02 -0.36890332186E+01 -0.16473758795E+02  0.36820967917E+02  0.00000000000E+00 0. -1.
         11    1    4    4    0    0  0.79629607154E+01  0.40740237969E+01  0.28996579189E+01  0.94028947437E+01  0.51100000000E-03 0. -1.
        -11    1    4    4    0    0  0.16805577256E+02 -0.32584494760E+01 -0.10064595867E+02  0.19858021305E+02  0.51100000000E-03 0.  1.
        -12    1    4    4    0    0  0.79543895169E+01  0.28734588977E+01  0.23638696744E+02  0.25106116035E+02  0.00000000000E+00 0.  1.
</event>
<event>
 8    1  0.1247338E-006  0.9118800E+02  0.7816164E-02  0.1184000E+00
        -11   -1    0    0    0    0  0.00000000000E+00  0.00000000000E+00  0.45593999997E+02  0.45594000000E+02  0.51100000000E-03 0. -1.
         11   -1    0    0    0    0 -0.00000000000E+00 -0.00000000000E+00 -0.45593999997E+02  0.45594000000E+02  0.51100000000E-03 0.  1.
         23    2    1    2    0    0  0.35527136788E-14  0.35527136788E-14  0.00000000000E+00  0.91188000000E+02  0.91188000000E+02 0.  0.
    9900012    2    3    3    0    0  0.25475619457E+02  0.21453371328E+02 -0.15701208440E+02  0.54367051145E+02  0.39999924696E+02 0.  0.
         12    1    3    3    0    0 -0.25475619457E+02 -0.21453371328E+02  0.15701208440E+02  0.36820948855E+02  0.00000000000E+00 0. -1.
         11    1    4    4    0    0  0.53911782819E+01 -0.46783421747E+01 -0.82045403317E+01  0.10875025107E+02  0.51100000000E-03 0. -1.
        -11    1    4    4    0    0 -0.27522404062E+01  0.18523130583E+02 -0.23063557452E+01  0.18867974744E+02  0.51100000000E-03 0.  1.
        -12    1    4    4    0    0  0.22836681581E+02  0.76085829200E+01 -0.51903123635E+01  0.24624051294E+02  0.00000000000E+00 0.  1.
</event>
<event>
 8    1  0.1247338E-006  0.9118800E+02  0.7816164E-02  0.1184000E+00
        -11   -1    0    0    0    0  0.00000000000E+00  0.00000000000E+00  0.45593999997E+02  0.45594000000E+02  0.51100000000E-03 0. -1.
         11   -1    0    0    0    0 -0.00000000000E+00 -0.00000000000E+00 -0.45593999997E+02  0.45594000000E+02  0.51100000000E-03 0.  1.
         23    2    1    2    0    0  0.00000000000E+00 -0.44408920985E-15 -0.35527136788E-14  0.91188000000E+02  0.91188000000E+02 0.  0.
    9900012    2    3    3    0    0 -0.21392013800E+02 -0.35611441082E+01  0.29757007705E+02  0.54367088695E+02  0.40000010298E+02 0.  0.
        -12    1    3    3    0    0  0.21392013800E+02  0.35611441082E+01 -0.29757007705E+02  0.36820911305E+02  0.00000000000E+00 0.  1.
         11    1    4    4    0    0 -0.71308278560E+01  0.68076468324E+01  0.21496246066E+01  0.10090274898E+02  0.51100000000E-03 0. -1.
        -11    1    4    4    0    0 -0.27464114427E+01  0.37909931287E+01 -0.50373398433E+01  0.68767141625E+01  0.51100000000E-03 0.  1.
         12    1    4    4    0    0 -0.11514774501E+02 -0.14159784069E+02  0.32644722942E+02  0.37400099634E+02  0.00000000000E+00 0. -1.
</event>
<event>
 8    1  0.1247338E-006  0.9118800E+02  0.7816164E-02  0.1184000E+00
        -11   -1    0    0    0    0  0.00000000000E+00  0.00000000000E+00  0.45593999997E+02  0.45594000000E+02  0.51100000000E-03 0.  1.
         11   -1    0    0    0    0 -0.00000000000E+00 -0.00000000000E+00 -0.45593999997E+02  0.45594000000E+02  0.51100000000E-03 0. -1.
         23    2    1    2    0    0  0.00000000000E+00  0.00000000000E+00  0.17763568394E-14  0.91188000000E+02  0.91188000000E+02 0.  0.
    9900012    2    3    3    0    0  0.33062325475E+02  0.26734858929E+01 -0.15984863652E+02  0.54367071731E+02  0.39999971626E+02 0.  0.
        -12    1    3    3    0    0 -0.33062325475E+02 -0.26734858929E+01  0.15984863652E+02  0.36820928269E+02  0.00000000000E+00 0.  1.
         11    1    4    4    0    0  0.91841529599E+01  0.85443779816E+01 -0.13643766317E+02  0.18533953174E+02  0.51100000000E-03 0. -1.
        -11    1    4    4    0    0  0.22505703414E+02 -0.90004393253E+01 -0.10930207908E+02  0.26589171469E+02  0.51100000000E-03 0.  1.
         12    1    4    4    0    0  0.13724691006E+01  0.31295472366E+01  0.85891105734E+01  0.92439470888E+01  0.00000000000E+00 0. -1.
</event>
<event>
 8    1  0.1247338E-006  0.9118800E+02  0.7816164E-02  0.1184000E+00
        -11   -1    0    0    0    0  0.00000000000E+00  0.00000000000E+00  0.45593999997E+02  0.45594000000E+02  0.51100000000E-03 0.  1.
         11   -1    0    0    0    0 -0.00000000000E+00 -0.00000000000E+00 -0.45593999997E+02  0.45594000000E+02  0.51100000000E-03 0. -1.
         23    2    1    2    0    0  0.00000000000E+00 -0.35527136788E-14  0.35527136788E-14  0.91188000000E+02  0.91188000000E+02 0.  0.
    9900012    2    3    3    0    0 -0.11936572366E+02 -0.25664998764E+02  0.23550196981E+02  0.54367004641E+02  0.39999818679E+02 0.  0.
         12    1    3    3    0    0  0.11936572366E+02  0.25664998764E+02 -0.23550196981E+02  0.36820995359E+02  0.00000000000E+00 0. -1.
         11    1    4    4    0    0  0.54409384121E+01 -0.44700868389E+01  0.32898520791E+01  0.77722978658E+01  0.51100000000E-03 0. -1.
        -11    1    4    4    0    0  0.55770764968E+01 -0.17924622583E+02  0.92024810060E+01  0.20906495018E+02  0.51100000000E-03 0.  1.
        -12    1    4    4    0    0 -0.22954587275E+02 -0.32702893415E+01  0.11057863896E+02  0.25688211757E+02  0.00000000000E+00 0.  1.
</event>
<event>
 8    1  0.1247338E-006  0.9118800E+02  0.7816164E-02  0.1184000E+00
        -11   -1    0    0    0    0  0.00000000000E+00  0.00000000000E+00  0.45593999997E+02  0.45594000000E+02  0.51100000000E-03 0.  1.
         11   -1    0    0    0    0 -0.00000000000E+00 -0.00000000000E+00 -0.45593999997E+02  0.45594000000E+02  0.51100000000E-03 0. -1.
         23    2    1    2    0    0  0.00000000000E+00 -0.17763568394E-14  0.00000000000E+00  0.91188000000E+02  0.91188000000E+02 0.  0.
    9900012    2    3    3    0    0  0.33640417522E+02 -0.86321643174E+01 -0.12230627589E+02  0.54367079275E+02  0.39999988823E+02 0.  0.
        -12    1    3    3    0    0 -0.33640417522E+02  0.86321643174E+01  0.12230627589E+02  0.36820920725E+02  0.00000000000E+00 0.  1.
         11    1    4    4    0    0  0.19488690115E+02 -0.75310838498E+01 -0.88511939529E+01  0.22690744832E+02  0.51100000000E-03 0. -1.
        -11    1    4    4    0    0  0.64051143515E+00 -0.10561910355E+02 -0.93642480971E+01  0.14129874307E+02  0.51100000000E-03 0.  1.
        -12    1    4    4    0    0  0.13511215971E+02  0.94608298875E+01  0.59848144611E+01  0.17546460136E+02  0.00000000000E+00 0.  1.
</event>
<event>
 8    1  0.1247338E-006  0.9118800E+02  0.7816164E-02  0.1184000E+00
        -11   -1    0    0    0    0  0.00000000000E+00  0.00000000000E+00  0.45593999997E+02  0.45594000000E+02  0.51100000000E-03 0.  1.
         11   -1    0    0    0    0 -0.00000000000E+00 -0.00000000000E+00 -0.45593999997E+02  0.45594000000E+02  0.51100000000E-03 0. -1.
         23    2    1    2    0    0  0.00000000000E+00  0.00000000000E+00  0.00000000000E+00  0.91188000000E+02  0.91188000000E+02 0.  0.
    9900012    2    3    3    0    0  0.23186848895E+02 -0.14154174795E+02  0.24855635903E+02  0.54367173530E+02  0.40000203695E+02 0.  0.
         12    1    3    3    0    0 -0.23186848895E+02  0.14154174795E+02 -0.24855635903E+02  0.36820826470E+02  0.00000000000E+00 0. -1.
         11    1    4    4    0    0  0.20254015269E+02  0.98404053928E+01  0.56440768165E+01  0.23214528127E+02  0.51100000000E-03 0. -1.
        -11    1    4    4    0    0 -0.57428323312E+00 -0.14520380798E+01  0.21852406699E+01  0.26857946428E+01  0.51100000000E-03 0.  1.
         12    1    4    4    0    0  0.35071168596E+01 -0.22542542108E+02  0.17026318417E+02  0.28466850760E+02  0.00000000000E+00 0. -1.
</event>
<event>
 8    1  0.1247338E-006  0.9118800E+02  0.7816164E-02  0.1184000E+00
        -11   -1    0    0    0    0  0.00000000000E+00  0.00000000000E+00  0.45593999997E+02  0.45594000000E+02  0.51100000000E-03 0.  1.
         11   -1    0    0    0    0 -0.00000000000E+00 -0.00000000000E+00 -0.45593999997E+02  0.45594000000E+02  0.51100000000E-03 0. -1.
         23    2    1    2    0    0  0.35527136788E-14  0.00000000000E+00  0.88817841970E-15  0.91188000000E+02  0.91188000000E+02 0.  0.
    9900012    2    3    3    0    0 -0.17537772491E+02  0.32013260632E+02 -0.48329999470E+01  0.54367079198E+02  0.39999988648E+02 0.  0.
        -12    1    3    3    0    0  0.17537772491E+02 -0.32013260632E+02  0.48329999470E+01  0.36820920802E+02  0.00000000000E+00 0.  1.
         11    1    4    4    0    0 -0.11258976764E+02  0.21135786160E+02 -0.16879869312E+01  0.24006984703E+02  0.51100000000E-03 0. -1.
        -11    1    4    4    0    0 -0.75127678970E-01  0.13925619905E+02  0.88614301743E+01  0.16506164876E+02  0.51100000000E-03 0.  1.
         12    1    4    4    0    0 -0.62036680475E+01 -0.30481454338E+01 -0.12006443190E+02  0.13853929620E+02  0.00000000000E+00 0. -1.
</event>
<event>
 8    1  0.1247338E-006  0.9118800E+02  0.7816164E-02  0.1184000E+00
        -11   -1    0    0    0    0  0.00000000000E+00  0.00000000000E+00  0.45593999997E+02  0.45594000000E+02  0.51100000000E-03 0. -1.
         11   -1    0    0    0    0 -0.00000000000E+00 -0.00000000000E+00 -0.45593999997E+02  0.45594000000E+02  0.51100000000E-03 0.  1.
         23    2    1    2    0    0  0.00000000000E+00  0.00000000000E+00  0.00000000000E+00  0.91188000000E+02  0.91188000000E+02 0.  0.
    9900012    2    3    3    0    0  0.21809763298E+02 -0.19368966120E+02  0.22471193216E+02  0.54367120757E+02  0.40000083390E+02 0.  0.
        -12    1    3    3    0    0 -0.21809763298E+02  0.19368966120E+02 -0.22471193216E+02  0.36820879243E+02  0.00000000000E+00 0.  1.
         11    1    4    4    0    0  0.14113173449E+02  0.20069905969E+01 -0.33056466510E+00  0.14258995383E+02  0.51100000000E-03 0. -1.
        -11    1    4    4    0    0 -0.22202516734E+01  0.45669108204E+01  0.22329190757E+01  0.55472623694E+01  0.51100000000E-03 0.  1.
        -12    1    4    4    0    0  0.99168415220E+01 -0.25942867537E+02  0.20568838805E+02  0.34560863005E+02  0.00000000000E+00 0.  1.
</event>
<event>
 8    1  0.1247338E-006  0.9118800E+02  0.7816164E-02  0.1184000E+00
        -11   -1    0    0    0    0  0.00000000000E+00  0.00000000000E+00  0.45593999997E+02  0.45594000000E+02  0.51100000000E-03 0. -1.
         11   -1    0    0    0    0 -0.00000000000E+00 -0.00000000000E+00 -0.45593999997E+02  0.45594000000E+02  0.51100000000E-03 0.  1.
         23    2    1    2    0    0  0.00000000000E+00  0.17763568394E-14  0.00000000000E+00  0.91188000000E+02  0.91188000000E+02 0.  0.
    9900012    2    3    3    0    0 -0.52461644884E+01  0.11121786402E+02  0.34706823212E+02  0.54367082683E+02  0.39999996592E+02 0.  0.
        -12    1    3    3    0    0  0.52461644884E+01 -0.11121786402E+02 -0.34706823212E+02  0.36820917317E+02  0.00000000000E+00 0.  1.
         11    1    4    4    0    0  0.82071790928E+00 -0.64046229272E+00  0.43097315164E+01  0.44336842287E+01  0.51100000000E-03 0. -1.
        -11    1    4    4    0    0 -0.60828653958E+01 -0.12056722061E+02  0.33899572495E+01  0.13923275789E+02  0.51100000000E-03 0.  1.
        -12    1    4    4    0    0  0.15982998074E-01  0.23818970756E+02  0.27007134446E+02  0.36010122665E+02  0.00000000000E+00 0.  1.
</event>
<event>
 8    1  0.1247338E-006  0.9118800E+02  0.7816164E-02  0.1184000E+00
        -11   -1    0    0    0    0  0.00000000000E+00  0.00000000000E+00  0.45593999997E+02  0.45594000000E+02  0.51100000000E-03 0. -1.
         11   -1    0    0    0    0 -0.00000000000E+00 -0.00000000000E+00 -0.45593999997E+02  0.45594000000E+02  0.51100000000E-03 0.  1.
         23    2    1    2    0    0  0.00000000000E+00  0.35527136788E-14  0.00000000000E+00  0.91188000000E+02  0.91188000000E+02 0.  0.
    9900012    2    3    3    0    0  0.13305940938E+02 -0.31528995535E+02 -0.13588747387E+02  0.54367086388E+02  0.40000005039E+02 0.  0.
        -12    1    3    3    0    0 -0.13305940938E+02  0.31528995535E+02  0.13588747387E+02  0.36820913612E+02  0.00000000000E+00 0.  1.
         11    1    4    4    0    0  0.18397592439E+02 -0.63801304921E+01 -0.16753407359E+02  0.25687626029E+02  0.51100000000E-03 0. -1.
        -11    1    4    4    0    0  0.20829959850E+00  0.13131939769E+01 -0.54718597787E+00  0.14378038458E+01  0.51100000000E-03 0.  1.
         12    1    4    4    0    0 -0.52999510992E+01 -0.26462059019E+02  0.37118459501E+01  0.27241656513E+02  0.00000000000E+00 0. -1.
</event>
<event>
 8    1  0.1247338E-006  0.9118800E+02  0.7816164E-02  0.1184000E+00
        -11   -1    0    0    0    0  0.00000000000E+00  0.00000000000E+00  0.45593999997E+02  0.45594000000E+02  0.51100000000E-03 0. -1.
         11   -1    0    0    0    0 -0.00000000000E+00 -0.00000000000E+00 -0.45593999997E+02  0.45594000000E+02  0.51100000000E-03 0.  1.
         23    2    1    2    0    0 -0.35527136788E-14  0.00000000000E+00  0.00000000000E+00  0.91188000000E+02  0.91188000000E+02 0.  0.
    9900012    2    3    3    0    0  0.28225131632E+02  0.20407521828E+02  0.11943777145E+02  0.54367098119E+02  0.40000031782E+02 0.  0.
        -12    1    3    3    0    0 -0.28225131632E+02 -0.20407521828E+02 -0.11943777145E+02  0.36820901881E+02  0.00000000000E+00 0.  1.
         11    1    4    4    0    0  0.75259661151E+01  0.97172419330E+01  0.94023527713E+01  0.15474792233E+02  0.51100000000E-03 0. -1.
        -11    1    4    4    0    0  0.19515158623E+01  0.12334967066E+02 -0.10234033377E+02  0.16146060389E+02  0.51100000000E-03 0.  1.
        -12    1    4    4    0    0  0.18747649655E+02 -0.16446871706E+01  0.12775457751E+02  0.22746245497E+02  0.00000000000E+00 0.  1.
</event>
<event>
 8    1  0.1247338E-006  0.9118800E+02  0.7816164E-02  0.1184000E+00
        -11   -1    0    0    0    0  0.00000000000E+00  0.00000000000E+00  0.45593999997E+02  0.45594000000E+02  0.51100000000E-03 0.  1.
         11   -1    0    0    0    0 -0.00000000000E+00 -0.00000000000E+00 -0.45593999997E+02  0.45594000000E+02  0.51100000000E-03 0. -1.
         23    2    1    2    0    0 -0.44408920985E-15 -0.35527136788E-14  0.00000000000E+00  0.91188000000E+02  0.91188000000E+02 0.  0.
    9900012    2    3    3    0    0 -0.72809670767E+00 -0.26290510427E+02  0.25769324378E+02  0.54367093680E+02  0.40000021662E+02 0.  0.
         12    1    3    3    0    0  0.72809670767E+00  0.26290510427E+02 -0.25769324378E+02  0.36820906320E+02  0.00000000000E+00 0. -1.
         11    1    4    4    0    0  0.11033458277E+02 -0.37954803348E+01  0.31958682946E+01  0.12097786861E+02  0.51100000000E-03 0. -1.
        -11    1    4    4    0    0 -0.28108864734E+01 -0.78352097226E+01 -0.50536090335E+01  0.97380983097E+01  0.51100000000E-03 0.  1.
        -12    1    4    4    0    0 -0.89506685114E+01 -0.14659820370E+02  0.27627065117E+02  0.32531208509E+02  0.00000000000E+00 0.  1.
</event>
<event>
 8    1  0.1247338E-006  0.9118800E+02  0.7816164E-02  0.1184000E+00
        -11   -1    0    0    0    0  0.00000000000E+00  0.00000000000E+00  0.45593999997E+02  0.45594000000E+02  0.51100000000E-03 0.  1.
         11   -1    0    0    0    0 -0.00000000000E+00 -0.00000000000E+00 -0.45593999997E+02  0.45594000000E+02  0.51100000000E-03 0. -1.
         23    2    1    2    0    0  0.00000000000E+00  0.00000000000E+00  0.35527136788E-14  0.91188000000E+02  0.91188000000E+02 0.  0.
    9900012    2    3    3    0    0  0.33979479615E+02  0.40905450729E+00  0.14177696441E+02  0.54367089679E+02  0.40000012542E+02 0.  0.
         12    1    3    3    0    0 -0.33979479615E+02 -0.40905450729E+00 -0.14177696441E+02  0.36820910321E+02  0.00000000000E+00 0. -1.
         11    1    4    4    0    0 -0.16337372610E+01  0.33185836257E+01  0.13200810481E+02  0.13709248424E+02  0.51100000000E-03 0. -1.
        -11    1    4    4    0    0 -0.14738711507E+01 -0.34890246477E+00  0.30703045091E+01  0.34235652672E+01  0.51100000000E-03 0.  1.
        -12    1    4    4    0    0  0.37087088027E+02 -0.25606266537E+01 -0.20934185499E+01  0.37234275988E+02  0.00000000000E+00 0.  1.
</event>
<event>
 8    1  0.1247338E-006  0.9118800E+02  0.7816164E-02  0.1184000E+00
        -11   -1    0    0    0    0  0.00000000000E+00  0.00000000000E+00  0.45593999997E+02  0.45594000000E+02  0.51100000000E-03 0.  1.
         11   -1    0    0    0    0 -0.00000000000E+00 -0.00000000000E+00 -0.45593999997E+02  0.45594000000E+02  0.51100000000E-03 0. -1.
         23    2    1    2    0    0  0.00000000000E+00  0.00000000000E+00  0.00000000000E+00  0.91188000000E+02  0.91188000000E+02 0.  0.
    9900012    2    3    3    0    0 -0.40638217890E+01 -0.25554374273E+02 -0.26196431829E+02  0.54366895554E+02  0.39999569993E+02 0.  0.
        -12    1    3    3    0    0  0.40638217890E+01  0.25554374273E+02  0.26196431829E+02  0.36821104446E+02  0.00000000000E+00 0.  1.
         11    1    4    4    0    0 -0.19374295085E+01 -0.24576469656E+02 -0.28053970718E+02  0.37346777199E+02  0.51100000000E-03 0. -1.
        -11    1    4    4    0    0 -0.76115654959E+00  0.18268381280E+01  0.90059012347E+01  0.92207892368E+01  0.51100000000E-03 0.  1.
        -12    1    4    4    0    0 -0.13652357310E+01 -0.28047427450E+01 -0.71483623456E+01  0.77993291180E+01  0.00000000000E+00 0.  1.
</event>
<event>
 8    1  0.1247338E-006  0.9118800E+02  0.7816164E-02  0.1184000E+00
        -11   -1    0    0    0    0  0.00000000000E+00  0.00000000000E+00  0.45593999997E+02  0.45594000000E+02  0.51100000000E-03 0.  1.
         11   -1    0    0    0    0 -0.00000000000E+00 -0.00000000000E+00 -0.45593999997E+02  0.45594000000E+02  0.51100000000E-03 0. -1.
         23    2    1    2    0    0  0.00000000000E+00  0.00000000000E+00 -0.17763568394E-14  0.91188000000E+02  0.91188000000E+02 0.  0.
    9900012    2    3    3    0    0 -0.28034885999E+02  0.18192145999E+02 -0.15455618302E+02  0.54367012152E+02  0.39999835801E+02 0.  0.
        -12    1    3    3    0    0  0.28034885999E+02 -0.18192145999E+02  0.15455618302E+02  0.36820987848E+02  0.00000000000E+00 0.  1.
         11    1    4    4    0    0 -0.98050108801E+01  0.41381015687E+01 -0.15282339286E+02  0.18622889606E+02  0.51100000000E-03 0. -1.
        -11    1    4    4    0    0 -0.14475839026E+02  0.18088865341E+02  0.91535537304E+01  0.24910730840E+02  0.51100000000E-03 0.  1.
        -12    1    4    4    0    0 -0.37540360930E+01 -0.40348209105E+01 -0.93268327465E+01  0.10833391706E+02  0.00000000000E+00 0.  1.
</event>
<event>
 8    1  0.1247338E-006  0.9118800E+02  0.7816164E-02  0.1184000E+00
        -11   -1    0    0    0    0  0.00000000000E+00  0.00000000000E+00  0.45593999997E+02  0.45594000000E+02  0.51100000000E-03 0.  1.
         11   -1    0    0    0    0 -0.00000000000E+00 -0.00000000000E+00 -0.45593999997E+02  0.45594000000E+02  0.51100000000E-03 0. -1.
         23    2    1    2    0    0  0.88817841970E-15  0.17763568394E-14 -0.71054273576E-14  0.91188000000E+02  0.91188000000E+02 0.  0.
    9900012    2    3    3    0    0 -0.47287534939E+01 -0.85021832897E+01  0.35512367673E+02  0.54367129722E+02  0.40000103827E+02 0.  0.
         12    1    3    3    0    0  0.47287534939E+01  0.85021832897E+01 -0.35512367673E+02  0.36820870278E+02  0.00000000000E+00 0. -1.
         11    1    4    4    0    0  0.87100137420E+00 -0.23892382839E+01 -0.32783962252E+01  0.41490944846E+01  0.51100000000E-03 0. -1.
        -11    1    4    4    0    0 -0.14070959016E+02  0.22632234806E+01  0.62441934936E+01  0.15559692182E+02  0.51100000000E-03 0.  1.
        -12    1    4    4    0    0  0.84712041478E+01 -0.83761684863E+01  0.32546570405E+02  0.34658343055E+02  0.00000000000E+00 0.  1.
</event>
<event>
 8    1  0.1247338E-006  0.9118800E+02  0.7816164E-02  0.1184000E+00
        -11   -1    0    0    0    0  0.00000000000E+00  0.00000000000E+00  0.45593999997E+02  0.45594000000E+02  0.51100000000E-03 0.  1.
         11   -1    0    0    0    0 -0.00000000000E+00 -0.00000000000E+00 -0.45593999997E+02  0.45594000000E+02  0.51100000000E-03 0. -1.
         23    2    1    2    0    0  0.00000000000E+00  0.00000000000E+00  0.00000000000E+00  0.91188000000E+02  0.91188000000E+02 0.  0.
    9900012    2    3    3    0    0  0.28602943837E+02 -0.26957781404E+01 -0.23030218680E+02  0.54366992567E+02  0.39999791154E+02 0.  0.
        -12    1    3    3    0    0 -0.28602943837E+02  0.26957781404E+01  0.23030218680E+02  0.36821007433E+02  0.00000000000E+00 0.  1.
         11    1    4    4    0    0  0.25314609077E+01  0.24606205806E+01  0.38685515165E+01  0.52372358230E+01  0.51100000000E-03 0.  1.
        -11    1    4    4    0    0  0.30960875526E+02 -0.91125478061E+01 -0.14825169634E+02  0.35516193430E+02  0.51100000000E-03 0. -1.
        -12    1    4    4    0    0 -0.48893925963E+01  0.39561490851E+01 -0.12073600563E+02  0.13613563314E+02  0.00000000000E+00 0.  1.
</event>
<event>
 8    1  0.1247338E-006  0.9118800E+02  0.7816164E-02  0.1184000E+00
        -11   -1    0    0    0    0  0.00000000000E+00  0.00000000000E+00  0.45593999997E+02  0.45594000000E+02  0.51100000000E-03 0.  1.
         11   -1    0    0    0    0 -0.00000000000E+00 -0.00000000000E+00 -0.45593999997E+02  0.45594000000E+02  0.51100000000E-03 0. -1.
         23    2    1    2    0    0  0.00000000000E+00  0.00000000000E+00  0.00000000000E+00  0.91188000000E+02  0.91188000000E+02 0.  0.
    9900012    2    3    3    0    0 -0.14672445583E+02  0.26043972888E+02 -0.21499056774E+02  0.54367100699E+02  0.40000037663E+02 0.  0.
        -12    1    3    3    0    0  0.14672445583E+02 -0.26043972888E+02  0.21499056774E+02  0.36820899301E+02  0.00000000000E+00 0.  1.
         11    1    4    4    0    0  0.66873149807E+01  0.21664362288E+01 -0.11621156289E+02  0.13581785646E+02  0.51100000000E-03 0.  1.
        -11    1    4    4    0    0 -0.20605172789E+02  0.24763191205E+02 -0.14181530905E+01  0.32245929088E+02  0.51100000000E-03 0. -1.
        -12    1    4    4    0    0 -0.75458777422E+00 -0.88565454502E+00 -0.84597473941E+01  0.85393859647E+01  0.00000000000E+00 0.  1.
</event>
<event>
 8    1  0.1247338E-006  0.9118800E+02  0.7816164E-02  0.1184000E+00
        -11   -1    0    0    0    0  0.00000000000E+00  0.00000000000E+00  0.45593999997E+02  0.45594000000E+02  0.51100000000E-03 0. -1.
         11   -1    0    0    0    0 -0.00000000000E+00 -0.00000000000E+00 -0.45593999997E+02  0.45594000000E+02  0.51100000000E-03 0.  1.
         23    2    1    2    0    0  0.00000000000E+00  0.00000000000E+00 -0.88817841970E-15  0.91188000000E+02  0.91188000000E+02 0.  0.
    9900012    2    3    3    0    0  0.75240505447E+01  0.35661839588E+02  0.52346944795E+01  0.54367079782E+02  0.39999989978E+02 0.  0.
        -12    1    3    3    0    0 -0.75240505447E+01 -0.35661839588E+02 -0.52346944795E+01  0.36820920218E+02  0.00000000000E+00 0.  1.
         11    1    4    4    0    0  0.75122821135E+01  0.35818108875E+01 -0.10190898958E+02  0.13157437958E+02  0.51100000000E-03 0. -1.
        -11    1    4    4    0    0  0.66913893468E+00 -0.15276416113E+01 -0.25836229537E+01  0.30751493678E+01  0.51100000000E-03 0.  1.
        -12    1    4    4    0    0 -0.65737050348E+00  0.33607670312E+02  0.18009216392E+02  0.38134492456E+02  0.00000000000E+00 0.  1.
</event>
<event>
 8    1  0.1247338E-006  0.9118800E+02  0.7816164E-02  0.1184000E+00
        -11   -1    0    0    0    0  0.00000000000E+00  0.00000000000E+00  0.45593999997E+02  0.45594000000E+02  0.51100000000E-03 0. -1.
         11   -1    0    0    0    0 -0.00000000000E+00 -0.00000000000E+00 -0.45593999997E+02  0.45594000000E+02  0.51100000000E-03 0.  1.
         23    2    1    2    0    0 -0.17763568394E-14  0.00000000000E+00  0.00000000000E+00  0.91188000000E+02  0.91188000000E+02 0.  0.
    9900012    2    3    3    0    0  0.14132348479E+02 -0.19846882643E+02 -0.27607200395E+02  0.54367088308E+02  0.40000009417E+02 0.  0.
         12    1    3    3    0    0 -0.14132348479E+02  0.19846882643E+02  0.27607200395E+02  0.36820911692E+02  0.00000000000E+00 0. -1.
         11    1    4    4    0    0 -0.19955198080E+01 -0.39763858397E+01  0.68584209502E+01  0.81750646384E+01  0.51100000000E-03 0. -1.
        -11    1    4    4    0    0 -0.82701812488E+00  0.16647218718E+01  0.17336636358E+01  0.25418197719E+01  0.51100000000E-03 0.  1.
        -12    1    4    4    0    0  0.16954886411E+02 -0.17535218675E+02 -0.36199284981E+02  0.43650203898E+02  0.00000000000E+00 0.  1.
</event>
<event>
 8    1  0.1247338E-006  0.9118800E+02  0.7816164E-02  0.1184000E+00
        -11   -1    0    0    0    0  0.00000000000E+00  0.00000000000E+00  0.45593999997E+02  0.45594000000E+02  0.51100000000E-03 0.  1.
         11   -1    0    0    0    0 -0.00000000000E+00 -0.00000000000E+00 -0.45593999997E+02  0.45594000000E+02  0.51100000000E-03 0. -1.
         23    2    1    2    0    0  0.17763568394E-14 -0.17763568394E-14  0.71054273576E-14  0.91188000000E+02  0.91188000000E+02 0.  0.
    9900012    2    3    3    0    0  0.11299403031E+02 -0.12956870728E+02  0.32561036717E+02  0.54367107561E+02  0.40000053307E+02 0.  0.
         12    1    3    3    0    0 -0.11299403031E+02  0.12956870728E+02 -0.32561036717E+02  0.36820892439E+02  0.00000000000E+00 0. -1.
         11    1    4    4    0    0  0.40783500454E+01 -0.17200717868E+02  0.18732858424E+01  0.17776581066E+02  0.51100000000E-03 0. -1.
        -11    1    4    4    0    0 -0.33893585551E+01 -0.42446630853E+00 -0.37399771055E+00  0.34362476061E+01  0.51100000000E-03 0.  1.
        -12    1    4    4    0    0  0.10610411541E+02  0.46683134490E+01  0.31061748585E+02  0.33154278889E+02  0.00000000000E+00 0.  1.
</event>
<event>
 8    1  0.1247338E-006  0.9118800E+02  0.7816164E-02  0.1184000E+00
        -11   -1    0    0    0    0  0.00000000000E+00  0.00000000000E+00  0.45593999997E+02  0.45594000000E+02  0.51100000000E-03 0.  1.
         11   -1    0    0    0    0 -0.00000000000E+00 -0.00000000000E+00 -0.45593999997E+02  0.45594000000E+02  0.51100000000E-03 0. -1.
         23    2    1    2    0    0  0.00000000000E+00  0.26645352591E-14  0.00000000000E+00  0.91188000000E+02  0.91188000000E+02 0.  0.
    9900012    2    3    3    0    0 -0.10221629070E+02 -0.61517883840E+01  0.34834545501E+02  0.54367193906E+02  0.40000250146E+02 0.  0.
         12    1    3    3    0    0  0.10221629070E+02  0.61517883840E+01 -0.34834545501E+02  0.36820806094E+02  0.00000000000E+00 0. -1.
         11    1    4    4    0    0  0.30746219641E+01 -0.65026669668E+00 -0.20098257878E+01  0.37303548032E+01  0.51100000000E-03 0. -1.
        -11    1    4    4    0    0  0.85577736694E+01  0.55822023414E+01  0.10184002279E+02  0.14426031188E+02  0.51100000000E-03 0.  1.
        -12    1    4    4    0    0 -0.21854024704E+02 -0.11083724029E+02  0.26660369009E+02  0.36210807914E+02  0.00000000000E+00 0.  1.
</event>
<event>
 8    1  0.1247338E-006  0.9118800E+02  0.7816164E-02  0.1184000E+00
        -11   -1    0    0    0    0  0.00000000000E+00  0.00000000000E+00  0.45593999997E+02  0.45594000000E+02  0.51100000000E-03 0.  1.
         11   -1    0    0    0    0 -0.00000000000E+00 -0.00000000000E+00 -0.45593999997E+02  0.45594000000E+02  0.51100000000E-03 0. -1.
         23    2    1    2    0    0  0.00000000000E+00  0.17763568394E-14 -0.17763568394E-14  0.91188000000E+02  0.91188000000E+02 0.  0.
    9900012    2    3    3    0    0  0.32533964622E+02  0.11106243057E+02  0.13189878107E+02  0.54367076962E+02  0.39999983551E+02 0.  0.
         12    1    3    3    0    0 -0.32533964622E+02 -0.11106243057E+02 -0.13189878107E+02  0.36820923038E+02  0.00000000000E+00 0. -1.
         11    1    4    4    0    0  0.66315608251E+01  0.66762803161E+01  0.15688746386E+02  0.18294454932E+02  0.51100000000E-03 0.  1.
        -11    1    4    4    0    0 -0.33708051439E+01 -0.37075955663E+01  0.19272500246E+01  0.53686949178E+01  0.51100000000E-03 0. -1.
        -12    1    4    4    0    0  0.29273208941E+02  0.81375583072E+01 -0.44261183029E+01  0.30703927113E+02  0.00000000000E+00 0.  1.
</event>
<event>
 8    1  0.1247338E-006  0.9118800E+02  0.7816164E-02  0.1184000E+00
        -11   -1    0    0    0    0  0.00000000000E+00  0.00000000000E+00  0.45593999997E+02  0.45594000000E+02  0.51100000000E-03 0.  1.
         11   -1    0    0    0    0 -0.00000000000E+00 -0.00000000000E+00 -0.45593999997E+02  0.45594000000E+02  0.51100000000E-03 0. -1.
         23    2    1    2    0    0  0.00000000000E+00 -0.35527136788E-14 -0.11102230246E-15  0.91188000000E+02  0.91188000000E+02 0.  0.
    9900012    2    3    3    0    0  0.26493348414E+02  0.25565787586E+02  0.52195254550E+00  0.54367089643E+02  0.40000012459E+02 0.  0.
         12    1    3    3    0    0 -0.26493348414E+02 -0.25565787586E+02 -0.52195254550E+00  0.36820910357E+02  0.00000000000E+00 0. -1.
         11    1    4    4    0    0  0.61438856229E+01  0.33053901906E+01 -0.88980331896E+01  0.11306985883E+02  0.51100000000E-03 0. -1.
        -11    1    4    4    0    0  0.23729446091E+02  0.47779819494E+01  0.50910315383E+01  0.24735285033E+02  0.51100000000E-03 0.  1.
        -12    1    4    4    0    0 -0.33799833000E+01  0.17482415446E+02  0.43289541968E+01  0.18324818727E+02  0.00000000000E+00 0.  1.
</event>
<event>
 8    1  0.1247338E-006  0.9118800E+02  0.7816164E-02  0.1184000E+00
        -11   -1    0    0    0    0  0.00000000000E+00  0.00000000000E+00  0.45593999997E+02  0.45594000000E+02  0.51100000000E-03 0. -1.
         11   -1    0    0    0    0 -0.00000000000E+00 -0.00000000000E+00 -0.45593999997E+02  0.45594000000E+02  0.51100000000E-03 0.  1.
         23    2    1    2    0    0  0.24424906542E-14 -0.44408920985E-15  0.71054273576E-14  0.91188000000E+02  0.91188000000E+02 0.  0.
    9900012    2    3    3    0    0 -0.12517624435E+01 -0.37348267473E+01  0.36609608737E+02  0.54367091647E+02  0.40000017028E+02 0.  0.
        -12    1    3    3    0    0  0.12517624435E+01  0.37348267473E+01 -0.36609608737E+02  0.36820908353E+02  0.00000000000E+00 0.  1.
         11    1    4    4    0    0  0.31502549595E+01  0.10096699787E+02  0.47748367285E+01  0.11604590425E+02  0.51100000000E-03 0. -1.
        -11    1    4    4    0    0  0.64303486826E+01  0.16344153946E+01  0.11503834356E+01  0.67338013167E+01  0.51100000000E-03 0.  1.
        -12    1    4    4    0    0 -0.10832366086E+02 -0.15465941929E+02  0.30684388573E+02  0.36028699905E+02  0.00000000000E+00 0.  1.
</event>
<event>
 8    1  0.1247338E-006  0.9118800E+02  0.7816164E-02  0.1184000E+00
        -11   -1    0    0    0    0  0.00000000000E+00  0.00000000000E+00  0.45593999997E+02  0.45594000000E+02  0.51100000000E-03 0. -1.
         11   -1    0    0    0    0 -0.00000000000E+00 -0.00000000000E+00 -0.45593999997E+02  0.45594000000E+02  0.51100000000E-03 0.  1.
         23    2    1    2    0    0  0.35527136788E-14  0.00000000000E+00  0.00000000000E+00  0.91188000000E+02  0.91188000000E+02 0.  0.
    9900012    2    3    3    0    0 -0.26068122182E+02  0.23343020025E+02 -0.11460199211E+02  0.54367085509E+02  0.40000003036E+02 0.  0.
         12    1    3    3    0    0  0.26068122182E+02 -0.23343020025E+02  0.11460199211E+02  0.36820914491E+02  0.00000000000E+00 0. -1.
         11    1    4    4    0    0 -0.49772121223E+01  0.85963591394E+01 -0.20440891304E+01  0.10141416647E+02  0.51100000000E-03 0. -1.
        -11    1    4    4    0    0 -0.22455243774E+02 -0.48739683375E+01 -0.15086167044E+01  0.23027580527E+02  0.51100000000E-03 0.  1.
        -12    1    4    4    0    0  0.13643337147E+01  0.19620629223E+02 -0.79074933760E+01  0.21198088336E+02  0.00000000000E+00 0.  1.
</event>
<event>
 8    1  0.1247338E-006  0.9118800E+02  0.7816164E-02  0.1184000E+00
        -11   -1    0    0    0    0  0.00000000000E+00  0.00000000000E+00  0.45593999997E+02  0.45594000000E+02  0.51100000000E-03 0.  1.
         11   -1    0    0    0    0 -0.00000000000E+00 -0.00000000000E+00 -0.45593999997E+02  0.45594000000E+02  0.51100000000E-03 0. -1.
         23    2    1    2    0    0  0.00000000000E+00  0.35527136788E-14 -0.35527136788E-14  0.91188000000E+02  0.91188000000E+02 0.  0.
    9900012    2    3    3    0    0 -0.11887997556E+02 -0.17304253273E+02  0.30249387491E+02  0.54366985473E+02  0.39999774982E+02 0.  0.
         12    1    3    3    0    0  0.11887997556E+02  0.17304253273E+02 -0.30249387491E+02  0.36821014527E+02  0.00000000000E+00 0. -1.
         11    1    4    4    0    0 -0.14146540680E+01  0.41301600282E+01  0.14204649288E+01  0.45909899657E+01  0.51100000000E-03 0. -1.
        -11    1    4    4    0    0 -0.12841046436E+02 -0.17908240376E+02  0.14655603853E+01  0.22084959009E+02  0.51100000000E-03 0.  1.
        -12    1    4    4    0    0  0.23677029474E+01 -0.35261729255E+01  0.27363362177E+02  0.27691036498E+02  0.00000000000E+00 0.  1.
</event>
<event>
 8    1  0.1247338E-006  0.9118800E+02  0.7816164E-02  0.1184000E+00
        -11   -1    0    0    0    0  0.00000000000E+00  0.00000000000E+00  0.45593999997E+02  0.45594000000E+02  0.51100000000E-03 0.  1.
         11   -1    0    0    0    0 -0.00000000000E+00 -0.00000000000E+00 -0.45593999997E+02  0.45594000000E+02  0.51100000000E-03 0. -1.
         23    2    1    2    0    0  0.00000000000E+00 -0.35527136788E-14  0.00000000000E+00  0.91188000000E+02  0.91188000000E+02 0.  0.
    9900012    2    3    3    0    0 -0.18331046355E+02  0.21039609891E+02  0.24022622494E+02  0.54367097834E+02  0.40000031132E+02 0.  0.
         12    1    3    3    0    0  0.18331046355E+02 -0.21039609891E+02 -0.24022622494E+02  0.36820902166E+02  0.00000000000E+00 0. -1.
         11    1    4    4    0    0 -0.55185629470E+01  0.17059356339E+02  0.88797496148E+01  0.20008151568E+02  0.51100000000E-03 0. -1.
        -11    1    4    4    0    0  0.60109284847E+01 -0.55211559832E+01 -0.38811239752E+00  0.81709886876E+01  0.51100000000E-03 0.  1.
        -12    1    4    4    0    0 -0.18823411893E+02  0.95014095352E+01  0.15530985277E+02  0.26187957578E+02  0.00000000000E+00 0.  1.
</event>
<event>
 8    1  0.1247338E-006  0.9118800E+02  0.7816164E-02  0.1184000E+00
        -11   -1    0    0    0    0  0.00000000000E+00  0.00000000000E+00  0.45593999997E+02  0.45594000000E+02  0.51100000000E-03 0.  1.
         11   -1    0    0    0    0 -0.00000000000E+00 -0.00000000000E+00 -0.45593999997E+02  0.45594000000E+02  0.51100000000E-03 0. -1.
         23    2    1    2    0    0  0.00000000000E+00 -0.88817841970E-15  0.00000000000E+00  0.91188000000E+02  0.91188000000E+02 0.  0.
    9900012    2    3    3    0    0  0.31670589544E+02  0.55987285631E+01 -0.17927855675E+02  0.54367081860E+02  0.39999994715E+02 0.  0.
        -12    1    3    3    0    0 -0.31670589544E+02 -0.55987285631E+01  0.17927855675E+02  0.36820918140E+02  0.00000000000E+00 0.  1.
         11    1    4    4    0    0  0.16172810114E+02 -0.48504644659E+01 -0.18878804066E+02  0.25327772025E+02  0.51100000000E-03 0. -1.
        -11    1    4    4    0    0  0.20566957454E+02  0.99399930717E+01  0.38686554682E+01  0.23168290756E+02  0.51100000000E-03 0.  1.
        -12    1    4    4    0    0 -0.50691780237E+01  0.50919995730E+00 -0.29177070770E+01  0.58710190785E+01  0.00000000000E+00 0.  1.
</event>
<event>
 8    1  0.1247338E-006  0.9118800E+02  0.7816164E-02  0.1184000E+00
        -11   -1    0    0    0    0  0.00000000000E+00  0.00000000000E+00  0.45593999997E+02  0.45594000000E+02  0.51100000000E-03 0.  1.
         11   -1    0    0    0    0 -0.00000000000E+00 -0.00000000000E+00 -0.45593999997E+02  0.45594000000E+02  0.51100000000E-03 0. -1.
         23    2    1    2    0    0 -0.55511151231E-15  0.00000000000E+00  0.17763568394E-14  0.91188000000E+02  0.91188000000E+02 0.  0.
    9900012    2    3    3    0    0  0.98339109817E+00 -0.34510527186E+02  0.12799860835E+02  0.54367082275E+02  0.39999995663E+02 0.  0.
        -12    1    3    3    0    0 -0.98339109817E+00  0.34510527186E+02 -0.12799860835E+02  0.36820917725E+02  0.00000000000E+00 0.  1.
         11    1    4    4    0    0 -0.12497711174E+02 -0.31121720511E+02  0.19729709662E+01  0.33595340255E+02  0.51100000000E-03 0. -1.
        -11    1    4    4    0    0  0.53061810869E+01  0.14147804241E+01  0.98010271733E+01  0.11234647092E+02  0.51100000000E-03 0.  1.
         12    1    4    4    0    0  0.81749211849E+01 -0.48035870988E+01  0.10258626955E+01  0.95370949279E+01  0.00000000000E+00 0. -1.
</event>
<event>
 8    1  0.1247338E-006  0.9118800E+02  0.7816164E-02  0.1184000E+00
        -11   -1    0    0    0    0  0.00000000000E+00  0.00000000000E+00  0.45593999997E+02  0.45594000000E+02  0.51100000000E-03 0. -1.
         11   -1    0    0    0    0 -0.00000000000E+00 -0.00000000000E+00 -0.45593999997E+02  0.45594000000E+02  0.51100000000E-03 0.  1.
         23    2    1    2    0    0 -0.35527136788E-14  0.88817841970E-15  0.00000000000E+00  0.91188000000E+02  0.91188000000E+02 0.  0.
    9900012    2    3    3    0    0  0.29356992639E+02 -0.74530634007E+01  0.20937984730E+02  0.54367076934E+02  0.39999983487E+02 0.  0.
        -12    1    3    3    0    0 -0.29356992639E+02  0.74530634007E+01 -0.20937984730E+02  0.36820923066E+02  0.00000000000E+00 0.  1.
         11    1    4    4    0    0  0.85446473953E+01 -0.77192643101E+01  0.28467625817E+01  0.11861791520E+02  0.51100000000E-03 0. -1.
        -11    1    4    4    0    0  0.13037048890E+02 -0.56579878599E+01  0.26198958936E+02  0.29805417628E+02  0.51100000000E-03 0.  1.
        -12    1    4    4    0    0  0.77752963537E+01  0.59241887693E+01 -0.81077367881E+01  0.12699867786E+02  0.00000000000E+00 0.  1.
</event>
<event>
 8    1  0.1247338E-006  0.9118800E+02  0.7816164E-02  0.1184000E+00
        -11   -1    0    0    0    0  0.00000000000E+00  0.00000000000E+00  0.45593999997E+02  0.45594000000E+02  0.51100000000E-03 0. -1.
         11   -1    0    0    0    0 -0.00000000000E+00 -0.00000000000E+00 -0.45593999997E+02  0.45594000000E+02  0.51100000000E-03 0.  1.
         23    2    1    2    0    0 -0.16653345369E-15  0.00000000000E+00  0.88817841970E-15  0.91188000000E+02  0.91188000000E+02 0.  0.
    9900012    2    3    3    0    0 -0.41999549681E+00  0.35973018470E+02 -0.78450600569E+01  0.54367089890E+02  0.40000013022E+02 0.  0.
         12    1    3    3    0    0  0.41999549681E+00 -0.35973018470E+02  0.78450600569E+01  0.36820910110E+02  0.00000000000E+00 0. -1.
         11    1    4    4    0    0  0.11891608637E+01  0.19310069062E+02  0.13711361275E+02  0.23712745497E+02  0.51100000000E-03 0. -1.
        -11    1    4    4    0    0 -0.13008620276E+01  0.19168832162E+02 -0.19722088357E+02  0.27533563843E+02  0.51100000000E-03 0.  1.
         12    1    4    4    0    0 -0.30829433288E+00 -0.25058827546E+01 -0.18343329753E+01  0.31207805497E+01  0.00000000000E+00 0. -1.
</event>
<event>
 8    1  0.1247338E-006  0.9118800E+02  0.7816164E-02  0.1184000E+00
        -11   -1    0    0    0    0  0.00000000000E+00  0.00000000000E+00  0.45593999997E+02  0.45594000000E+02  0.51100000000E-03 0. -1.
         11   -1    0    0    0    0 -0.00000000000E+00 -0.00000000000E+00 -0.45593999997E+02  0.45594000000E+02  0.51100000000E-03 0.  1.
         23    2    1    2    0    0  0.00000000000E+00  0.00000000000E+00  0.35527136788E-14  0.91188000000E+02  0.91188000000E+02 0.  0.
    9900012    2    3    3    0    0  0.10046846692E+02  0.19096379495E+02  0.29835719102E+02  0.54367068825E+02  0.39999965001E+02 0.  0.
        -12    1    3    3    0    0 -0.10046846692E+02 -0.19096379495E+02 -0.29835719102E+02  0.36820931175E+02  0.00000000000E+00 0.  1.
         11    1    4    4    0    0  0.41961242993E+01  0.44174925522E+01  0.48526964709E+01  0.77891182353E+01  0.51100000000E-03 0. -1.
        -11    1    4    4    0    0  0.88304301455E+01 -0.92718515259E+01  0.14795828116E+01  0.12889254937E+02  0.51100000000E-03 0.  1.
         12    1    4    4    0    0 -0.29797077529E+01  0.23950738468E+02  0.23503439819E+02  0.33688695653E+02  0.00000000000E+00 0. -1.
</event>
<event>
 8    1  0.1247338E-006  0.9118800E+02  0.7816164E-02  0.1184000E+00
        -11   -1    0    0    0    0  0.00000000000E+00  0.00000000000E+00  0.45593999997E+02  0.45594000000E+02  0.51100000000E-03 0.  1.
         11   -1    0    0    0    0 -0.00000000000E+00 -0.00000000000E+00 -0.45593999997E+02  0.45594000000E+02  0.51100000000E-03 0. -1.
         23    2    1    2    0    0  0.00000000000E+00  0.00000000000E+00 -0.71054273576E-14  0.91188000000E+02  0.91188000000E+02 0.  0.
    9900012    2    3    3    0    0 -0.12020848855E+02  0.39032764630E+01  0.34583936419E+02  0.54367013693E+02  0.39999839316E+02 0.  0.
         12    1    3    3    0    0  0.12020848855E+02 -0.39032764630E+01 -0.34583936419E+02  0.36820986307E+02  0.00000000000E+00 0. -1.
         11    1    4    4    0    0 -0.10994460645E+02  0.10609983128E+02  0.60372205231E-01  0.15279186886E+02  0.51100000000E-03 0. -1.
        -11    1    4    4    0    0 -0.54204505360E+01 -0.61348757541E+01  0.58204180238E+01  0.10044662800E+02  0.51100000000E-03 0.  1.
        -12    1    4    4    0    0  0.43940623258E+01 -0.57183091061E+00  0.28703146190E+02  0.29043164007E+02  0.00000000000E+00 0.  1.
</event>
<event>
 8    1  0.1247338E-006  0.9118800E+02  0.7816164E-02  0.1184000E+00
        -11   -1    0    0    0    0  0.00000000000E+00  0.00000000000E+00  0.45593999997E+02  0.45594000000E+02  0.51100000000E-03 0. -1.
         11   -1    0    0    0    0 -0.00000000000E+00 -0.00000000000E+00 -0.45593999997E+02  0.45594000000E+02  0.51100000000E-03 0.  1.
         23    2    1    2    0    0  0.00000000000E+00  0.35527136788E-14  0.71054273576E-14  0.91188000000E+02  0.91188000000E+02 0.  0.
    9900012    2    3    3    0    0 -0.16204802018E+01  0.13025522637E+02 -0.34401876842E+02  0.54367091180E+02  0.40000015963E+02 0.  0.
         12    1    3    3    0    0  0.16204802018E+01 -0.13025522637E+02  0.34401876842E+02  0.36820908820E+02  0.00000000000E+00 0. -1.
         11    1    4    4    0    0  0.22904832215E+01  0.23961324329E+02 -0.15788707897E+02  0.28786710029E+02  0.51100000000E-03 0. -1.
        -11    1    4    4    0    0 -0.47914599572E+01  0.14669990732E+01 -0.66417119923E+01  0.83200068060E+01  0.51100000000E-03 0.  1.
         12    1    4    4    0    0  0.88049653392E+00 -0.12402800765E+02 -0.11971456953E+02  0.17260374345E+02  0.00000000000E+00 0. -1.
</event>
<event>
 8    1  0.1247338E-006  0.9118800E+02  0.7816164E-02  0.1184000E+00
        -11   -1    0    0    0    0  0.00000000000E+00  0.00000000000E+00  0.45593999997E+02  0.45594000000E+02  0.51100000000E-03 0.  1.
         11   -1    0    0    0    0 -0.00000000000E+00 -0.00000000000E+00 -0.45593999997E+02  0.45594000000E+02  0.51100000000E-03 0. -1.
         23    2    1    2    0    0  0.71054273576E-14 -0.35527136788E-14 -0.22204460493E-15  0.91188000000E+02  0.91188000000E+02 0.  0.
    9900012    2    3    3    0    0  0.32374706531E+02 -0.17491392114E+02  0.13063441767E+01  0.54367123365E+02  0.40000089335E+02 0.  0.
         12    1    3    3    0    0 -0.32374706531E+02  0.17491392114E+02 -0.13063441767E+01  0.36820876635E+02  0.00000000000E+00 0. -1.
         11    1    4    4    0    0  0.26491305550E+00 -0.57699103116E+01  0.30791204122E+01  0.65454584793E+01  0.51100000000E-03 0. -1.
        -11    1    4    4    0    0  0.15571368520E+02 -0.11086877878E+00  0.14954303279E+02  0.21589603894E+02  0.51100000000E-03 0.  1.
         12    1    4    4    0    0  0.16538424955E+02 -0.11610613024E+02 -0.16727079514E+02  0.26232060992E+02  0.00000000000E+00 0. -1.
</event>
<event>
 8    1  0.1247338E-006  0.9118800E+02  0.7816164E-02  0.1184000E+00
        -11   -1    0    0    0    0  0.00000000000E+00  0.00000000000E+00  0.45593999997E+02  0.45594000000E+02  0.51100000000E-03 0.  1.
         11   -1    0    0    0    0 -0.00000000000E+00 -0.00000000000E+00 -0.45593999997E+02  0.45594000000E+02  0.51100000000E-03 0. -1.
         23    2    1    2    0    0 -0.35527136788E-14 -0.17763568394E-14  0.00000000000E+00  0.91188000000E+02  0.91188000000E+02 0.  0.
    9900012    2    3    3    0    0 -0.26362216136E+02 -0.26825488352E+01  0.25565940695E+02  0.54367084320E+02  0.40000000324E+02 0.  0.
         12    1    3    3    0    0  0.26362216136E+02  0.26825488352E+01 -0.25565940695E+02  0.36820915680E+02  0.00000000000E+00 0. -1.
         11    1    4    4    0    0  0.44660585462E+01  0.87153766220E+01  0.16719072394E+02  0.19376038052E+02  0.51100000000E-03 0. -1.
        -11    1    4    4    0    0 -0.17223962621E+02 -0.20717940887E+01  0.40691201308E+01  0.17818949409E+02  0.51100000000E-03 0.  1.
         12    1    4    4    0    0 -0.13604312061E+02 -0.93261313685E+01  0.47777481704E+01  0.17172096859E+02  0.00000000000E+00 0. -1.
</event>
<event>
 8    1  0.1247338E-006  0.9118800E+02  0.7816164E-02  0.1184000E+00
        -11   -1    0    0    0    0  0.00000000000E+00  0.00000000000E+00  0.45593999997E+02  0.45594000000E+02  0.51100000000E-03 0.  1.
         11   -1    0    0    0    0 -0.00000000000E+00 -0.00000000000E+00 -0.45593999997E+02  0.45594000000E+02  0.51100000000E-03 0. -1.
         23    2    1    2    0    0  0.35527136788E-14  0.00000000000E+00 -0.35527136788E-14  0.91188000000E+02  0.91188000000E+02 0.  0.
    9900012    2    3    3    0    0  0.28000827728E+02 -0.72876922408E+01 -0.22773539655E+02  0.54366933747E+02  0.39999657061E+02 0.  0.
        -12    1    3    3    0    0 -0.28000827728E+02  0.72876922408E+01  0.22773539655E+02  0.36821066253E+02  0.00000000000E+00 0.  1.
         11    1    4    4    0    0 -0.17377237353E+01 -0.41474627686E+01 -0.13995489936E+02  0.14700165646E+02  0.51100000000E-03 0. -1.
        -11    1    4    4    0    0 -0.25117340785E+01 -0.53110154797E+01  0.85898116052E+00  0.59374693600E+01  0.51100000000E-03 0.  1.
         12    1    4    4    0    0  0.32250285541E+02  0.21707860075E+01 -0.96370308794E+01  0.33729298741E+02  0.00000000000E+00 0. -1.
</event>
<event>
 8    1  0.1247338E-006  0.9118800E+02  0.7816164E-02  0.1184000E+00
        -11   -1    0    0    0    0  0.00000000000E+00  0.00000000000E+00  0.45593999997E+02  0.45594000000E+02  0.51100000000E-03 0.  1.
         11   -1    0    0    0    0 -0.00000000000E+00 -0.00000000000E+00 -0.45593999997E+02  0.45594000000E+02  0.51100000000E-03 0. -1.
         23    2    1    2    0    0  0.13322676296E-14 -0.35527136788E-14  0.00000000000E+00  0.91188000000E+02  0.91188000000E+02 0.  0.
    9900012    2    3    3    0    0 -0.22482856330E+01  0.16700171637E+02  0.32738766088E+02  0.54367118344E+02  0.40000077888E+02 0.  0.
         12    1    3    3    0    0  0.22482856330E+01 -0.16700171637E+02 -0.32738766088E+02  0.36820881656E+02  0.00000000000E+00 0. -1.
         11    1    4    4    0    0  0.53458222569E+01 -0.64706342311E+01  0.99407399474E+00  0.84519291480E+01  0.51100000000E-03 0. -1.
        -11    1    4    4    0    0 -0.45079590054E+01 -0.37616654925E+01  0.76722746683E+01  0.96610362032E+01  0.51100000000E-03 0.  1.
         12    1    4    4    0    0 -0.30861488845E+01  0.26932471360E+02  0.24072417425E+02  0.36254152992E+02  0.00000000000E+00 0. -1.
</event>
<event>
 8    1  0.1247338E-006  0.9118800E+02  0.7816164E-02  0.1184000E+00
        -11   -1    0    0    0    0  0.00000000000E+00  0.00000000000E+00  0.45593999997E+02  0.45594000000E+02  0.51100000000E-03 0. -1.
         11   -1    0    0    0    0 -0.00000000000E+00 -0.00000000000E+00 -0.45593999997E+02  0.45594000000E+02  0.51100000000E-03 0.  1.
         23    2    1    2    0    0  0.17763568394E-14 -0.13322676296E-14  0.00000000000E+00  0.91188000000E+02  0.91188000000E+02 0.  0.
    9900012    2    3    3    0    0  0.40293299539E+01 -0.21751494420E+01  0.36535083216E+02  0.54367094517E+02  0.40000023570E+02 0.  0.
        -12    1    3    3    0    0 -0.40293299539E+01  0.21751494420E+01 -0.36535083216E+02  0.36820905483E+02  0.00000000000E+00 0.  1.
         11    1    4    4    0    0  0.60505815071E+01  0.36386833713E+01  0.26528372715E+02  0.27451850801E+02  0.51100000000E-03 0. -1.
        -11    1    4    4    0    0 -0.10707411223E+02  0.39245395930E+01  0.19230745400E+01  0.11564985174E+02  0.51100000000E-03 0.  1.
         12    1    4    4    0    0  0.86861596703E+01 -0.97383724063E+01  0.80836359614E+01  0.15350258542E+02  0.00000000000E+00 0. -1.
</event>
<event>
 8    1  0.1247338E-006  0.9118800E+02  0.7816164E-02  0.1184000E+00
        -11   -1    0    0    0    0  0.00000000000E+00  0.00000000000E+00  0.45593999997E+02  0.45594000000E+02  0.51100000000E-03 0.  1.
         11   -1    0    0    0    0 -0.00000000000E+00 -0.00000000000E+00 -0.45593999997E+02  0.45594000000E+02  0.51100000000E-03 0. -1.
         23    2    1    2    0    0  0.00000000000E+00 -0.35527136788E-14  0.00000000000E+00  0.91188000000E+02  0.91188000000E+02 0.  0.
    9900012    2    3    3    0    0 -0.27367572527E+02  0.20876789999E+02  0.13075023143E+02  0.54367073655E+02  0.39999976012E+02 0.  0.
         12    1    3    3    0    0  0.27367572527E+02 -0.20876789999E+02 -0.13075023143E+02  0.36820926345E+02  0.00000000000E+00 0. -1.
         11    1    4    4    0    0 -0.91492764335E+01  0.86445909340E+01 -0.77764872678E+01  0.14795673900E+02  0.51100000000E-03 0. -1.
        -11    1    4    4    0    0 -0.21895765030E+02  0.16217541907E+02  0.13423965897E+02  0.30374924731E+02  0.51100000000E-03 0.  1.
        -12    1    4    4    0    0  0.36774689367E+01 -0.39853428422E+01  0.74275445144E+01  0.91964750238E+01  0.00000000000E+00 0.  1.
</event>
<event>
 8    1  0.1247338E-006  0.9118800E+02  0.7816164E-02  0.1184000E+00
        -11   -1    0    0    0    0  0.00000000000E+00  0.00000000000E+00  0.45593999997E+02  0.45594000000E+02  0.51100000000E-03 0. -1.
         11   -1    0    0    0    0 -0.00000000000E+00 -0.00000000000E+00 -0.45593999997E+02  0.45594000000E+02  0.51100000000E-03 0.  1.
         23    2    1    2    0    0  0.00000000000E+00  0.44408920985E-15 -0.17763568394E-14  0.91188000000E+02  0.91188000000E+02 0.  0.
    9900012    2    3    3    0    0  0.33339410072E+02  0.81042053961E+00 -0.15608321151E+02  0.54366909107E+02  0.39999600888E+02 0.  0.
         12    1    3    3    0    0 -0.33339410072E+02 -0.81042053961E+00  0.15608321151E+02  0.36821090893E+02  0.00000000000E+00 0. -1.
         11    1    4    4    0    0  0.21146397656E+01  0.14842145483E+02 -0.31438230477E+01  0.15318113705E+02  0.51100000000E-03 0. -1.
        -11    1    4    4    0    0  0.10916518666E+02 -0.10658415543E+02 -0.10167806629E+02  0.18334570995E+02  0.51100000000E-03 0.  1.
         12    1    4    4    0    0  0.20308251641E+02 -0.33733093996E+01 -0.22966914738E+01  0.20714224406E+02  0.00000000000E+00 0. -1.
</event>
<event>
 8    1  0.1247338E-006  0.9118800E+02  0.7816164E-02  0.1184000E+00
        -11   -1    0    0    0    0  0.00000000000E+00  0.00000000000E+00  0.45593999997E+02  0.45594000000E+02  0.51100000000E-03 0. -1.
         11   -1    0    0    0    0 -0.00000000000E+00 -0.00000000000E+00 -0.45593999997E+02  0.45594000000E+02  0.51100000000E-03 0.  1.
         23    2    1    2    0    0 -0.35527136788E-14  0.00000000000E+00  0.00000000000E+00  0.91188000000E+02  0.91188000000E+02 0.  0.
    9900012    2    3    3    0    0 -0.17356741838E+02  0.23100428991E+02  0.22823132196E+02  0.54367059354E+02  0.39999943410E+02 0.  0.
        -12    1    3    3    0    0  0.17356741838E+02 -0.23100428991E+02 -0.22823132196E+02  0.36820940646E+02  0.00000000000E+00 0.  1.
         11    1    4    4    0    0 -0.20007563057E+02  0.17152312645E+02  0.17754527358E+02  0.31776212023E+02  0.51100000000E-03 0. -1.
        -11    1    4    4    0    0  0.10381921325E+02  0.25473091056E+01  0.83143994162E+01  0.13542610974E+02  0.51100000000E-03 0.  1.
        -12    1    4    4    0    0 -0.77311001054E+01  0.34008072410E+01 -0.32457945787E+01  0.90482363573E+01  0.00000000000E+00 0.  1.
</event>
<event>
 8    1  0.1247338E-006  0.9118800E+02  0.7816164E-02  0.1184000E+00
        -11   -1    0    0    0    0  0.00000000000E+00  0.00000000000E+00  0.45593999997E+02  0.45594000000E+02  0.51100000000E-03 0. -1.
         11   -1    0    0    0    0 -0.00000000000E+00 -0.00000000000E+00 -0.45593999997E+02  0.45594000000E+02  0.51100000000E-03 0.  1.
         23    2    1    2    0    0  0.00000000000E+00  0.00000000000E+00  0.00000000000E+00  0.91188000000E+02  0.91188000000E+02 0.  0.
    9900012    2    3    3    0    0  0.29195003129E+02  0.89790987995E+01 -0.20562260329E+02  0.54367095981E+02  0.40000026908E+02 0.  0.
         12    1    3    3    0    0 -0.29195003129E+02 -0.89790987995E+01  0.20562260329E+02  0.36820904019E+02  0.00000000000E+00 0. -1.
         11    1    4    4    0    0 -0.34000497828E+01 -0.67767654640E+01  0.46295070836E+01  0.88835367269E+01  0.51100000000E-03 0. -1.
        -11    1    4    4    0    0  0.27004033548E+02  0.16437956883E+02 -0.24085749085E+02  0.39743522285E+02  0.51100000000E-03 0.  1.
        -12    1    4    4    0    0  0.55910193640E+01 -0.68209261927E+00 -0.11060183271E+01  0.57400369693E+01  0.00000000000E+00 0.  1.
</event>
<event>
 8    1  0.1247338E-006  0.9118800E+02  0.7816164E-02  0.1184000E+00
        -11   -1    0    0    0    0  0.00000000000E+00  0.00000000000E+00  0.45593999997E+02  0.45594000000E+02  0.51100000000E-03 0. -1.
         11   -1    0    0    0    0 -0.00000000000E+00 -0.00000000000E+00 -0.45593999997E+02  0.45594000000E+02  0.51100000000E-03 0.  1.
         23    2    1    2    0    0 -0.88817841970E-15  0.00000000000E+00  0.00000000000E+00  0.91188000000E+02  0.91188000000E+02 0.  0.
    9900012    2    3    3    0    0 -0.58264184680E+01 -0.16373876091E+02  0.32461225479E+02  0.54367053109E+02  0.39999929172E+02 0.  0.
        -12    1    3    3    0    0  0.58264184680E+01  0.16373876091E+02 -0.32461225479E+02  0.36820946891E+02  0.00000000000E+00 0.  1.
         11    1    4    4    0    0  0.34003368132E+01  0.47744716577E+00  0.21658549481E+02  0.21929044943E+02  0.51100000000E-03 0. -1.
        -11    1    4    4    0    0 -0.15492690119E+02 -0.35823304484E+01  0.51863346239E+01  0.16725866365E+02  0.51100000000E-03 0.  1.
        -12    1    4    4    0    0  0.62659348376E+01 -0.13268992808E+02  0.56163413735E+01  0.15712141801E+02  0.00000000000E+00 0.  1.
</event>
<event>
 8    1  0.1247338E-006  0.9118800E+02  0.7816164E-02  0.1184000E+00
        -11   -1    0    0    0    0  0.00000000000E+00  0.00000000000E+00  0.45593999997E+02  0.45594000000E+02  0.51100000000E-03 0.  1.
         11   -1    0    0    0    0 -0.00000000000E+00 -0.00000000000E+00 -0.45593999997E+02  0.45594000000E+02  0.51100000000E-03 0. -1.
         23    2    1    2    0    0  0.35527136788E-14  0.00000000000E+00  0.00000000000E+00  0.91188000000E+02  0.91188000000E+02 0.  0.
    9900012    2    3    3    0    0 -0.24763740674E+02  0.24324021288E+02  0.12283398261E+02  0.54367044871E+02  0.39999910392E+02 0.  0.
        -12    1    3    3    0    0  0.24763740674E+02 -0.24324021288E+02 -0.12283398261E+02  0.36820955129E+02  0.00000000000E+00 0.  1.
         11    1    4    4    0    0 -0.29772130389E+02  0.89958698003E+01  0.52078903383E+01  0.31534545239E+02  0.51100000000E-03 0. -1.
        -11    1    4    4    0    0  0.17961161509E+01  0.63188305521E+01  0.10739971852E+02  0.12589704064E+02  0.51100000000E-03 0.  1.
         12    1    4    4    0    0  0.32122735641E+01  0.90093209352E+01 -0.36644639297E+01  0.10242795568E+02  0.00000000000E+00 0. -1.
</event>
<event>
 8    1  0.1247338E-006  0.9118800E+02  0.7816164E-02  0.1184000E+00
        -11   -1    0    0    0    0  0.00000000000E+00  0.00000000000E+00  0.45593999997E+02  0.45594000000E+02  0.51100000000E-03 0.  1.
         11   -1    0    0    0    0 -0.00000000000E+00 -0.00000000000E+00 -0.45593999997E+02  0.45594000000E+02  0.51100000000E-03 0. -1.
         23    2    1    2    0    0  0.00000000000E+00 -0.17763568394E-14  0.00000000000E+00  0.91188000000E+02  0.91188000000E+02 0.  0.
    9900012    2    3    3    0    0 -0.35485364923E+02 -0.85494188172E+01  0.48452256379E+01  0.54367083426E+02  0.39999998287E+02 0.  0.
         12    1    3    3    0    0  0.35485364923E+02  0.85494188172E+01 -0.48452256379E+01  0.36820916574E+02  0.00000000000E+00 0. -1.
         11    1    4    4    0    0  0.49689806663E+01 -0.40654133638E+00  0.34118073670E+01  0.60412312066E+01  0.51100000000E-03 0.  1.
        -11    1    4    4    0    0 -0.17345215007E+01 -0.54819261827E+01 -0.65357900734E+01  0.87049774068E+01  0.51100000000E-03 0. -1.
        -12    1    4    4    0    0 -0.38719824089E+02 -0.26609512982E+01  0.79692083443E+01  0.39620874813E+02  0.00000000000E+00 0.  1.
</event>
<event>
 8    1  0.1247338E-006  0.9118800E+02  0.7816164E-02  0.1184000E+00
        -11   -1    0    0    0    0  0.00000000000E+00  0.00000000000E+00  0.45593999997E+02  0.45594000000E+02  0.51100000000E-03 0. -1.
         11   -1    0    0    0    0 -0.00000000000E+00 -0.00000000000E+00 -0.45593999997E+02  0.45594000000E+02  0.51100000000E-03 0.  1.
         23    2    1    2    0    0  0.71054273576E-14 -0.17763568394E-14 -0.53290705182E-14  0.91188000000E+02  0.91188000000E+02 0.  0.
    9900012    2    3    3    0    0 -0.32108844140E+02  0.13514749559E+02  0.11922819343E+02  0.54367082728E+02  0.39999996696E+02 0.  0.
        -12    1    3    3    0    0  0.32108844140E+02 -0.13514749559E+02 -0.11922819343E+02  0.36820917272E+02  0.00000000000E+00 0.  1.
         11    1    4    4    0    0 -0.15367265179E+02 -0.16454016137E+01 -0.15760436794E+01  0.15535253441E+02  0.51100000000E-03 0. -1.
        -11    1    4    4    0    0 -0.19370306621E+02  0.21853136363E+02  0.10353269513E+02  0.30983197662E+02  0.51100000000E-03 0.  1.
         12    1    4    4    0    0  0.26287276596E+01 -0.66929851902E+01  0.31455935096E+01  0.78486316254E+01  0.00000000000E+00 0. -1.
</event>
<event>
 8    1  0.1247338E-006  0.9118800E+02  0.7816164E-02  0.1184000E+00
        -11   -1    0    0    0    0  0.00000000000E+00  0.00000000000E+00  0.45593999997E+02  0.45594000000E+02  0.51100000000E-03 0. -1.
         11   -1    0    0    0    0 -0.00000000000E+00 -0.00000000000E+00 -0.45593999997E+02  0.45594000000E+02  0.51100000000E-03 0.  1.
         23    2    1    2    0    0 -0.35527136788E-14  0.00000000000E+00 -0.35527136788E-14  0.91188000000E+02  0.91188000000E+02 0.  0.
    9900012    2    3    3    0    0 -0.23755404933E+02  0.13652465370E+02 -0.24598185871E+02  0.54367084445E+02  0.40000000609E+02 0.  0.
         12    1    3    3    0    0  0.23755404933E+02 -0.13652465370E+02  0.24598185871E+02  0.36820915555E+02  0.00000000000E+00 0. -1.
         11    1    4    4    0    0  0.35049606364E+01  0.43360381181E+01 -0.67884309116E+01  0.87845756942E+01  0.51100000000E-03 0. -1.
        -11    1    4    4    0    0 -0.37953393662E+01  0.15025359709E+01  0.85270315321E+01  0.94537020399E+01  0.51100000000E-03 0.  1.
        -12    1    4    4    0    0 -0.23465026203E+02  0.78138912806E+01 -0.26336786491E+02  0.36128806711E+02  0.00000000000E+00 0.  1.
</event>
<event>
 8    1  0.1247338E-006  0.9118800E+02  0.7816164E-02  0.1184000E+00
        -11   -1    0    0    0    0  0.00000000000E+00  0.00000000000E+00  0.45593999997E+02  0.45594000000E+02  0.51100000000E-03 0. -1.
         11   -1    0    0    0    0 -0.00000000000E+00 -0.00000000000E+00 -0.45593999997E+02  0.45594000000E+02  0.51100000000E-03 0.  1.
         23    2    1    2    0    0  0.35527136788E-14  0.35527136788E-14 -0.17763568394E-14  0.91188000000E+02  0.91188000000E+02 0.  0.
    9900012    2    3    3    0    0  0.24190187974E+02  0.24932091508E+02 -0.12206762744E+02  0.54367089666E+02  0.40000012511E+02 0.  0.
         12    1    3    3    0    0 -0.24190187974E+02 -0.24932091508E+02  0.12206762744E+02  0.36820910334E+02  0.00000000000E+00 0. -1.
         11    1    4    4    0    0  0.16907908805E+02  0.15066289472E+02 -0.15076064264E+02  0.27205848132E+02  0.51100000000E-03 0. -1.
        -11    1    4    4    0    0  0.10031868884E+02 -0.20621494224E+01 -0.61592322193E+01  0.11951024866E+02  0.51100000000E-03 0.  1.
         12    1    4    4    0    0 -0.27495897153E+01  0.11927951458E+02  0.90285337402E+01  0.15210216668E+02  0.00000000000E+00 0. -1.
</event>
<event>
 8    1  0.1247338E-006  0.9118800E+02  0.7816164E-02  0.1184000E+00
        -11   -1    0    0    0    0  0.00000000000E+00  0.00000000000E+00  0.45593999997E+02  0.45594000000E+02  0.51100000000E-03 0.  1.
         11   -1    0    0    0    0 -0.00000000000E+00 -0.00000000000E+00 -0.45593999997E+02  0.45594000000E+02  0.51100000000E-03 0. -1.
         23    2    1    2    0    0  0.00000000000E+00  0.13322676296E-14  0.00000000000E+00  0.91188000000E+02  0.91188000000E+02 0.  0.
    9900012    2    3    3    0    0  0.12087952381E+02 -0.14926544775E+01 -0.34748133191E+02  0.54367090582E+02  0.40000014599E+02 0.  0.
        -12    1    3    3    0    0 -0.12087952381E+02  0.14926544775E+01  0.34748133191E+02  0.36820909418E+02  0.00000000000E+00 0.  1.
         11    1    4    4    0    0  0.42843587238E+01  0.21496142057E+01  0.93237078735E+00  0.48832250054E+01  0.51100000000E-03 0. -1.
        -11    1    4    4    0    0  0.59329153107E+01 -0.14213618622E+02 -0.35554823427E+02  0.38747540665E+02  0.51100000000E-03 0.  1.
        -12    1    4    4    0    0  0.18706783463E+01  0.10571349939E+02 -0.12568055134E+00  0.10736324911E+02  0.00000000000E+00 0.  1.
</event>
<event>
 8    1  0.1247338E-006  0.9118800E+02  0.7816164E-02  0.1184000E+00
        -11   -1    0    0    0    0  0.00000000000E+00  0.00000000000E+00  0.45593999997E+02  0.45594000000E+02  0.51100000000E-03 0.  1.
         11   -1    0    0    0    0 -0.00000000000E+00 -0.00000000000E+00 -0.45593999997E+02  0.45594000000E+02  0.51100000000E-03 0. -1.
         23    2    1    2    0    0  0.00000000000E+00  0.00000000000E+00  0.00000000000E+00  0.91188000000E+02  0.91188000000E+02 0.  0.
    9900012    2    3    3    0    0  0.86589278327E+01 -0.31371370007E+02 -0.17223193719E+02  0.54367105263E+02  0.40000048069E+02 0.  0.
         12    1    3    3    0    0 -0.86589278327E+01  0.31371370007E+02  0.17223193719E+02  0.36820894737E+02  0.00000000000E+00 0. -1.
         11    1    4    4    0    0  0.62596457467E+01 -0.17497076101E+02 -0.86493945308E+00  0.18603197507E+02  0.51100000000E-03 0.  1.
        -11    1    4    4    0    0  0.12368729790E+02  0.21184567116E+01 -0.93827747178E+01  0.15668752252E+02  0.51100000000E-03 0. -1.
         12    1    4    4    0    0 -0.99694477042E+01 -0.15992750618E+02 -0.69754795477E+01  0.20095155505E+02  0.00000000000E+00 0. -1.
</event>
<event>
 8    1  0.1247338E-006  0.9118800E+02  0.7816164E-02  0.1184000E+00
        -11   -1    0    0    0    0  0.00000000000E+00  0.00000000000E+00  0.45593999997E+02  0.45594000000E+02  0.51100000000E-03 0.  1.
         11   -1    0    0    0    0 -0.00000000000E+00 -0.00000000000E+00 -0.45593999997E+02  0.45594000000E+02  0.51100000000E-03 0. -1.
         23    2    1    2    0    0  0.00000000000E+00  0.44408920985E-15  0.00000000000E+00  0.91188000000E+02  0.91188000000E+02 0.  0.
    9900012    2    3    3    0    0  0.80702437964E+01 -0.35900509002E+01  0.35745792332E+02  0.54367096021E+02  0.40000026999E+02 0.  0.
         12    1    3    3    0    0 -0.80702437964E+01  0.35900509002E+01 -0.35745792332E+02  0.36820903979E+02  0.00000000000E+00 0. -1.
         11    1    4    4    0    0 -0.99573143576E+01  0.10666707219E+02  0.21742500028E+02  0.26185168700E+02  0.51100000000E-03 0. -1.
        -11    1    4    4    0    0  0.79538599039E+01 -0.42234872816E+01  0.99012808767E+01  0.13384210677E+02  0.51100000000E-03 0.  1.
         12    1    4    4    0    0  0.10073698250E+02 -0.10033270838E+02  0.41020114269E+01  0.14797716644E+02  0.00000000000E+00 0. -1.
</event>
<event>
 8    1  0.1247338E-006  0.9118800E+02  0.7816164E-02  0.1184000E+00
        -11   -1    0    0    0    0  0.00000000000E+00  0.00000000000E+00  0.45593999997E+02  0.45594000000E+02  0.51100000000E-03 0.  1.
         11   -1    0    0    0    0 -0.00000000000E+00 -0.00000000000E+00 -0.45593999997E+02  0.45594000000E+02  0.51100000000E-03 0. -1.
         23    2    1    2    0    0  0.88817841970E-15 -0.17763568394E-14  0.71054273576E-14  0.91188000000E+02  0.91188000000E+02 0.  0.
    9900012    2    3    3    0    0 -0.58606946539E+01  0.13342691896E+02 -0.33814260572E+02  0.54367090357E+02  0.40000014088E+02 0.  0.
        -12    1    3    3    0    0  0.58606946539E+01 -0.13342691896E+02  0.33814260572E+02  0.36820909643E+02  0.00000000000E+00 0.  1.
         11    1    4    4    0    0 -0.28384182359E+01  0.19196114174E+02 -0.66841796125E+01  0.20523783150E+02  0.51100000000E-03 0. -1.
        -11    1    4    4    0    0 -0.25531131934E+01 -0.14239386360E+01  0.25205679469E+01  0.38599548253E+01  0.51100000000E-03 0.  1.
        -12    1    4    4    0    0 -0.46916322455E+00 -0.44294836413E+01 -0.29650648907E+02  0.29983352382E+02  0.00000000000E+00 0.  1.
</event>
<event>
 8    1  0.1247338E-006  0.9118800E+02  0.7816164E-02  0.1184000E+00
        -11   -1    0    0    0    0  0.00000000000E+00  0.00000000000E+00  0.45593999997E+02  0.45594000000E+02  0.51100000000E-03 0. -1.
         11   -1    0    0    0    0 -0.00000000000E+00 -0.00000000000E+00 -0.45593999997E+02  0.45594000000E+02  0.51100000000E-03 0.  1.
         23    2    1    2    0    0  0.88817841970E-15  0.00000000000E+00  0.00000000000E+00  0.91188000000E+02  0.91188000000E+02 0.  0.
    9900012    2    3    3    0    0 -0.44079738450E+01 -0.22523617810E+02 -0.28792998528E+02  0.54367077186E+02  0.39999984060E+02 0.  0.
         12    1    3    3    0    0  0.44079738450E+01  0.22523617810E+02  0.28792998528E+02  0.36820922814E+02  0.00000000000E+00 0. -1.
         11    1    4    4    0    0 -0.14238766965E+01 -0.78554701018E+01  0.66964425669E+01  0.10420085349E+02  0.51100000000E-03 0. -1.
        -11    1    4    4    0    0 -0.92737631331E+01 -0.75947581224E+01 -0.68988293152E+01  0.13830288492E+02  0.51100000000E-03 0.  1.
         12    1    4    4    0    0  0.62896659847E+01 -0.70733895860E+01 -0.28590611780E+02  0.30116703345E+02  0.00000000000E+00 0. -1.
</event>
<event>
 8    1  0.1247338E-006  0.9118800E+02  0.7816164E-02  0.1184000E+00
        -11   -1    0    0    0    0  0.00000000000E+00  0.00000000000E+00  0.45593999997E+02  0.45594000000E+02  0.51100000000E-03 0.  1.
         11   -1    0    0    0    0 -0.00000000000E+00 -0.00000000000E+00 -0.45593999997E+02  0.45594000000E+02  0.51100000000E-03 0. -1.
         23    2    1    2    0    0  0.00000000000E+00  0.71054273576E-14  0.00000000000E+00  0.91188000000E+02  0.91188000000E+02 0.  0.
    9900012    2    3    3    0    0  0.11594163802E+02  0.34008822187E+02  0.80470091085E+01  0.54367095931E+02  0.40000026795E+02 0.  0.
         12    1    3    3    0    0 -0.11594163802E+02 -0.34008822187E+02 -0.80470091085E+01  0.36820904069E+02  0.00000000000E+00 0. -1.
         11    1    4    4    0    0  0.35153311489E+01  0.40396995641E+01 -0.28566877771E+01  0.60693814323E+01  0.51100000000E-03 0. -1.
        -11    1    4    4    0    0  0.79868617359E+01  0.18738314408E+01  0.17597564745E+02  0.19415856661E+02  0.51100000000E-03 0.  1.
        -12    1    4    4    0    0  0.91970917461E-01  0.28095291182E+02 -0.66938678593E+01  0.28881857838E+02  0.00000000000E+00 0.  1.
</event>
<event>
 8    1  0.1247338E-006  0.9118800E+02  0.7816164E-02  0.1184000E+00
        -11   -1    0    0    0    0  0.00000000000E+00  0.00000000000E+00  0.45593999997E+02  0.45594000000E+02  0.51100000000E-03 0. -1.
         11   -1    0    0    0    0 -0.00000000000E+00 -0.00000000000E+00 -0.45593999997E+02  0.45594000000E+02  0.51100000000E-03 0.  1.
         23    2    1    2    0    0  0.00000000000E+00  0.00000000000E+00 -0.35527136788E-14  0.91188000000E+02  0.91188000000E+02 0.  0.
    9900012    2    3    3    0    0 -0.31018701662E+02  0.27292131902E+01 -0.19651271008E+02  0.54367069679E+02  0.39999966948E+02 0.  0.
        -12    1    3    3    0    0  0.31018701662E+02 -0.27292131902E+01  0.19651271008E+02  0.36820930321E+02  0.00000000000E+00 0.  1.
         11    1    4    4    0    0 -0.12614239515E+02 -0.63914199699E+01 -0.10237870146E+02  0.17458043222E+02  0.51100000000E-03 0.  1.
        -11    1    4    4    0    0  0.10808135658E+01  0.61910376932E+01  0.83016343599E+01  0.10412215854E+02  0.51100000000E-03 0. -1.
        -12    1    4    4    0    0 -0.19485275713E+02  0.29295954669E+01 -0.17715035222E+02  0.26496810603E+02  0.00000000000E+00 0.  1.
</event>
<event>
 8    1  0.1247338E-006  0.9118800E+02  0.7816164E-02  0.1184000E+00
        -11   -1    0    0    0    0  0.00000000000E+00  0.00000000000E+00  0.45593999997E+02  0.45594000000E+02  0.51100000000E-03 0. -1.
         11   -1    0    0    0    0 -0.00000000000E+00 -0.00000000000E+00 -0.45593999997E+02  0.45594000000E+02  0.51100000000E-03 0.  1.
         23    2    1    2    0    0  0.26645352591E-14  0.88817841970E-15 -0.71054273576E-14  0.91188000000E+02  0.91188000000E+02 0.  0.
    9900012    2    3    3    0    0  0.50299141620E+01  0.17330262658E+01 -0.36434553746E+02  0.54367080360E+02  0.39999991296E+02 0.  0.
         12    1    3    3    0    0 -0.50299141620E+01 -0.17330262658E+01  0.36434553746E+02  0.36820919640E+02  0.00000000000E+00 0. -1.
         11    1    4    4    0    0  0.48598842696E+01  0.94173072380E+01 -0.56018699889E+01  0.11986871917E+02  0.51100000000E-03 0. -1.
        -11    1    4    4    0    0 -0.10905286437E+02 -0.12835784322E+02 -0.18616530270E+02  0.25104936388E+02  0.51100000000E-03 0.  1.
        -12    1    4    4    0    0  0.11075316330E+02  0.51515033503E+01 -0.12216153486E+02  0.17275272055E+02  0.00000000000E+00 0.  1.
</event>
<event>
 8    1  0.1247338E-006  0.9118800E+02  0.7816164E-02  0.1184000E+00
        -11   -1    0    0    0    0  0.00000000000E+00  0.00000000000E+00  0.45593999997E+02  0.45594000000E+02  0.51100000000E-03 0.  1.
         11   -1    0    0    0    0 -0.00000000000E+00 -0.00000000000E+00 -0.45593999997E+02  0.45594000000E+02  0.51100000000E-03 0. -1.
         23    2    1    2    0    0 -0.35527136788E-14  0.17763568394E-14  0.00000000000E+00  0.91188000000E+02  0.91188000000E+02 0.  0.
    9900012    2    3    3    0    0 -0.28237771103E+02  0.98649966832E+01 -0.21473008713E+02  0.54367082309E+02  0.39999995740E+02 0.  0.
        -12    1    3    3    0    0  0.28237771103E+02 -0.98649966832E+01  0.21473008713E+02  0.36820917691E+02  0.00000000000E+00 0.  1.
         11    1    4    4    0    0 -0.73303512179E+01 -0.67760713109E+01 -0.11434042801E+02  0.15178488937E+02  0.51100000000E-03 0.  1.
        -11    1    4    4    0    0 -0.15664551201E+02 -0.39981311755E+01 -0.14662799891E+01  0.16233089493E+02  0.51100000000E-03 0. -1.
        -12    1    4    4    0    0 -0.52428686844E+01  0.20639199170E+02 -0.85726859228E+01  0.22955503879E+02  0.00000000000E+00 0.  1.
</event>
<event>
 8    1  0.1247338E-006  0.9118800E+02  0.7816164E-02  0.1184000E+00
        -11   -1    0    0    0    0  0.00000000000E+00  0.00000000000E+00  0.45593999997E+02  0.45594000000E+02  0.51100000000E-03 0.  1.
         11   -1    0    0    0    0 -0.00000000000E+00 -0.00000000000E+00 -0.45593999997E+02  0.45594000000E+02  0.51100000000E-03 0. -1.
         23    2    1    2    0    0 -0.35527136788E-14  0.00000000000E+00  0.00000000000E+00  0.91188000000E+02  0.91188000000E+02 0.  0.
    9900012    2    3    3    0    0  0.20236886688E+02  0.27535644625E+02  0.13712642604E+02  0.54367083731E+02  0.39999998981E+02 0.  0.
        -12    1    3    3    0    0 -0.20236886688E+02 -0.27535644625E+02 -0.13712642604E+02  0.36820916269E+02  0.00000000000E+00 0.  1.
         11    1    4    4    0    0  0.11431913083E+01  0.10198306279E+02  0.10974817950E+02  0.15025277589E+02  0.51100000000E-03 0.  1.
        -11    1    4    4    0    0  0.65302955299E+01  0.48353549585E+01  0.15500327801E+02  0.17501016527E+02  0.51100000000E-03 0. -1.
        -12    1    4    4    0    0  0.12563399850E+02  0.12501983387E+02 -0.12762503148E+02  0.21840789615E+02  0.00000000000E+00 0.  1.
</event>
<event>
 8    1  0.1247338E-006  0.9118800E+02  0.7816164E-02  0.1184000E+00
        -11   -1    0    0    0    0  0.00000000000E+00  0.00000000000E+00  0.45593999997E+02  0.45594000000E+02  0.51100000000E-03 0. -1.
         11   -1    0    0    0    0 -0.00000000000E+00 -0.00000000000E+00 -0.45593999997E+02  0.45594000000E+02  0.51100000000E-03 0.  1.
         23    2    1    2    0    0  0.35527136788E-14  0.35527136788E-14 -0.71054273576E-14  0.91188000000E+02  0.91188000000E+02 0.  0.
    9900012    2    3    3    0    0  0.23416088258E+02  0.19257958324E+02 -0.20894932239E+02  0.54367077396E+02  0.39999984541E+02 0.  0.
         12    1    3    3    0    0 -0.23416088258E+02 -0.19257958324E+02  0.20894932239E+02  0.36820922604E+02  0.00000000000E+00 0. -1.
         11    1    4    4    0    0  0.14473081653E+02  0.22380614008E+01  0.15627769579E+01  0.14728247806E+02  0.51100000000E-03 0. -1.
        -11    1    4    4    0    0 -0.33821341460E+01 -0.57410645711E+01 -0.32941047501E+01  0.74330195854E+01  0.51100000000E-03 0.  1.
        -12    1    4    4    0    0  0.12325140752E+02  0.22760961494E+02 -0.19163604446E+02  0.32205810005E+02  0.00000000000E+00 0.  1.
</event>
<event>
 8    1  0.1247338E-006  0.9118800E+02  0.7816164E-02  0.1184000E+00
        -11   -1    0    0    0    0  0.00000000000E+00  0.00000000000E+00  0.45593999997E+02  0.45594000000E+02  0.51100000000E-03 0.  1.
         11   -1    0    0    0    0 -0.00000000000E+00 -0.00000000000E+00 -0.45593999997E+02  0.45594000000E+02  0.51100000000E-03 0. -1.
         23    2    1    2    0    0  0.00000000000E+00 -0.71054273576E-14  0.00000000000E+00  0.91188000000E+02  0.91188000000E+02 0.  0.
    9900012    2    3    3    0    0 -0.75897212387E+01 -0.34981232467E+02  0.86307263086E+01  0.54367082982E+02  0.39999997275E+02 0.  0.
        -12    1    3    3    0    0  0.75897212387E+01  0.34981232467E+02 -0.86307263086E+01  0.36820917018E+02  0.00000000000E+00 0.  1.
         11    1    4    4    0    0  0.76818547066E+00 -0.13124718391E+02 -0.93002111523E+01  0.16104107224E+02  0.51100000000E-03 0. -1.
        -11    1    4    4    0    0 -0.84901012469E+01  0.27802992131E+01  0.28535255508E+01  0.93784055802E+01  0.51100000000E-03 0.  1.
        -12    1    4    4    0    0  0.13219453749E+00 -0.24636813290E+02  0.15077411910E+02  0.28884570178E+02  0.00000000000E+00 0.  1.
</event>
<event>
 8    1  0.1247338E-006  0.9118800E+02  0.7816164E-02  0.1184000E+00
        -11   -1    0    0    0    0  0.00000000000E+00  0.00000000000E+00  0.45593999997E+02  0.45594000000E+02  0.51100000000E-03 0. -1.
         11   -1    0    0    0    0 -0.00000000000E+00 -0.00000000000E+00 -0.45593999997E+02  0.45594000000E+02  0.51100000000E-03 0.  1.
         23    2    1    2    0    0 -0.17763568394E-14  0.00000000000E+00  0.71054273576E-14  0.91188000000E+02  0.91188000000E+02 0.  0.
    9900012    2    3    3    0    0 -0.65783839531E+01 -0.18240979204E+02  0.31301301024E+02  0.54367083342E+02  0.39999998094E+02 0.  0.
        -12    1    3    3    0    0  0.65783839531E+01  0.18240979204E+02 -0.31301301024E+02  0.36820916658E+02  0.00000000000E+00 0.  1.
         11    1    4    4    0    0  0.18258885323E+01  0.39469901445E+01 -0.27375802551E+01  0.51387689233E+01  0.51100000000E-03 0. -1.
        -11    1    4    4    0    0  0.90297764891E+01 -0.28761198081E+01  0.77545517349E+01  0.12245080705E+02  0.51100000000E-03 0.  1.
         12    1    4    4    0    0 -0.17434048975E+02 -0.19311849540E+02  0.26284329545E+02  0.36983233714E+02  0.00000000000E+00 0. -1.
</event>
<event>
 8    1  0.1247338E-006  0.9118800E+02  0.7816164E-02  0.1184000E+00
        -11   -1    0    0    0    0  0.00000000000E+00  0.00000000000E+00  0.45593999997E+02  0.45594000000E+02  0.51100000000E-03 0. -1.
         11   -1    0    0    0    0 -0.00000000000E+00 -0.00000000000E+00 -0.45593999997E+02  0.45594000000E+02  0.51100000000E-03 0.  1.
         23    2    1    2    0    0 -0.17763568394E-14  0.00000000000E+00  0.00000000000E+00  0.91188000000E+02  0.91188000000E+02 0.  0.
    9900012    2    3    3    0    0 -0.60192995428E+01 -0.36197107581E+02 -0.30520157253E+01  0.54367117824E+02  0.40000076703E+02 0.  0.
        -12    1    3    3    0    0  0.60192995428E+01  0.36197107581E+02  0.30520157253E+01  0.36820882176E+02  0.00000000000E+00 0.  1.
         11    1    4    4    0    0 -0.15748593915E+02 -0.13170483954E+02  0.43123069645E+01  0.20977984877E+02  0.51100000000E-03 0. -1.
        -11    1    4    4    0    0  0.14645493505E+02 -0.11270837463E+02  0.36844306128E+00  0.18483993283E+02  0.51100000000E-03 0.  1.
        -12    1    4    4    0    0 -0.49161991326E+01 -0.11755786164E+02 -0.77327657510E+01  0.14905139664E+02  0.00000000000E+00 0.  1.
</event>
<event>
 8    1  0.1247338E-006  0.9118800E+02  0.7816164E-02  0.1184000E+00
        -11   -1    0    0    0    0  0.00000000000E+00  0.00000000000E+00  0.45593999997E+02  0.45594000000E+02  0.51100000000E-03 0. -1.
         11   -1    0    0    0    0 -0.00000000000E+00 -0.00000000000E+00 -0.45593999997E+02  0.45594000000E+02  0.51100000000E-03 0.  1.
         23    2    1    2    0    0  0.00000000000E+00 -0.35527136788E-14  0.00000000000E+00  0.91188000000E+02  0.91188000000E+02 0.  0.
    9900012    2    3    3    0    0  0.73457547906E+01  0.21099765976E+02 -0.29268062550E+02  0.54367085792E+02  0.40000003679E+02 0.  0.
         12    1    3    3    0    0 -0.73457547906E+01 -0.21099765976E+02  0.29268062550E+02  0.36820914208E+02  0.00000000000E+00 0. -1.
         11    1    4    4    0    0 -0.18176814949E+01  0.33418845070E+01  0.30481364486E+01  0.48747609321E+01  0.51100000000E-03 0. -1.
        -11    1    4    4    0    0  0.45710770411E+01 -0.90434029190E+01 -0.67995304468E+01  0.12202929822E+02  0.51100000000E-03 0.  1.
         12    1    4    4    0    0  0.45923592443E+01  0.26801284388E+02 -0.25516668552E+02  0.37289395038E+02  0.00000000000E+00 0. -1.
</event>
<event>
 8    1  0.1247338E-006  0.9118800E+02  0.7816164E-02  0.1184000E+00
        -11   -1    0    0    0    0  0.00000000000E+00  0.00000000000E+00  0.45593999997E+02  0.45594000000E+02  0.51100000000E-03 0.  1.
         11   -1    0    0    0    0 -0.00000000000E+00 -0.00000000000E+00 -0.45593999997E+02  0.45594000000E+02  0.51100000000E-03 0. -1.
         23    2    1    2    0    0  0.22204460493E-15  0.00000000000E+00  0.00000000000E+00  0.91188000000E+02  0.91188000000E+02 0.  0.
    9900012    2    3    3    0    0  0.84515402506E+00 -0.14522481811E+02 -0.33825436393E+02  0.54367123986E+02  0.40000090750E+02 0.  0.
        -12    1    3    3    0    0 -0.84515402506E+00  0.14522481811E+02  0.33825436393E+02  0.36820876014E+02  0.00000000000E+00 0.  1.
         11    1    4    4    0    0 -0.56783667736E+01 -0.24931533077E+02 -0.12906309172E+02  0.28642590796E+02  0.51100000000E-03 0. -1.
        -11    1    4    4    0    0 -0.46191378587E-01  0.31406796872E+01 -0.64409408000E+00  0.32063780167E+01  0.51100000000E-03 0.  1.
         12    1    4    4    0    0  0.65697121772E+01  0.72683715796E+01 -0.20275033141E+02  0.22518155173E+02  0.00000000000E+00 0. -1.
</event>
<event>
 8    1  0.1247338E-006  0.9118800E+02  0.7816164E-02  0.1184000E+00
        -11   -1    0    0    0    0  0.00000000000E+00  0.00000000000E+00  0.45593999997E+02  0.45594000000E+02  0.51100000000E-03 0. -1.
         11   -1    0    0    0    0 -0.00000000000E+00 -0.00000000000E+00 -0.45593999997E+02  0.45594000000E+02  0.51100000000E-03 0.  1.
         23    2    1    2    0    0  0.00000000000E+00  0.88817841970E-15 -0.66613381478E-15  0.91188000000E+02  0.91188000000E+02 0.  0.
    9900012    2    3    3    0    0  0.36652781459E+02 -0.30350377737E+01  0.17724569617E+01  0.54367089547E+02  0.40000012239E+02 0.  0.
        -12    1    3    3    0    0 -0.36652781459E+02  0.30350377737E+01 -0.17724569617E+01  0.36820910453E+02  0.00000000000E+00 0.  1.
         11    1    4    4    0    0  0.24044351008E+02  0.13872596026E+02  0.11154043450E+02  0.29916423942E+02  0.51100000000E-03 0. -1.
        -11    1    4    4    0    0 -0.11322668199E+01 -0.18247835840E+01 -0.12628560108E+01  0.24913186960E+01  0.51100000000E-03 0.  1.
         12    1    4    4    0    0  0.13740697270E+02 -0.15082850215E+02 -0.81187304780E+01  0.21959346909E+02  0.00000000000E+00 0. -1.
</event>
<event>
 8    1  0.1247338E-006  0.9118800E+02  0.7816164E-02  0.1184000E+00
        -11   -1    0    0    0    0  0.00000000000E+00  0.00000000000E+00  0.45593999997E+02  0.45594000000E+02  0.51100000000E-03 0. -1.
         11   -1    0    0    0    0 -0.00000000000E+00 -0.00000000000E+00 -0.45593999997E+02  0.45594000000E+02  0.51100000000E-03 0.  1.
         23    2    1    2    0    0  0.17763568394E-14 -0.71054273576E-14 -0.26645352591E-14  0.91188000000E+02  0.91188000000E+02 0.  0.
    9900012    2    3    3    0    0 -0.15128636334E+02  0.33177240484E+02  0.51161732658E+01  0.54367079963E+02  0.39999990392E+02 0.  0.
        -12    1    3    3    0    0  0.15128636334E+02 -0.33177240484E+02 -0.51161732658E+01  0.36820920037E+02  0.00000000000E+00 0.  1.
         11    1    4    4    0    0 -0.17216476207E+02  0.16648504939E+02 -0.60839145036E+01  0.24710195985E+02  0.51100000000E-03 0. -1.
        -11    1    4    4    0    0 -0.22813076081E+01  0.73306236045E+01 -0.59488604710E+01  0.97124326509E+01  0.51100000000E-03 0.  1.
        -12    1    4    4    0    0  0.43691474805E+01  0.91981119409E+01  0.17148948240E+02  0.19944451327E+02  0.00000000000E+00 0.  1.
</event>
<event>
 8    1  0.1247338E-006  0.9118800E+02  0.7816164E-02  0.1184000E+00
        -11   -1    0    0    0    0  0.00000000000E+00  0.00000000000E+00  0.45593999997E+02  0.45594000000E+02  0.51100000000E-03 0. -1.
         11   -1    0    0    0    0 -0.00000000000E+00 -0.00000000000E+00 -0.45593999997E+02  0.45594000000E+02  0.51100000000E-03 0.  1.
         23    2    1    2    0    0 -0.17763568394E-14  0.00000000000E+00 -0.53290705182E-14  0.91188000000E+02  0.91188000000E+02 0.  0.
    9900012    2    3    3    0    0  0.93216815825E+01 -0.32850636637E+02  0.13773948907E+02  0.54367085515E+02  0.40000003049E+02 0.  0.
        -12    1    3    3    0    0 -0.93216815825E+01  0.32850636637E+02 -0.13773948907E+02  0.36820914485E+02  0.00000000000E+00 0.  1.
         11    1    4    4    0    0 -0.59786252931E+01 -0.46656952513E+01  0.56387142488E+01  0.94502788961E+01  0.51100000000E-03 0. -1.
        -11    1    4    4    0    0 -0.31928866563E+00 -0.40799360007E+01 -0.10097580142E+02  0.10895363601E+02  0.51100000000E-03 0.  1.
        -12    1    4    4    0    0  0.15619595541E+02 -0.24105005385E+02  0.18232814800E+02  0.34021443018E+02  0.00000000000E+00 0.  1.
</event>
<event>
 8    1  0.1247338E-006  0.9118800E+02  0.7816164E-02  0.1184000E+00
        -11   -1    0    0    0    0  0.00000000000E+00  0.00000000000E+00  0.45593999997E+02  0.45594000000E+02  0.51100000000E-03 0.  1.
         11   -1    0    0    0    0 -0.00000000000E+00 -0.00000000000E+00 -0.45593999997E+02  0.45594000000E+02  0.51100000000E-03 0. -1.
         23    2    1    2    0    0  0.00000000000E+00  0.00000000000E+00  0.71054273576E-14  0.91188000000E+02  0.91188000000E+02 0.  0.
    9900012    2    3    3    0    0  0.17451187976E+02 -0.69292489049E+01 -0.31673643515E+02  0.54367107212E+02  0.40000052512E+02 0.  0.
         12    1    3    3    0    0 -0.17451187976E+02  0.69292489049E+01  0.31673643515E+02  0.36820892788E+02  0.00000000000E+00 0. -1.
         11    1    4    4    0    0 -0.12448627501E+01  0.35564507266E+01  0.79258509158E+00  0.38504826224E+01  0.51100000000E-03 0. -1.
        -11    1    4    4    0    0  0.56946965544E+01 -0.17197922535E+02 -0.40631602013E+01  0.18566296870E+02  0.51100000000E-03 0.  1.
        -12    1    4    4    0    0  0.13001354172E+02  0.67122229037E+01 -0.28403068405E+02  0.31950327720E+02  0.00000000000E+00 0.  1.
</event>
<event>
 8    1  0.1247338E-006  0.9118800E+02  0.7816164E-02  0.1184000E+00
        -11   -1    0    0    0    0  0.00000000000E+00  0.00000000000E+00  0.45593999997E+02  0.45594000000E+02  0.51100000000E-03 0. -1.
         11   -1    0    0    0    0 -0.00000000000E+00 -0.00000000000E+00 -0.45593999997E+02  0.45594000000E+02  0.51100000000E-03 0.  1.
         23    2    1    2    0    0  0.00000000000E+00  0.17763568394E-14  0.35527136788E-14  0.91188000000E+02  0.91188000000E+02 0.  0.
    9900012    2    3    3    0    0 -0.26601009906E+02  0.15866015486E+02  0.19910687211E+02  0.54367086912E+02  0.40000006233E+02 0.  0.
        -12    1    3    3    0    0  0.26601009906E+02 -0.15866015486E+02 -0.19910687211E+02  0.36820913088E+02  0.00000000000E+00 0.  1.
         11    1    4    4    0    0  0.30711304924E+00  0.15995459397E+02  0.57881730316E+01  0.17013288543E+02  0.51100000000E-03 0. -1.
        -11    1    4    4    0    0 -0.63174471607E+01 -0.98601047143E+01  0.61311310870E+01  0.13218266614E+02  0.51100000000E-03 0.  1.
         12    1    4    4    0    0 -0.20590675795E+02  0.97306608035E+01  0.79913830925E+01  0.24135531755E+02  0.00000000000E+00 0. -1.
</event>
<event>
 8    1  0.1247338E-006  0.9118800E+02  0.7816164E-02  0.1184000E+00
        -11   -1    0    0    0    0  0.00000000000E+00  0.00000000000E+00  0.45593999997E+02  0.45594000000E+02  0.51100000000E-03 0. -1.
         11   -1    0    0    0    0 -0.00000000000E+00 -0.00000000000E+00 -0.45593999997E+02  0.45594000000E+02  0.51100000000E-03 0.  1.
         23    2    1    2    0    0  0.55511151231E-16  0.00000000000E+00  0.00000000000E+00  0.91188000000E+02  0.91188000000E+02 0.  0.
    9900012    2    3    3    0    0 -0.13753933441E+00  0.17042865569E+02 -0.32638951137E+02  0.54367091332E+02  0.40000016309E+02 0.  0.
         12    1    3    3    0    0  0.13753933441E+00 -0.17042865569E+02  0.32638951137E+02  0.36820908668E+02  0.00000000000E+00 0. -1.
         11    1    4    4    0    0 -0.22805228331E+01  0.26946722126E+02 -0.25759202308E+02  0.37347866358E+02  0.51100000000E-03 0. -1.
        -11    1    4    4    0    0 -0.20998262374E+01  0.18956019146E+01 -0.23810153464E+01  0.36975412354E+01  0.51100000000E-03 0.  1.
         12    1    4    4    0    0  0.42428097361E+01 -0.11799458471E+02 -0.44987334822E+01  0.13321683738E+02  0.00000000000E+00 0. -1.
</event>
<event>
 8    1  0.1247338E-006  0.9118800E+02  0.7816164E-02  0.1184000E+00
        -11   -1    0    0    0    0  0.00000000000E+00  0.00000000000E+00  0.45593999997E+02  0.45594000000E+02  0.51100000000E-03 0. -1.
         11   -1    0    0    0    0 -0.00000000000E+00 -0.00000000000E+00 -0.45593999997E+02  0.45594000000E+02  0.51100000000E-03 0.  1.
         23    2    1    2    0    0  0.35527136788E-14 -0.22204460493E-15  0.00000000000E+00  0.91188000000E+02  0.91188000000E+02 0.  0.
    9900012    2    3    3    0    0 -0.15341850366E+02  0.17687126339E+01  0.33425728019E+02  0.54367081888E+02  0.39999994781E+02 0.  0.
        -12    1    3    3    0    0  0.15341850366E+02 -0.17687126339E+01 -0.33425728019E+02  0.36820918112E+02  0.00000000000E+00 0.  1.
         11    1    4    4    0    0 -0.15815767344E+02  0.63114560861E+01  0.20668942910E+02  0.26780182522E+02  0.51100000000E-03 0. -1.
        -11    1    4    4    0    0 -0.47917572216E+01 -0.23941300475E+01  0.18645855554E+02  0.19400018700E+02  0.51100000000E-03 0.  1.
        -12    1    4    4    0    0  0.52656742003E+01 -0.21486134048E+01 -0.58890704452E+01  0.81868806670E+01  0.00000000000E+00 0.  1.
</event>
<event>
 8    1  0.1247338E-006  0.9118800E+02  0.7816164E-02  0.1184000E+00
        -11   -1    0    0    0    0  0.00000000000E+00  0.00000000000E+00  0.45593999997E+02  0.45594000000E+02  0.51100000000E-03 0.  1.
         11   -1    0    0    0    0 -0.00000000000E+00 -0.00000000000E+00 -0.45593999997E+02  0.45594000000E+02  0.51100000000E-03 0. -1.
         23    2    1    2    0    0 -0.35527136788E-14  0.00000000000E+00  0.35527136788E-14  0.91188000000E+02  0.91188000000E+02 0.  0.
    9900012    2    3    3    0    0  0.25704340593E+02 -0.47544808685E+01 -0.25931830957E+02  0.54367108234E+02  0.40000054840E+02 0.  0.
         12    1    3    3    0    0 -0.25704340593E+02  0.47544808685E+01  0.25931830957E+02  0.36820891766E+02  0.00000000000E+00 0. -1.
         11    1    4    4    0    0  0.92508604514E+01 -0.64270646859E+01 -0.53241848580E+01  0.12459234496E+02  0.51100000000E-03 0. -1.
        -11    1    4    4    0    0  0.15346550161E+02 -0.10992158720E+02 -0.14723680089E+01  0.18934413721E+02  0.51100000000E-03 0.  1.
         12    1    4    4    0    0  0.11069299811E+01  0.12664742537E+02 -0.19135278090E+02  0.22973460016E+02  0.00000000000E+00 0. -1.
</event>
<event>
 8    1  0.1247338E-006  0.9118800E+02  0.7816164E-02  0.1184000E+00
        -11   -1    0    0    0    0  0.00000000000E+00  0.00000000000E+00  0.45593999997E+02  0.45594000000E+02  0.51100000000E-03 0.  1.
         11   -1    0    0    0    0 -0.00000000000E+00 -0.00000000000E+00 -0.45593999997E+02  0.45594000000E+02  0.51100000000E-03 0. -1.
         23    2    1    2    0    0  0.00000000000E+00  0.11102230246E-14  0.00000000000E+00  0.91188000000E+02  0.91188000000E+02 0.  0.
    9900012    2    3    3    0    0 -0.13154321580E+01  0.15397976200E+01 -0.36765176319E+02  0.54367088438E+02  0.40000009713E+02 0.  0.
        -12    1    3    3    0    0  0.13154321580E+01 -0.15397976200E+01  0.36765176319E+02  0.36820911562E+02  0.00000000000E+00 0.  1.
         11    1    4    4    0    0 -0.59845425102E+01  0.14934896476E+02 -0.48884364947E+01  0.16815549157E+02  0.51100000000E-03 0. -1.
        -11    1    4    4    0    0  0.15432752458E+01 -0.39069881328E+00 -0.18729162490E+02  0.18796698431E+02  0.51100000000E-03 0.  1.
        -12    1    4    4    0    0  0.31258351065E+01 -0.13004400043E+02 -0.13147577334E+02  0.18754840851E+02  0.00000000000E+00 0.  1.
</event>
<event>
 8    1  0.1247338E-006  0.9118800E+02  0.7816164E-02  0.1184000E+00
        -11   -1    0    0    0    0  0.00000000000E+00  0.00000000000E+00  0.45593999997E+02  0.45594000000E+02  0.51100000000E-03 0.  1.
         11   -1    0    0    0    0 -0.00000000000E+00 -0.00000000000E+00 -0.45593999997E+02  0.45594000000E+02  0.51100000000E-03 0. -1.
         23    2    1    2    0    0  0.35527136788E-14  0.35527136788E-14 -0.35527136788E-14  0.91188000000E+02  0.91188000000E+02 0.  0.
    9900012    2    3    3    0    0  0.19285937285E+02  0.20432006745E+02 -0.23798492503E+02  0.54367047785E+02  0.39999917036E+02 0.  0.
        -12    1    3    3    0    0 -0.19285937285E+02 -0.20432006745E+02  0.23798492503E+02  0.36820952215E+02  0.00000000000E+00 0.  1.
         11    1    4    4    0    0  0.79811785817E+01  0.26938535650E+01  0.48089860506E+01  0.96996085322E+01  0.51100000000E-03 0. -1.
        -11    1    4    4    0    0  0.91413994484E+01  0.22303396632E+02 -0.30841706611E+02  0.39143550582E+02  0.51100000000E-03 0.  1.
        -12    1    4    4    0    0  0.21633592548E+01 -0.45652434523E+01  0.22342280570E+01  0.55238886714E+01  0.00000000000E+00 0.  1.
</event>
<event>
 8    1  0.1247338E-006  0.9118800E+02  0.7816164E-02  0.1184000E+00
        -11   -1    0    0    0    0  0.00000000000E+00  0.00000000000E+00  0.45593999997E+02  0.45594000000E+02  0.51100000000E-03 0.  1.
         11   -1    0    0    0    0 -0.00000000000E+00 -0.00000000000E+00 -0.45593999997E+02  0.45594000000E+02  0.51100000000E-03 0. -1.
         23    2    1    2    0    0  0.35527136788E-14  0.35527136788E-14 -0.35527136788E-14  0.91188000000E+02  0.91188000000E+02 0.  0.
    9900012    2    3    3    0    0 -0.23463774365E+02 -0.20229470961E+02 -0.19899834440E+02  0.54367032963E+02  0.39999883245E+02 0.  0.
        -12    1    3    3    0    0  0.23463774365E+02  0.20229470961E+02  0.19899834440E+02  0.36820967037E+02  0.00000000000E+00 0.  1.
         11    1    4    4    0    0 -0.25672438803E+02  0.19508390513E+01 -0.10783732112E+02  0.27913594638E+02  0.51100000000E-03 0. -1.
        -11    1    4    4    0    0  0.54544473144E+01 -0.51737672888E+01 -0.29004061877E+01  0.80579910511E+01  0.51100000000E-03 0.  1.
        -12    1    4    4    0    0 -0.32457828762E+01 -0.17006542723E+02 -0.62156961403E+01  0.18395447273E+02  0.00000000000E+00 0.  1.
</event>
<event>
 8    1  0.1247338E-006  0.9118800E+02  0.7816164E-02  0.1184000E+00
        -11   -1    0    0    0    0  0.00000000000E+00  0.00000000000E+00  0.45593999997E+02  0.45594000000E+02  0.51100000000E-03 0.  1.
         11   -1    0    0    0    0 -0.00000000000E+00 -0.00000000000E+00 -0.45593999997E+02  0.45594000000E+02  0.51100000000E-03 0. -1.
         23    2    1    2    0    0  0.00000000000E+00  0.00000000000E+00  0.17763568394E-14  0.91188000000E+02  0.91188000000E+02 0.  0.
    9900012    2    3    3    0    0  0.16800198132E+02 -0.31435514455E+02 -0.92380875719E+01  0.54367075402E+02  0.39999979993E+02 0.  0.
         12    1    3    3    0    0 -0.16800198132E+02  0.31435514455E+02  0.92380875719E+01  0.36820924598E+02  0.00000000000E+00 0. -1.
         11    1    4    4    0    0 -0.55252748466E+01 -0.53776881300E+01 -0.10745260754E+02  0.13225309852E+02  0.51100000000E-03 0. -1.
        -11    1    4    4    0    0 -0.19058848270E+01 -0.13834248265E+02  0.92722902691E+00  0.13995662756E+02  0.51100000000E-03 0.  1.
         12    1    4    4    0    0  0.24231357805E+02 -0.12223578059E+02  0.57994415542E+00  0.27146102794E+02  0.00000000000E+00 0. -1.
</event>
<event>
 8    1  0.1247338E-006  0.9118800E+02  0.7816164E-02  0.1184000E+00
        -11   -1    0    0    0    0  0.00000000000E+00  0.00000000000E+00  0.45593999997E+02  0.45594000000E+02  0.51100000000E-03 0. -1.
         11   -1    0    0    0    0 -0.00000000000E+00 -0.00000000000E+00 -0.45593999997E+02  0.45594000000E+02  0.51100000000E-03 0.  1.
         23    2    1    2    0    0 -0.35527136788E-14  0.35527136788E-14  0.71054273576E-14  0.91188000000E+02  0.91188000000E+02 0.  0.
    9900012    2    3    3    0    0 -0.16834848098E+02  0.26391800003E+02  0.19386632785E+02  0.54367071866E+02  0.39999971933E+02 0.  0.
         12    1    3    3    0    0  0.16834848098E+02 -0.26391800003E+02 -0.19386632785E+02  0.36820928134E+02  0.00000000000E+00 0. -1.
         11    1    4    4    0    0  0.53065032362E+00 -0.23704434070E+01  0.16838674358E+01  0.29556727685E+01  0.51100000000E-03 0. -1.
        -11    1    4    4    0    0 -0.15092321335E+02  0.37779134465E+01 -0.62113566573E+01  0.16752066889E+02  0.51100000000E-03 0.  1.
         12    1    4    4    0    0 -0.22731770874E+01  0.24984329964E+02  0.23914122007E+02  0.34659332209E+02  0.00000000000E+00 0. -1.
</event>
<event>
 8    1  0.1247338E-006  0.9118800E+02  0.7816164E-02  0.1184000E+00
        -11   -1    0    0    0    0  0.00000000000E+00  0.00000000000E+00  0.45593999997E+02  0.45594000000E+02  0.51100000000E-03 0.  1.
         11   -1    0    0    0    0 -0.00000000000E+00 -0.00000000000E+00 -0.45593999997E+02  0.45594000000E+02  0.51100000000E-03 0. -1.
         23    2    1    2    0    0  0.00000000000E+00 -0.35527136788E-14  0.00000000000E+00  0.91188000000E+02  0.91188000000E+02 0.  0.
    9900012    2    3    3    0    0 -0.30716294733E+02  0.19911219065E+02  0.39784992323E+01  0.54367138211E+02  0.40000123178E+02 0.  0.
        -12    1    3    3    0    0  0.30716294733E+02 -0.19911219065E+02 -0.39784992323E+01  0.36820861789E+02  0.00000000000E+00 0.  1.
         11    1    4    4    0    0  0.42862548241E+00  0.68637779194E+01  0.53475576080E+01  0.87115750449E+01  0.51100000000E-03 0. -1.
        -11    1    4    4    0    0 -0.14657470355E+01  0.14392241641E+02  0.49335156811E+01  0.15284783644E+02  0.51100000000E-03 0.  1.
         12    1    4    4    0    0 -0.29679173180E+02 -0.13448004947E+01 -0.63025740568E+01  0.30370779521E+02  0.00000000000E+00 0. -1.
</event>
<event>
 8    1  0.1247338E-006  0.9118800E+02  0.7816164E-02  0.1184000E+00
        -11   -1    0    0    0    0  0.00000000000E+00  0.00000000000E+00  0.45593999997E+02  0.45594000000E+02  0.51100000000E-03 0.  1.
         11   -1    0    0    0    0 -0.00000000000E+00 -0.00000000000E+00 -0.45593999997E+02  0.45594000000E+02  0.51100000000E-03 0. -1.
         23    2    1    2    0    0  0.00000000000E+00 -0.35527136788E-14  0.00000000000E+00  0.91188000000E+02  0.91188000000E+02 0.  0.
    9900012    2    3    3    0    0 -0.31162086097E+02 -0.18487563720E+02  0.65509758492E+01  0.54367069719E+02  0.39999967037E+02 0.  0.
        -12    1    3    3    0    0  0.31162086097E+02  0.18487563720E+02 -0.65509758492E+01  0.36820930281E+02  0.00000000000E+00 0.  1.
         11    1    4    4    0    0 -0.22126826499E+02 -0.10091879454E+01 -0.65390856893E+01  0.23094903186E+02  0.51100000000E-03 0. -1.
        -11    1    4    4    0    0 -0.57234013463E+01  0.33783526108E+01  0.61171350458E+01  0.90327144737E+01  0.51100000000E-03 0.  1.
         12    1    4    4    0    0 -0.33118582512E+01 -0.20856728385E+02  0.69729264927E+01  0.22239452059E+02  0.00000000000E+00 0. -1.
</event>
<event>
 8    1  0.1247338E-006  0.9118800E+02  0.7816164E-02  0.1184000E+00
        -11   -1    0    0    0    0  0.00000000000E+00  0.00000000000E+00  0.45593999997E+02  0.45594000000E+02  0.51100000000E-03 0.  1.
         11   -1    0    0    0    0 -0.00000000000E+00 -0.00000000000E+00 -0.45593999997E+02  0.45594000000E+02  0.51100000000E-03 0. -1.
         23    2    1    2    0    0  0.00000000000E+00  0.17763568394E-14  0.00000000000E+00  0.91188000000E+02  0.91188000000E+02 0.  0.
    9900012    2    3    3    0    0  0.26069687970E+02 -0.39747516980E+00  0.25999960991E+02  0.54367019719E+02  0.39999853052E+02 0.  0.
         12    1    3    3    0    0 -0.26069687970E+02  0.39747516980E+00 -0.25999960991E+02  0.36820980281E+02  0.00000000000E+00 0. -1.
         11    1    4    4    0    0  0.31701625780E+01 -0.79219745040E+01 -0.24101346349E+01  0.88665867183E+01  0.51100000000E-03 0. -1.
        -11    1    4    4    0    0  0.45394437326E+00 -0.78110499974E+01  0.32931129375E+01  0.84890023345E+01  0.51100000000E-03 0.  1.
         12    1    4    4    0    0  0.22445581019E+02  0.15335549332E+02  0.25116982688E+02  0.37011430666E+02  0.00000000000E+00 0. -1.
</event>
<event>
 8    1  0.1247338E-006  0.9118800E+02  0.7816164E-02  0.1184000E+00
        -11   -1    0    0    0    0  0.00000000000E+00  0.00000000000E+00  0.45593999997E+02  0.45594000000E+02  0.51100000000E-03 0. -1.
         11   -1    0    0    0    0 -0.00000000000E+00 -0.00000000000E+00 -0.45593999997E+02  0.45594000000E+02  0.51100000000E-03 0.  1.
         23    2    1    2    0    0  0.00000000000E+00 -0.44408920985E-15 -0.17763568394E-14  0.91188000000E+02  0.91188000000E+02 0.  0.
    9900012    2    3    3    0    0 -0.32991399360E+02 -0.38328746712E+01 -0.15895161866E+02  0.54367088404E+02  0.40000009636E+02 0.  0.
         12    1    3    3    0    0  0.32991399360E+02  0.38328746712E+01  0.15895161866E+02  0.36820911596E+02  0.00000000000E+00 0. -1.
         11    1    4    4    0    0 -0.11083110865E+02 -0.44024522391E+01  0.46468409477E+01  0.12798830541E+02  0.51100000000E-03 0. -1.
        -11    1    4    4    0    0 -0.16166501988E+02 -0.58741431323E+01  0.21082790124E+01  0.17329344613E+02  0.51100000000E-03 0.  1.
        -12    1    4    4    0    0 -0.57417865071E+01  0.64437207002E+01 -0.22650281826E+02  0.24238913250E+02  0.00000000000E+00 0.  1.
</event>
<event>
 8    1  0.1247338E-006  0.9118800E+02  0.7816164E-02  0.1184000E+00
        -11   -1    0    0    0    0  0.00000000000E+00  0.00000000000E+00  0.45593999997E+02  0.45594000000E+02  0.51100000000E-03 0.  1.
         11   -1    0    0    0    0 -0.00000000000E+00 -0.00000000000E+00 -0.45593999997E+02  0.45594000000E+02  0.51100000000E-03 0. -1.
         23    2    1    2    0    0  0.35527136788E-14  0.00000000000E+00  0.00000000000E+00  0.91188000000E+02  0.91188000000E+02 0.  0.
    9900012    2    3    3    0    0 -0.25296879145E+02 -0.22844257030E+02 -0.13927944832E+02  0.54367084463E+02  0.40000000650E+02 0.  0.
        -12    1    3    3    0    0  0.25296879145E+02  0.22844257030E+02  0.13927944832E+02  0.36820915537E+02  0.00000000000E+00 0.  1.
         11    1    4    4    0    0 -0.70333816366E+01 -0.24917371846E+02 -0.99329964929E+00  0.25910046727E+02  0.51100000000E-03 0. -1.
        -11    1    4    4    0    0  0.10236813421E+01 -0.25543696567E+01 -0.73545369453E+01  0.78525118131E+01  0.51100000000E-03 0.  1.
         12    1    4    4    0    0 -0.19287178851E+02  0.46274844723E+01 -0.55801082369E+01  0.20604525923E+02  0.00000000000E+00 0. -1.
</event>
<event>
 8    1  0.1247338E-006  0.9118800E+02  0.7816164E-02  0.1184000E+00
        -11   -1    0    0    0    0  0.00000000000E+00  0.00000000000E+00  0.45593999997E+02  0.45594000000E+02  0.51100000000E-03 0. -1.
         11   -1    0    0    0    0 -0.00000000000E+00 -0.00000000000E+00 -0.45593999997E+02  0.45594000000E+02  0.51100000000E-03 0.  1.
         23    2    1    2    0    0  0.00000000000E+00 -0.88817841970E-15 -0.17763568394E-14  0.91188000000E+02  0.91188000000E+02 0.  0.
    9900012    2    3    3    0    0  0.35128951269E+02 -0.47081528876E+01 -0.99784785528E+01  0.54367082642E+02  0.39999996499E+02 0.  0.
         12    1    3    3    0    0 -0.35128951269E+02  0.47081528876E+01  0.99784785528E+01  0.36820917358E+02  0.00000000000E+00 0. -1.
         11    1    4    4    0    0  0.30189425463E+01  0.33718267512E+01  0.20440102417E+01  0.49660052223E+01  0.51100000000E-03 0. -1.
        -11    1    4    4    0    0  0.22142209940E+02 -0.36315286130E+01  0.10196128308E+02  0.24646023895E+02  0.51100000000E-03 0.  1.
        -12    1    4    4    0    0  0.99677987826E+01 -0.44484510259E+01 -0.22218617102E+02  0.24755053525E+02  0.00000000000E+00 0.  1.
</event>
<event>
 8    1  0.1247338E-006  0.9118800E+02  0.7816164E-02  0.1184000E+00
        -11   -1    0    0    0    0  0.00000000000E+00  0.00000000000E+00  0.45593999997E+02  0.45594000000E+02  0.51100000000E-03 0. -1.
         11   -1    0    0    0    0 -0.00000000000E+00 -0.00000000000E+00 -0.45593999997E+02  0.45594000000E+02  0.51100000000E-03 0.  1.
         23    2    1    2    0    0  0.71054273576E-14  0.88817841970E-15  0.00000000000E+00  0.91188000000E+02  0.91188000000E+02 0.  0.
    9900012    2    3    3    0    0  0.36215602818E+02  0.58323503951E+01  0.31928866067E+01  0.54367072208E+02  0.39999972712E+02 0.  0.
        -12    1    3    3    0    0 -0.36215602818E+02 -0.58323503951E+01 -0.31928866067E+01  0.36820927792E+02  0.00000000000E+00 0.  1.
         11    1    4    4    0    0 -0.24918280894E+00  0.24529424927E+01 -0.29394271287E+01  0.38365676132E+01  0.51100000000E-03 0. -1.
        -11    1    4    4    0    0  0.21744592817E+01  0.84263464655E+01 -0.91709224223E+01  0.12642681925E+02  0.51100000000E-03 0.  1.
         12    1    4    4    0    0  0.34290326345E+02 -0.50469385630E+01  0.15303236158E+02  0.37887822669E+02  0.00000000000E+00 0. -1.
</event>
<event>
 8    1  0.1247338E-006  0.9118800E+02  0.7816164E-02  0.1184000E+00
        -11   -1    0    0    0    0  0.00000000000E+00  0.00000000000E+00  0.45593999997E+02  0.45594000000E+02  0.51100000000E-03 0. -1.
         11   -1    0    0    0    0 -0.00000000000E+00 -0.00000000000E+00 -0.45593999997E+02  0.45594000000E+02  0.51100000000E-03 0.  1.
         23    2    1    2    0    0  0.88817841970E-15  0.00000000000E+00  0.00000000000E+00  0.91188000000E+02  0.91188000000E+02 0.  0.
    9900012    2    3    3    0    0  0.37596350477E+01  0.21305357675E+02 -0.29794765572E+02  0.54367066052E+02  0.39999958679E+02 0.  0.
         12    1    3    3    0    0 -0.37596350477E+01 -0.21305357675E+02  0.29794765572E+02  0.36820933948E+02  0.00000000000E+00 0. -1.
         11    1    4    4    0    0  0.64296566543E+01  0.16008423002E+02 -0.74037129670E+01  0.18772987447E+02  0.51100000000E-03 0. -1.
        -11    1    4    4    0    0  0.11473585989E+02 -0.60088536518E+00 -0.53423379739E+01  0.12670628002E+02  0.51100000000E-03 0.  1.
         12    1    4    4    0    0 -0.14143607596E+02  0.58978200375E+01 -0.17048714631E+02  0.22923450604E+02  0.00000000000E+00 0. -1.
</event>
<event>
 8    1  0.1247338E-006  0.9118800E+02  0.7816164E-02  0.1184000E+00
        -11   -1    0    0    0    0  0.00000000000E+00  0.00000000000E+00  0.45593999997E+02  0.45594000000E+02  0.51100000000E-03 0.  1.
         11   -1    0    0    0    0 -0.00000000000E+00 -0.00000000000E+00 -0.45593999997E+02  0.45594000000E+02  0.51100000000E-03 0. -1.
         23    2    1    2    0    0  0.00000000000E+00  0.00000000000E+00  0.00000000000E+00  0.91188000000E+02  0.91188000000E+02 0.  0.
    9900012    2    3    3    0    0  0.55179999981E+01 -0.35238788756E+02  0.91410782823E+01  0.54367083809E+02  0.39999999159E+02 0.  0.
        -12    1    3    3    0    0 -0.55179999981E+01  0.35238788756E+02 -0.91410782823E+01  0.36820916191E+02  0.00000000000E+00 0.  1.
         11    1    4    4    0    0 -0.79916678971E+01 -0.21954286372E+02 -0.23328540785E+01  0.23479771172E+02  0.51100000000E-03 0. -1.
        -11    1    4    4    0    0  0.96661193595E+01  0.33458901794E+01  0.90301277103E+01  0.13644487945E+02  0.51100000000E-03 0.  1.
         12    1    4    4    0    0  0.38435485357E+01 -0.16630392564E+02  0.24438046505E+01  0.17242824692E+02  0.00000000000E+00 0. -1.
</event>
