<event>
 8    1  0.1265908E-006  0.9118800E+02  0.7816164E-02  0.1184000E+00
        -11   -1    0    0    0    0  0.00000000000E+00  0.00000000000E+00  0.45593999997E+02  0.45594000000E+02  0.51100000000E-03 0. -1.
         11   -1    0    0    0    0 -0.00000000000E+00 -0.00000000000E+00 -0.45593999997E+02  0.45594000000E+02  0.51100000000E-03 0.  1.
         23    2    1    2    0    0  0.00000000000E+00 -0.35527136788E-14  0.00000000000E+00  0.91188000000E+02  0.91188000000E+02 0.  0.
    9900012    2    3    3    0    0 -0.65624805506E+01 -0.31131247924E+02  0.18535345908E+02  0.54367084799E+02  0.40000001417E+02 0.  0.
        -12    1    3    3    0    0  0.65624805506E+01  0.31131247924E+02 -0.18535345908E+02  0.36820915201E+02  0.00000000000E+00 0.  1.
         11    1    4    4    0    0  0.11846425354E+02 -0.15693473308E+02  0.62858769756E+01  0.20643041146E+02  0.51100000000E-03 0. -1.
        -11    1    4    4    0    0 -0.32171570528E+00 -0.53748554852E+01 -0.45632476529E+01  0.70580310203E+01  0.51100000000E-03 0.  1.
         12    1    4    4    0    0 -0.18087190200E+02 -0.10062919131E+02  0.16812716585E+02  0.26666012633E+02  0.00000000000E+00 0. -1.
</event>
<event>
 8    1  0.1265908E-006  0.9118800E+02  0.7816164E-02  0.1184000E+00
        -11   -1    0    0    0    0  0.00000000000E+00  0.00000000000E+00  0.45593999997E+02  0.45594000000E+02  0.51100000000E-03 0.  1.
         11   -1    0    0    0    0 -0.00000000000E+00 -0.00000000000E+00 -0.45593999997E+02  0.45594000000E+02  0.51100000000E-03 0. -1.
         23    2    1    2    0    0  0.00000000000E+00  0.00000000000E+00  0.71054273576E-14  0.91188000000E+02  0.91188000000E+02 0.  0.
    9900012    2    3    3    0    0  0.84974556715E+01 -0.27312699445E+01 -0.35722722860E+02  0.54367088592E+02  0.40000010063E+02 0.  0.
        -12    1    3    3    0    0 -0.84974556715E+01  0.27312699445E+01  0.35722722860E+02  0.36820911408E+02  0.00000000000E+00 0.  1.
         11    1    4    4    0    0  0.71253700975E+01  0.15324387667E+01 -0.51889150874E+00  0.73067445733E+01  0.51100000000E-03 0. -1.
        -11    1    4    4    0    0 -0.40246163469E+01 -0.15703186585E+02 -0.10521652997E+02  0.19325961495E+02  0.51100000000E-03 0.  1.
         12    1    4    4    0    0  0.53967019210E+01  0.11439477874E+02 -0.24682178354E+02  0.27734382523E+02  0.00000000000E+00 0. -1.
</event>
<event>
 8    1  0.1265908E-006  0.9118800E+02  0.7816164E-02  0.1184000E+00
        -11   -1    0    0    0    0  0.00000000000E+00  0.00000000000E+00  0.45593999997E+02  0.45594000000E+02  0.51100000000E-03 0.  1.
         11   -1    0    0    0    0 -0.00000000000E+00 -0.00000000000E+00 -0.45593999997E+02  0.45594000000E+02  0.51100000000E-03 0. -1.
         23    2    1    2    0    0  0.00000000000E+00 -0.35527136788E-14  0.00000000000E+00  0.91188000000E+02  0.91188000000E+02 0.  0.
    9900012    2    3    3    0    0  0.20294707833E+02  0.24982933768E+02 -0.17881768776E+02  0.54367084745E+02  0.40000001293E+02 0.  0.
         12    1    3    3    0    0 -0.20294707833E+02 -0.24982933768E+02  0.17881768776E+02  0.36820915255E+02  0.00000000000E+00 0. -1.
         11    1    4    4    0    0  0.42129686874E+00  0.16238903474E+02 -0.18785984552E+02  0.24835311413E+02  0.51100000000E-03 0. -1.
        -11    1    4    4    0    0  0.20640821593E+02  0.70025071537E+01 -0.58064655025E+01  0.22556455049E+02  0.51100000000E-03 0.  1.
        -12    1    4    4    0    0 -0.76741062931E+00  0.17415231400E+01  0.67106812790E+01  0.69753182830E+01  0.00000000000E+00 0.  1.
</event>
<event>
 8    1  0.1265908E-006  0.9118800E+02  0.7816164E-02  0.1184000E+00
        -11   -1    0    0    0    0  0.00000000000E+00  0.00000000000E+00  0.45593999997E+02  0.45594000000E+02  0.51100000000E-03 0.  1.
         11   -1    0    0    0    0 -0.00000000000E+00 -0.00000000000E+00 -0.45593999997E+02  0.45594000000E+02  0.51100000000E-03 0. -1.
         23    2    1    2    0    0  0.00000000000E+00  0.00000000000E+00  0.00000000000E+00  0.91188000000E+02  0.91188000000E+02 0.  0.
    9900012    2    3    3    0    0  0.20029795157E+02  0.95332589880E+01  0.29388825750E+02  0.54367098328E+02  0.40000032258E+02 0.  0.
         12    1    3    3    0    0 -0.20029795157E+02 -0.95332589880E+01 -0.29388825750E+02  0.36820901672E+02  0.00000000000E+00 0. -1.
         11    1    4    4    0    0  0.62609305129E+01  0.16132989987E+02  0.10449519705E+02  0.20215466334E+02  0.51100000000E-03 0. -1.
        -11    1    4    4    0    0  0.14037393887E+02 -0.10095931993E+02  0.23007652699E+02  0.28780694101E+02  0.51100000000E-03 0.  1.
         12    1    4    4    0    0 -0.26852924322E+00  0.34962009942E+01 -0.40683466538E+01  0.53709378922E+01  0.00000000000E+00 0. -1.
</event>
<event>
 8    1  0.1265908E-006  0.9118800E+02  0.7816164E-02  0.1184000E+00
        -11   -1    0    0    0    0  0.00000000000E+00  0.00000000000E+00  0.45593999997E+02  0.45594000000E+02  0.51100000000E-03 0.  1.
         11   -1    0    0    0    0 -0.00000000000E+00 -0.00000000000E+00 -0.45593999997E+02  0.45594000000E+02  0.51100000000E-03 0. -1.
         23    2    1    2    0    0  0.00000000000E+00  0.35527136788E-14  0.00000000000E+00  0.91188000000E+02  0.91188000000E+02 0.  0.
    9900012    2    3    3    0    0 -0.17194485465E+01  0.17013228909E+02 -0.32609410830E+02  0.54367080187E+02  0.39999990902E+02 0.  0.
        -12    1    3    3    0    0  0.17194485465E+01 -0.17013228909E+02  0.32609410830E+02  0.36820919813E+02  0.00000000000E+00 0.  1.
         11    1    4    4    0    0  0.55354610615E+01 -0.10618638192E+02 -0.83731805542E+01  0.14611877329E+02  0.51100000000E-03 0. -1.
        -11    1    4    4    0    0 -0.31588804420E+01  0.21092427753E+01  0.67288787891E+00  0.38574874064E+01  0.51100000000E-03 0.  1.
         12    1    4    4    0    0 -0.40960291660E+01  0.25522624326E+02 -0.24909118155E+02  0.35897715452E+02  0.00000000000E+00 0. -1.
</event>
<event>
 8    1  0.1265908E-006  0.9118800E+02  0.7816164E-02  0.1184000E+00
        -11   -1    0    0    0    0  0.00000000000E+00  0.00000000000E+00  0.45593999997E+02  0.45594000000E+02  0.51100000000E-03 0.  1.
         11   -1    0    0    0    0 -0.00000000000E+00 -0.00000000000E+00 -0.45593999997E+02  0.45594000000E+02  0.51100000000E-03 0. -1.
         23    2    1    2    0    0  0.35527136788E-14  0.00000000000E+00  0.00000000000E+00  0.91188000000E+02  0.91188000000E+02 0.  0.
    9900012    2    3    3    0    0  0.23836589446E+02 -0.12688874823E+02  0.25031753685E+02  0.54367092444E+02  0.40000018844E+02 0.  0.
         12    1    3    3    0    0 -0.23836589446E+02  0.12688874823E+02 -0.25031753685E+02  0.36820907556E+02  0.00000000000E+00 0. -1.
         11    1    4    4    0    0  0.12393874795E+02 -0.97017075172E+01  0.23198398201E+01  0.15909522879E+02  0.51100000000E-03 0. -1.
        -11    1    4    4    0    0  0.12125468877E+02  0.61327685465E+00  0.28854601731E+02  0.31304810258E+02  0.51100000000E-03 0.  1.
        -12    1    4    4    0    0 -0.68275422571E+00 -0.36004441607E+01 -0.61426878656E+01  0.71527593068E+01  0.00000000000E+00 0.  1.
</event>
<event>
 8    1  0.1265908E-006  0.9118800E+02  0.7816164E-02  0.1184000E+00
        -11   -1    0    0    0    0  0.00000000000E+00  0.00000000000E+00  0.45593999997E+02  0.45594000000E+02  0.51100000000E-03 0. -1.
         11   -1    0    0    0    0 -0.00000000000E+00 -0.00000000000E+00 -0.45593999997E+02  0.45594000000E+02  0.51100000000E-03 0.  1.
         23    2    1    2    0    0  0.00000000000E+00 -0.53290705182E-14  0.00000000000E+00  0.91188000000E+02  0.91188000000E+02 0.  0.
    9900012    2    3    3    0    0  0.23467088426E+02 -0.12106988544E+02  0.25661196491E+02  0.54367076381E+02  0.39999982227E+02 0.  0.
        -12    1    3    3    0    0 -0.23467088426E+02  0.12106988544E+02 -0.25661196491E+02  0.36820923619E+02  0.00000000000E+00 0.  1.
         11    1    4    4    0    0  0.12930518638E+02  0.63306247235E+01  0.23686117486E+01  0.14590594351E+02  0.51100000000E-03 0. -1.
        -11    1    4    4    0    0  0.63404975746E+01 -0.11605737665E+00 -0.33492495039E+01  0.71716700502E+01  0.51100000000E-03 0.  1.
        -12    1    4    4    0    0  0.41960722134E+01 -0.18321555891E+02  0.26641834246E+02  0.32604811980E+02  0.00000000000E+00 0.  1.
</event>
<event>
 8    1  0.1265908E-006  0.9118800E+02  0.7816164E-02  0.1184000E+00
        -11   -1    0    0    0    0  0.00000000000E+00  0.00000000000E+00  0.45593999997E+02  0.45594000000E+02  0.51100000000E-03 0.  1.
         11   -1    0    0    0    0 -0.00000000000E+00 -0.00000000000E+00 -0.45593999997E+02  0.45594000000E+02  0.51100000000E-03 0. -1.
         23    2    1    2    0    0  0.00000000000E+00  0.00000000000E+00 -0.26645352591E-14  0.91188000000E+02  0.91188000000E+02 0.  0.
    9900012    2    3    3    0    0  0.26038210201E+02 -0.25043533575E+02 -0.71143662395E+01  0.54367066126E+02  0.39999958847E+02 0.  0.
        -12    1    3    3    0    0 -0.26038210201E+02  0.25043533575E+02  0.71143662395E+01  0.36820933874E+02  0.00000000000E+00 0.  1.
         11    1    4    4    0    0  0.26905071904E+01 -0.23045441648E+01 -0.38535933694E+01  0.52344947098E+01  0.51100000000E-03 0. -1.
        -11    1    4    4    0    0  0.99302999675E+01 -0.18900443973E+02 -0.18656391514E+02  0.28353105375E+02  0.51100000000E-03 0.  1.
        -12    1    4    4    0    0  0.13417403043E+02 -0.38385454371E+01  0.15395618644E+02  0.20779466041E+02  0.00000000000E+00 0.  1.
</event>
<event>
 8    1  0.1265908E-006  0.9118800E+02  0.7816164E-02  0.1184000E+00
        -11   -1    0    0    0    0  0.00000000000E+00  0.00000000000E+00  0.45593999997E+02  0.45594000000E+02  0.51100000000E-03 0.  1.
         11   -1    0    0    0    0 -0.00000000000E+00 -0.00000000000E+00 -0.45593999997E+02  0.45594000000E+02  0.51100000000E-03 0. -1.
         23    2    1    2    0    0  0.00000000000E+00  0.71054273576E-14  0.17763568394E-14  0.91188000000E+02  0.91188000000E+02 0.  0.
    9900012    2    3    3    0    0 -0.11141347347E+02 -0.31939089752E+02  0.14544590669E+02  0.54367079416E+02  0.39999989145E+02 0.  0.
         12    1    3    3    0    0  0.11141347347E+02  0.31939089752E+02 -0.14544590669E+02  0.36820920584E+02  0.00000000000E+00 0. -1.
         11    1    4    4    0    0 -0.40712154090E+01  0.22553035054E+01  0.61024389674E+01  0.76746954611E+01  0.51100000000E-03 0. -1.
        -11    1    4    4    0    0  0.34170299457E+00  0.53719271344E+01  0.27270208354E+01  0.60341532108E+01  0.51100000000E-03 0.  1.
         12    1    4    4    0    0 -0.74118349327E+01 -0.39566320392E+02  0.57151308658E+01  0.40658230744E+02  0.00000000000E+00 0. -1.
</event>
<event>
 8    1  0.1265908E-006  0.9118800E+02  0.7816164E-02  0.1184000E+00
        -11   -1    0    0    0    0  0.00000000000E+00  0.00000000000E+00  0.45593999997E+02  0.45594000000E+02  0.51100000000E-03 0. -1.
         11   -1    0    0    0    0 -0.00000000000E+00 -0.00000000000E+00 -0.45593999997E+02  0.45594000000E+02  0.51100000000E-03 0.  1.
         23    2    1    2    0    0  0.35527136788E-14  0.00000000000E+00 -0.35527136788E-14  0.91188000000E+02  0.91188000000E+02 0.  0.
    9900012    2    3    3    0    0 -0.19455866313E+02  0.26041510070E+02 -0.17294200941E+02  0.54367077050E+02  0.39999983750E+02 0.  0.
         12    1    3    3    0    0  0.19455866313E+02 -0.26041510070E+02  0.17294200941E+02  0.36820922950E+02  0.00000000000E+00 0. -1.
         11    1    4    4    0    0 -0.43772171017E+01  0.49888896988E+00  0.68173693258E+01  0.81169849417E+01  0.51100000000E-03 0. -1.
        -11    1    4    4    0    0 -0.15114226473E+02  0.15242884468E+02 -0.16375390136E+01  0.21528281470E+02  0.51100000000E-03 0.  1.
        -12    1    4    4    0    0  0.35577261835E-01  0.10299736633E+02 -0.22474031253E+02  0.24721810638E+02  0.00000000000E+00 0.  1.
</event>
<event>
 8    1  0.1265908E-006  0.9118800E+02  0.7816164E-02  0.1184000E+00
        -11   -1    0    0    0    0  0.00000000000E+00  0.00000000000E+00  0.45593999997E+02  0.45594000000E+02  0.51100000000E-03 0.  1.
         11   -1    0    0    0    0 -0.00000000000E+00 -0.00000000000E+00 -0.45593999997E+02  0.45594000000E+02  0.51100000000E-03 0. -1.
         23    2    1    2    0    0  0.00000000000E+00  0.00000000000E+00  0.00000000000E+00  0.91188000000E+02  0.91188000000E+02 0.  0.
    9900012    2    3    3    0    0 -0.11514543218E+02  0.62119409466E+01  0.34418162585E+02  0.54367043582E+02  0.39999907453E+02 0.  0.
         12    1    3    3    0    0  0.11514543218E+02 -0.62119409466E+01 -0.34418162585E+02  0.36820956418E+02  0.00000000000E+00 0. -1.
         11    1    4    4    0    0  0.30047119062E+00  0.11561270658E+01 -0.89235140259E+01  0.90031114378E+01  0.51100000000E-03 0. -1.
        -11    1    4    4    0    0 -0.52589197760E+01  0.57150766890E+00  0.13996991175E+02  0.14963242310E+02  0.51100000000E-03 0.  1.
         12    1    4    4    0    0 -0.65560946322E+01  0.44843062119E+01  0.29344685436E+02  0.30400689833E+02  0.00000000000E+00 0. -1.
</event>
<event>
 8    1  0.1265908E-006  0.9118800E+02  0.7816164E-02  0.1184000E+00
        -11   -1    0    0    0    0  0.00000000000E+00  0.00000000000E+00  0.45593999997E+02  0.45594000000E+02  0.51100000000E-03 0. -1.
         11   -1    0    0    0    0 -0.00000000000E+00 -0.00000000000E+00 -0.45593999997E+02  0.45594000000E+02  0.51100000000E-03 0.  1.
         23    2    1    2    0    0  0.26645352591E-14  0.17763568394E-14  0.00000000000E+00  0.91188000000E+02  0.91188000000E+02 0.  0.
    9900012    2    3    3    0    0  0.73800032281E+01  0.11151663485E+02  0.34306791189E+02  0.54367082469E+02  0.39999996104E+02 0.  0.
        -12    1    3    3    0    0 -0.73800032281E+01 -0.11151663485E+02 -0.34306791189E+02  0.36820917531E+02  0.00000000000E+00 0.  1.
         11    1    4    4    0    0 -0.14041384807E+02 -0.15453794974E+01  0.17625381961E+02  0.22587668641E+02  0.51100000000E-03 0. -1.
        -11    1    4    4    0    0  0.11672779867E+01  0.53496904786E+01  0.28081991992E+01  0.61536744404E+01  0.51100000000E-03 0.  1.
         12    1    4    4    0    0  0.20254110048E+02  0.73473525040E+01  0.13873210029E+02  0.25625739388E+02  0.00000000000E+00 0. -1.
</event>
<event>
 8    1  0.1265908E-006  0.9118800E+02  0.7816164E-02  0.1184000E+00
        -11   -1    0    0    0    0  0.00000000000E+00  0.00000000000E+00  0.45593999997E+02  0.45594000000E+02  0.51100000000E-03 0. -1.
         11   -1    0    0    0    0 -0.00000000000E+00 -0.00000000000E+00 -0.45593999997E+02  0.45594000000E+02  0.51100000000E-03 0.  1.
         23    2    1    2    0    0  0.00000000000E+00  0.00000000000E+00  0.17763568394E-14  0.91188000000E+02  0.91188000000E+02 0.  0.
    9900012    2    3    3    0    0  0.34229717602E+02  0.11957869681E+02 -0.64121004676E+01  0.54367092259E+02  0.40000018424E+02 0.  0.
        -12    1    3    3    0    0 -0.34229717602E+02 -0.11957869681E+02  0.64121004676E+01  0.36820907741E+02  0.00000000000E+00 0.  1.
         11    1    4    4    0    0  0.32733713292E+01  0.13604034701E+02  0.32128422630E+01  0.14356429768E+02  0.51100000000E-03 0.  1.
        -11    1    4    4    0    0  0.20662182417E+02  0.35869747809E+01 -0.16399621081E+02  0.26622166369E+02  0.51100000000E-03 0. -1.
        -12    1    4    4    0    0  0.10294163856E+02 -0.52331398015E+01  0.67746783501E+01  0.13388496122E+02  0.00000000000E+00 0.  1.
</event>
<event>
 8    1  0.1265908E-006  0.9118800E+02  0.7816164E-02  0.1184000E+00
        -11   -1    0    0    0    0  0.00000000000E+00  0.00000000000E+00  0.45593999997E+02  0.45594000000E+02  0.51100000000E-03 0. -1.
         11   -1    0    0    0    0 -0.00000000000E+00 -0.00000000000E+00 -0.45593999997E+02  0.45594000000E+02  0.51100000000E-03 0.  1.
         23    2    1    2    0    0 -0.17763568394E-14  0.00000000000E+00  0.35527136788E-14  0.91188000000E+02  0.91188000000E+02 0.  0.
    9900012    2    3    3    0    0 -0.15894786655E+02 -0.12392196375E+02  0.30815081063E+02  0.54367082103E+02  0.39999995271E+02 0.  0.
        -12    1    3    3    0    0  0.15894786655E+02  0.12392196375E+02 -0.30815081063E+02  0.36820917897E+02  0.00000000000E+00 0.  1.
         11    1    4    4    0    0 -0.21309669579E+02 -0.52890350596E+01  0.24401295335E+02  0.32825281777E+02  0.51100000000E-03 0. -1.
        -11    1    4    4    0    0  0.11499528490E+02 -0.84085745413E+01  0.34953834164E+01  0.14668366876E+02  0.51100000000E-03 0.  1.
        -12    1    4    4    0    0 -0.60846455656E+01  0.13054132261E+01  0.29184023126E+01  0.68734334512E+01  0.00000000000E+00 0.  1.
</event>
<event>
 8    1  0.1265908E-006  0.9118800E+02  0.7816164E-02  0.1184000E+00
        -11   -1    0    0    0    0  0.00000000000E+00  0.00000000000E+00  0.45593999997E+02  0.45594000000E+02  0.51100000000E-03 0. -1.
         11   -1    0    0    0    0 -0.00000000000E+00 -0.00000000000E+00 -0.45593999997E+02  0.45594000000E+02  0.51100000000E-03 0.  1.
         23    2    1    2    0    0 -0.17763568394E-14  0.44408920985E-15 -0.71054273576E-14  0.91188000000E+02  0.91188000000E+02 0.  0.
    9900012    2    3    3    0    0 -0.12993270430E+02  0.34617705511E+01 -0.34277854590E+02  0.54367078676E+02  0.39999987458E+02 0.  0.
         12    1    3    3    0    0  0.12993270430E+02 -0.34617705511E+01  0.34277854590E+02  0.36820921324E+02  0.00000000000E+00 0. -1.
         11    1    4    4    0    0  0.18396840948E+01  0.12485625103E+01  0.72197867099E+00  0.23376482569E+01  0.51100000000E-03 0. -1.
        -11    1    4    4    0    0 -0.20965227198E+01  0.17242452583E+02 -0.94726539361E+01  0.19784558409E+02  0.51100000000E-03 0.  1.
         12    1    4    4    0    0 -0.12736431805E+02 -0.15029244542E+02 -0.25527179325E+02  0.32244872010E+02  0.00000000000E+00 0. -1.
</event>
<event>
 8    1  0.1265908E-006  0.9118800E+02  0.7816164E-02  0.1184000E+00
        -11   -1    0    0    0    0  0.00000000000E+00  0.00000000000E+00  0.45593999997E+02  0.45594000000E+02  0.51100000000E-03 0.  1.
         11   -1    0    0    0    0 -0.00000000000E+00 -0.00000000000E+00 -0.45593999997E+02  0.45594000000E+02  0.51100000000E-03 0. -1.
         23    2    1    2    0    0  0.00000000000E+00 -0.35527136788E-14  0.00000000000E+00  0.91188000000E+02  0.91188000000E+02 0.  0.
    9900012    2    3    3    0    0  0.23334719267E+02 -0.26638080895E+02  0.10083906276E+02  0.54367059724E+02  0.39999944253E+02 0.  0.
         12    1    3    3    0    0 -0.23334719267E+02  0.26638080895E+02 -0.10083906276E+02  0.36820940276E+02  0.00000000000E+00 0. -1.
         11    1    4    4    0    0 -0.25943098887E+01 -0.86697499634E+01  0.64216981037E+00  0.90723420655E+01  0.51100000000E-03 0. -1.
        -11    1    4    4    0    0  0.31614850171E+02 -0.20807713916E+02  0.70188307056E+01  0.38493164257E+02  0.51100000000E-03 0.  1.
        -12    1    4    4    0    0 -0.56858210156E+01  0.28393829850E+01  0.24229057599E+01  0.68015534018E+01  0.00000000000E+00 0.  1.
</event>
<event>
 8    1  0.1265908E-006  0.9118800E+02  0.7816164E-02  0.1184000E+00
        -11   -1    0    0    0    0  0.00000000000E+00  0.00000000000E+00  0.45593999997E+02  0.45594000000E+02  0.51100000000E-03 0. -1.
         11   -1    0    0    0    0 -0.00000000000E+00 -0.00000000000E+00 -0.45593999997E+02  0.45594000000E+02  0.51100000000E-03 0.  1.
         23    2    1    2    0    0  0.00000000000E+00  0.00000000000E+00 -0.44408920985E-15  0.91188000000E+02  0.91188000000E+02 0.  0.
    9900012    2    3    3    0    0  0.35753892829E+02 -0.79567321380E+01  0.37589700578E+01  0.54367078031E+02  0.39999985987E+02 0.  0.
        -12    1    3    3    0    0 -0.35753892829E+02  0.79567321380E+01 -0.37589700578E+01  0.36820921969E+02  0.00000000000E+00 0.  1.
         11    1    4    4    0    0  0.85206913873E+01 -0.10083640077E+02 -0.11845432214E+02  0.17736861151E+02  0.51100000000E-03 0.  1.
        -11    1    4    4    0    0  0.98981948972E+01  0.83991088893E+01  0.12335806962E+02  0.17907859337E+02  0.51100000000E-03 0. -1.
         12    1    4    4    0    0  0.17335006545E+02 -0.62722009507E+01  0.32685953099E+01  0.18722357543E+02  0.00000000000E+00 0. -1.
</event>
<event>
 8    1  0.1265908E-006  0.9118800E+02  0.7816164E-02  0.1184000E+00
        -11   -1    0    0    0    0  0.00000000000E+00  0.00000000000E+00  0.45593999997E+02  0.45594000000E+02  0.51100000000E-03 0.  1.
         11   -1    0    0    0    0 -0.00000000000E+00 -0.00000000000E+00 -0.45593999997E+02  0.45594000000E+02  0.51100000000E-03 0. -1.
         23    2    1    2    0    0  0.00000000000E+00  0.00000000000E+00  0.44408920985E-15  0.91188000000E+02  0.91188000000E+02 0.  0.
    9900012    2    3    3    0    0 -0.33807527691E+02  0.14388515332E+02 -0.24086845774E+01  0.54367081171E+02  0.39999993146E+02 0.  0.
         12    1    3    3    0    0  0.33807527691E+02 -0.14388515332E+02  0.24086845774E+01  0.36820918829E+02  0.00000000000E+00 0. -1.
         11    1    4    4    0    0 -0.91513833659E+01 -0.81396216981E+00  0.14483695317E+02  0.17151903166E+02  0.51100000000E-03 0.  1.
        -11    1    4    4    0    0 -0.22362327304E+02  0.85818101065E+01 -0.67455545618E+01  0.24884204905E+02  0.51100000000E-03 0. -1.
        -12    1    4    4    0    0 -0.22938170214E+01  0.66206673950E+01 -0.10146825332E+02  0.12330973100E+02  0.00000000000E+00 0.  1.
</event>
<event>
 8    1  0.1265908E-006  0.9118800E+02  0.7816164E-02  0.1184000E+00
        -11   -1    0    0    0    0  0.00000000000E+00  0.00000000000E+00  0.45593999997E+02  0.45594000000E+02  0.51100000000E-03 0.  1.
         11   -1    0    0    0    0 -0.00000000000E+00 -0.00000000000E+00 -0.45593999997E+02  0.45594000000E+02  0.51100000000E-03 0. -1.
         23    2    1    2    0    0  0.00000000000E+00 -0.44408920985E-15  0.35527136788E-14  0.91188000000E+02  0.91188000000E+02 0.  0.
    9900012    2    3    3    0    0  0.20472487581E+02 -0.18115539110E+01  0.30551201107E+02  0.54367077084E+02  0.39999983828E+02 0.  0.
         12    1    3    3    0    0 -0.20472487581E+02  0.18115539110E+01 -0.30551201107E+02  0.36820922916E+02  0.00000000000E+00 0. -1.
         11    1    4    4    0    0  0.11981595860E+02 -0.67698446756E+01 -0.32381428306E+01  0.14137715711E+02  0.51100000000E-03 0. -1.
        -11    1    4    4    0    0 -0.58191546108E+01  0.36077215539E+01  0.67922211104E+01  0.96442979562E+01  0.51100000000E-03 0.  1.
        -12    1    4    4    0    0  0.14310046332E+02  0.13505692107E+01  0.26997122827E+02  0.30585063416E+02  0.00000000000E+00 0.  1.
</event>
<event>
 8    1  0.1265908E-006  0.9118800E+02  0.7816164E-02  0.1184000E+00
        -11   -1    0    0    0    0  0.00000000000E+00  0.00000000000E+00  0.45593999997E+02  0.45594000000E+02  0.51100000000E-03 0. -1.
         11   -1    0    0    0    0 -0.00000000000E+00 -0.00000000000E+00 -0.45593999997E+02  0.45594000000E+02  0.51100000000E-03 0.  1.
         23    2    1    2    0    0 -0.88817841970E-15 -0.66613381478E-15 -0.71054273576E-14  0.91188000000E+02  0.91188000000E+02 0.  0.
    9900012    2    3    3    0    0  0.36887326405E+01 -0.21651732160E+00  0.36635014675E+02  0.54367110162E+02  0.40000059236E+02 0.  0.
        -12    1    3    3    0    0 -0.36887326405E+01  0.21651732160E+00 -0.36635014675E+02  0.36820889838E+02  0.00000000000E+00 0.  1.
         11    1    4    4    0    0  0.27622567441E+01 -0.80864309561E+01  0.24851006865E+01  0.88992220790E+01  0.51100000000E-03 0. -1.
        -11    1    4    4    0    0  0.11980623263E+02  0.13052868438E+02  0.18449972365E+02  0.25579565844E+02  0.51100000000E-03 0.  1.
         12    1    4    4    0    0 -0.11054147367E+02 -0.51829548036E+01  0.15699941623E+02  0.19888322239E+02  0.00000000000E+00 0. -1.
</event>
<event>
 8    1  0.1265908E-006  0.9118800E+02  0.7816164E-02  0.1184000E+00
        -11   -1    0    0    0    0  0.00000000000E+00  0.00000000000E+00  0.45593999997E+02  0.45594000000E+02  0.51100000000E-03 0.  1.
         11   -1    0    0    0    0 -0.00000000000E+00 -0.00000000000E+00 -0.45593999997E+02  0.45594000000E+02  0.51100000000E-03 0. -1.
         23    2    1    2    0    0  0.13322676296E-14  0.00000000000E+00  0.17763568394E-14  0.91188000000E+02  0.91188000000E+02 0.  0.
    9900012    2    3    3    0    0  0.23850862819E+01  0.34081074128E+02  0.13732099108E+02  0.54367098379E+02  0.40000032374E+02 0.  0.
         12    1    3    3    0    0 -0.23850862819E+01 -0.34081074128E+02 -0.13732099108E+02  0.36820901621E+02  0.00000000000E+00 0. -1.
         11    1    4    4    0    0 -0.80294847603E+01  0.18924451003E+02  0.66595380219E+01  0.21609185968E+02  0.51100000000E-03 0. -1.
        -11    1    4    4    0    0 -0.12017602383E+01  0.15547299627E+02  0.12447363602E+02  0.19952433793E+02  0.51100000000E-03 0.  1.
         12    1    4    4    0    0  0.11616331280E+02 -0.39067650256E+00 -0.53748025154E+01  0.12805478618E+02  0.00000000000E+00 0. -1.
</event>
<event>
 8    1  0.1265908E-006  0.9118800E+02  0.7816164E-02  0.1184000E+00
        -11   -1    0    0    0    0  0.00000000000E+00  0.00000000000E+00  0.45593999997E+02  0.45594000000E+02  0.51100000000E-03 0. -1.
         11   -1    0    0    0    0 -0.00000000000E+00 -0.00000000000E+00 -0.45593999997E+02  0.45594000000E+02  0.51100000000E-03 0.  1.
         23    2    1    2    0    0  0.00000000000E+00  0.35527136788E-14  0.00000000000E+00  0.91188000000E+02  0.91188000000E+02 0.  0.
    9900012    2    3    3    0    0  0.20616381545E+02  0.19793083832E+02  0.23215899273E+02  0.54367091067E+02  0.40000015705E+02 0.  0.
        -12    1    3    3    0    0 -0.20616381545E+02 -0.19793083832E+02 -0.23215899273E+02  0.36820908933E+02  0.00000000000E+00 0.  1.
         11    1    4    4    0    0  0.60100345359E+01  0.17419981963E+02  0.28002875892E+02  0.33522191831E+02  0.51100000000E-03 0. -1.
        -11    1    4    4    0    0  0.12339711457E+01  0.17813121433E+00  0.43341227795E+01  0.45098820436E+01  0.51100000000E-03 0.  1.
        -12    1    4    4    0    0  0.13372375864E+02  0.21949706553E+01 -0.91210993984E+01  0.16335017192E+02  0.00000000000E+00 0.  1.
</event>
<event>
 8    1  0.1265908E-006  0.9118800E+02  0.7816164E-02  0.1184000E+00
        -11   -1    0    0    0    0  0.00000000000E+00  0.00000000000E+00  0.45593999997E+02  0.45594000000E+02  0.51100000000E-03 0.  1.
         11   -1    0    0    0    0 -0.00000000000E+00 -0.00000000000E+00 -0.45593999997E+02  0.45594000000E+02  0.51100000000E-03 0. -1.
         23    2    1    2    0    0 -0.35527136788E-14 -0.17763568394E-14 -0.35527136788E-14  0.91188000000E+02  0.91188000000E+02 0.  0.
    9900012    2    3    3    0    0  0.22461625074E+02  0.15984499743E+02  0.24407984378E+02  0.54367101934E+02  0.40000040479E+02 0.  0.
         12    1    3    3    0    0 -0.22461625074E+02 -0.15984499743E+02 -0.24407984378E+02  0.36820898066E+02  0.00000000000E+00 0. -1.
         11    1    4    4    0    0  0.12342681511E+02  0.16830881575E+01  0.91415862263E+01  0.15451316178E+02  0.51100000000E-03 0. -1.
        -11    1    4    4    0    0  0.20290892031E+02  0.12326646594E+02  0.15835651409E+02  0.28538296576E+02  0.51100000000E-03 0.  1.
         12    1    4    4    0    0 -0.10171948468E+02  0.19747649913E+01 -0.56925325725E+00  0.10377489180E+02  0.00000000000E+00 0. -1.
</event>
<event>
 8    1  0.1265908E-006  0.9118800E+02  0.7816164E-02  0.1184000E+00
        -11   -1    0    0    0    0  0.00000000000E+00  0.00000000000E+00  0.45593999997E+02  0.45594000000E+02  0.51100000000E-03 0. -1.
         11   -1    0    0    0    0 -0.00000000000E+00 -0.00000000000E+00 -0.45593999997E+02  0.45594000000E+02  0.51100000000E-03 0.  1.
         23    2    1    2    0    0  0.00000000000E+00  0.44408920985E-15  0.35527136788E-14  0.91188000000E+02  0.91188000000E+02 0.  0.
    9900012    2    3    3    0    0  0.24562086172E+02 -0.16372037954E+01 -0.27382536193E+02  0.54367084725E+02  0.40000001247E+02 0.  0.
         12    1    3    3    0    0 -0.24562086172E+02  0.16372037954E+01  0.27382536193E+02  0.36820915275E+02  0.00000000000E+00 0. -1.
         11    1    4    4    0    0 -0.64742387569E+01 -0.14711037853E+01 -0.12435478026E+01  0.67547261400E+01  0.51100000000E-03 0. -1.
        -11    1    4    4    0    0  0.15306937349E+02 -0.11038275941E+02 -0.20074996954E+02  0.27552701677E+02  0.51100000000E-03 0.  1.
         12    1    4    4    0    0  0.15729387580E+02  0.10872175931E+02 -0.60639914364E+01  0.20059656908E+02  0.00000000000E+00 0. -1.
</event>
<event>
 8    1  0.1265908E-006  0.9118800E+02  0.7816164E-02  0.1184000E+00
        -11   -1    0    0    0    0  0.00000000000E+00  0.00000000000E+00  0.45593999997E+02  0.45594000000E+02  0.51100000000E-03 0. -1.
         11   -1    0    0    0    0 -0.00000000000E+00 -0.00000000000E+00 -0.45593999997E+02  0.45594000000E+02  0.51100000000E-03 0.  1.
         23    2    1    2    0    0  0.00000000000E+00  0.00000000000E+00  0.00000000000E+00  0.91188000000E+02  0.91188000000E+02 0.  0.
    9900012    2    3    3    0    0  0.26906183272E+02 -0.15142362535E+02 -0.20063560421E+02  0.54367077983E+02  0.39999985878E+02 0.  0.
         12    1    3    3    0    0 -0.26906183272E+02  0.15142362535E+02  0.20063560421E+02  0.36820922017E+02  0.00000000000E+00 0. -1.
         11    1    4    4    0    0  0.91835486346E+01 -0.11585229935E+02  0.40972193308E+01  0.15340871053E+02  0.51100000000E-03 0. -1.
        -11    1    4    4    0    0  0.48799682217E+01 -0.10283963490E+02 -0.21441365947E+02  0.24275629113E+02  0.51100000000E-03 0.  1.
         12    1    4    4    0    0  0.12842666416E+02  0.67268308893E+01 -0.27194138051E+01  0.14750577816E+02  0.00000000000E+00 0. -1.
</event>
<event>
 8    1  0.1265908E-006  0.9118800E+02  0.7816164E-02  0.1184000E+00
        -11   -1    0    0    0    0  0.00000000000E+00  0.00000000000E+00  0.45593999997E+02  0.45594000000E+02  0.51100000000E-03 0. -1.
         11   -1    0    0    0    0 -0.00000000000E+00 -0.00000000000E+00 -0.45593999997E+02  0.45594000000E+02  0.51100000000E-03 0.  1.
         23    2    1    2    0    0  0.35527136788E-14 -0.35527136788E-14  0.00000000000E+00  0.91188000000E+02  0.91188000000E+02 0.  0.
    9900012    2    3    3    0    0  0.21846002671E+02 -0.23459925099E+02 -0.18115300299E+02  0.54367081716E+02  0.39999994388E+02 0.  0.
         12    1    3    3    0    0 -0.21846002671E+02  0.23459925099E+02  0.18115300299E+02  0.36820918284E+02  0.00000000000E+00 0. -1.
         11    1    4    4    0    0  0.15434321710E+02 -0.39878480273E+01  0.26107586517E+01  0.16153553155E+02  0.51100000000E-03 0. -1.
        -11    1    4    4    0    0 -0.71032321910E+01 -0.13069778862E+02 -0.17403007452E+02  0.22894097399E+02  0.51100000000E-03 0.  1.
        -12    1    4    4    0    0  0.13514913153E+02 -0.64022982089E+01 -0.33230514985E+01  0.15319431162E+02  0.00000000000E+00 0.  1.
</event>
<event>
 8    1  0.1265908E-006  0.9118800E+02  0.7816164E-02  0.1184000E+00
        -11   -1    0    0    0    0  0.00000000000E+00  0.00000000000E+00  0.45593999997E+02  0.45594000000E+02  0.51100000000E-03 0. -1.
         11   -1    0    0    0    0 -0.00000000000E+00 -0.00000000000E+00 -0.45593999997E+02  0.45594000000E+02  0.51100000000E-03 0.  1.
         23    2    1    2    0    0  0.00000000000E+00  0.88817841970E-15  0.71054273576E-14  0.91188000000E+02  0.91188000000E+02 0.  0.
    9900012    2    3    3    0    0 -0.12898806989E+02  0.25294186797E+01  0.34394816610E+02  0.54367074017E+02  0.39999976836E+02 0.  0.
        -12    1    3    3    0    0  0.12898806989E+02 -0.25294186797E+01 -0.34394816610E+02  0.36820925983E+02  0.00000000000E+00 0.  1.
         11    1    4    4    0    0 -0.11889092662E+02  0.12839348524E+02  0.30668830187E+02  0.35309723026E+02  0.51100000000E-03 0. -1.
        -11    1    4    4    0    0 -0.81280084393E+01 -0.37879655733E+01  0.98388976508E+00  0.90211553420E+01  0.51100000000E-03 0.  1.
         12    1    4    4    0    0  0.71182941128E+01 -0.65219642707E+01  0.27420966582E+01  0.10036195649E+02  0.00000000000E+00 0. -1.
</event>
<event>
 8    1  0.1265908E-006  0.9118800E+02  0.7816164E-02  0.1184000E+00
        -11   -1    0    0    0    0  0.00000000000E+00  0.00000000000E+00  0.45593999997E+02  0.45594000000E+02  0.51100000000E-03 0.  1.
         11   -1    0    0    0    0 -0.00000000000E+00 -0.00000000000E+00 -0.45593999997E+02  0.45594000000E+02  0.51100000000E-03 0. -1.
         23    2    1    2    0    0 -0.17763568394E-14  0.00000000000E+00  0.35527136788E-14  0.91188000000E+02  0.91188000000E+02 0.  0.
    9900012    2    3    3    0    0 -0.11156984751E+02 -0.14829263701E+02  0.31802435935E+02  0.54367077931E+02  0.39999985759E+02 0.  0.
         12    1    3    3    0    0  0.11156984751E+02  0.14829263701E+02 -0.31802435935E+02  0.36820922069E+02  0.00000000000E+00 0. -1.
         11    1    4    4    0    0 -0.15277366517E+02 -0.10336539196E+02  0.43153595463E+01  0.18943713958E+02  0.51100000000E-03 0. -1.
        -11    1    4    4    0    0 -0.81745306807E+01 -0.45544175432E+01  0.16327761413E+02  0.18819178092E+02  0.51100000000E-03 0.  1.
        -12    1    4    4    0    0  0.12294912446E+02  0.61693039007E-01  0.11159314975E+02  0.16604185881E+02  0.00000000000E+00 0.  1.
</event>
<event>
 8    1  0.1265908E-006  0.9118800E+02  0.7816164E-02  0.1184000E+00
        -11   -1    0    0    0    0  0.00000000000E+00  0.00000000000E+00  0.45593999997E+02  0.45594000000E+02  0.51100000000E-03 0.  1.
         11   -1    0    0    0    0 -0.00000000000E+00 -0.00000000000E+00 -0.45593999997E+02  0.45594000000E+02  0.51100000000E-03 0. -1.
         23    2    1    2    0    0  0.00000000000E+00  0.17763568394E-14  0.00000000000E+00  0.91188000000E+02  0.91188000000E+02 0.  0.
    9900012    2    3    3    0    0  0.57103538782E+01 -0.10908925095E+02  0.34701101774E+02  0.54367092183E+02  0.40000018251E+02 0.  0.
         12    1    3    3    0    0 -0.57103538782E+01  0.10908925095E+02 -0.34701101774E+02  0.36820907817E+02  0.00000000000E+00 0. -1.
         11    1    4    4    0    0  0.98556315588E+00  0.23808273403E+01  0.37548205790E+02  0.37636517265E+02  0.51100000000E-03 0. -1.
        -11    1    4    4    0    0  0.28838989937E+01 -0.12770906333E+02  0.24498442271E+00  0.13094767642E+02  0.51100000000E-03 0.  1.
         12    1    4    4    0    0  0.18408917286E+01 -0.51884610255E+00 -0.30920884392E+01  0.36358072763E+01  0.00000000000E+00 0. -1.
</event>
<event>
 8    1  0.1265908E-006  0.9118800E+02  0.7816164E-02  0.1184000E+00
        -11   -1    0    0    0    0  0.00000000000E+00  0.00000000000E+00  0.45593999997E+02  0.45594000000E+02  0.51100000000E-03 0.  1.
         11   -1    0    0    0    0 -0.00000000000E+00 -0.00000000000E+00 -0.45593999997E+02  0.45594000000E+02  0.51100000000E-03 0. -1.
         23    2    1    2    0    0  0.00000000000E+00  0.00000000000E+00  0.00000000000E+00  0.91188000000E+02  0.91188000000E+02 0.  0.
    9900012    2    3    3    0    0 -0.21597359362E+01 -0.73898937144E+01  0.36007034003E+02  0.54367061852E+02  0.39999949103E+02 0.  0.
         12    1    3    3    0    0  0.21597359362E+01  0.73898937144E+01 -0.36007034003E+02  0.36820938148E+02  0.00000000000E+00 0. -1.
         11    1    4    4    0    0 -0.54112001468E+01 -0.39221211317E+01 -0.96879150397E+00  0.67529755249E+01  0.51100000000E-03 0. -1.
        -11    1    4    4    0    0 -0.22667698071E+01  0.24074496074E+01  0.39131102206E+02  0.39270564282E+02  0.51100000000E-03 0.  1.
         12    1    4    4    0    0  0.55182340177E+01 -0.58752221901E+01 -0.21552766984E+01  0.83435220443E+01  0.00000000000E+00 0. -1.
</event>
<event>
 8    1  0.1265908E-006  0.9118800E+02  0.7816164E-02  0.1184000E+00
        -11   -1    0    0    0    0  0.00000000000E+00  0.00000000000E+00  0.45593999997E+02  0.45594000000E+02  0.51100000000E-03 0.  1.
         11   -1    0    0    0    0 -0.00000000000E+00 -0.00000000000E+00 -0.45593999997E+02  0.45594000000E+02  0.51100000000E-03 0. -1.
         23    2    1    2    0    0  0.35527136788E-14  0.00000000000E+00 -0.35527136788E-14  0.91188000000E+02  0.91188000000E+02 0.  0.
    9900012    2    3    3    0    0  0.27777763473E+02 -0.94185259454E+01 -0.22259128333E+02  0.54367060730E+02  0.39999946546E+02 0.  0.
        -12    1    3    3    0    0 -0.27777763473E+02  0.94185259454E+01  0.22259128333E+02  0.36820939270E+02  0.00000000000E+00 0.  1.
         11    1    4    4    0    0  0.14746644787E+02 -0.14652315438E+02 -0.30797683403E+02  0.37157114843E+02  0.51100000000E-03 0. -1.
        -11    1    4    4    0    0  0.86829199272E+01  0.20615237676E+01  0.76506672612E+01  0.11754815546E+02  0.51100000000E-03 0.  1.
         12    1    4    4    0    0  0.43481987589E+01  0.31722657254E+01  0.88788780917E+00  0.54551303414E+01  0.00000000000E+00 0. -1.
</event>
<event>
 8    1  0.1265908E-006  0.9118800E+02  0.7816164E-02  0.1184000E+00
        -11   -1    0    0    0    0  0.00000000000E+00  0.00000000000E+00  0.45593999997E+02  0.45594000000E+02  0.51100000000E-03 0.  1.
         11   -1    0    0    0    0 -0.00000000000E+00 -0.00000000000E+00 -0.45593999997E+02  0.45594000000E+02  0.51100000000E-03 0. -1.
         23    2    1    2    0    0  0.00000000000E+00  0.00000000000E+00  0.35527136788E-14  0.91188000000E+02  0.91188000000E+02 0.  0.
    9900012    2    3    3    0    0 -0.19646719931E+02  0.96769286554E+01 -0.29599696656E+02  0.54367101120E+02  0.40000038623E+02 0.  0.
        -12    1    3    3    0    0  0.19646719931E+02 -0.96769286554E+01  0.29599696656E+02  0.36820898880E+02  0.00000000000E+00 0.  1.
         11    1    4    4    0    0 -0.17834594392E+01  0.51126079370E+01 -0.29001015350E+02  0.29502175836E+02  0.51100000000E-03 0. -1.
        -11    1    4    4    0    0  0.30149547194E+01 -0.14578598340E+00  0.14790947980E+01  0.33613876890E+01  0.51100000000E-03 0.  1.
         12    1    4    4    0    0 -0.20878215211E+02  0.47101067017E+01 -0.20777761038E+01  0.21503537594E+02  0.00000000000E+00 0. -1.
</event>
<event>
 8    1  0.1265908E-006  0.9118800E+02  0.7816164E-02  0.1184000E+00
        -11   -1    0    0    0    0  0.00000000000E+00  0.00000000000E+00  0.45593999997E+02  0.45594000000E+02  0.51100000000E-03 0.  1.
         11   -1    0    0    0    0 -0.00000000000E+00 -0.00000000000E+00 -0.45593999997E+02  0.45594000000E+02  0.51100000000E-03 0. -1.
         23    2    1    2    0    0  0.00000000000E+00  0.44408920985E-15  0.35527136788E-14  0.91188000000E+02  0.91188000000E+02 0.  0.
    9900012    2    3    3    0    0 -0.28328825595E+02 -0.12995089263E+01  0.23485532652E+02  0.54367064013E+02  0.39999954029E+02 0.  0.
         12    1    3    3    0    0  0.28328825595E+02  0.12995089263E+01 -0.23485532652E+02  0.36820935987E+02  0.00000000000E+00 0. -1.
         11    1    4    4    0    0 -0.87643531860E+00 -0.51094164391E+01 -0.90922010396E+01  0.10466250294E+02  0.51100000000E-03 0. -1.
        -11    1    4    4    0    0 -0.18392077976E+02 -0.14092898960E+00  0.26632563771E+02  0.32366369066E+02  0.51100000000E-03 0.  1.
         12    1    4    4    0    0 -0.90603123002E+01  0.39508365024E+01  0.59451699208E+01  0.11534444652E+02  0.00000000000E+00 0. -1.
</event>
<event>
 8    1  0.1265908E-006  0.9118800E+02  0.7816164E-02  0.1184000E+00
        -11   -1    0    0    0    0  0.00000000000E+00  0.00000000000E+00  0.45593999997E+02  0.45594000000E+02  0.51100000000E-03 0.  1.
         11   -1    0    0    0    0 -0.00000000000E+00 -0.00000000000E+00 -0.45593999997E+02  0.45594000000E+02  0.51100000000E-03 0. -1.
         23    2    1    2    0    0 -0.44408920985E-15 -0.35527136788E-14  0.00000000000E+00  0.91188000000E+02  0.91188000000E+02 0.  0.
    9900012    2    3    3    0    0 -0.39147886060E+01 -0.26281866532E+02  0.25489571476E+02  0.54367077520E+02  0.39999984823E+02 0.  0.
         12    1    3    3    0    0  0.39147886060E+01  0.26281866532E+02 -0.25489571476E+02  0.36820922480E+02  0.00000000000E+00 0. -1.
         11    1    4    4    0    0 -0.86143083138E+01 -0.23114752969E+00  0.43146381865E+01  0.96372112070E+01  0.51100000000E-03 0. -1.
        -11    1    4    4    0    0 -0.71159862145E+01 -0.41259161835E+01  0.17784055393E+02  0.19594210130E+02  0.51100000000E-03 0.  1.
        -12    1    4    4    0    0  0.11815505922E+02 -0.21924802819E+02  0.33908778965E+01  0.25135656183E+02  0.00000000000E+00 0.  1.
</event>
<event>
 8    1  0.1265908E-006  0.9118800E+02  0.7816164E-02  0.1184000E+00
        -11   -1    0    0    0    0  0.00000000000E+00  0.00000000000E+00  0.45593999997E+02  0.45594000000E+02  0.51100000000E-03 0.  1.
         11   -1    0    0    0    0 -0.00000000000E+00 -0.00000000000E+00 -0.45593999997E+02  0.45594000000E+02  0.51100000000E-03 0. -1.
         23    2    1    2    0    0 -0.88817841970E-15  0.00000000000E+00  0.00000000000E+00  0.91188000000E+02  0.91188000000E+02 0.  0.
    9900012    2    3    3    0    0 -0.41356619575E+01  0.75688285389E+01 -0.35796474397E+02  0.54367103154E+02  0.40000043260E+02 0.  0.
        -12    1    3    3    0    0  0.41356619575E+01 -0.75688285389E+01  0.35796474397E+02  0.36820896846E+02  0.00000000000E+00 0.  1.
         11    1    4    4    0    0 -0.17796723242E+02 -0.25513191235E+01 -0.10366350876E+02  0.20753164052E+02  0.51100000000E-03 0. -1.
        -11    1    4    4    0    0  0.11297416139E+02  0.63127145528E+01 -0.71351889916E+01  0.14778122298E+02  0.51100000000E-03 0.  1.
         12    1    4    4    0    0  0.23636451452E+01  0.38074331096E+01 -0.18294934530E+02  0.18835816805E+02  0.00000000000E+00 0. -1.
</event>
<event>
 8    1  0.1265908E-006  0.9118800E+02  0.7816164E-02  0.1184000E+00
        -11   -1    0    0    0    0  0.00000000000E+00  0.00000000000E+00  0.45593999997E+02  0.45594000000E+02  0.51100000000E-03 0.  1.
         11   -1    0    0    0    0 -0.00000000000E+00 -0.00000000000E+00 -0.45593999997E+02  0.45594000000E+02  0.51100000000E-03 0. -1.
         23    2    1    2    0    0  0.00000000000E+00  0.00000000000E+00  0.00000000000E+00  0.91188000000E+02  0.91188000000E+02 0.  0.
    9900012    2    3    3    0    0 -0.24773900297E+02  0.56202514725E+01 -0.26654140189E+02  0.54367128857E+02  0.40000101854E+02 0.  0.
        -12    1    3    3    0    0  0.24773900297E+02 -0.56202514725E+01  0.26654140189E+02  0.36820871143E+02  0.00000000000E+00 0.  1.
         11    1    4    4    0    0 -0.25280124376E+01  0.15163317777E+02 -0.13572864186E+02  0.20507064523E+02  0.51100000000E-03 0. -1.
        -11    1    4    4    0    0 -0.25385202506E+02 -0.65071010652E+01 -0.85466138867E+01  0.27564387889E+02  0.51100000000E-03 0.  1.
        -12    1    4    4    0    0  0.31393146463E+01 -0.30359652388E+01 -0.45346621159E+01  0.62956764438E+01  0.00000000000E+00 0.  1.
</event>
<event>
 8    1  0.1265908E-006  0.9118800E+02  0.7816164E-02  0.1184000E+00
        -11   -1    0    0    0    0  0.00000000000E+00  0.00000000000E+00  0.45593999997E+02  0.45594000000E+02  0.51100000000E-03 0. -1.
         11   -1    0    0    0    0 -0.00000000000E+00 -0.00000000000E+00 -0.45593999997E+02  0.45594000000E+02  0.51100000000E-03 0.  1.
         23    2    1    2    0    0  0.00000000000E+00 -0.17763568394E-14  0.71054273576E-14  0.91188000000E+02  0.91188000000E+02 0.  0.
    9900012    2    3    3    0    0  0.80181347889E+01  0.45058889508E+01  0.35653663295E+02  0.54367119686E+02  0.40000080948E+02 0.  0.
        -12    1    3    3    0    0 -0.80181347889E+01 -0.45058889508E+01 -0.35653663295E+02  0.36820880314E+02  0.00000000000E+00 0.  1.
         11    1    4    4    0    0 -0.85105003250E+01 -0.60533555902E+01  0.18040158796E+02  0.20845120756E+02  0.51100000000E-03 0. -1.
        -11    1    4    4    0    0  0.34734802711E+01 -0.58703792014E+01  0.13043964645E+01  0.69446286841E+01  0.51100000000E-03 0.  1.
        -12    1    4    4    0    0  0.13055154843E+02  0.16429623742E+02  0.16309108035E+02  0.26577370246E+02  0.00000000000E+00 0.  1.
</event>
<event>
 8    1  0.1265908E-006  0.9118800E+02  0.7816164E-02  0.1184000E+00
        -11   -1    0    0    0    0  0.00000000000E+00  0.00000000000E+00  0.45593999997E+02  0.45594000000E+02  0.51100000000E-03 0. -1.
         11   -1    0    0    0    0 -0.00000000000E+00 -0.00000000000E+00 -0.45593999997E+02  0.45594000000E+02  0.51100000000E-03 0.  1.
         23    2    1    2    0    0 -0.71054273576E-14  0.00000000000E+00  0.17763568394E-14  0.91188000000E+02  0.91188000000E+02 0.  0.
    9900012    2    3    3    0    0 -0.33141447407E+02  0.49623689897E+01  0.15257829563E+02  0.54367054803E+02  0.39999933035E+02 0.  0.
        -12    1    3    3    0    0  0.33141447407E+02 -0.49623689897E+01 -0.15257829563E+02  0.36820945197E+02  0.00000000000E+00 0.  1.
         11    1    4    4    0    0 -0.12762170405E+02  0.68079386107E+01 -0.11390748478E+02  0.18411142624E+02  0.51100000000E-03 0. -1.
        -11    1    4    4    0    0 -0.58869536990E+01 -0.66299503838E+01  0.10313658556E+02  0.13600883024E+02  0.51100000000E-03 0.  1.
         12    1    4    4    0    0 -0.14492323303E+02  0.47843807628E+01  0.16334919484E+02  0.22355029156E+02  0.00000000000E+00 0. -1.
</event>
<event>
 8    1  0.1265908E-006  0.9118800E+02  0.7816164E-02  0.1184000E+00
        -11   -1    0    0    0    0  0.00000000000E+00  0.00000000000E+00  0.45593999997E+02  0.45594000000E+02  0.51100000000E-03 0.  1.
         11   -1    0    0    0    0 -0.00000000000E+00 -0.00000000000E+00 -0.45593999997E+02  0.45594000000E+02  0.51100000000E-03 0. -1.
         23    2    1    2    0    0  0.00000000000E+00 -0.55511151231E-15  0.00000000000E+00  0.91188000000E+02  0.91188000000E+02 0.  0.
    9900012    2    3    3    0    0 -0.30360626420E+02  0.58784009093E+00  0.20824666442E+02  0.54367083050E+02  0.39999997430E+02 0.  0.
         12    1    3    3    0    0  0.30360626420E+02 -0.58784009093E+00 -0.20824666442E+02  0.36820916950E+02  0.00000000000E+00 0. -1.
         11    1    4    4    0    0 -0.14508907518E+02 -0.52600027229E+01 -0.63963168218E+01  0.16705953883E+02  0.51100000000E-03 0. -1.
        -11    1    4    4    0    0  0.35057034106E+00  0.63419099258E+01  0.45312438613E+00  0.63677345297E+01  0.51100000000E-03 0.  1.
        -12    1    4    4    0    0 -0.16202289243E+02 -0.49406711191E+00  0.26767858878E+02  0.31293394638E+02  0.00000000000E+00 0.  1.
</event>
<event>
 8    1  0.1265908E-006  0.9118800E+02  0.7816164E-02  0.1184000E+00
        -11   -1    0    0    0    0  0.00000000000E+00  0.00000000000E+00  0.45593999997E+02  0.45594000000E+02  0.51100000000E-03 0. -1.
         11   -1    0    0    0    0 -0.00000000000E+00 -0.00000000000E+00 -0.45593999997E+02  0.45594000000E+02  0.51100000000E-03 0.  1.
         23    2    1    2    0    0  0.88817841970E-15 -0.35527136788E-14  0.71054273576E-14  0.91188000000E+02  0.91188000000E+02 0.  0.
    9900012    2    3    3    0    0 -0.41122934365E+01  0.16469827263E+02 -0.32674382081E+02  0.54367062861E+02  0.39999951404E+02 0.  0.
         12    1    3    3    0    0  0.41122934365E+01 -0.16469827263E+02  0.32674382081E+02  0.36820937139E+02  0.00000000000E+00 0. -1.
         11    1    4    4    0    0  0.38514774480E+01 -0.70712884904E+01 -0.54998632697E+01  0.97511791950E+01  0.51100000000E-03 0. -1.
        -11    1    4    4    0    0 -0.73765587588E+01  0.70531325972E+01 -0.26166820667E+02  0.28086701527E+02  0.51100000000E-03 0.  1.
         12    1    4    4    0    0 -0.58721212581E+00  0.16487983157E+02 -0.10076981445E+01  0.16529182139E+02  0.00000000000E+00 0. -1.
</event>
<event>
 8    1  0.1265908E-006  0.9118800E+02  0.7816164E-02  0.1184000E+00
        -11   -1    0    0    0    0  0.00000000000E+00  0.00000000000E+00  0.45593999997E+02  0.45594000000E+02  0.51100000000E-03 0.  1.
         11   -1    0    0    0    0 -0.00000000000E+00 -0.00000000000E+00 -0.45593999997E+02  0.45594000000E+02  0.51100000000E-03 0. -1.
         23    2    1    2    0    0  0.00000000000E+00  0.00000000000E+00 -0.71054273576E-14  0.91188000000E+02  0.91188000000E+02 0.  0.
    9900012    2    3    3    0    0  0.13228676758E+02  0.66638390031E+01 -0.33710160289E+02  0.54367088200E+02  0.40000009170E+02 0.  0.
        -12    1    3    3    0    0 -0.13228676758E+02 -0.66638390031E+01  0.33710160289E+02  0.36820911800E+02  0.00000000000E+00 0.  1.
         11    1    4    4    0    0 -0.10104320873E+00  0.35774402933E+01  0.32230447657E+01  0.48162544166E+01  0.51100000000E-03 0. -1.
        -11    1    4    4    0    0  0.42421264000E+01  0.15674639017E+02 -0.12049198092E+02  0.20220611258E+02  0.51100000000E-03 0.  1.
         12    1    4    4    0    0  0.90875935664E+01 -0.12588240308E+02 -0.24884006963E+02  0.29330222526E+02  0.00000000000E+00 0. -1.
</event>
<event>
 8    1  0.1265908E-006  0.9118800E+02  0.7816164E-02  0.1184000E+00
        -11   -1    0    0    0    0  0.00000000000E+00  0.00000000000E+00  0.45593999997E+02  0.45594000000E+02  0.51100000000E-03 0.  1.
         11   -1    0    0    0    0 -0.00000000000E+00 -0.00000000000E+00 -0.45593999997E+02  0.45594000000E+02  0.51100000000E-03 0. -1.
         23    2    1    2    0    0  0.17763568394E-14 -0.35527136788E-14 -0.71054273576E-14  0.91188000000E+02  0.91188000000E+02 0.  0.
    9900012    2    3    3    0    0 -0.15303059254E+02 -0.20611438859E+02 -0.26396325949E+02  0.54367067666E+02  0.39999962358E+02 0.  0.
        -12    1    3    3    0    0  0.15303059254E+02  0.20611438859E+02  0.26396325949E+02  0.36820932334E+02  0.00000000000E+00 0.  1.
         11    1    4    4    0    0 -0.16675736425E+02 -0.69433007854E-01 -0.11223335227E+02  0.20100951722E+02  0.51100000000E-03 0. -1.
        -11    1    4    4    0    0  0.94845195553E+01 -0.17164181045E+02 -0.39360276203E+01  0.20001438344E+02  0.51100000000E-03 0.  1.
         12    1    4    4    0    0 -0.81118423839E+01 -0.33778248068E+01 -0.11236963101E+02  0.14264677600E+02  0.00000000000E+00 0. -1.
</event>
<event>
 8    1  0.1265908E-006  0.9118800E+02  0.7816164E-02  0.1184000E+00
        -11   -1    0    0    0    0  0.00000000000E+00  0.00000000000E+00  0.45593999997E+02  0.45594000000E+02  0.51100000000E-03 0. -1.
         11   -1    0    0    0    0 -0.00000000000E+00 -0.00000000000E+00 -0.45593999997E+02  0.45594000000E+02  0.51100000000E-03 0.  1.
         23    2    1    2    0    0  0.00000000000E+00  0.17763568394E-14  0.00000000000E+00  0.91188000000E+02  0.91188000000E+02 0.  0.
    9900012    2    3    3    0    0  0.95742798833E+01  0.85249181759E+01  0.34517222239E+02  0.54367086157E+02  0.40000004511E+02 0.  0.
        -12    1    3    3    0    0 -0.95742798833E+01 -0.85249181759E+01 -0.34517222239E+02  0.36820913843E+02  0.00000000000E+00 0.  1.
         11    1    4    4    0    0  0.40216340951E+00 -0.36841477363E+01  0.24204592909E+02  0.24486669804E+02  0.51100000000E-03 0.  1.
        -11    1    4    4    0    0  0.16690827222E+02  0.72083545024E+01  0.10206677190E+02  0.20849948381E+02  0.51100000000E-03 0. -1.
        -12    1    4    4    0    0 -0.75187107481E+01  0.50007114098E+01  0.10595213924E+00  0.90304679709E+01  0.00000000000E+00 0.  1.
</event>
<event>
 8    1  0.1265908E-006  0.9118800E+02  0.7816164E-02  0.1184000E+00
        -11   -1    0    0    0    0  0.00000000000E+00  0.00000000000E+00  0.45593999997E+02  0.45594000000E+02  0.51100000000E-03 0. -1.
         11   -1    0    0    0    0 -0.00000000000E+00 -0.00000000000E+00 -0.45593999997E+02  0.45594000000E+02  0.51100000000E-03 0.  1.
         23    2    1    2    0    0  0.00000000000E+00  0.53290705182E-14  0.00000000000E+00  0.91188000000E+02  0.91188000000E+02 0.  0.
    9900012    2    3    3    0    0  0.33175188617E+02 -0.11893818681E+02  0.10664138877E+02  0.54367083111E+02  0.39999997567E+02 0.  0.
        -12    1    3    3    0    0 -0.33175188617E+02  0.11893818681E+02 -0.10664138877E+02  0.36820916889E+02  0.00000000000E+00 0.  1.
         11    1    4    4    0    0  0.99976556175E+01  0.10743518309E+02  0.87896912567E+01  0.17106576985E+02  0.51100000000E-03 0. -1.
        -11    1    4    4    0    0  0.90418179887E+01 -0.25326817223E+01 -0.63599660560E+01  0.11340992802E+02  0.51100000000E-03 0.  1.
         12    1    4    4    0    0  0.14135715011E+02 -0.20104655268E+02  0.82344136759E+01  0.25919513323E+02  0.00000000000E+00 0. -1.
</event>
<event>
 8    1  0.1265908E-006  0.9118800E+02  0.7816164E-02  0.1184000E+00
        -11   -1    0    0    0    0  0.00000000000E+00  0.00000000000E+00  0.45593999997E+02  0.45594000000E+02  0.51100000000E-03 0.  1.
         11   -1    0    0    0    0 -0.00000000000E+00 -0.00000000000E+00 -0.45593999997E+02  0.45594000000E+02  0.51100000000E-03 0. -1.
         23    2    1    2    0    0  0.17763568394E-14 -0.71054273576E-14  0.00000000000E+00  0.91188000000E+02  0.91188000000E+02 0.  0.
    9900012    2    3    3    0    0  0.83327827313E+01 -0.34701246504E+02  0.90646851333E+01  0.54367078046E+02  0.39999986021E+02 0.  0.
         12    1    3    3    0    0 -0.83327827313E+01  0.34701246504E+02 -0.90646851333E+01  0.36820921954E+02  0.00000000000E+00 0. -1.
         11    1    4    4    0    0 -0.68357809159E+01  0.21496918518E+01  0.38380389149E+01  0.81289371237E+01  0.51100000000E-03 0. -1.
        -11    1    4    4    0    0  0.46937671930E+01 -0.34828357677E+02  0.54740345256E+01  0.35566993171E+02  0.51100000000E-03 0.  1.
         12    1    4    4    0    0  0.10474796454E+02 -0.20225806783E+01 -0.24738830714E+00  0.10671147751E+02  0.00000000000E+00 0. -1.
</event>
<event>
 8    1  0.1265908E-006  0.9118800E+02  0.7816164E-02  0.1184000E+00
        -11   -1    0    0    0    0  0.00000000000E+00  0.00000000000E+00  0.45593999997E+02  0.45594000000E+02  0.51100000000E-03 0.  1.
         11   -1    0    0    0    0 -0.00000000000E+00 -0.00000000000E+00 -0.45593999997E+02  0.45594000000E+02  0.51100000000E-03 0. -1.
         23    2    1    2    0    0 -0.44408920985E-15 -0.88817841970E-15  0.00000000000E+00  0.91188000000E+02  0.91188000000E+02 0.  0.
    9900012    2    3    3    0    0 -0.35950434562E+01  0.66316361615E+01  0.36039933717E+02  0.54367085318E+02  0.40000002600E+02 0.  0.
         12    1    3    3    0    0  0.35950434562E+01 -0.66316361615E+01 -0.36039933717E+02  0.36820914682E+02  0.00000000000E+00 0. -1.
         11    1    4    4    0    0 -0.28173332233E+01  0.15388168564E+02  0.19193544011E+02  0.24761365678E+02  0.51100000000E-03 0. -1.
        -11    1    4    4    0    0 -0.10945758743E+02 -0.63323601228E+01  0.13800493154E+02  0.18717960112E+02  0.51100000000E-03 0.  1.
         12    1    4    4    0    0  0.10168048511E+02 -0.24241722799E+01  0.30458965525E+01  0.10887759529E+02  0.00000000000E+00 0. -1.
</event>
<event>
 8    1  0.1265908E-006  0.9118800E+02  0.7816164E-02  0.1184000E+00
        -11   -1    0    0    0    0  0.00000000000E+00  0.00000000000E+00  0.45593999997E+02  0.45594000000E+02  0.51100000000E-03 0.  1.
         11   -1    0    0    0    0 -0.00000000000E+00 -0.00000000000E+00 -0.45593999997E+02  0.45594000000E+02  0.51100000000E-03 0. -1.
         23    2    1    2    0    0 -0.35527136788E-14 -0.66613381478E-15 -0.35527136788E-14  0.91188000000E+02  0.91188000000E+02 0.  0.
    9900012    2    3    3    0    0  0.27010284062E+02  0.17306106597E+01  0.24964550175E+02  0.54367092572E+02  0.40000019137E+02 0.  0.
         12    1    3    3    0    0 -0.27010284062E+02 -0.17306106597E+01 -0.24964550175E+02  0.36820907428E+02  0.00000000000E+00 0. -1.
         11    1    4    4    0    0  0.34948386001E+01  0.16122807025E+01 -0.94210178557E+00  0.39624363641E+01  0.51100000000E-03 0. -1.
        -11    1    4    4    0    0  0.75189370712E+01 -0.16997671742E+02  0.56284345653E+01  0.19419951988E+02  0.51100000000E-03 0.  1.
         12    1    4    4    0    0  0.15996508391E+02  0.17116001699E+02  0.20278217395E+02  0.30984704220E+02  0.00000000000E+00 0. -1.
</event>
<event>
 8    1  0.1265908E-006  0.9118800E+02  0.7816164E-02  0.1184000E+00
        -11   -1    0    0    0    0  0.00000000000E+00  0.00000000000E+00  0.45593999997E+02  0.45594000000E+02  0.51100000000E-03 0. -1.
         11   -1    0    0    0    0 -0.00000000000E+00 -0.00000000000E+00 -0.45593999997E+02  0.45594000000E+02  0.51100000000E-03 0.  1.
         23    2    1    2    0    0 -0.88817841970E-15  0.00000000000E+00  0.26645352591E-14  0.91188000000E+02  0.91188000000E+02 0.  0.
    9900012    2    3    3    0    0 -0.78271453785E+01  0.35422546113E+02  0.63053096807E+01  0.54367110439E+02  0.40000059867E+02 0.  0.
        -12    1    3    3    0    0  0.78271453785E+01 -0.35422546113E+02 -0.63053096807E+01  0.36820889561E+02  0.00000000000E+00 0.  1.
         11    1    4    4    0    0 -0.38680888043E+01  0.22244774011E+02  0.16663389599E+02  0.28061729009E+02  0.51100000000E-03 0. -1.
        -11    1    4    4    0    0 -0.51856702569E+01 -0.42492386725E+01 -0.31323485719E+01  0.73999198067E+01  0.51100000000E-03 0.  1.
         12    1    4    4    0    0  0.12266136827E+01  0.17427010775E+02 -0.72257313463E+01  0.18905461622E+02  0.00000000000E+00 0. -1.
</event>
<event>
 8    1  0.1265908E-006  0.9118800E+02  0.7816164E-02  0.1184000E+00
        -11   -1    0    0    0    0  0.00000000000E+00  0.00000000000E+00  0.45593999997E+02  0.45594000000E+02  0.51100000000E-03 0. -1.
         11   -1    0    0    0    0 -0.00000000000E+00 -0.00000000000E+00 -0.45593999997E+02  0.45594000000E+02  0.51100000000E-03 0.  1.
         23    2    1    2    0    0  0.17763568394E-14 -0.35527136788E-14  0.00000000000E+00  0.91188000000E+02  0.91188000000E+02 0.  0.
    9900012    2    3    3    0    0 -0.51925084117E+01 -0.27132535415E+02 -0.24344259179E+02  0.54367087781E+02  0.40000008215E+02 0.  0.
         12    1    3    3    0    0  0.51925084117E+01  0.27132535415E+02  0.24344259179E+02  0.36820912219E+02  0.00000000000E+00 0. -1.
         11    1    4    4    0    0  0.52222231341E+01 -0.49265589130E+00  0.55374931133E+01  0.76274605558E+01  0.51100000000E-03 0. -1.
        -11    1    4    4    0    0 -0.12823241122E+02 -0.15285183319E+02 -0.71109466995E+01  0.21181074222E+02  0.51100000000E-03 0.  1.
         12    1    4    4    0    0  0.24085095767E+01 -0.11354696204E+02 -0.22770805593E+02  0.25558553003E+02  0.00000000000E+00 0. -1.
</event>
<event>
 8    1  0.1265908E-006  0.9118800E+02  0.7816164E-02  0.1184000E+00
        -11   -1    0    0    0    0  0.00000000000E+00  0.00000000000E+00  0.45593999997E+02  0.45594000000E+02  0.51100000000E-03 0. -1.
         11   -1    0    0    0    0 -0.00000000000E+00 -0.00000000000E+00 -0.45593999997E+02  0.45594000000E+02  0.51100000000E-03 0.  1.
         23    2    1    2    0    0 -0.44408920985E-15  0.00000000000E+00 -0.35527136788E-14  0.91188000000E+02  0.91188000000E+02 0.  0.
    9900012    2    3    3    0    0 -0.64849831501E+00 -0.22325565611E+02  0.29273337701E+02  0.54367085698E+02  0.40000003465E+02 0.  0.
        -12    1    3    3    0    0  0.64849831501E+00  0.22325565611E+02 -0.29273337701E+02  0.36820914302E+02  0.00000000000E+00 0.  1.
         11    1    4    4    0    0 -0.13474321112E+02 -0.67323627850E+01  0.38118344848E+01  0.15537442534E+02  0.51100000000E-03 0. -1.
        -11    1    4    4    0    0  0.84027368734E+01  0.36119639701E+01  0.11420438095E+02  0.14631427724E+02  0.51100000000E-03 0.  1.
         12    1    4    4    0    0  0.44230859235E+01 -0.19205166796E+02  0.14041065120E+02  0.24198215440E+02  0.00000000000E+00 0. -1.
</event>
<event>
 8    1  0.1265908E-006  0.9118800E+02  0.7816164E-02  0.1184000E+00
        -11   -1    0    0    0    0  0.00000000000E+00  0.00000000000E+00  0.45593999997E+02  0.45594000000E+02  0.51100000000E-03 0.  1.
         11   -1    0    0    0    0 -0.00000000000E+00 -0.00000000000E+00 -0.45593999997E+02  0.45594000000E+02  0.51100000000E-03 0. -1.
         23    2    1    2    0    0  0.35527136788E-14 -0.17763568394E-14  0.00000000000E+00  0.91188000000E+02  0.91188000000E+02 0.  0.
    9900012    2    3    3    0    0 -0.31224000853E+02  0.94799187593E+01 -0.17057929733E+02  0.54367081275E+02  0.39999993383E+02 0.  0.
        -12    1    3    3    0    0  0.31224000853E+02 -0.94799187593E+01  0.17057929733E+02  0.36820918725E+02  0.00000000000E+00 0.  1.
         11    1    4    4    0    0 -0.52432211463E+00 -0.31088377256E+01 -0.28660316740E+01  0.42607421304E+01  0.51100000000E-03 0.  1.
        -11    1    4    4    0    0 -0.13730438275E+02  0.23434382560E+02 -0.12492199218E+02  0.29895656252E+02  0.51100000000E-03 0. -1.
         12    1    4    4    0    0 -0.16969240463E+02 -0.10845626075E+02 -0.16996988415E+01  0.20210682893E+02  0.00000000000E+00 0. -1.
</event>
<event>
 8    1  0.1265908E-006  0.9118800E+02  0.7816164E-02  0.1184000E+00
        -11   -1    0    0    0    0  0.00000000000E+00  0.00000000000E+00  0.45593999997E+02  0.45594000000E+02  0.51100000000E-03 0.  1.
         11   -1    0    0    0    0 -0.00000000000E+00 -0.00000000000E+00 -0.45593999997E+02  0.45594000000E+02  0.51100000000E-03 0. -1.
         23    2    1    2    0    0  0.35527136788E-14  0.00000000000E+00  0.17763568394E-14  0.91188000000E+02  0.91188000000E+02 0.  0.
    9900012    2    3    3    0    0 -0.30613067435E+02 -0.17218561191E+02  0.11051746353E+02  0.54367084141E+02  0.39999999916E+02 0.  0.
         12    1    3    3    0    0  0.30613067435E+02  0.17218561191E+02 -0.11051746353E+02  0.36820915859E+02  0.00000000000E+00 0. -1.
         11    1    4    4    0    0 -0.27871676326E+02 -0.12026944460E+02  0.96684335215E+01  0.31858379451E+02  0.51100000000E-03 0. -1.
        -11    1    4    4    0    0 -0.61260424562E+01 -0.12528055563E+02  0.30106250320E+01  0.14266900003E+02  0.51100000000E-03 0.  1.
         12    1    4    4    0    0  0.33846513469E+01  0.73364388325E+01 -0.16273122008E+01  0.82418046860E+01  0.00000000000E+00 0. -1.
</event>
<event>
 8    1  0.1265908E-006  0.9118800E+02  0.7816164E-02  0.1184000E+00
        -11   -1    0    0    0    0  0.00000000000E+00  0.00000000000E+00  0.45593999997E+02  0.45594000000E+02  0.51100000000E-03 0. -1.
         11   -1    0    0    0    0 -0.00000000000E+00 -0.00000000000E+00 -0.45593999997E+02  0.45594000000E+02  0.51100000000E-03 0.  1.
         23    2    1    2    0    0  0.00000000000E+00  0.00000000000E+00 -0.71054273576E-14  0.91188000000E+02  0.91188000000E+02 0.  0.
    9900012    2    3    3    0    0 -0.18619720381E+02  0.80229867489E+01  0.30736250057E+02  0.54367090574E+02  0.40000014581E+02 0.  0.
        -12    1    3    3    0    0  0.18619720381E+02 -0.80229867489E+01 -0.30736250057E+02  0.36820909426E+02  0.00000000000E+00 0.  1.
         11    1    4    4    0    0  0.29207727708E+00  0.80847559354E+01  0.29013163350E+02  0.30119964069E+02  0.51100000000E-03 0. -1.
        -11    1    4    4    0    0  0.25963897453E+01 -0.44289801371E+00 -0.24747453447E+00  0.26454947111E+01  0.51100000000E-03 0.  1.
        -12    1    4    4    0    0 -0.21508187403E+02  0.38112882720E+00  0.19705612413E+01  0.21601631794E+02  0.00000000000E+00 0.  1.
</event>
<event>
 8    1  0.1265908E-006  0.9118800E+02  0.7816164E-02  0.1184000E+00
        -11   -1    0    0    0    0  0.00000000000E+00  0.00000000000E+00  0.45593999997E+02  0.45594000000E+02  0.51100000000E-03 0.  1.
         11   -1    0    0    0    0 -0.00000000000E+00 -0.00000000000E+00 -0.45593999997E+02  0.45594000000E+02  0.51100000000E-03 0. -1.
         23    2    1    2    0    0  0.35527136788E-14 -0.22204460493E-14  0.00000000000E+00  0.91188000000E+02  0.91188000000E+02 0.  0.
    9900012    2    3    3    0    0 -0.24835463778E+02 -0.21369050480E+01 -0.27100057034E+02  0.54367085895E+02  0.40000003914E+02 0.  0.
        -12    1    3    3    0    0  0.24835463778E+02  0.21369050480E+01  0.27100057034E+02  0.36820914105E+02  0.00000000000E+00 0.  1.
         11    1    4    4    0    0 -0.18531593460E+02  0.10134957831E+02 -0.38837100418E+01  0.21476045501E+02  0.51100000000E-03 0.  1.
        -11    1    4    4    0    0 -0.44362943295E+01 -0.95290658224E+01 -0.11468808902E+01  0.10573511189E+02  0.51100000000E-03 0. -1.
         12    1    4    4    0    0 -0.18675759889E+01 -0.27427970568E+01 -0.22069466102E+02  0.22317529205E+02  0.00000000000E+00 0. -1.
</event>
<event>
 8    1  0.1265908E-006  0.9118800E+02  0.7816164E-02  0.1184000E+00
        -11   -1    0    0    0    0  0.00000000000E+00  0.00000000000E+00  0.45593999997E+02  0.45594000000E+02  0.51100000000E-03 0. -1.
         11   -1    0    0    0    0 -0.00000000000E+00 -0.00000000000E+00 -0.45593999997E+02  0.45594000000E+02  0.51100000000E-03 0.  1.
         23    2    1    2    0    0  0.00000000000E+00  0.00000000000E+00  0.35527136788E-14  0.91188000000E+02  0.91188000000E+02 0.  0.
    9900012    2    3    3    0    0 -0.95522022082E+01 -0.19949472606E+02  0.29437283356E+02  0.54367086436E+02  0.40000005148E+02 0.  0.
        -12    1    3    3    0    0  0.95522022082E+01  0.19949472606E+02 -0.29437283356E+02  0.36820913564E+02  0.00000000000E+00 0.  1.
         11    1    4    4    0    0  0.39463845178E+00 -0.73159481883E+01  0.33192480830E+02  0.33991463948E+02  0.51100000000E-03 0. -1.
        -11    1    4    4    0    0 -0.24450364797E+01 -0.36140122394E+01  0.43147647345E+01  0.61364878252E+01  0.51100000000E-03 0.  1.
        -12    1    4    4    0    0 -0.75018041803E+01 -0.90195121784E+01 -0.80699622084E+01  0.14239134663E+02  0.00000000000E+00 0.  1.
</event>
<event>
 8    1  0.1265908E-006  0.9118800E+02  0.7816164E-02  0.1184000E+00
        -11   -1    0    0    0    0  0.00000000000E+00  0.00000000000E+00  0.45593999997E+02  0.45594000000E+02  0.51100000000E-03 0. -1.
         11   -1    0    0    0    0 -0.00000000000E+00 -0.00000000000E+00 -0.45593999997E+02  0.45594000000E+02  0.51100000000E-03 0.  1.
         23    2    1    2    0    0  0.00000000000E+00  0.00000000000E+00  0.00000000000E+00  0.91188000000E+02  0.91188000000E+02 0.  0.
    9900012    2    3    3    0    0 -0.20647623115E+02  0.22152840806E+02 -0.20945329320E+02  0.54367088599E+02  0.40000010080E+02 0.  0.
         12    1    3    3    0    0  0.20647623115E+02 -0.22152840806E+02  0.20945329320E+02  0.36820911401E+02  0.00000000000E+00 0. -1.
         11    1    4    4    0    0 -0.83199643876E+01 -0.46586274598E+01 -0.20413391692E+02  0.22530671936E+02  0.51100000000E-03 0. -1.
        -11    1    4    4    0    0  0.33662856009E+00  0.13158253139E+02  0.63143237615E+00  0.13177695230E+02  0.51100000000E-03 0.  1.
        -12    1    4    4    0    0 -0.12664287287E+02  0.13653215126E+02 -0.11633700032E+01  0.18658721434E+02  0.00000000000E+00 0.  1.
</event>
<event>
 8    1  0.1265908E-006  0.9118800E+02  0.7816164E-02  0.1184000E+00
        -11   -1    0    0    0    0  0.00000000000E+00  0.00000000000E+00  0.45593999997E+02  0.45594000000E+02  0.51100000000E-03 0. -1.
         11   -1    0    0    0    0 -0.00000000000E+00 -0.00000000000E+00 -0.45593999997E+02  0.45594000000E+02  0.51100000000E-03 0.  1.
         23    2    1    2    0    0 -0.35527136788E-14  0.00000000000E+00  0.17763568394E-14  0.91188000000E+02  0.91188000000E+02 0.  0.
    9900012    2    3    3    0    0 -0.28183872863E+02 -0.18005063257E+02  0.15403435374E+02  0.54367098140E+02  0.40000031829E+02 0.  0.
        -12    1    3    3    0    0  0.28183872863E+02  0.18005063257E+02 -0.15403435374E+02  0.36820901860E+02  0.00000000000E+00 0.  1.
         11    1    4    4    0    0 -0.16710271024E+02  0.28829284463E+01  0.18840674786E+02  0.25347888685E+02  0.51100000000E-03 0. -1.
        -11    1    4    4    0    0  0.82202519731E+00  0.14225082620E+01  0.23772546383E+01  0.28897396175E+01  0.51100000000E-03 0.  1.
        -12    1    4    4    0    0 -0.12295627037E+02 -0.22310499965E+02 -0.58144940498E+01  0.26129469838E+02  0.00000000000E+00 0.  1.
</event>
<event>
 8    1  0.1265908E-006  0.9118800E+02  0.7816164E-02  0.1184000E+00
        -11   -1    0    0    0    0  0.00000000000E+00  0.00000000000E+00  0.45593999997E+02  0.45594000000E+02  0.51100000000E-03 0. -1.
         11   -1    0    0    0    0 -0.00000000000E+00 -0.00000000000E+00 -0.45593999997E+02  0.45594000000E+02  0.51100000000E-03 0.  1.
         23    2    1    2    0    0  0.17763568394E-14 -0.17763568394E-14  0.00000000000E+00  0.91188000000E+02  0.91188000000E+02 0.  0.
    9900012    2    3    3    0    0  0.91620942606E+01  0.84568295143E+01  0.34645602095E+02  0.54367086361E+02  0.40000004977E+02 0.  0.
        -12    1    3    3    0    0 -0.91620942606E+01 -0.84568295143E+01 -0.34645602095E+02  0.36820913639E+02  0.00000000000E+00 0.  1.
         11    1    4    4    0    0  0.78842707636E+01 -0.60994223724E+00  0.18817453231E+02  0.20411523739E+02  0.51100000000E-03 0. -1.
        -11    1    4    4    0    0  0.60196490146E+01 -0.89541641409E+01  0.25854643862E+01  0.11094947322E+02  0.51100000000E-03 0.  1.
         12    1    4    4    0    0 -0.47418255175E+01  0.18020935893E+02  0.13242684479E+02  0.22860615300E+02  0.00000000000E+00 0. -1.
</event>
<event>
 8    1  0.1265908E-006  0.9118800E+02  0.7816164E-02  0.1184000E+00
        -11   -1    0    0    0    0  0.00000000000E+00  0.00000000000E+00  0.45593999997E+02  0.45594000000E+02  0.51100000000E-03 0. -1.
         11   -1    0    0    0    0 -0.00000000000E+00 -0.00000000000E+00 -0.45593999997E+02  0.45594000000E+02  0.51100000000E-03 0.  1.
         23    2    1    2    0    0  0.00000000000E+00  0.00000000000E+00  0.00000000000E+00  0.91188000000E+02  0.91188000000E+02 0.  0.
    9900012    2    3    3    0    0  0.35198611344E+02  0.10323081794E+02 -0.32047949984E+01  0.54367096029E+02  0.40000027018E+02 0.  0.
        -12    1    3    3    0    0 -0.35198611344E+02 -0.10323081794E+02  0.32047949984E+01  0.36820903971E+02  0.00000000000E+00 0.  1.
         11    1    4    4    0    0  0.60439173703E+01  0.23111521422E+01  0.67706623084E+01  0.93654807543E+01  0.51100000000E-03 0. -1.
        -11    1    4    4    0    0  0.21630700028E+02  0.19811082580E+02 -0.10054628519E+02  0.31007446389E+02  0.51100000000E-03 0.  1.
        -12    1    4    4    0    0  0.75239939455E+01 -0.11799152928E+02  0.79171211814E-01  0.13994168885E+02  0.00000000000E+00 0.  1.
</event>
<event>
 8    1  0.1265908E-006  0.9118800E+02  0.7816164E-02  0.1184000E+00
        -11   -1    0    0    0    0  0.00000000000E+00  0.00000000000E+00  0.45593999997E+02  0.45594000000E+02  0.51100000000E-03 0.  1.
         11   -1    0    0    0    0 -0.00000000000E+00 -0.00000000000E+00 -0.45593999997E+02  0.45594000000E+02  0.51100000000E-03 0. -1.
         23    2    1    2    0    0  0.35527136788E-14 -0.35527136788E-14  0.00000000000E+00  0.91188000000E+02  0.91188000000E+02 0.  0.
    9900012    2    3    3    0    0  0.21647809601E+02 -0.29598377428E+02 -0.33299028521E+01  0.54367083935E+02  0.39999999447E+02 0.  0.
         12    1    3    3    0    0 -0.21647809601E+02  0.29598377428E+02  0.33299028521E+01  0.36820916065E+02  0.00000000000E+00 0. -1.
         11    1    4    4    0    0  0.13563786657E+02 -0.20586879746E+02 -0.44429644396E+01  0.25050665848E+02  0.51100000000E-03 0. -1.
        -11    1    4    4    0    0  0.20410063533E+01  0.91638161809E+01 -0.27381014865E+01  0.97794904746E+01  0.51100000000E-03 0.  1.
        -12    1    4    4    0    0  0.60430165901E+01 -0.18175313862E+02  0.38511630739E+01  0.19536927612E+02  0.00000000000E+00 0.  1.
</event>
<event>
 8    1  0.1265908E-006  0.9118800E+02  0.7816164E-02  0.1184000E+00
        -11   -1    0    0    0    0  0.00000000000E+00  0.00000000000E+00  0.45593999997E+02  0.45594000000E+02  0.51100000000E-03 0. -1.
         11   -1    0    0    0    0 -0.00000000000E+00 -0.00000000000E+00 -0.45593999997E+02  0.45594000000E+02  0.51100000000E-03 0.  1.
         23    2    1    2    0    0  0.27755575616E-16  0.00000000000E+00  0.00000000000E+00  0.91188000000E+02  0.91188000000E+02 0.  0.
    9900012    2    3    3    0    0  0.14818218206E+00  0.12091065935E+02  0.34778779652E+02  0.54367090893E+02  0.40000015309E+02 0.  0.
        -12    1    3    3    0    0 -0.14818218206E+00 -0.12091065935E+02 -0.34778779652E+02  0.36820909107E+02  0.00000000000E+00 0.  1.
         11    1    4    4    0    0  0.35897202519E+01  0.74757839036E+01  0.31420101410E+01  0.88682390838E+01  0.51100000000E-03 0. -1.
        -11    1    4    4    0    0  0.38336088546E+01 -0.11076291382E+02  0.30904619739E+01  0.12121540459E+02  0.51100000000E-03 0.  1.
         12    1    4    4    0    0 -0.72751469245E+01  0.15691573414E+02  0.28546307537E+02  0.33377311350E+02  0.00000000000E+00 0. -1.
</event>
<event>
 8    1  0.1265908E-006  0.9118800E+02  0.7816164E-02  0.1184000E+00
        -11   -1    0    0    0    0  0.00000000000E+00  0.00000000000E+00  0.45593999997E+02  0.45594000000E+02  0.51100000000E-03 0.  1.
         11   -1    0    0    0    0 -0.00000000000E+00 -0.00000000000E+00 -0.45593999997E+02  0.45594000000E+02  0.51100000000E-03 0. -1.
         23    2    1    2    0    0  0.00000000000E+00  0.00000000000E+00  0.00000000000E+00  0.91188000000E+02  0.91188000000E+02 0.  0.
    9900012    2    3    3    0    0  0.23234969524E+02 -0.11551678958E+02 -0.26124217605E+02  0.54367084191E+02  0.40000000029E+02 0.  0.
        -12    1    3    3    0    0 -0.23234969524E+02  0.11551678958E+02  0.26124217605E+02  0.36820915809E+02  0.00000000000E+00 0.  1.
         11    1    4    4    0    0  0.15235315517E+02 -0.59743994649E+01 -0.26908464871E+02  0.31494027526E+02  0.51100000000E-03 0. -1.
        -11    1    4    4    0    0  0.13508248378E+02  0.13269644088E+01 -0.17464174081E+01  0.13685159218E+02  0.51100000000E-03 0.  1.
         12    1    4    4    0    0 -0.55085943705E+01 -0.69042439024E+01  0.25306646736E+01  0.91878974468E+01  0.00000000000E+00 0. -1.
</event>
<event>
 8    1  0.1265908E-006  0.9118800E+02  0.7816164E-02  0.1184000E+00
        -11   -1    0    0    0    0  0.00000000000E+00  0.00000000000E+00  0.45593999997E+02  0.45594000000E+02  0.51100000000E-03 0.  1.
         11   -1    0    0    0    0 -0.00000000000E+00 -0.00000000000E+00 -0.45593999997E+02  0.45594000000E+02  0.51100000000E-03 0. -1.
         23    2    1    2    0    0  0.00000000000E+00  0.00000000000E+00  0.00000000000E+00  0.91188000000E+02  0.91188000000E+02 0.  0.
    9900012    2    3    3    0    0 -0.19712950420E+02  0.23737586289E+02  0.20092487005E+02  0.54367062327E+02  0.39999950187E+02 0.  0.
         12    1    3    3    0    0  0.19712950420E+02 -0.23737586289E+02 -0.20092487005E+02  0.36820937673E+02  0.00000000000E+00 0. -1.
         11    1    4    4    0    0 -0.48267745470E+01 -0.57206646196E+01 -0.47477702225E+01  0.88636944083E+01  0.51100000000E-03 0. -1.
        -11    1    4    4    0    0 -0.10242843639E+02  0.27725222524E+02  0.12290352301E+02  0.32010257259E+02  0.51100000000E-03 0.  1.
         12    1    4    4    0    0 -0.46433322343E+01  0.17330283839E+01  0.12549904926E+02  0.13493110660E+02  0.00000000000E+00 0. -1.
</event>
<event>
 8    1  0.1265908E-006  0.9118800E+02  0.7816164E-02  0.1184000E+00
        -11   -1    0    0    0    0  0.00000000000E+00  0.00000000000E+00  0.45593999997E+02  0.45594000000E+02  0.51100000000E-03 0. -1.
         11   -1    0    0    0    0 -0.00000000000E+00 -0.00000000000E+00 -0.45593999997E+02  0.45594000000E+02  0.51100000000E-03 0.  1.
         23    2    1    2    0    0  0.00000000000E+00  0.00000000000E+00 -0.35527136788E-14  0.91188000000E+02  0.91188000000E+02 0.  0.
    9900012    2    3    3    0    0  0.69308919388E+01 -0.20258410804E+02 -0.29955624739E+02  0.54367083052E+02  0.39999997434E+02 0.  0.
         12    1    3    3    0    0 -0.69308919388E+01  0.20258410804E+02  0.29955624739E+02  0.36820916948E+02  0.00000000000E+00 0. -1.
         11    1    4    4    0    0 -0.40354177104E+01 -0.10047639206E+02 -0.57531437059E+01  0.12261252484E+02  0.51100000000E-03 0. -1.
        -11    1    4    4    0    0  0.77283971887E+01 -0.20757926490E+02 -0.10497103704E+02  0.24511401872E+02  0.51100000000E-03 0.  1.
        -12    1    4    4    0    0  0.32379124605E+01  0.10547154893E+02 -0.13705377329E+02  0.17594428697E+02  0.00000000000E+00 0.  1.
</event>
<event>
 8    1  0.1265908E-006  0.9118800E+02  0.7816164E-02  0.1184000E+00
        -11   -1    0    0    0    0  0.00000000000E+00  0.00000000000E+00  0.45593999997E+02  0.45594000000E+02  0.51100000000E-03 0. -1.
         11   -1    0    0    0    0 -0.00000000000E+00 -0.00000000000E+00 -0.45593999997E+02  0.45594000000E+02  0.51100000000E-03 0.  1.
         23    2    1    2    0    0 -0.17763568394E-14 -0.44408920985E-15  0.00000000000E+00  0.91188000000E+02  0.91188000000E+02 0.  0.
    9900012    2    3    3    0    0 -0.14695305644E+02 -0.39824200504E+01 -0.33525655879E+02  0.54367064657E+02  0.39999955499E+02 0.  0.
         12    1    3    3    0    0  0.14695305644E+02  0.39824200504E+01  0.33525655879E+02  0.36820935343E+02  0.00000000000E+00 0. -1.
         11    1    4    4    0    0  0.53834478105E+01 -0.10635067640E+02 -0.69459667546E+01  0.13796109178E+02  0.51100000000E-03 0. -1.
        -11    1    4    4    0    0  0.36097168641E+01 -0.23298879919E+01 -0.82479570243E+01  0.92998510327E+01  0.51100000000E-03 0.  1.
        -12    1    4    4    0    0 -0.23688470319E+02  0.89825355816E+01 -0.18331732100E+02  0.31271104446E+02  0.00000000000E+00 0.  1.
</event>
<event>
 8    1  0.1265908E-006  0.9118800E+02  0.7816164E-02  0.1184000E+00
        -11   -1    0    0    0    0  0.00000000000E+00  0.00000000000E+00  0.45593999997E+02  0.45594000000E+02  0.51100000000E-03 0. -1.
         11   -1    0    0    0    0 -0.00000000000E+00 -0.00000000000E+00 -0.45593999997E+02  0.45594000000E+02  0.51100000000E-03 0.  1.
         23    2    1    2    0    0  0.35527136788E-14  0.00000000000E+00 -0.17763568394E-14  0.91188000000E+02  0.91188000000E+02 0.  0.
    9900012    2    3    3    0    0  0.24675868738E+02 -0.23385196669E+02  0.14142633737E+02  0.54367081893E+02  0.39999994791E+02 0.  0.
         12    1    3    3    0    0 -0.24675868738E+02  0.23385196669E+02 -0.14142633737E+02  0.36820918107E+02  0.00000000000E+00 0. -1.
         11    1    4    4    0    0  0.24216553563E+02  0.13638979319E+01  0.74242969777E+01  0.25365761765E+02  0.51100000000E-03 0. -1.
        -11    1    4    4    0    0  0.50188234197E+01 -0.22637795848E+02  0.55767482962E+01  0.23848658478E+02  0.51100000000E-03 0.  1.
         12    1    4    4    0    0 -0.45595082449E+01 -0.21112987536E+01  0.11415884627E+01  0.51526616501E+01  0.00000000000E+00 0. -1.
</event>
<event>
 8    1  0.1265908E-006  0.9118800E+02  0.7816164E-02  0.1184000E+00
        -11   -1    0    0    0    0  0.00000000000E+00  0.00000000000E+00  0.45593999997E+02  0.45594000000E+02  0.51100000000E-03 0. -1.
         11   -1    0    0    0    0 -0.00000000000E+00 -0.00000000000E+00 -0.45593999997E+02  0.45594000000E+02  0.51100000000E-03 0.  1.
         23    2    1    2    0    0  0.35527136788E-14  0.35527136788E-14  0.00000000000E+00  0.91188000000E+02  0.91188000000E+02 0.  0.
    9900012    2    3    3    0    0 -0.24012052259E+02 -0.23117030014E+02  0.15646206937E+02  0.54367088524E+02  0.40000009909E+02 0.  0.
        -12    1    3    3    0    0  0.24012052259E+02  0.23117030014E+02 -0.15646206937E+02  0.36820911476E+02  0.00000000000E+00 0.  1.
         11    1    4    4    0    0 -0.73890756657E-01 -0.16597751042E+01  0.47553382363E+01  0.50372170137E+01  0.51100000000E-03 0. -1.
        -11    1    4    4    0    0  0.43595773672E+01 -0.14262545351E+02 -0.54399400134E+01  0.15875108262E+02  0.51100000000E-03 0.  1.
         12    1    4    4    0    0 -0.28297738870E+02 -0.71947095587E+01  0.16330808715E+02  0.33454763249E+02  0.00000000000E+00 0. -1.
</event>
<event>
 8    1  0.1265908E-006  0.9118800E+02  0.7816164E-02  0.1184000E+00
        -11   -1    0    0    0    0  0.00000000000E+00  0.00000000000E+00  0.45593999997E+02  0.45594000000E+02  0.51100000000E-03 0.  1.
         11   -1    0    0    0    0 -0.00000000000E+00 -0.00000000000E+00 -0.45593999997E+02  0.45594000000E+02  0.51100000000E-03 0. -1.
         23    2    1    2    0    0 -0.35527136788E-14 -0.71054273576E-14 -0.88817841970E-15  0.91188000000E+02  0.91188000000E+02 0.  0.
    9900012    2    3    3    0    0 -0.17581040747E+02  0.32306806750E+02  0.17196831132E+01  0.54367081134E+02  0.39999993060E+02 0.  0.
        -12    1    3    3    0    0  0.17581040747E+02 -0.32306806750E+02 -0.17196831132E+01  0.36820918866E+02  0.00000000000E+00 0.  1.
         11    1    4    4    0    0  0.58317387669E+01 -0.27305807292E+00  0.11031885326E+02  0.12481435489E+02  0.51100000000E-03 0. -1.
        -11    1    4    4    0    0 -0.48907142936E+01  0.35950597468E+01  0.57047517317E+00  0.60966370295E+01  0.51100000000E-03 0.  1.
         12    1    4    4    0    0 -0.18522065220E+02  0.28984805076E+02 -0.98826773861E+01  0.35789008615E+02  0.00000000000E+00 0. -1.
</event>
<event>
 8    1  0.1265908E-006  0.9118800E+02  0.7816164E-02  0.1184000E+00
        -11   -1    0    0    0    0  0.00000000000E+00  0.00000000000E+00  0.45593999997E+02  0.45594000000E+02  0.51100000000E-03 0.  1.
         11   -1    0    0    0    0 -0.00000000000E+00 -0.00000000000E+00 -0.45593999997E+02  0.45594000000E+02  0.51100000000E-03 0. -1.
         23    2    1    2    0    0  0.00000000000E+00  0.00000000000E+00  0.35527136788E-14  0.91188000000E+02  0.91188000000E+02 0.  0.
    9900012    2    3    3    0    0  0.19597793795E+02  0.63725621581E+01  0.30513809143E+02  0.54367141529E+02  0.40000130744E+02 0.  0.
         12    1    3    3    0    0 -0.19597793795E+02 -0.63725621581E+01 -0.30513809143E+02  0.36820858471E+02  0.00000000000E+00 0. -1.
         11    1    4    4    0    0 -0.33343646126E+01 -0.62458729136E+01 -0.40525541360E+01  0.81579477266E+01  0.51100000000E-03 0. -1.
        -11    1    4    4    0    0  0.11380590087E+01  0.55657940998E+01  0.15151643485E+02  0.16181642155E+02  0.51100000000E-03 0.  1.
         12    1    4    4    0    0  0.21794099399E+02  0.70526409720E+01  0.19414719794E+02  0.30027551648E+02  0.00000000000E+00 0. -1.
</event>
<event>
 8    1  0.1265908E-006  0.9118800E+02  0.7816164E-02  0.1184000E+00
        -11   -1    0    0    0    0  0.00000000000E+00  0.00000000000E+00  0.45593999997E+02  0.45594000000E+02  0.51100000000E-03 0. -1.
         11   -1    0    0    0    0 -0.00000000000E+00 -0.00000000000E+00 -0.45593999997E+02  0.45594000000E+02  0.51100000000E-03 0.  1.
         23    2    1    2    0    0  0.71054273576E-14 -0.88817841970E-15  0.00000000000E+00  0.91188000000E+02  0.91188000000E+02 0.  0.
    9900012    2    3    3    0    0 -0.32964544864E+02  0.56471573280E+01  0.15402255571E+02  0.54367067358E+02  0.39999961656E+02 0.  0.
        -12    1    3    3    0    0  0.32964544864E+02 -0.56471573280E+01 -0.15402255571E+02  0.36820932642E+02  0.00000000000E+00 0.  1.
         11    1    4    4    0    0  0.61131065449E+01 -0.35127071651E+01  0.30276396864E+01  0.76730558181E+01  0.51100000000E-03 0. -1.
        -11    1    4    4    0    0 -0.25309171972E+02 -0.39135625457E+01  0.39122390087E+01  0.25907060274E+02  0.51100000000E-03 0.  1.
         12    1    4    4    0    0 -0.13768479436E+02  0.13073427039E+02  0.84623768764E+01  0.20786951266E+02  0.00000000000E+00 0. -1.
</event>
<event>
 8    1  0.1265908E-006  0.9118800E+02  0.7816164E-02  0.1184000E+00
        -11   -1    0    0    0    0  0.00000000000E+00  0.00000000000E+00  0.45593999997E+02  0.45594000000E+02  0.51100000000E-03 0. -1.
         11   -1    0    0    0    0 -0.00000000000E+00 -0.00000000000E+00 -0.45593999997E+02  0.45594000000E+02  0.51100000000E-03 0.  1.
         23    2    1    2    0    0  0.00000000000E+00  0.00000000000E+00  0.71054273576E-14  0.91188000000E+02  0.91188000000E+02 0.  0.
    9900012    2    3    3    0    0 -0.43897514803E+01 -0.13288417632E+02 -0.34057696384E+02  0.54367100443E+02  0.40000037079E+02 0.  0.
         12    1    3    3    0    0  0.43897514803E+01  0.13288417632E+02  0.34057696384E+02  0.36820899557E+02  0.00000000000E+00 0. -1.
         11    1    4    4    0    0  0.59830787250E+01 -0.89050309977E+01  0.17360504873E+01  0.10867873741E+02  0.51100000000E-03 0. -1.
        -11    1    4    4    0    0 -0.46499055645E+01 -0.13262101773E+02 -0.18466613205E+02  0.23206050261E+02  0.51100000000E-03 0.  1.
         12    1    4    4    0    0 -0.57229246409E+01  0.88787151381E+01 -0.17327133666E+02  0.20293176440E+02  0.00000000000E+00 0. -1.
</event>
<event>
 8    1  0.1265908E-006  0.9118800E+02  0.7816164E-02  0.1184000E+00
        -11   -1    0    0    0    0  0.00000000000E+00  0.00000000000E+00  0.45593999997E+02  0.45594000000E+02  0.51100000000E-03 0.  1.
         11   -1    0    0    0    0 -0.00000000000E+00 -0.00000000000E+00 -0.45593999997E+02  0.45594000000E+02  0.51100000000E-03 0. -1.
         23    2    1    2    0    0 -0.35527136788E-14 -0.17763568394E-14  0.35527136788E-14  0.91188000000E+02  0.91188000000E+02 0.  0.
    9900012    2    3    3    0    0 -0.22996810516E+02 -0.15877259629E+02  0.23975803323E+02  0.54367084582E+02  0.40000000922E+02 0.  0.
         12    1    3    3    0    0  0.22996810516E+02  0.15877259629E+02 -0.23975803323E+02  0.36820915418E+02  0.00000000000E+00 0. -1.
         11    1    4    4    0    0  0.53009571000E+01  0.30388621969E+01 -0.22485628653E+01  0.65108267408E+01  0.51100000000E-03 0. -1.
        -11    1    4    4    0    0 -0.14571952563E+02  0.22846640564E+01  0.10492346820E+02  0.18101127959E+02  0.51100000000E-03 0.  1.
         12    1    4    4    0    0 -0.13725815053E+02 -0.21200785882E+02  0.15732019369E+02  0.29755129882E+02  0.00000000000E+00 0. -1.
</event>
<event>
 8    1  0.1265908E-006  0.9118800E+02  0.7816164E-02  0.1184000E+00
        -11   -1    0    0    0    0  0.00000000000E+00  0.00000000000E+00  0.45593999997E+02  0.45594000000E+02  0.51100000000E-03 0.  1.
         11   -1    0    0    0    0 -0.00000000000E+00 -0.00000000000E+00 -0.45593999997E+02  0.45594000000E+02  0.51100000000E-03 0. -1.
         23    2    1    2    0    0  0.35527136788E-14 -0.17763568394E-14  0.00000000000E+00  0.91188000000E+02  0.91188000000E+02 0.  0.
    9900012    2    3    3    0    0 -0.31289567011E+02  0.12248864158E+02  0.15056812739E+02  0.54367091717E+02  0.40000017188E+02 0.  0.
        -12    1    3    3    0    0  0.31289567011E+02 -0.12248864158E+02 -0.15056812739E+02  0.36820908283E+02  0.00000000000E+00 0.  1.
         11    1    4    4    0    0 -0.12792073221E+02 -0.40970161663E+01  0.13217811706E+01  0.13497028728E+02  0.51100000000E-03 0. -1.
        -11    1    4    4    0    0  0.21415506392E+01 -0.69050261774E+01  0.41515587829E+01  0.83367299488E+01  0.51100000000E-03 0.  1.
        -12    1    4    4    0    0 -0.20639044429E+02  0.23250906501E+02  0.95834727853E+01  0.32533333040E+02  0.00000000000E+00 0.  1.
</event>
<event>
 8    1  0.1265908E-006  0.9118800E+02  0.7816164E-02  0.1184000E+00
        -11   -1    0    0    0    0  0.00000000000E+00  0.00000000000E+00  0.45593999997E+02  0.45594000000E+02  0.51100000000E-03 0.  1.
         11   -1    0    0    0    0 -0.00000000000E+00 -0.00000000000E+00 -0.45593999997E+02  0.45594000000E+02  0.51100000000E-03 0. -1.
         23    2    1    2    0    0 -0.35527136788E-14  0.35527136788E-14 -0.71054273576E-14  0.91188000000E+02  0.91188000000E+02 0.  0.
    9900012    2    3    3    0    0 -0.23064580389E+02  0.14018760840E+02 -0.25045546430E+02  0.54367083119E+02  0.39999997586E+02 0.  0.
        -12    1    3    3    0    0  0.23064580389E+02 -0.14018760840E+02  0.25045546430E+02  0.36820916881E+02  0.00000000000E+00 0.  1.
         11    1    4    4    0    0 -0.19674489592E+02 -0.47085504476E+01 -0.14742966666E+01  0.20283725963E+02  0.51100000000E-03 0. -1.
        -11    1    4    4    0    0 -0.40174280249E+01  0.17757987204E+02 -0.10613860380E+02  0.21074626210E+02  0.51100000000E-03 0.  1.
         12    1    4    4    0    0  0.62733722874E+00  0.96932408409E+00 -0.12957389384E+02  0.13008730946E+02  0.00000000000E+00 0. -1.
</event>
<event>
 8    1  0.1265908E-006  0.9118800E+02  0.7816164E-02  0.1184000E+00
        -11   -1    0    0    0    0  0.00000000000E+00  0.00000000000E+00  0.45593999997E+02  0.45594000000E+02  0.51100000000E-03 0.  1.
         11   -1    0    0    0    0 -0.00000000000E+00 -0.00000000000E+00 -0.45593999997E+02  0.45594000000E+02  0.51100000000E-03 0. -1.
         23    2    1    2    0    0  0.00000000000E+00  0.71054273576E-14  0.17763568394E-14  0.91188000000E+02  0.91188000000E+02 0.  0.
    9900012    2    3    3    0    0  0.72153976275E+00  0.34136357015E+02  0.13782983805E+02  0.54367053075E+02  0.39999929094E+02 0.  0.
         12    1    3    3    0    0 -0.72153976275E+00 -0.34136357015E+02 -0.13782983805E+02  0.36820946925E+02  0.00000000000E+00 0. -1.
         11    1    4    4    0    0  0.15886021821E+01  0.67414336935E+01  0.81558047084E+01  0.10699894198E+02  0.51100000000E-03 0.  1.
        -11    1    4    4    0    0 -0.62872580205E+01  0.29598574640E+02  0.14089990940E+02  0.33378632074E+02  0.51100000000E-03 0. -1.
         12    1    4    4    0    0  0.54201956012E+01 -0.22036513185E+01 -0.84628118432E+01  0.10288526803E+02  0.00000000000E+00 0. -1.
</event>
<event>
 8    1  0.1265908E-006  0.9118800E+02  0.7816164E-02  0.1184000E+00
        -11   -1    0    0    0    0  0.00000000000E+00  0.00000000000E+00  0.45593999997E+02  0.45594000000E+02  0.51100000000E-03 0.  1.
         11   -1    0    0    0    0 -0.00000000000E+00 -0.00000000000E+00 -0.45593999997E+02  0.45594000000E+02  0.51100000000E-03 0. -1.
         23    2    1    2    0    0  0.71054273576E-14 -0.17763568394E-14 -0.88817841970E-15  0.91188000000E+02  0.91188000000E+02 0.  0.
    9900012    2    3    3    0    0  0.34439969373E+02 -0.12155682313E+02 -0.46802004086E+01  0.54367131205E+02  0.40000107209E+02 0.  0.
        -12    1    3    3    0    0 -0.34439969373E+02  0.12155682313E+02  0.46802004086E+01  0.36820868795E+02  0.00000000000E+00 0.  1.
         11    1    4    4    0    0  0.10540358900E+02  0.34692436532E+01 -0.46550260064E+01  0.12033456887E+02  0.51100000000E-03 0. -1.
        -11    1    4    4    0    0  0.21326322880E+02  0.46609282185E+01  0.10703247805E+01  0.21855935003E+02  0.51100000000E-03 0.  1.
         12    1    4    4    0    0  0.25732875931E+01 -0.20285854184E+02 -0.10954991828E+01  0.20477739316E+02  0.00000000000E+00 0. -1.
</event>
<event>
 8    1  0.1265908E-006  0.9118800E+02  0.7816164E-02  0.1184000E+00
        -11   -1    0    0    0    0  0.00000000000E+00  0.00000000000E+00  0.45593999997E+02  0.45594000000E+02  0.51100000000E-03 0. -1.
         11   -1    0    0    0    0 -0.00000000000E+00 -0.00000000000E+00 -0.45593999997E+02  0.45594000000E+02  0.51100000000E-03 0.  1.
         23    2    1    2    0    0  0.00000000000E+00 -0.17763568394E-14  0.00000000000E+00  0.91188000000E+02  0.91188000000E+02 0.  0.
    9900012    2    3    3    0    0 -0.13470894802E+02 -0.95447800934E+01  0.32912181892E+02  0.54367088134E+02  0.40000009018E+02 0.  0.
        -12    1    3    3    0    0  0.13470894802E+02  0.95447800934E+01 -0.32912181892E+02  0.36820911866E+02  0.00000000000E+00 0.  1.
         11    1    4    4    0    0 -0.21178546819E+02  0.16617837481E+00  0.25409932860E+02  0.33079043952E+02  0.51100000000E-03 0. -1.
        -11    1    4    4    0    0  0.30471266922E+01  0.41116654526E+01  0.60784522598E+00  0.51536637407E+01  0.51100000000E-03 0.  1.
         12    1    4    4    0    0  0.46605253248E+01 -0.13822623921E+02  0.68944038064E+01  0.16134380441E+02  0.00000000000E+00 0. -1.
</event>
<event>
 8    1  0.1265908E-006  0.9118800E+02  0.7816164E-02  0.1184000E+00
        -11   -1    0    0    0    0  0.00000000000E+00  0.00000000000E+00  0.45593999997E+02  0.45594000000E+02  0.51100000000E-03 0. -1.
         11   -1    0    0    0    0 -0.00000000000E+00 -0.00000000000E+00 -0.45593999997E+02  0.45594000000E+02  0.51100000000E-03 0.  1.
         23    2    1    2    0    0  0.00000000000E+00  0.00000000000E+00  0.00000000000E+00  0.91188000000E+02  0.91188000000E+02 0.  0.
    9900012    2    3    3    0    0  0.31327564963E+02  0.19282743047E+02 -0.15932685409E+01  0.54367095467E+02  0.40000025737E+02 0.  0.
        -12    1    3    3    0    0 -0.31327564963E+02 -0.19282743047E+02  0.15932685409E+01  0.36820904533E+02  0.00000000000E+00 0.  1.
         11    1    4    4    0    0  0.12525548075E+02  0.18264801828E+02 -0.21926725816E+01  0.22255339892E+02  0.51100000000E-03 0. -1.
        -11    1    4    4    0    0  0.32330207793E+01  0.64427879646E+01  0.10607380489E+02  0.12824915641E+02  0.51100000000E-03 0.  1.
         12    1    4    4    0    0  0.15568996109E+02 -0.54248467456E+01 -0.10007976448E+02  0.19286839934E+02  0.00000000000E+00 0. -1.
</event>
<event>
 8    1  0.1265908E-006  0.9118800E+02  0.7816164E-02  0.1184000E+00
        -11   -1    0    0    0    0  0.00000000000E+00  0.00000000000E+00  0.45593999997E+02  0.45594000000E+02  0.51100000000E-03 0. -1.
         11   -1    0    0    0    0 -0.00000000000E+00 -0.00000000000E+00 -0.45593999997E+02  0.45594000000E+02  0.51100000000E-03 0.  1.
         23    2    1    2    0    0  0.00000000000E+00  0.00000000000E+00  0.00000000000E+00  0.91188000000E+02  0.91188000000E+02 0.  0.
    9900012    2    3    3    0    0 -0.26901362900E+02 -0.22101953453E+02  0.11983328723E+02  0.54367084210E+02  0.40000000074E+02 0.  0.
        -12    1    3    3    0    0  0.26901362900E+02  0.22101953453E+02 -0.11983328723E+02  0.36820915790E+02  0.00000000000E+00 0.  1.
         11    1    4    4    0    0 -0.13242375750E+02 -0.15543920605E+02  0.16486433524E+02  0.26244551318E+02  0.51100000000E-03 0. -1.
        -11    1    4    4    0    0 -0.17583064153E+02 -0.41356143046E+01  0.39533055282E+01  0.18490432000E+02  0.51100000000E-03 0.  1.
         12    1    4    4    0    0  0.39240770034E+01 -0.24224185432E+01 -0.84564103298E+01  0.96321008920E+01  0.00000000000E+00 0. -1.
</event>
<event>
 8    1  0.1265908E-006  0.9118800E+02  0.7816164E-02  0.1184000E+00
        -11   -1    0    0    0    0  0.00000000000E+00  0.00000000000E+00  0.45593999997E+02  0.45594000000E+02  0.51100000000E-03 0. -1.
         11   -1    0    0    0    0 -0.00000000000E+00 -0.00000000000E+00 -0.45593999997E+02  0.45594000000E+02  0.51100000000E-03 0.  1.
         23    2    1    2    0    0  0.88817841970E-15  0.00000000000E+00  0.00000000000E+00  0.91188000000E+02  0.91188000000E+02 0.  0.
    9900012    2    3    3    0    0 -0.35939707524E+01  0.26295237635E+02  0.25523006184E+02  0.54367082131E+02  0.39999995334E+02 0.  0.
        -12    1    3    3    0    0  0.35939707524E+01 -0.26295237635E+02 -0.25523006184E+02  0.36820917869E+02  0.00000000000E+00 0.  1.
         11    1    4    4    0    0  0.10942289733E+02  0.19777100859E+02  0.12174011930E+02  0.25672436381E+02  0.51100000000E-03 0. -1.
        -11    1    4    4    0    0 -0.18201497039E+02  0.69590371202E+01  0.58654686670E+01  0.20350096193E+02  0.51100000000E-03 0.  1.
         12    1    4    4    0    0  0.36652365538E+01 -0.44090034490E+00  0.74835255869E+01  0.83445495576E+01  0.00000000000E+00 0. -1.
</event>
<event>
 8    1  0.1265908E-006  0.9118800E+02  0.7816164E-02  0.1184000E+00
        -11   -1    0    0    0    0  0.00000000000E+00  0.00000000000E+00  0.45593999997E+02  0.45594000000E+02  0.51100000000E-03 0.  1.
         11   -1    0    0    0    0 -0.00000000000E+00 -0.00000000000E+00 -0.45593999997E+02  0.45594000000E+02  0.51100000000E-03 0. -1.
         23    2    1    2    0    0 -0.17763568394E-14 -0.17763568394E-14  0.00000000000E+00  0.91188000000E+02  0.91188000000E+02 0.  0.
    9900012    2    3    3    0    0  0.11743220124E+02  0.15286063096E+02  0.31372171333E+02  0.54367080973E+02  0.39999992694E+02 0.  0.
         12    1    3    3    0    0 -0.11743220124E+02 -0.15286063096E+02 -0.31372171333E+02  0.36820919027E+02  0.00000000000E+00 0. -1.
         11    1    4    4    0    0  0.15949923873E+02  0.14484472417E+01 -0.17218651784E+01  0.16107851840E+02  0.51100000000E-03 0. -1.
        -11    1    4    4    0    0  0.17764153719E+01  0.11318903201E+02  0.13993416460E+02  0.18085599955E+02  0.51100000000E-03 0.  1.
        -12    1    4    4    0    0 -0.59831191208E+01  0.25187126539E+01  0.19100620051E+02  0.20173629178E+02  0.00000000000E+00 0.  1.
</event>
<event>
 8    1  0.1265908E-006  0.9118800E+02  0.7816164E-02  0.1184000E+00
        -11   -1    0    0    0    0  0.00000000000E+00  0.00000000000E+00  0.45593999997E+02  0.45594000000E+02  0.51100000000E-03 0.  1.
         11   -1    0    0    0    0 -0.00000000000E+00 -0.00000000000E+00 -0.45593999997E+02  0.45594000000E+02  0.51100000000E-03 0. -1.
         23    2    1    2    0    0 -0.17763568394E-14  0.35527136788E-14 -0.35527136788E-14  0.91188000000E+02  0.91188000000E+02 0.  0.
    9900012    2    3    3    0    0 -0.12435275108E+02  0.22896310463E+02 -0.26017140070E+02  0.54367235787E+02  0.40000345622E+02 0.  0.
        -12    1    3    3    0    0  0.12435275108E+02 -0.22896310463E+02  0.26017140070E+02  0.36820764213E+02  0.00000000000E+00 0.  1.
         11    1    4    4    0    0 -0.51147198244E+01  0.87916529036E+01 -0.58772326308E+01  0.11747143624E+02  0.51100000000E-03 0. -1.
        -11    1    4    4    0    0 -0.11595731434E+02  0.16495298456E+02  0.17027158946E+01  0.20234996919E+02  0.51100000000E-03 0.  1.
        -12    1    4    4    0    0  0.42751761502E+01 -0.23906408960E+01 -0.21842623333E+02  0.22385095244E+02  0.00000000000E+00 0.  1.
</event>
<event>
 8    1  0.1265908E-006  0.9118800E+02  0.7816164E-02  0.1184000E+00
        -11   -1    0    0    0    0  0.00000000000E+00  0.00000000000E+00  0.45593999997E+02  0.45594000000E+02  0.51100000000E-03 0. -1.
         11   -1    0    0    0    0 -0.00000000000E+00 -0.00000000000E+00 -0.45593999997E+02  0.45594000000E+02  0.51100000000E-03 0.  1.
         23    2    1    2    0    0  0.44408920985E-15  0.88817841970E-15  0.00000000000E+00  0.91188000000E+02  0.91188000000E+02 0.  0.
    9900012    2    3    3    0    0 -0.31349981288E+01 -0.26182231668E+01 -0.36593671764E+02  0.54367080416E+02  0.39999991425E+02 0.  0.
         12    1    3    3    0    0  0.31349981288E+01  0.26182231668E+01  0.36593671764E+02  0.36820919584E+02  0.00000000000E+00 0. -1.
         11    1    4    4    0    0 -0.73316262318E+01  0.12872023048E+02 -0.58697206155E+01  0.15934093665E+02  0.51100000000E-03 0. -1.
        -11    1    4    4    0    0  0.24811726005E+01 -0.18332784060E+02 -0.29641563431E+02  0.34940942628E+02  0.51100000000E-03 0.  1.
        -12    1    4    4    0    0  0.17154555025E+01  0.28425378455E+01 -0.10823877178E+01  0.34920441229E+01  0.00000000000E+00 0.  1.
</event>
<event>
 8    1  0.1265908E-006  0.9118800E+02  0.7816164E-02  0.1184000E+00
        -11   -1    0    0    0    0  0.00000000000E+00  0.00000000000E+00  0.45593999997E+02  0.45594000000E+02  0.51100000000E-03 0. -1.
         11   -1    0    0    0    0 -0.00000000000E+00 -0.00000000000E+00 -0.45593999997E+02  0.45594000000E+02  0.51100000000E-03 0.  1.
         23    2    1    2    0    0  0.00000000000E+00  0.00000000000E+00  0.00000000000E+00  0.91188000000E+02  0.91188000000E+02 0.  0.
    9900012    2    3    3    0    0  0.26211451932E+02 -0.61506639782E+01  0.25117901451E+02  0.54367084028E+02  0.39999999658E+02 0.  0.
        -12    1    3    3    0    0 -0.26211451932E+02  0.61506639782E+01 -0.25117901451E+02  0.36820915972E+02  0.00000000000E+00 0.  1.
         11    1    4    4    0    0  0.31126147185E+01 -0.50310909653E+01  0.27626397168E+02  0.28252753271E+02  0.51100000000E-03 0. -1.
        -11    1    4    4    0    0  0.21567271165E+02 -0.26403165815E+01  0.12672794551E+01  0.21765212029E+02  0.51100000000E-03 0.  1.
        -12    1    4    4    0    0  0.15315660477E+01  0.15207435687E+01 -0.37757751715E+01  0.43491187275E+01  0.00000000000E+00 0.  1.
</event>
<event>
 8    1  0.1265908E-006  0.9118800E+02  0.7816164E-02  0.1184000E+00
        -11   -1    0    0    0    0  0.00000000000E+00  0.00000000000E+00  0.45593999997E+02  0.45594000000E+02  0.51100000000E-03 0.  1.
         11   -1    0    0    0    0 -0.00000000000E+00 -0.00000000000E+00 -0.45593999997E+02  0.45594000000E+02  0.51100000000E-03 0. -1.
         23    2    1    2    0    0 -0.35527136788E-14  0.00000000000E+00 -0.71054273576E-14  0.91188000000E+02  0.91188000000E+02 0.  0.
    9900012    2    3    3    0    0 -0.16693203050E+02  0.38062960041E+01 -0.32597991060E+02  0.54367082868E+02  0.39999997014E+02 0.  0.
        -12    1    3    3    0    0  0.16693203050E+02 -0.38062960041E+01  0.32597991060E+02  0.36820917132E+02  0.00000000000E+00 0.  1.
         11    1    4    4    0    0  0.36427864578E+00  0.33587457569E+01 -0.18098705561E+01  0.38326888320E+01  0.51100000000E-03 0. -1.
        -11    1    4    4    0    0 -0.85396858246E+01  0.32424631877E+01  0.71194153880E+01  0.11581272695E+02  0.51100000000E-03 0.  1.
         12    1    4    4    0    0 -0.85177958707E+01 -0.27949129406E+01 -0.37907535892E+02  0.38953121341E+02  0.00000000000E+00 0. -1.
</event>
<event>
 8    1  0.1265908E-006  0.9118800E+02  0.7816164E-02  0.1184000E+00
        -11   -1    0    0    0    0  0.00000000000E+00  0.00000000000E+00  0.45593999997E+02  0.45594000000E+02  0.51100000000E-03 0. -1.
         11   -1    0    0    0    0 -0.00000000000E+00 -0.00000000000E+00 -0.45593999997E+02  0.45594000000E+02  0.51100000000E-03 0.  1.
         23    2    1    2    0    0 -0.88817841970E-15  0.00000000000E+00 -0.88817841970E-15  0.91188000000E+02  0.91188000000E+02 0.  0.
    9900012    2    3    3    0    0 -0.79907836266E+01 -0.35386164313E+02 -0.63044955884E+01  0.54367083222E+02  0.39999997821E+02 0.  0.
         12    1    3    3    0    0  0.79907836266E+01  0.35386164313E+02  0.63044955884E+01  0.36820916778E+02  0.00000000000E+00 0. -1.
         11    1    4    4    0    0  0.14317823466E+02 -0.11461323527E+02 -0.13498218461E+01  0.18389780452E+02  0.51100000000E-03 0. -1.
        -11    1    4    4    0    0 -0.71504814216E+01 -0.14321427919E+02  0.31059270190E+01  0.16305810778E+02  0.51100000000E-03 0.  1.
         12    1    4    4    0    0 -0.15158125671E+02 -0.96034128669E+01 -0.80606007614E+01  0.19671491992E+02  0.00000000000E+00 0. -1.
</event>
<event>
 8    1  0.1265908E-006  0.9118800E+02  0.7816164E-02  0.1184000E+00
        -11   -1    0    0    0    0  0.00000000000E+00  0.00000000000E+00  0.45593999997E+02  0.45594000000E+02  0.51100000000E-03 0.  1.
         11   -1    0    0    0    0 -0.00000000000E+00 -0.00000000000E+00 -0.45593999997E+02  0.45594000000E+02  0.51100000000E-03 0. -1.
         23    2    1    2    0    0  0.00000000000E+00  0.00000000000E+00 -0.17763568394E-14  0.91188000000E+02  0.91188000000E+02 0.  0.
    9900012    2    3    3    0    0 -0.35249232725E+02 -0.10462847148E+02  0.19496539645E+01  0.54367072137E+02  0.39999972550E+02 0.  0.
         12    1    3    3    0    0  0.35249232725E+02  0.10462847148E+02 -0.19496539645E+01  0.36820927863E+02  0.00000000000E+00 0. -1.
         11    1    4    4    0    0  0.37829853436E+01 -0.93739807217E+01  0.17629646070E+01  0.10261117734E+02  0.51100000000E-03 0. -1.
        -11    1    4    4    0    0 -0.12584568624E+02 -0.42536477313E+01 -0.88687152709E+01  0.15972444938E+02  0.51100000000E-03 0.  1.
        -12    1    4    4    0    0 -0.26447649444E+02  0.31647813048E+01  0.90554046284E+01  0.28133509465E+02  0.00000000000E+00 0.  1.
</event>
<event>
 8    1  0.1265908E-006  0.9118800E+02  0.7816164E-02  0.1184000E+00
        -11   -1    0    0    0    0  0.00000000000E+00  0.00000000000E+00  0.45593999997E+02  0.45594000000E+02  0.51100000000E-03 0.  1.
         11   -1    0    0    0    0 -0.00000000000E+00 -0.00000000000E+00 -0.45593999997E+02  0.45594000000E+02  0.51100000000E-03 0. -1.
         23    2    1    2    0    0  0.00000000000E+00  0.26645352591E-14  0.35527136788E-14  0.91188000000E+02  0.91188000000E+02 0.  0.
    9900012    2    3    3    0    0  0.18845804410E+02 -0.17797600554E+01  0.31582421685E+02  0.54367065069E+02  0.39999956438E+02 0.  0.
         12    1    3    3    0    0 -0.18845804410E+02  0.17797600554E+01 -0.31582421685E+02  0.36820934931E+02  0.00000000000E+00 0. -1.
         11    1    4    4    0    0 -0.95004123543E+00  0.95802217297E+01  0.11997960742E+02  0.15382921991E+02  0.51100000000E-03 0. -1.
        -11    1    4    4    0    0  0.15615701860E+02 -0.17940681580E+02  0.20142759114E+02  0.31168075737E+02  0.51100000000E-03 0.  1.
        -12    1    4    4    0    0  0.41801437850E+01  0.65806997945E+01 -0.55829817162E+00  0.78160673421E+01  0.00000000000E+00 0.  1.
</event>
<event>
 8    1  0.1265908E-006  0.9118800E+02  0.7816164E-02  0.1184000E+00
        -11   -1    0    0    0    0  0.00000000000E+00  0.00000000000E+00  0.45593999997E+02  0.45594000000E+02  0.51100000000E-03 0. -1.
         11   -1    0    0    0    0 -0.00000000000E+00 -0.00000000000E+00 -0.45593999997E+02  0.45594000000E+02  0.51100000000E-03 0.  1.
         23    2    1    2    0    0  0.00000000000E+00  0.00000000000E+00  0.00000000000E+00  0.91188000000E+02  0.91188000000E+02 0.  0.
    9900012    2    3    3    0    0  0.31602752793E+02  0.76643668339E+01 -0.17271425026E+02  0.54367100697E+02  0.40000037660E+02 0.  0.
         12    1    3    3    0    0 -0.31602752793E+02 -0.76643668339E+01  0.17271425026E+02  0.36820899303E+02  0.00000000000E+00 0. -1.
         11    1    4    4    0    0  0.22607776522E+02  0.99756589526E+00 -0.20622745923E+02  0.30617059732E+02  0.51100000000E-03 0.  1.
        -11    1    4    4    0    0 -0.62565332143E+01  0.54287774939E+00 -0.17889883901E+01  0.65298854380E+01  0.51100000000E-03 0. -1.
         12    1    4    4    0    0  0.15251509485E+02  0.61239231892E+01  0.51403092878E+01  0.17220155527E+02  0.00000000000E+00 0. -1.
</event>
<event>
 8    1  0.1265908E-006  0.9118800E+02  0.7816164E-02  0.1184000E+00
        -11   -1    0    0    0    0  0.00000000000E+00  0.00000000000E+00  0.45593999997E+02  0.45594000000E+02  0.51100000000E-03 0.  1.
         11   -1    0    0    0    0 -0.00000000000E+00 -0.00000000000E+00 -0.45593999997E+02  0.45594000000E+02  0.51100000000E-03 0. -1.
         23    2    1    2    0    0  0.00000000000E+00  0.00000000000E+00  0.35527136788E-14  0.91188000000E+02  0.91188000000E+02 0.  0.
    9900012    2    3    3    0    0  0.16999031299E+02  0.22968758019E+02 -0.23221749394E+02  0.54367074497E+02  0.39999977930E+02 0.  0.
        -12    1    3    3    0    0 -0.16999031299E+02 -0.22968758019E+02  0.23221749394E+02  0.36820925503E+02  0.00000000000E+00 0.  1.
         11    1    4    4    0    0  0.62964586762E+01  0.27880519532E+02 -0.13320500916E+02  0.31534179966E+02  0.51100000000E-03 0. -1.
        -11    1    4    4    0    0  0.76748282842E+01 -0.43629527928E+01  0.31884359372E+01  0.93863981511E+01  0.51100000000E-03 0.  1.
         12    1    4    4    0    0  0.30277443385E+01 -0.54880872038E+00 -0.13089684415E+02  0.13446496379E+02  0.00000000000E+00 0. -1.
</event>
<event>
 8    1  0.1265908E-006  0.9118800E+02  0.7816164E-02  0.1184000E+00
        -11   -1    0    0    0    0  0.00000000000E+00  0.00000000000E+00  0.45593999997E+02  0.45594000000E+02  0.51100000000E-03 0.  1.
         11   -1    0    0    0    0 -0.00000000000E+00 -0.00000000000E+00 -0.45593999997E+02  0.45594000000E+02  0.51100000000E-03 0. -1.
         23    2    1    2    0    0  0.35527136788E-14  0.00000000000E+00  0.00000000000E+00  0.91188000000E+02  0.91188000000E+02 0.  0.
    9900012    2    3    3    0    0  0.22393002945E+02  0.34555443803E+01  0.29024003103E+02  0.54367080349E+02  0.39999991272E+02 0.  0.
         12    1    3    3    0    0 -0.22393002945E+02 -0.34555443803E+01 -0.29024003103E+02  0.36820919651E+02  0.00000000000E+00 0. -1.
         11    1    4    4    0    0  0.16340727361E+01 -0.26885059670E+01  0.87631789498E-01  0.31473699549E+01  0.51100000000E-03 0. -1.
        -11    1    4    4    0    0 -0.95096024116E+01  0.45997739138E+01  0.13693529245E+02  0.17294600358E+02  0.51100000000E-03 0.  1.
        -12    1    4    4    0    0  0.30268532620E+02  0.15442764334E+01  0.15242842068E+02  0.33925110037E+02  0.00000000000E+00 0.  1.
</event>
<event>
 8    1  0.1265908E-006  0.9118800E+02  0.7816164E-02  0.1184000E+00
        -11   -1    0    0    0    0  0.00000000000E+00  0.00000000000E+00  0.45593999997E+02  0.45594000000E+02  0.51100000000E-03 0.  1.
         11   -1    0    0    0    0 -0.00000000000E+00 -0.00000000000E+00 -0.45593999997E+02  0.45594000000E+02  0.51100000000E-03 0. -1.
         23    2    1    2    0    0  0.00000000000E+00  0.35527136788E-14  0.00000000000E+00  0.91188000000E+02  0.91188000000E+02 0.  0.
    9900012    2    3    3    0    0 -0.14491546602E+01  0.23507621239E+02 -0.28303197807E+02  0.54367091379E+02  0.40000016417E+02 0.  0.
        -12    1    3    3    0    0  0.14491546602E+01 -0.23507621239E+02  0.28303197807E+02  0.36820908621E+02  0.00000000000E+00 0.  1.
         11    1    4    4    0    0  0.38805872949E+01  0.33443212407E+01 -0.40107804624E+01  0.65061357573E+01  0.51100000000E-03 0.  1.
        -11    1    4    4    0    0 -0.22686489368E+01  0.30103710251E+02 -0.14176867275E+02  0.33352116948E+02  0.51100000000E-03 0. -1.
         12    1    4    4    0    0 -0.30610930182E+01 -0.99404102530E+01 -0.10115550069E+02  0.14508838674E+02  0.00000000000E+00 0. -1.
</event>
<event>
 8    1  0.1265908E-006  0.9118800E+02  0.7816164E-02  0.1184000E+00
        -11   -1    0    0    0    0  0.00000000000E+00  0.00000000000E+00  0.45593999997E+02  0.45594000000E+02  0.51100000000E-03 0.  1.
         11   -1    0    0    0    0 -0.00000000000E+00 -0.00000000000E+00 -0.45593999997E+02  0.45594000000E+02  0.51100000000E-03 0. -1.
         23    2    1    2    0    0 -0.35527136788E-14  0.99920072216E-15 -0.35527136788E-14  0.91188000000E+02  0.91188000000E+02 0.  0.
    9900012    2    3    3    0    0 -0.24755910313E+02  0.63708199234E+00 -0.27249217719E+02  0.54367070691E+02  0.39999969254E+02 0.  0.
        -12    1    3    3    0    0  0.24755910313E+02 -0.63708199234E+00  0.27249217719E+02  0.36820929309E+02  0.00000000000E+00 0.  1.
         11    1    4    4    0    0 -0.16045860057E+02 -0.80694180563E+01 -0.30287528644E+01  0.18214238302E+02  0.51100000000E-03 0. -1.
        -11    1    4    4    0    0 -0.16485772673E+02  0.94876293851E+01 -0.16867785512E+02  0.25422785062E+02  0.51100000000E-03 0.  1.
        -12    1    4    4    0    0  0.77757224165E+01 -0.78112933646E+00 -0.73526793420E+01  0.10730047327E+02  0.00000000000E+00 0.  1.
</event>
<event>
 8    1  0.1265908E-006  0.9118800E+02  0.7816164E-02  0.1184000E+00
        -11   -1    0    0    0    0  0.00000000000E+00  0.00000000000E+00  0.45593999997E+02  0.45594000000E+02  0.51100000000E-03 0. -1.
         11   -1    0    0    0    0 -0.00000000000E+00 -0.00000000000E+00 -0.45593999997E+02  0.45594000000E+02  0.51100000000E-03 0.  1.
         23    2    1    2    0    0  0.35527136788E-14  0.00000000000E+00  0.00000000000E+00  0.91188000000E+02  0.91188000000E+02 0.  0.
    9900012    2    3    3    0    0 -0.23777104366E+02 -0.21265187268E+02 -0.18390785051E+02  0.54367083983E+02  0.39999999556E+02 0.  0.
         12    1    3    3    0    0  0.23777104366E+02  0.21265187268E+02  0.18390785051E+02  0.36820916017E+02  0.00000000000E+00 0. -1.
         11    1    4    4    0    0 -0.23732177188E+02 -0.77731988137E+01 -0.51073191567E+01  0.25489675618E+02  0.51100000000E-03 0. -1.
        -11    1    4    4    0    0  0.26712306416E+00  0.40178887179E+01 -0.10369588985E+02  0.11123990312E+02  0.51100000000E-03 0.  1.
        -12    1    4    4    0    0 -0.31205024212E+00 -0.17509877172E+02 -0.29138769095E+01  0.17753418053E+02  0.00000000000E+00 0.  1.
</event>
<event>
 8    1  0.1265908E-006  0.9118800E+02  0.7816164E-02  0.1184000E+00
        -11   -1    0    0    0    0  0.00000000000E+00  0.00000000000E+00  0.45593999997E+02  0.45594000000E+02  0.51100000000E-03 0.  1.
         11   -1    0    0    0    0 -0.00000000000E+00 -0.00000000000E+00 -0.45593999997E+02  0.45594000000E+02  0.51100000000E-03 0. -1.
         23    2    1    2    0    0  0.00000000000E+00  0.00000000000E+00  0.00000000000E+00  0.91188000000E+02  0.91188000000E+02 0.  0.
    9900012    2    3    3    0    0 -0.41744409629E+01  0.27208199250E+02 -0.24455502291E+02  0.54367032385E+02  0.39999881928E+02 0.  0.
        -12    1    3    3    0    0  0.41744409629E+01 -0.27208199250E+02  0.24455502291E+02  0.36820967615E+02  0.00000000000E+00 0.  1.
         11    1    4    4    0    0 -0.60232340328E+00  0.30850701551E+02 -0.56373044642E+01  0.31367304340E+02  0.51100000000E-03 0. -1.
        -11    1    4    4    0    0 -0.21124556157E+01  0.44724362428E+01 -0.62910717527E+01  0.80026707251E+01  0.51100000000E-03 0.  1.
         12    1    4    4    0    0 -0.14596619439E+01 -0.81149385441E+01 -0.12527126074E+02  0.14997057320E+02  0.00000000000E+00 0. -1.
</event>
<event>
 8    1  0.1265908E-006  0.9118800E+02  0.7816164E-02  0.1184000E+00
        -11   -1    0    0    0    0  0.00000000000E+00  0.00000000000E+00  0.45593999997E+02  0.45594000000E+02  0.51100000000E-03 0.  1.
         11   -1    0    0    0    0 -0.00000000000E+00 -0.00000000000E+00 -0.45593999997E+02  0.45594000000E+02  0.51100000000E-03 0. -1.
         23    2    1    2    0    0  0.17763568394E-14 -0.17763568394E-14  0.00000000000E+00  0.91188000000E+02  0.91188000000E+02 0.  0.
    9900012    2    3    3    0    0 -0.63449539721E+01  0.14978949717E+02 -0.33032522948E+02  0.54367150637E+02  0.40000151506E+02 0.  0.
        -12    1    3    3    0    0  0.63449539721E+01 -0.14978949717E+02  0.33032522948E+02  0.36820849363E+02  0.00000000000E+00 0.  1.
         11    1    4    4    0    0  0.10031942505E+01  0.62793848222E+01 -0.65543643536E+01  0.91321829148E+01  0.51100000000E-03 0. -1.
        -11    1    4    4    0    0  0.12127732690E+02 -0.31603930371E+01 -0.15483127882E+02  0.19919769919E+02  0.51100000000E-03 0.  1.
         12    1    4    4    0    0 -0.19475880912E+02  0.11859957931E+02 -0.10995030713E+02  0.25315197803E+02  0.00000000000E+00 0. -1.
</event>
<event>
 8    1  0.1265908E-006  0.9118800E+02  0.7816164E-02  0.1184000E+00
        -11   -1    0    0    0    0  0.00000000000E+00  0.00000000000E+00  0.45593999997E+02  0.45594000000E+02  0.51100000000E-03 0.  1.
         11   -1    0    0    0    0 -0.00000000000E+00 -0.00000000000E+00 -0.45593999997E+02  0.45594000000E+02  0.51100000000E-03 0. -1.
         23    2    1    2    0    0  0.00000000000E+00  0.00000000000E+00 -0.35527136788E-14  0.91188000000E+02  0.91188000000E+02 0.  0.
    9900012    2    3    3    0    0 -0.20618293256E+02 -0.16737893255E+01 -0.30460853100E+02  0.54367093451E+02  0.40000021140E+02 0.  0.
        -12    1    3    3    0    0  0.20618293256E+02  0.16737893255E+01  0.30460853100E+02  0.36820906549E+02  0.00000000000E+00 0.  1.
         11    1    4    4    0    0 -0.33934262424E+01 -0.11869887289E+02 -0.21061795648E+02  0.24413291505E+02  0.51100000000E-03 0.  1.
        -11    1    4    4    0    0 -0.20566856618E+02  0.12781908231E+02 -0.80486501566E+01  0.25517710297E+02  0.51100000000E-03 0. -1.
         12    1    4    4    0    0  0.33419896048E+01 -0.25858102667E+01 -0.13504072956E+01  0.44360916490E+01  0.00000000000E+00 0. -1.
</event>
<event>
 8    1  0.1265908E-006  0.9118800E+02  0.7816164E-02  0.1184000E+00
        -11   -1    0    0    0    0  0.00000000000E+00  0.00000000000E+00  0.45593999997E+02  0.45594000000E+02  0.51100000000E-03 0.  1.
         11   -1    0    0    0    0 -0.00000000000E+00 -0.00000000000E+00 -0.45593999997E+02  0.45594000000E+02  0.51100000000E-03 0. -1.
         23    2    1    2    0    0  0.00000000000E+00  0.17763568394E-14  0.00000000000E+00  0.91188000000E+02  0.91188000000E+02 0.  0.
    9900012    2    3    3    0    0 -0.21143023004E+02 -0.15236609392E+02 -0.26011506735E+02  0.54367079721E+02  0.39999989840E+02 0.  0.
        -12    1    3    3    0    0  0.21143023004E+02  0.15236609392E+02  0.26011506735E+02  0.36820920279E+02  0.00000000000E+00 0.  1.
         11    1    4    4    0    0 -0.18970776383E+02 -0.19492601455E+02 -0.66330691969E+01  0.27997311929E+02  0.51100000000E-03 0. -1.
        -11    1    4    4    0    0 -0.78222580391E+01  0.78869789098E+01 -0.13104592446E+02  0.17179129797E+02  0.51100000000E-03 0.  1.
         12    1    4    4    0    0  0.56500114176E+01 -0.36309868471E+01 -0.62738450923E+01  0.91906379944E+01  0.00000000000E+00 0. -1.
</event>
<event>
 8    1  0.1265908E-006  0.9118800E+02  0.7816164E-02  0.1184000E+00
        -11   -1    0    0    0    0  0.00000000000E+00  0.00000000000E+00  0.45593999997E+02  0.45594000000E+02  0.51100000000E-03 0.  1.
         11   -1    0    0    0    0 -0.00000000000E+00 -0.00000000000E+00 -0.45593999997E+02  0.45594000000E+02  0.51100000000E-03 0. -1.
         23    2    1    2    0    0  0.00000000000E+00  0.00000000000E+00  0.00000000000E+00  0.91188000000E+02  0.91188000000E+02 0.  0.
    9900012    2    3    3    0    0 -0.11671937102E+02 -0.11608998302E+02 -0.32935944605E+02  0.54367090121E+02  0.40000013549E+02 0.  0.
        -12    1    3    3    0    0  0.11671937102E+02  0.11608998302E+02  0.32935944605E+02  0.36820909879E+02  0.00000000000E+00 0.  1.
         11    1    4    4    0    0 -0.31008470454E+01 -0.52387067608E+01 -0.22765776498E+02  0.23565650441E+02  0.51100000000E-03 0. -1.
        -11    1    4    4    0    0 -0.93523580883E+01 -0.18531147070E+01  0.77609380883E+01  0.12293607941E+02  0.51100000000E-03 0.  1.
        -12    1    4    4    0    0  0.78126803145E+00 -0.45171768346E+01 -0.17931106195E+02  0.18507831739E+02  0.00000000000E+00 0.  1.
</event>
<event>
 8    1  0.1265908E-006  0.9118800E+02  0.7816164E-02  0.1184000E+00
        -11   -1    0    0    0    0  0.00000000000E+00  0.00000000000E+00  0.45593999997E+02  0.45594000000E+02  0.51100000000E-03 0.  1.
         11   -1    0    0    0    0 -0.00000000000E+00 -0.00000000000E+00 -0.45593999997E+02  0.45594000000E+02  0.51100000000E-03 0. -1.
         23    2    1    2    0    0 -0.22204460493E-15  0.00000000000E+00  0.00000000000E+00  0.91188000000E+02  0.91188000000E+02 0.  0.
    9900012    2    3    3    0    0  0.14757613803E+01 -0.31721060913E+01  0.36654327392E+02  0.54367084133E+02  0.39999999898E+02 0.  0.
         12    1    3    3    0    0 -0.14757613803E+01  0.31721060913E+01 -0.36654327392E+02  0.36820915867E+02  0.00000000000E+00 0. -1.
         11    1    4    4    0    0  0.82353637203E+00 -0.76369383582E+01 -0.42810758154E+01  0.87936710219E+01  0.51100000000E-03 0. -1.
        -11    1    4    4    0    0 -0.22888165213E+01 -0.71575974728E+00 -0.14294088987E+01  0.27918100124E+01  0.51100000000E-03 0.  1.
        -12    1    4    4    0    0  0.29410415296E+01  0.51805920142E+01  0.42364812106E+02  0.42781603099E+02  0.00000000000E+00 0.  1.
</event>
<event>
 8    1  0.1265908E-006  0.9118800E+02  0.7816164E-02  0.1184000E+00
        -11   -1    0    0    0    0  0.00000000000E+00  0.00000000000E+00  0.45593999997E+02  0.45594000000E+02  0.51100000000E-03 0.  1.
         11   -1    0    0    0    0 -0.00000000000E+00 -0.00000000000E+00 -0.45593999997E+02  0.45594000000E+02  0.51100000000E-03 0. -1.
         23    2    1    2    0    0  0.71054273576E-14  0.13322676296E-14 -0.35527136788E-14  0.91188000000E+02  0.91188000000E+02 0.  0.
    9900012    2    3    3    0    0 -0.30595161971E+02 -0.10459621762E+01  0.20460250096E+02  0.54367084654E+02  0.40000001087E+02 0.  0.
        -12    1    3    3    0    0  0.30595161971E+02  0.10459621762E+01 -0.20460250096E+02  0.36820915346E+02  0.00000000000E+00 0.  1.
         11    1    4    4    0    0 -0.19028076674E+02  0.22222575292E+01 -0.35908442375E+01  0.19491031092E+02  0.51100000000E-03 0. -1.
        -11    1    4    4    0    0 -0.45774345182E+00  0.19270933046E+01  0.22416082996E+02  0.22503421846E+02  0.51100000000E-03 0.  1.
         12    1    4    4    0    0 -0.11109341845E+02 -0.51953130100E+01  0.16350113382E+01  0.12372631716E+02  0.00000000000E+00 0. -1.
</event>
<event>
 8    1  0.1265908E-006  0.9118800E+02  0.7816164E-02  0.1184000E+00
        -11   -1    0    0    0    0  0.00000000000E+00  0.00000000000E+00  0.45593999997E+02  0.45594000000E+02  0.51100000000E-03 0.  1.
         11   -1    0    0    0    0 -0.00000000000E+00 -0.00000000000E+00 -0.45593999997E+02  0.45594000000E+02  0.51100000000E-03 0. -1.
         23    2    1    2    0    0  0.00000000000E+00  0.00000000000E+00  0.00000000000E+00  0.91188000000E+02  0.91188000000E+02 0.  0.
    9900012    2    3    3    0    0  0.24211914416E+02  0.18549747941E+02  0.20626866720E+02  0.54367114907E+02  0.40000070053E+02 0.  0.
         12    1    3    3    0    0 -0.24211914416E+02 -0.18549747941E+02 -0.20626866720E+02  0.36820885093E+02  0.00000000000E+00 0. -1.
         11    1    4    4    0    0  0.19113667230E+01  0.36320406700E+01 -0.59952232747E+01  0.72655175007E+01  0.51100000000E-03 0. -1.
        -11    1    4    4    0    0  0.74461032271E+01 -0.80707876299E+01  0.43370725406E+01  0.11806450132E+02  0.51100000000E-03 0.  1.
        -12    1    4    4    0    0  0.14854444466E+02  0.22988494901E+02  0.22285017454E+02  0.35295147274E+02  0.00000000000E+00 0.  1.
</event>
<event>
 8    1  0.1265908E-006  0.9118800E+02  0.7816164E-02  0.1184000E+00
        -11   -1    0    0    0    0  0.00000000000E+00  0.00000000000E+00  0.45593999997E+02  0.45594000000E+02  0.51100000000E-03 0.  1.
         11   -1    0    0    0    0 -0.00000000000E+00 -0.00000000000E+00 -0.45593999997E+02  0.45594000000E+02  0.51100000000E-03 0. -1.
         23    2    1    2    0    0  0.00000000000E+00  0.71054273576E-14  0.88817841970E-15  0.91188000000E+02  0.91188000000E+02 0.  0.
    9900012    2    3    3    0    0  0.56880071711E+01  0.35701050243E+02 -0.69899897372E+01  0.54367104159E+02  0.40000045550E+02 0.  0.
        -12    1    3    3    0    0 -0.56880071711E+01 -0.35701050243E+02  0.69899897372E+01  0.36820895841E+02  0.00000000000E+00 0.  1.
         11    1    4    4    0    0  0.13675899742E+02  0.87938722065E+01 -0.17479533955E+02  0.23872505727E+02  0.51100000000E-03 0. -1.
        -11    1    4    4    0    0  0.29342178506E+00  0.50831651064E-01 -0.26927225623E+00  0.40148226585E+00  0.51100000000E-03 0.  1.
        -12    1    4    4    0    0 -0.82813143560E+01  0.26856346386E+02  0.10758816474E+02  0.30093116166E+02  0.00000000000E+00 0.  1.
</event>
<event>
 8    1  0.1265908E-006  0.9118800E+02  0.7816164E-02  0.1184000E+00
        -11   -1    0    0    0    0  0.00000000000E+00  0.00000000000E+00  0.45593999997E+02  0.45594000000E+02  0.51100000000E-03 0.  1.
         11   -1    0    0    0    0 -0.00000000000E+00 -0.00000000000E+00 -0.45593999997E+02  0.45594000000E+02  0.51100000000E-03 0. -1.
         23    2    1    2    0    0 -0.17763568394E-14 -0.71054273576E-14 -0.88817841970E-15  0.91188000000E+02  0.91188000000E+02 0.  0.
    9900012    2    3    3    0    0  0.85308634761E+01  0.35521390614E+02 -0.46082260398E+01  0.54367074291E+02  0.39999977462E+02 0.  0.
        -12    1    3    3    0    0 -0.85308634761E+01 -0.35521390614E+02  0.46082260398E+01  0.36820925709E+02  0.00000000000E+00 0.  1.
         11    1    4    4    0    0 -0.74624132517E+01 -0.28022542962E+01  0.71807714432E+01  0.10728640150E+02  0.51100000000E-03 0. -1.
        -11    1    4    4    0    0  0.25743429908E+01  0.19411263972E+01 -0.61436718207E+00  0.32821731855E+01  0.51100000000E-03 0.  1.
         12    1    4    4    0    0  0.13418933737E+02  0.36382518513E+02 -0.11174630301E+02  0.40356260956E+02  0.00000000000E+00 0. -1.
</event>
<event>
 8    1  0.1265908E-006  0.9118800E+02  0.7816164E-02  0.1184000E+00
        -11   -1    0    0    0    0  0.00000000000E+00  0.00000000000E+00  0.45593999997E+02  0.45594000000E+02  0.51100000000E-03 0.  1.
         11   -1    0    0    0    0 -0.00000000000E+00 -0.00000000000E+00 -0.45593999997E+02  0.45594000000E+02  0.51100000000E-03 0. -1.
         23    2    1    2    0    0  0.00000000000E+00  0.35527136788E-14  0.00000000000E+00  0.91188000000E+02  0.91188000000E+02 0.  0.
    9900012    2    3    3    0    0 -0.14912136700E+02  0.19863643332E+02  0.27181688284E+02  0.54367077614E+02  0.39999985037E+02 0.  0.
         12    1    3    3    0    0  0.14912136700E+02 -0.19863643332E+02 -0.27181688284E+02  0.36820922386E+02  0.00000000000E+00 0. -1.
         11    1    4    4    0    0 -0.67490336227E+01 -0.11231350874E+02  0.31586682067E+01  0.13478497038E+02  0.51100000000E-03 0. -1.
        -11    1    4    4    0    0  0.13542021613E+01  0.21334388415E+01  0.11486643770E+01  0.27757620388E+01  0.51100000000E-03 0.  1.
        -12    1    4    4    0    0 -0.95173052386E+01  0.28961555365E+02  0.22874355700E+02  0.38112818537E+02  0.00000000000E+00 0.  1.
</event>
<event>
 8    1  0.1265908E-006  0.9118800E+02  0.7816164E-02  0.1184000E+00
        -11   -1    0    0    0    0  0.00000000000E+00  0.00000000000E+00  0.45593999997E+02  0.45594000000E+02  0.51100000000E-03 0.  1.
         11   -1    0    0    0    0 -0.00000000000E+00 -0.00000000000E+00 -0.45593999997E+02  0.45594000000E+02  0.51100000000E-03 0. -1.
         23    2    1    2    0    0 -0.35527136788E-14  0.00000000000E+00  0.00000000000E+00  0.91188000000E+02  0.91188000000E+02 0.  0.
    9900012    2    3    3    0    0  0.27977372119E+02 -0.18668827768E+02 -0.14984032202E+02  0.54367086079E+02  0.40000004335E+02 0.  0.
        -12    1    3    3    0    0 -0.27977372119E+02  0.18668827768E+02  0.14984032202E+02  0.36820913921E+02  0.00000000000E+00 0.  1.
         11    1    4    4    0    0  0.89339609673E+01  0.69574959889E+01  0.14949681238E+01  0.11421792283E+02  0.51100000000E-03 0. -1.
        -11    1    4    4    0    0 -0.54951557130E+01 -0.62732518280E+01 -0.44992158180E+01  0.94759362622E+01  0.51100000000E-03 0.  1.
         12    1    4    4    0    0  0.24538566865E+02 -0.19353071929E+02 -0.11979784508E+02  0.33469357534E+02  0.00000000000E+00 0. -1.
</event>
<event>
 8    1  0.1265908E-006  0.9118800E+02  0.7816164E-02  0.1184000E+00
        -11   -1    0    0    0    0  0.00000000000E+00  0.00000000000E+00  0.45593999997E+02  0.45594000000E+02  0.51100000000E-03 0.  1.
         11   -1    0    0    0    0 -0.00000000000E+00 -0.00000000000E+00 -0.45593999997E+02  0.45594000000E+02  0.51100000000E-03 0. -1.
         23    2    1    2    0    0  0.00000000000E+00  0.00000000000E+00  0.00000000000E+00  0.91188000000E+02  0.91188000000E+02 0.  0.
    9900012    2    3    3    0    0  0.22615225333E+02 -0.26382121355E+02 -0.12178465174E+02  0.54367085318E+02  0.40000002599E+02 0.  0.
        -12    1    3    3    0    0 -0.22615225333E+02  0.26382121355E+02  0.12178465174E+02  0.36820914682E+02  0.00000000000E+00 0.  1.
         11    1    4    4    0    0  0.33655913519E+02 -0.22506018428E+02 -0.79424492170E+01  0.41259227817E+02  0.51100000000E-03 0. -1.
        -11    1    4    4    0    0 -0.34237129150E+01  0.82255701642E-01 -0.27585717709E+01  0.43975327857E+01  0.51100000000E-03 0.  1.
        -12    1    4    4    0    0 -0.76169752709E+01 -0.39583586287E+01 -0.14774441860E+01  0.87103247146E+01  0.00000000000E+00 0.  1.
</event>
<event>
 8    1  0.1265908E-006  0.9118800E+02  0.7816164E-02  0.1184000E+00
        -11   -1    0    0    0    0  0.00000000000E+00  0.00000000000E+00  0.45593999997E+02  0.45594000000E+02  0.51100000000E-03 0.  1.
         11   -1    0    0    0    0 -0.00000000000E+00 -0.00000000000E+00 -0.45593999997E+02  0.45594000000E+02  0.51100000000E-03 0. -1.
         23    2    1    2    0    0  0.00000000000E+00 -0.71054273576E-14  0.00000000000E+00  0.91188000000E+02  0.91188000000E+02 0.  0.
    9900012    2    3    3    0    0 -0.25246237537E+01  0.33611976642E+02 -0.14820291477E+02  0.54367085586E+02  0.40000003209E+02 0.  0.
         12    1    3    3    0    0  0.25246237537E+01 -0.33611976642E+02  0.14820291477E+02  0.36820914414E+02  0.00000000000E+00 0. -1.
         11    1    4    4    0    0 -0.59747287184E+00  0.19618479331E+02 -0.21751168222E+02  0.29297696571E+02  0.51100000000E-03 0. -1.
        -11    1    4    4    0    0 -0.10121207723E+02  0.11793654465E+02  0.53698555208E+01  0.16442763758E+02  0.51100000000E-03 0.  1.
         12    1    4    4    0    0  0.81940568410E+01  0.21998428460E+01  0.15610212244E+01  0.86266252570E+01  0.00000000000E+00 0. -1.
</event>
<event>
 8    1  0.1265908E-006  0.9118800E+02  0.7816164E-02  0.1184000E+00
        -11   -1    0    0    0    0  0.00000000000E+00  0.00000000000E+00  0.45593999997E+02  0.45594000000E+02  0.51100000000E-03 0. -1.
         11   -1    0    0    0    0 -0.00000000000E+00 -0.00000000000E+00 -0.45593999997E+02  0.45594000000E+02  0.51100000000E-03 0.  1.
         23    2    1    2    0    0 -0.44408920985E-15  0.00000000000E+00  0.33306690739E-15  0.91188000000E+02  0.91188000000E+02 0.  0.
    9900012    2    3    3    0    0  0.75714645342E+00  0.36810658580E+02  0.42762159841E+00  0.54367072308E+02  0.39999972940E+02 0.  0.
         12    1    3    3    0    0 -0.75714645342E+00 -0.36810658580E+02 -0.42762159841E+00  0.36820927692E+02  0.00000000000E+00 0. -1.
         11    1    4    4    0    0 -0.40992873553E+01  0.71198815107E+01  0.28661401322E+01  0.87012429610E+01  0.51100000000E-03 0. -1.
        -11    1    4    4    0    0  0.41821932571E+01  0.17799773786E+02  0.15610172657E+02  0.24041634261E+02  0.51100000000E-03 0.  1.
         12    1    4    4    0    0  0.67424055160E+00  0.11891003284E+02 -0.18048691191E+02  0.21624195086E+02  0.00000000000E+00 0. -1.
</event>
<event>
 8    1  0.1265908E-006  0.9118800E+02  0.7816164E-02  0.1184000E+00
        -11   -1    0    0    0    0  0.00000000000E+00  0.00000000000E+00  0.45593999997E+02  0.45594000000E+02  0.51100000000E-03 0. -1.
         11   -1    0    0    0    0 -0.00000000000E+00 -0.00000000000E+00 -0.45593999997E+02  0.45594000000E+02  0.51100000000E-03 0.  1.
         23    2    1    2    0    0 -0.71054273576E-14  0.00000000000E+00  0.00000000000E+00  0.91188000000E+02  0.91188000000E+02 0.  0.
    9900012    2    3    3    0    0 -0.33355297454E+02 -0.14754651535E+02 -0.50501670952E+01  0.54367084777E+02  0.40000001367E+02 0.  0.
         12    1    3    3    0    0  0.33355297454E+02  0.14754651535E+02  0.50501670952E+01  0.36820915223E+02  0.00000000000E+00 0. -1.
         11    1    4    4    0    0  0.38702853723E+01  0.40792752735E+01  0.28575904083E+01  0.63075683763E+01  0.51100000000E-03 0. -1.
        -11    1    4    4    0    0 -0.26959995417E+02 -0.74506570947E+01  0.45106103425E+01  0.28331947514E+02  0.51100000000E-03 0.  1.
         12    1    4    4    0    0 -0.10265587409E+02 -0.11383269714E+02 -0.12418367846E+02  0.19727568887E+02  0.00000000000E+00 0. -1.
</event>
<event>
 8    1  0.1265908E-006  0.9118800E+02  0.7816164E-02  0.1184000E+00
        -11   -1    0    0    0    0  0.00000000000E+00  0.00000000000E+00  0.45593999997E+02  0.45594000000E+02  0.51100000000E-03 0. -1.
         11   -1    0    0    0    0 -0.00000000000E+00 -0.00000000000E+00 -0.45593999997E+02  0.45594000000E+02  0.51100000000E-03 0.  1.
         23    2    1    2    0    0  0.35527136788E-14  0.00000000000E+00 -0.44408920985E-15  0.91188000000E+02  0.91188000000E+02 0.  0.
    9900012    2    3    3    0    0 -0.23446273858E+02  0.28384127396E+02  0.62701774354E+00  0.54367087503E+02  0.40000007580E+02 0.  0.
         12    1    3    3    0    0  0.23446273858E+02 -0.28384127396E+02 -0.62701774354E+00  0.36820912497E+02  0.00000000000E+00 0. -1.
         11    1    4    4    0    0 -0.46406735136E+01  0.27785690017E+02  0.26133603614E+01  0.28291519454E+02  0.51100000000E-03 0. -1.
        -11    1    4    4    0    0 -0.13345911309E+02  0.50597445377E+01  0.59467141368E+01  0.15462139979E+02  0.51100000000E-03 0.  1.
         12    1    4    4    0    0 -0.54596890353E+01 -0.44613071579E+01 -0.79330567546E+01  0.10613428070E+02  0.00000000000E+00 0. -1.
</event>
<event>
 8    1  0.1265908E-006  0.9118800E+02  0.7816164E-02  0.1184000E+00
        -11   -1    0    0    0    0  0.00000000000E+00  0.00000000000E+00  0.45593999997E+02  0.45594000000E+02  0.51100000000E-03 0. -1.
         11   -1    0    0    0    0 -0.00000000000E+00 -0.00000000000E+00 -0.45593999997E+02  0.45594000000E+02  0.51100000000E-03 0.  1.
         23    2    1    2    0    0  0.00000000000E+00  0.00000000000E+00  0.00000000000E+00  0.91188000000E+02  0.91188000000E+02 0.  0.
    9900012    2    3    3    0    0  0.22113955927E+02  0.86361722289E+01  0.28145529627E+02  0.54367063626E+02  0.39999953147E+02 0.  0.
        -12    1    3    3    0    0 -0.22113955927E+02 -0.86361722289E+01 -0.28145529627E+02  0.36820936374E+02  0.00000000000E+00 0.  1.
         11    1    4    4    0    0 -0.68920028593E+00  0.25109671935E+01 -0.10112793079E+01  0.27933204937E+01  0.51100000000E-03 0. -1.
        -11    1    4    4    0    0  0.83731668805E+01  0.66124323925E-01 -0.77976014871E+01  0.11441891681E+02  0.51100000000E-03 0.  1.
         12    1    4    4    0    0  0.14429989332E+02  0.60590807114E+01  0.36954410422E+02  0.40131851450E+02  0.00000000000E+00 0. -1.
</event>
<event>
 8    1  0.1265908E-006  0.9118800E+02  0.7816164E-02  0.1184000E+00
        -11   -1    0    0    0    0  0.00000000000E+00  0.00000000000E+00  0.45593999997E+02  0.45594000000E+02  0.51100000000E-03 0.  1.
         11   -1    0    0    0    0 -0.00000000000E+00 -0.00000000000E+00 -0.45593999997E+02  0.45594000000E+02  0.51100000000E-03 0. -1.
         23    2    1    2    0    0 -0.17763568394E-14  0.00000000000E+00  0.00000000000E+00  0.91188000000E+02  0.91188000000E+02 0.  0.
    9900012    2    3    3    0    0  0.95786510110E+01 -0.32441954536E+02 -0.14544680857E+02  0.54367099542E+02  0.40000035025E+02 0.  0.
        -12    1    3    3    0    0 -0.95786510110E+01  0.32441954536E+02  0.14544680857E+02  0.36820900458E+02  0.00000000000E+00 0.  1.
         11    1    4    4    0    0  0.10060892320E+02 -0.31939038439E+01 -0.20271455655E+02  0.22855075818E+02  0.51100000000E-03 0. -1.
        -11    1    4    4    0    0 -0.12399174992E+01 -0.17104621134E+02  0.83363090254E+01  0.19068285397E+02  0.51100000000E-03 0.  1.
        -12    1    4    4    0    0  0.75767618971E+00 -0.12143429558E+02 -0.26095342281E+01  0.12443738326E+02  0.00000000000E+00 0.  1.
</event>
<event>
 8    1  0.1265908E-006  0.9118800E+02  0.7816164E-02  0.1184000E+00
        -11   -1    0    0    0    0  0.00000000000E+00  0.00000000000E+00  0.45593999997E+02  0.45594000000E+02  0.51100000000E-03 0.  1.
         11   -1    0    0    0    0 -0.00000000000E+00 -0.00000000000E+00 -0.45593999997E+02  0.45594000000E+02  0.51100000000E-03 0. -1.
         23    2    1    2    0    0 -0.35527136788E-14  0.00000000000E+00  0.00000000000E+00  0.91188000000E+02  0.91188000000E+02 0.  0.
    9900012    2    3    3    0    0 -0.28706764551E+02 -0.42579860857E+01  0.22662146775E+02  0.54367059315E+02  0.39999943320E+02 0.  0.
        -12    1    3    3    0    0  0.28706764551E+02  0.42579860857E+01 -0.22662146775E+02  0.36820940685E+02  0.00000000000E+00 0.  1.
         11    1    4    4    0    0 -0.14993165111E+02  0.41277066971E-01  0.13929594326E+02  0.20465343930E+02  0.51100000000E-03 0. -1.
        -11    1    4    4    0    0 -0.21573636748E+02 -0.47197315840E+01 -0.82246447488E-01  0.22084031187E+02  0.51100000000E-03 0.  1.
        -12    1    4    4    0    0  0.78600373079E+01  0.42046843134E+00  0.88147988969E+01  0.11817684197E+02  0.00000000000E+00 0.  1.
</event>
<event>
 8    1  0.1265908E-006  0.9118800E+02  0.7816164E-02  0.1184000E+00
        -11   -1    0    0    0    0  0.00000000000E+00  0.00000000000E+00  0.45593999997E+02  0.45594000000E+02  0.51100000000E-03 0.  1.
         11   -1    0    0    0    0 -0.00000000000E+00 -0.00000000000E+00 -0.45593999997E+02  0.45594000000E+02  0.51100000000E-03 0. -1.
         23    2    1    2    0    0  0.17763568394E-14  0.00000000000E+00 -0.22204460493E-14  0.91188000000E+02  0.91188000000E+02 0.  0.
    9900012    2    3    3    0    0  0.11707493439E+02  0.34697795888E+02 -0.38440171287E+01  0.54367096836E+02  0.40000028857E+02 0.  0.
         12    1    3    3    0    0 -0.11707493439E+02 -0.34697795888E+02  0.38440171287E+01  0.36820903164E+02  0.00000000000E+00 0. -1.
         11    1    4    4    0    0 -0.20524827303E+01  0.32445356208E+01 -0.88865720366E+01  0.96804369517E+01  0.51100000000E-03 0. -1.
        -11    1    4    4    0    0  0.49451494054E+01  0.20577312831E+01  0.12068711397E+02  0.13203884115E+02  0.51100000000E-03 0.  1.
        -12    1    4    4    0    0  0.88148267638E+01  0.29395528985E+02 -0.70261564887E+01  0.31482775770E+02  0.00000000000E+00 0.  1.
</event>
<event>
 8    1  0.1265908E-006  0.9118800E+02  0.7816164E-02  0.1184000E+00
        -11   -1    0    0    0    0  0.00000000000E+00  0.00000000000E+00  0.45593999997E+02  0.45594000000E+02  0.51100000000E-03 0.  1.
         11   -1    0    0    0    0 -0.00000000000E+00 -0.00000000000E+00 -0.45593999997E+02  0.45594000000E+02  0.51100000000E-03 0. -1.
         23    2    1    2    0    0  0.00000000000E+00  0.35527136788E-14 -0.35527136788E-14  0.91188000000E+02  0.91188000000E+02 0.  0.
    9900012    2    3    3    0    0 -0.20103518954E+02 -0.19931069030E+02  0.23545311675E+02  0.54367072677E+02  0.39999973783E+02 0.  0.
         12    1    3    3    0    0  0.20103518954E+02  0.19931069030E+02 -0.23545311675E+02  0.36820927323E+02  0.00000000000E+00 0. -1.
         11    1    4    4    0    0 -0.35154246291E+01 -0.36587420374E+00  0.10486863321E+02  0.11066452767E+02  0.51100000000E-03 0. -1.
        -11    1    4    4    0    0 -0.25158931703E+02 -0.19750464357E+02  0.13497607823E+02  0.34716539343E+02  0.51100000000E-03 0.  1.
         12    1    4    4    0    0  0.85708373779E+01  0.18526953046E+00 -0.43915946929E+00  0.85840805679E+01  0.00000000000E+00 0. -1.
</event>
<event>
 8    1  0.1265908E-006  0.9118800E+02  0.7816164E-02  0.1184000E+00
        -11   -1    0    0    0    0  0.00000000000E+00  0.00000000000E+00  0.45593999997E+02  0.45594000000E+02  0.51100000000E-03 0. -1.
         11   -1    0    0    0    0 -0.00000000000E+00 -0.00000000000E+00 -0.45593999997E+02  0.45594000000E+02  0.51100000000E-03 0.  1.
         23    2    1    2    0    0  0.00000000000E+00  0.17763568394E-14  0.00000000000E+00  0.91188000000E+02  0.91188000000E+02 0.  0.
    9900012    2    3    3    0    0 -0.32671017592E+02  0.12113899588E+02  0.11901159018E+02  0.54367088283E+02  0.40000009358E+02 0.  0.
        -12    1    3    3    0    0  0.32671017592E+02 -0.12113899588E+02 -0.11901159018E+02  0.36820911717E+02  0.00000000000E+00 0.  1.
         11    1    4    4    0    0 -0.24859117085E+01 -0.32602165615E+01  0.42988360438E+01  0.59404343816E+01  0.51100000000E-03 0. -1.
        -11    1    4    4    0    0  0.70167280372E+01  0.59345495510E+01  0.34738188540E+01  0.98244983798E+01  0.51100000000E-03 0.  1.
        -12    1    4    4    0    0 -0.37201833921E+02  0.94395665982E+01  0.41285041206E+01  0.38602155521E+02  0.00000000000E+00 0.  1.
</event>
<event>
 8    1  0.1265908E-006  0.9118800E+02  0.7816164E-02  0.1184000E+00
        -11   -1    0    0    0    0  0.00000000000E+00  0.00000000000E+00  0.45593999997E+02  0.45594000000E+02  0.51100000000E-03 0.  1.
         11   -1    0    0    0    0 -0.00000000000E+00 -0.00000000000E+00 -0.45593999997E+02  0.45594000000E+02  0.51100000000E-03 0. -1.
         23    2    1    2    0    0 -0.35527136788E-14 -0.88817841970E-15 -0.35527136788E-14  0.91188000000E+02  0.91188000000E+02 0.  0.
    9900012    2    3    3    0    0 -0.26567460991E+02 -0.54813856131E+01 -0.24897868065E+02  0.54367090099E+02  0.40000013499E+02 0.  0.
        -12    1    3    3    0    0  0.26567460991E+02  0.54813856131E+01  0.24897868065E+02  0.36820909901E+02  0.00000000000E+00 0.  1.
         11    1    4    4    0    0 -0.15481124525E+02 -0.22468616428E+01 -0.19096127966E+00  0.15644490093E+02  0.51100000000E-03 0. -1.
        -11    1    4    4    0    0  0.39018960590E+01  0.37363775916E+01  0.32062297210E+01  0.62821349593E+01  0.51100000000E-03 0.  1.
         12    1    4    4    0    0 -0.14988232525E+02 -0.69709015619E+01 -0.27913136507E+02  0.32440465047E+02  0.00000000000E+00 0. -1.
</event>
<event>
 8    1  0.1265908E-006  0.9118800E+02  0.7816164E-02  0.1184000E+00
        -11   -1    0    0    0    0  0.00000000000E+00  0.00000000000E+00  0.45593999997E+02  0.45594000000E+02  0.51100000000E-03 0. -1.
         11   -1    0    0    0    0 -0.00000000000E+00 -0.00000000000E+00 -0.45593999997E+02  0.45594000000E+02  0.51100000000E-03 0.  1.
         23    2    1    2    0    0  0.35527136788E-14  0.00000000000E+00  0.00000000000E+00  0.91188000000E+02  0.91188000000E+02 0.  0.
    9900012    2    3    3    0    0 -0.97672001263E+01 -0.85348366001E+01 -0.34460634211E+02  0.54367123526E+02  0.40000089702E+02 0.  0.
         12    1    3    3    0    0  0.97672001263E+01  0.85348366001E+01  0.34460634211E+02  0.36820876474E+02  0.00000000000E+00 0. -1.
         11    1    4    4    0    0 -0.60578895580E+01  0.14623203940E+01  0.37530041881E+01  0.72747128830E+01  0.51100000000E-03 0. -1.
        -11    1    4    4    0    0  0.70806638369E+01 -0.81415385364E+01 -0.33459829988E+02  0.35156516796E+02  0.51100000000E-03 0.  1.
        -12    1    4    4    0    0 -0.10789974405E+02 -0.18556184577E+01 -0.47538084111E+01  0.11935893847E+02  0.00000000000E+00 0.  1.
</event>
<event>
 8    1  0.1265908E-006  0.9118800E+02  0.7816164E-02  0.1184000E+00
        -11   -1    0    0    0    0  0.00000000000E+00  0.00000000000E+00  0.45593999997E+02  0.45594000000E+02  0.51100000000E-03 0.  1.
         11   -1    0    0    0    0 -0.00000000000E+00 -0.00000000000E+00 -0.45593999997E+02  0.45594000000E+02  0.51100000000E-03 0. -1.
         23    2    1    2    0    0 -0.88817841970E-15  0.17763568394E-14  0.00000000000E+00  0.91188000000E+02  0.91188000000E+02 0.  0.
    9900012    2    3    3    0    0  0.79938965128E+01  0.56614821466E+01  0.35494013140E+02  0.54367085694E+02  0.40000003456E+02 0.  0.
         12    1    3    3    0    0 -0.79938965128E+01 -0.56614821466E+01 -0.35494013140E+02  0.36820914306E+02  0.00000000000E+00 0. -1.
         11    1    4    4    0    0  0.29584403344E+01 -0.35052167243E+01 -0.69701076905E+01  0.83439388166E+01  0.51100000000E-03 0. -1.
        -11    1    4    4    0    0  0.48167708620E+01  0.16022624532E+00  0.33117327745E+01  0.58476087606E+01  0.51100000000E-03 0.  1.
         12    1    4    4    0    0  0.21868531640E+00  0.90064726256E+01  0.39152388056E+02  0.40175538116E+02  0.00000000000E+00 0. -1.
</event>
<event>
 8    1  0.1265908E-006  0.9118800E+02  0.7816164E-02  0.1184000E+00
        -11   -1    0    0    0    0  0.00000000000E+00  0.00000000000E+00  0.45593999997E+02  0.45594000000E+02  0.51100000000E-03 0. -1.
         11   -1    0    0    0    0 -0.00000000000E+00 -0.00000000000E+00 -0.45593999997E+02  0.45594000000E+02  0.51100000000E-03 0.  1.
         23    2    1    2    0    0 -0.35527136788E-14  0.35527136788E-14  0.17763568394E-14  0.91188000000E+02  0.91188000000E+02 0.  0.
    9900012    2    3    3    0    0 -0.24787141616E+02 -0.24459295095E+02 -0.11963279004E+02  0.54367088135E+02  0.40000009022E+02 0.  0.
         12    1    3    3    0    0  0.24787141616E+02  0.24459295095E+02  0.11963279004E+02  0.36820911865E+02  0.00000000000E+00 0. -1.
         11    1    4    4    0    0  0.39950529707E+01 -0.12910213684E+02 -0.61956352649E+01  0.14866740134E+02  0.51100000000E-03 0. -1.
        -11    1    4    4    0    0 -0.29736987052E+02 -0.15467897584E+02 -0.85594874480E+01  0.34594928534E+02  0.51100000000E-03 0.  1.
         12    1    4    4    0    0  0.95479246512E+00  0.39188161739E+01  0.27918437091E+01  0.49054194675E+01  0.00000000000E+00 0. -1.
</event>
<event>
 8    1  0.1265908E-006  0.9118800E+02  0.7816164E-02  0.1184000E+00
        -11   -1    0    0    0    0  0.00000000000E+00  0.00000000000E+00  0.45593999997E+02  0.45594000000E+02  0.51100000000E-03 0. -1.
         11   -1    0    0    0    0 -0.00000000000E+00 -0.00000000000E+00 -0.45593999997E+02  0.45594000000E+02  0.51100000000E-03 0.  1.
         23    2    1    2    0    0 -0.17763568394E-14  0.00000000000E+00  0.35527136788E-14  0.91188000000E+02  0.91188000000E+02 0.  0.
    9900012    2    3    3    0    0 -0.10900887042E+02 -0.27099671405E+02 -0.22417839424E+02  0.54367067734E+02  0.39999962513E+02 0.  0.
         12    1    3    3    0    0  0.10900887042E+02  0.27099671405E+02  0.22417839424E+02  0.36820932266E+02  0.00000000000E+00 0. -1.
         11    1    4    4    0    0 -0.37496153113E+01 -0.46966940335E+01 -0.51690354162E+00  0.60320592968E+01  0.51100000000E-03 0. -1.
        -11    1    4    4    0    0  0.13550094122E+02 -0.15441046061E+01 -0.57375505259E+01  0.14795566770E+02  0.51100000000E-03 0.  1.
        -12    1    4    4    0    0 -0.20701365852E+02 -0.20858872765E+02 -0.16163385356E+02  0.33539441667E+02  0.00000000000E+00 0.  1.
</event>
<event>
 8    1  0.1265908E-006  0.9118800E+02  0.7816164E-02  0.1184000E+00
        -11   -1    0    0    0    0  0.00000000000E+00  0.00000000000E+00  0.45593999997E+02  0.45594000000E+02  0.51100000000E-03 0.  1.
         11   -1    0    0    0    0 -0.00000000000E+00 -0.00000000000E+00 -0.45593999997E+02  0.45594000000E+02  0.51100000000E-03 0. -1.
         23    2    1    2    0    0  0.00000000000E+00  0.00000000000E+00  0.00000000000E+00  0.91188000000E+02  0.91188000000E+02 0.  0.
    9900012    2    3    3    0    0 -0.10153735286E+02  0.13997711141E+02 -0.32507609005E+02  0.54367096960E+02  0.40000029141E+02 0.  0.
        -12    1    3    3    0    0  0.10153735286E+02 -0.13997711141E+02  0.32507609005E+02  0.36820903040E+02  0.00000000000E+00 0.  1.
         11    1    4    4    0    0  0.10799056503E+02  0.12371061391E+02 -0.22643534961E+02  0.27971279146E+02  0.51100000000E-03 0. -1.
        -11    1    4    4    0    0  0.16955877258E+00 -0.89269482353E+00  0.18865749222E+01  0.20939960419E+01  0.51100000000E-03 0.  1.
         12    1    4    4    0    0 -0.21122350562E+02  0.25193445730E+01 -0.11750648966E+02  0.24301821772E+02  0.00000000000E+00 0. -1.
</event>
<event>
 8    1  0.1265908E-006  0.9118800E+02  0.7816164E-02  0.1184000E+00
        -11   -1    0    0    0    0  0.00000000000E+00  0.00000000000E+00  0.45593999997E+02  0.45594000000E+02  0.51100000000E-03 0.  1.
         11   -1    0    0    0    0 -0.00000000000E+00 -0.00000000000E+00 -0.45593999997E+02  0.45594000000E+02  0.51100000000E-03 0. -1.
         23    2    1    2    0    0  0.00000000000E+00  0.00000000000E+00 -0.17763568394E-14  0.91188000000E+02  0.91188000000E+02 0.  0.
    9900012    2    3    3    0    0 -0.27946501468E+02  0.18379260829E+02  0.15393988929E+02  0.54367094687E+02  0.40000023959E+02 0.  0.
         12    1    3    3    0    0  0.27946501468E+02 -0.18379260829E+02 -0.15393988929E+02  0.36820905313E+02  0.00000000000E+00 0. -1.
         11    1    4    4    0    0 -0.60835300525E+01  0.98586143995E+01 -0.31218820452E+01  0.11997823284E+02  0.51100000000E-03 0. -1.
        -11    1    4    4    0    0 -0.91588672747E+01  0.69452210264E+01  0.25367095608E+02  0.27849784285E+02  0.51100000000E-03 0.  1.
        -12    1    4    4    0    0 -0.12704104141E+02  0.15754254026E+01 -0.68512246337E+01  0.14519487119E+02  0.00000000000E+00 0.  1.
</event>
<event>
 8    1  0.1265908E-006  0.9118800E+02  0.7816164E-02  0.1184000E+00
        -11   -1    0    0    0    0  0.00000000000E+00  0.00000000000E+00  0.45593999997E+02  0.45594000000E+02  0.51100000000E-03 0.  1.
         11   -1    0    0    0    0 -0.00000000000E+00 -0.00000000000E+00 -0.45593999997E+02  0.45594000000E+02  0.51100000000E-03 0. -1.
         23    2    1    2    0    0  0.35527136788E-14  0.00000000000E+00 -0.88817841970E-15  0.91188000000E+02  0.91188000000E+02 0.  0.
    9900012    2    3    3    0    0  0.26900054420E+02  0.24481095606E+02 -0.57319878733E+01  0.54366910189E+02  0.39999603356E+02 0.  0.
        -12    1    3    3    0    0 -0.26900054420E+02 -0.24481095606E+02  0.57319878733E+01  0.36821089811E+02  0.00000000000E+00 0.  1.
         11    1    4    4    0    0 -0.17688035121E+01  0.22559100572E+01  0.13661697546E+01  0.31755654788E+01  0.51100000000E-03 0. -1.
        -11    1    4    4    0    0  0.57928114584E+01  0.26186264152E+02 -0.79075064955E+01  0.27960789582E+02  0.51100000000E-03 0.  1.
         12    1    4    4    0    0  0.22876046474E+02 -0.39610786033E+01  0.80934886756E+00  0.23230555128E+02  0.00000000000E+00 0. -1.
</event>
<event>
 8    1  0.1265908E-006  0.9118800E+02  0.7816164E-02  0.1184000E+00
        -11   -1    0    0    0    0  0.00000000000E+00  0.00000000000E+00  0.45593999997E+02  0.45594000000E+02  0.51100000000E-03 0.  1.
         11   -1    0    0    0    0 -0.00000000000E+00 -0.00000000000E+00 -0.45593999997E+02  0.45594000000E+02  0.51100000000E-03 0. -1.
         23    2    1    2    0    0 -0.88817841970E-15  0.35527136788E-14  0.00000000000E+00  0.91188000000E+02  0.91188000000E+02 0.  0.
    9900012    2    3    3    0    0 -0.72396762805E+01  0.30940905788E+02  0.18601814900E+02  0.54367080929E+02  0.39999992595E+02 0.  0.
        -12    1    3    3    0    0  0.72396762805E+01 -0.30940905788E+02 -0.18601814900E+02  0.36820919071E+02  0.00000000000E+00 0.  1.
         11    1    4    4    0    0  0.70085112572E+01  0.16483106746E+02 -0.36375339886E+01  0.18276862199E+02  0.51100000000E-03 0. -1.
        -11    1    4    4    0    0  0.48540382203E+01  0.48477774619E+01  0.72184280704E+01  0.99583300525E+01  0.51100000000E-03 0.  1.
        -12    1    4    4    0    0 -0.19102225758E+02  0.96100215799E+01  0.15020920818E+02  0.26131888678E+02  0.00000000000E+00 0.  1.
</event>
<event>
 8    1  0.1265908E-006  0.9118800E+02  0.7816164E-02  0.1184000E+00
        -11   -1    0    0    0    0  0.00000000000E+00  0.00000000000E+00  0.45593999997E+02  0.45594000000E+02  0.51100000000E-03 0.  1.
         11   -1    0    0    0    0 -0.00000000000E+00 -0.00000000000E+00 -0.45593999997E+02  0.45594000000E+02  0.51100000000E-03 0. -1.
         23    2    1    2    0    0  0.00000000000E+00  0.00000000000E+00 -0.88817841970E-15  0.91188000000E+02  0.91188000000E+02 0.  0.
    9900012    2    3    3    0    0  0.33426534938E+01  0.36519230630E+02  0.33095938326E+01  0.54367069139E+02  0.39999965715E+02 0.  0.
        -12    1    3    3    0    0 -0.33426534938E+01 -0.36519230630E+02 -0.33095938326E+01  0.36820930861E+02  0.00000000000E+00 0.  1.
         11    1    4    4    0    0  0.10069936693E+02  0.27046798842E+02 -0.16276722037E+01  0.28906439934E+02  0.51100000000E-03 0. -1.
        -11    1    4    4    0    0 -0.14417984086E+01 -0.70820584614E+01 -0.52021561424E+00  0.72460305857E+01  0.51100000000E-03 0.  1.
         12    1    4    4    0    0 -0.52854847907E+01  0.16554490249E+02  0.54574816506E+01  0.18214598619E+02  0.00000000000E+00 0. -1.
</event>
<event>
 8    1  0.1265908E-006  0.9118800E+02  0.7816164E-02  0.1184000E+00
        -11   -1    0    0    0    0  0.00000000000E+00  0.00000000000E+00  0.45593999997E+02  0.45594000000E+02  0.51100000000E-03 0.  1.
         11   -1    0    0    0    0 -0.00000000000E+00 -0.00000000000E+00 -0.45593999997E+02  0.45594000000E+02  0.51100000000E-03 0. -1.
         23    2    1    2    0    0  0.35527136788E-14 -0.17763568394E-14 -0.35527136788E-14  0.91188000000E+02  0.91188000000E+02 0.  0.
    9900012    2    3    3    0    0  0.24135656708E+02  0.10225852789E+02 -0.25858858181E+02  0.54367101906E+02  0.40000040416E+02 0.  0.
        -12    1    3    3    0    0 -0.24135656708E+02 -0.10225852789E+02  0.25858858181E+02  0.36820898094E+02  0.00000000000E+00 0.  1.
         11    1    4    4    0    0 -0.57081419682E+00  0.35181346319E+00  0.37593236893E+01  0.38186537448E+01  0.51100000000E-03 0. -1.
        -11    1    4    4    0    0  0.85128147982E+01 -0.87837531897E+01 -0.33597971320E+00  0.12236634281E+02  0.51100000000E-03 0.  1.
         12    1    4    4    0    0  0.16193656106E+02  0.18657792516E+02 -0.29282202158E+02  0.38311813881E+02  0.00000000000E+00 0. -1.
</event>
<event>
 8    1  0.1265908E-006  0.9118800E+02  0.7816164E-02  0.1184000E+00
        -11   -1    0    0    0    0  0.00000000000E+00  0.00000000000E+00  0.45593999997E+02  0.45594000000E+02  0.51100000000E-03 0. -1.
         11   -1    0    0    0    0 -0.00000000000E+00 -0.00000000000E+00 -0.45593999997E+02  0.45594000000E+02  0.51100000000E-03 0.  1.
         23    2    1    2    0    0  0.00000000000E+00  0.11102230246E-15 -0.35527136788E-14  0.91188000000E+02  0.91188000000E+02 0.  0.
    9900012    2    3    3    0    0  0.33798360179E+02 -0.40384907904E+00 -0.14604370769E+02  0.54367083520E+02  0.39999998501E+02 0.  0.
         12    1    3    3    0    0 -0.33798360179E+02  0.40384907904E+00  0.14604370769E+02  0.36820916480E+02  0.00000000000E+00 0. -1.
         11    1    4    4    0    0 -0.33932894264E+01  0.49243994125E+01 -0.10035025244E+01  0.60639211969E+01  0.51100000000E-03 0. -1.
        -11    1    4    4    0    0 -0.15431444511E+01 -0.81138811386E-01  0.48416730771E+01  0.50822905023E+01  0.51100000000E-03 0.  1.
        -12    1    4    4    0    0  0.38734794056E+02 -0.52471096801E+01 -0.18442541321E+02  0.43220871821E+02  0.00000000000E+00 0.  1.
</event>
<event>
 8    1  0.1265908E-006  0.9118800E+02  0.7816164E-02  0.1184000E+00
        -11   -1    0    0    0    0  0.00000000000E+00  0.00000000000E+00  0.45593999997E+02  0.45594000000E+02  0.51100000000E-03 0.  1.
         11   -1    0    0    0    0 -0.00000000000E+00 -0.00000000000E+00 -0.45593999997E+02  0.45594000000E+02  0.51100000000E-03 0. -1.
         23    2    1    2    0    0  0.00000000000E+00  0.44408920985E-15  0.00000000000E+00  0.91188000000E+02  0.91188000000E+02 0.  0.
    9900012    2    3    3    0    0 -0.11680198236E+02 -0.39181465082E+01 -0.34698693866E+02  0.54367105675E+02  0.40000049008E+02 0.  0.
        -12    1    3    3    0    0  0.11680198236E+02  0.39181465082E+01  0.34698693866E+02  0.36820894325E+02  0.00000000000E+00 0.  1.
         11    1    4    4    0    0 -0.11190112121E+02  0.61713314316E+00 -0.22718331176E+02  0.25332233108E+02  0.51100000000E-03 0. -1.
        -11    1    4    4    0    0 -0.77567939941E+00 -0.53812606267E+01 -0.20122432596E+02  0.20843990460E+02  0.51100000000E-03 0.  1.
        -12    1    4    4    0    0  0.28559328436E+00  0.84598097526E+00  0.81420699059E+01  0.81908821067E+01  0.00000000000E+00 0.  1.
</event>
<event>
 8    1  0.1265908E-006  0.9118800E+02  0.7816164E-02  0.1184000E+00
        -11   -1    0    0    0    0  0.00000000000E+00  0.00000000000E+00  0.45593999997E+02  0.45594000000E+02  0.51100000000E-03 0. -1.
         11   -1    0    0    0    0 -0.00000000000E+00 -0.00000000000E+00 -0.45593999997E+02  0.45594000000E+02  0.51100000000E-03 0.  1.
         23    2    1    2    0    0  0.00000000000E+00  0.35527136788E-14 -0.17763568394E-14  0.91188000000E+02  0.91188000000E+02 0.  0.
    9900012    2    3    3    0    0 -0.20327992367E+02 -0.30472851386E+02 -0.37359300417E+01  0.54367094002E+02  0.40000022396E+02 0.  0.
         12    1    3    3    0    0  0.20327992367E+02  0.30472851386E+02  0.37359300417E+01  0.36820905998E+02  0.00000000000E+00 0. -1.
         11    1    4    4    0    0 -0.17502853352E+02 -0.11167023599E+01  0.43350240272E+01  0.18066248454E+02  0.51100000000E-03 0. -1.
        -11    1    4    4    0    0 -0.85252171080E+01 -0.19571603661E+02  0.16024122640E+01  0.21407819177E+02  0.51100000000E-03 0.  1.
         12    1    4    4    0    0  0.57000780930E+01 -0.97845453653E+01 -0.96733663328E+01  0.14893026371E+02  0.00000000000E+00 0. -1.
</event>
<event>
 8    1  0.1265908E-006  0.9118800E+02  0.7816164E-02  0.1184000E+00
        -11   -1    0    0    0    0  0.00000000000E+00  0.00000000000E+00  0.45593999997E+02  0.45594000000E+02  0.51100000000E-03 0.  1.
         11   -1    0    0    0    0 -0.00000000000E+00 -0.00000000000E+00 -0.45593999997E+02  0.45594000000E+02  0.51100000000E-03 0. -1.
         23    2    1    2    0    0  0.00000000000E+00  0.00000000000E+00  0.00000000000E+00  0.91188000000E+02  0.91188000000E+02 0.  0.
    9900012    2    3    3    0    0 -0.15178131961E+02  0.13398552802E+02  0.30755214282E+02  0.54367080504E+02  0.39999991624E+02 0.  0.
         12    1    3    3    0    0  0.15178131961E+02 -0.13398552802E+02 -0.30755214282E+02  0.36820919496E+02  0.00000000000E+00 0. -1.
         11    1    4    4    0    0  0.13671234967E+00  0.31530764976E+01  0.14837743226E+02  0.15169680483E+02  0.51100000000E-03 0. -1.
        -11    1    4    4    0    0 -0.14530077959E+02  0.40110377728E+01  0.24376115737E+02  0.28660192048E+02  0.51100000000E-03 0.  1.
        -12    1    4    4    0    0 -0.78476635177E+00  0.62344385317E+01 -0.84586446807E+01  0.10537207973E+02  0.00000000000E+00 0.  1.
</event>
<event>
 8    1  0.1265908E-006  0.9118800E+02  0.7816164E-02  0.1184000E+00
        -11   -1    0    0    0    0  0.00000000000E+00  0.00000000000E+00  0.45593999997E+02  0.45594000000E+02  0.51100000000E-03 0.  1.
         11   -1    0    0    0    0 -0.00000000000E+00 -0.00000000000E+00 -0.45593999997E+02  0.45594000000E+02  0.51100000000E-03 0. -1.
         23    2    1    2    0    0  0.00000000000E+00  0.00000000000E+00  0.00000000000E+00  0.91188000000E+02  0.91188000000E+02 0.  0.
    9900012    2    3    3    0    0 -0.29849412413E+02 -0.18303424753E+02  0.11391903171E+02  0.54367105973E+02  0.40000049686E+02 0.  0.
         12    1    3    3    0    0  0.29849412413E+02  0.18303424753E+02 -0.11391903171E+02  0.36820894027E+02  0.00000000000E+00 0. -1.
         11    1    4    4    0    0 -0.11376846893E+02 -0.14605061936E+02  0.11578331611E+02  0.21835710260E+02  0.51100000000E-03 0. -1.
        -11    1    4    4    0    0  0.12739697727E+01 -0.11300075311E+02 -0.68239426402E-01  0.11371866948E+02  0.51100000000E-03 0.  1.
         12    1    4    4    0    0 -0.19746535293E+02  0.76017124937E+01 -0.11818901352E+00  0.21159528765E+02  0.00000000000E+00 0. -1.
</event>
<event>
 8    1  0.1265908E-006  0.9118800E+02  0.7816164E-02  0.1184000E+00
        -11   -1    0    0    0    0  0.00000000000E+00  0.00000000000E+00  0.45593999997E+02  0.45594000000E+02  0.51100000000E-03 0.  1.
         11   -1    0    0    0    0 -0.00000000000E+00 -0.00000000000E+00 -0.45593999997E+02  0.45594000000E+02  0.51100000000E-03 0. -1.
         23    2    1    2    0    0  0.00000000000E+00  0.00000000000E+00  0.00000000000E+00  0.91188000000E+02  0.91188000000E+02 0.  0.
    9900012    2    3    3    0    0  0.27799362460E+02  0.13147308277E+02 -0.20251515659E+02  0.54367079933E+02  0.39999990323E+02 0.  0.
        -12    1    3    3    0    0 -0.27799362460E+02 -0.13147308277E+02  0.20251515659E+02  0.36820920067E+02  0.00000000000E+00 0.  1.
         11    1    4    4    0    0  0.45921169057E+00 -0.12836032450E+01 -0.35562367970E+01  0.38085867569E+01  0.51100000000E-03 0. -1.
        -11    1    4    4    0    0 -0.48306206308E+01  0.12779780589E+02 -0.11645389773E+02  0.17951957855E+02  0.51100000000E-03 0.  1.
        -12    1    4    4    0    0  0.32170771400E+02  0.16511309321E+01 -0.50498890891E+01  0.32606535321E+02  0.00000000000E+00 0.  1.
</event>
<event>
 8    1  0.1265908E-006  0.9118800E+02  0.7816164E-02  0.1184000E+00
        -11   -1    0    0    0    0  0.00000000000E+00  0.00000000000E+00  0.45593999997E+02  0.45594000000E+02  0.51100000000E-03 0. -1.
         11   -1    0    0    0    0 -0.00000000000E+00 -0.00000000000E+00 -0.45593999997E+02  0.45594000000E+02  0.51100000000E-03 0.  1.
         23    2    1    2    0    0  0.00000000000E+00  0.00000000000E+00  0.00000000000E+00  0.91188000000E+02  0.91188000000E+02 0.  0.
    9900012    2    3    3    0    0 -0.21998411502E+02  0.10657943058E+02  0.27536484691E+02  0.54367084096E+02  0.39999999814E+02 0.  0.
        -12    1    3    3    0    0  0.21998411502E+02 -0.10657943058E+02 -0.27536484691E+02  0.36820915904E+02  0.00000000000E+00 0.  1.
         11    1    4    4    0    0  0.64917741315E+01  0.10232610561E+01  0.70822014937E+01  0.96616651164E+01  0.51100000000E-03 0. -1.
        -11    1    4    4    0    0 -0.25656522747E+02  0.40363284955E+01  0.25691578174E+02  0.36532263775E+02  0.51100000000E-03 0.  1.
        -12    1    4    4    0    0 -0.28336628868E+01  0.55983535066E+01 -0.52372949761E+01  0.81731552052E+01  0.00000000000E+00 0.  1.
</event>
<event>
 8    1  0.1265908E-006  0.9118800E+02  0.7816164E-02  0.1184000E+00
        -11   -1    0    0    0    0  0.00000000000E+00  0.00000000000E+00  0.45593999997E+02  0.45594000000E+02  0.51100000000E-03 0.  1.
         11   -1    0    0    0    0 -0.00000000000E+00 -0.00000000000E+00 -0.45593999997E+02  0.45594000000E+02  0.51100000000E-03 0. -1.
         23    2    1    2    0    0  0.88817841970E-15 -0.22204460493E-15  0.00000000000E+00  0.91188000000E+02  0.91188000000E+02 0.  0.
    9900012    2    3    3    0    0 -0.53934941456E+01  0.56023149173E+00  0.36419452940E+02  0.54367079440E+02  0.39999989200E+02 0.  0.
         12    1    3    3    0    0  0.53934941456E+01 -0.56023149173E+00 -0.36419452940E+02  0.36820920560E+02  0.00000000000E+00 0. -1.
         11    1    4    4    0    0 -0.52947362520E+01 -0.34724642385E+01 -0.18849070143E+01  0.66064449274E+01  0.51100000000E-03 0. -1.
        -11    1    4    4    0    0  0.31735716510E+00 -0.11928257358E+02  0.11565853783E+02  0.16617852243E+02  0.51100000000E-03 0.  1.
        -12    1    4    4    0    0 -0.41611505875E+00  0.15960953088E+02  0.26738506172E+02  0.31142782270E+02  0.00000000000E+00 0.  1.
</event>
<event>
 8    1  0.1265908E-006  0.9118800E+02  0.7816164E-02  0.1184000E+00
        -11   -1    0    0    0    0  0.00000000000E+00  0.00000000000E+00  0.45593999997E+02  0.45594000000E+02  0.51100000000E-03 0. -1.
         11   -1    0    0    0    0 -0.00000000000E+00 -0.00000000000E+00 -0.45593999997E+02  0.45594000000E+02  0.51100000000E-03 0.  1.
         23    2    1    2    0    0  0.00000000000E+00  0.00000000000E+00  0.17763568394E-14  0.91188000000E+02  0.91188000000E+02 0.  0.
    9900012    2    3    3    0    0 -0.32809120516E+02 -0.11737928115E+02  0.11897998000E+02  0.54367086081E+02  0.40000004338E+02 0.  0.
        -12    1    3    3    0    0  0.32809120516E+02  0.11737928115E+02 -0.11897998000E+02  0.36820913919E+02  0.00000000000E+00 0.  1.
         11    1    4    4    0    0 -0.96181344573E+01 -0.30398430374E+01 -0.24324637124E+01  0.10376224559E+02  0.51100000000E-03 0. -1.
        -11    1    4    4    0    0 -0.13602854243E+02 -0.11408315717E+02  0.24168606772E+02  0.29988478865E+02  0.51100000000E-03 0.  1.
        -12    1    4    4    0    0 -0.95881318153E+01  0.27102306394E+01 -0.98381450602E+01  0.14002382656E+02  0.00000000000E+00 0.  1.
</event>
<event>
 8    1  0.1265908E-006  0.9118800E+02  0.7816164E-02  0.1184000E+00
        -11   -1    0    0    0    0  0.00000000000E+00  0.00000000000E+00  0.45593999997E+02  0.45594000000E+02  0.51100000000E-03 0. -1.
         11   -1    0    0    0    0 -0.00000000000E+00 -0.00000000000E+00 -0.45593999997E+02  0.45594000000E+02  0.51100000000E-03 0.  1.
         23    2    1    2    0    0  0.00000000000E+00  0.00000000000E+00 -0.35527136788E-14  0.91188000000E+02  0.91188000000E+02 0.  0.
    9900012    2    3    3    0    0 -0.13238771331E+02 -0.23918519736E+02  0.24666116612E+02  0.54367109715E+02  0.40000058217E+02 0.  0.
        -12    1    3    3    0    0  0.13238771331E+02  0.23918519736E+02 -0.24666116612E+02  0.36820890285E+02  0.00000000000E+00 0.  1.
         11    1    4    4    0    0  0.82076832454E+01 -0.95966597082E+01  0.17867865225E+02  0.21879729197E+02  0.51100000000E-03 0. -1.
        -11    1    4    4    0    0  0.75319752763E+00  0.32025160201E+01  0.18512660212E+01  0.37749968896E+01  0.51100000000E-03 0.  1.
        -12    1    4    4    0    0 -0.22199652104E+02 -0.17524376047E+02  0.49469853659E+01  0.28712383628E+02  0.00000000000E+00 0.  1.
</event>
<event>
 8    1  0.1265908E-006  0.9118800E+02  0.7816164E-02  0.1184000E+00
        -11   -1    0    0    0    0  0.00000000000E+00  0.00000000000E+00  0.45593999997E+02  0.45594000000E+02  0.51100000000E-03 0. -1.
         11   -1    0    0    0    0 -0.00000000000E+00 -0.00000000000E+00 -0.45593999997E+02  0.45594000000E+02  0.51100000000E-03 0.  1.
         23    2    1    2    0    0  0.00000000000E+00  0.35527136788E-14 -0.17763568394E-14  0.91188000000E+02  0.91188000000E+02 0.  0.
    9900012    2    3    3    0    0 -0.23047946016E+02 -0.23844803391E+02 -0.15999910810E+02  0.54367087325E+02  0.40000007175E+02 0.  0.
         12    1    3    3    0    0  0.23047946016E+02  0.23844803391E+02  0.15999910810E+02  0.36820912675E+02  0.00000000000E+00 0. -1.
         11    1    4    4    0    0  0.73677140820E+00  0.67305605147E+01 -0.98868976043E+01  0.11983072288E+02  0.51100000000E-03 0. -1.
        -11    1    4    4    0    0 -0.47491800279E+01 -0.19051528758E+02 -0.17897212085E+01  0.19715946876E+02  0.51100000000E-03 0.  1.
         12    1    4    4    0    0 -0.19035537396E+02 -0.11523835148E+02 -0.43232919969E+01  0.22668068161E+02  0.00000000000E+00 0. -1.
</event>
<event>
 8    1  0.1265908E-006  0.9118800E+02  0.7816164E-02  0.1184000E+00
        -11   -1    0    0    0    0  0.00000000000E+00  0.00000000000E+00  0.45593999997E+02  0.45594000000E+02  0.51100000000E-03 0.  1.
         11   -1    0    0    0    0 -0.00000000000E+00 -0.00000000000E+00 -0.45593999997E+02  0.45594000000E+02  0.51100000000E-03 0. -1.
         23    2    1    2    0    0  0.00000000000E+00  0.00000000000E+00  0.00000000000E+00  0.91188000000E+02  0.91188000000E+02 0.  0.
    9900012    2    3    3    0    0  0.35240416644E+02  0.70143755587E+01  0.80436696635E+01  0.54366959121E+02  0.39999714908E+02 0.  0.
        -12    1    3    3    0    0 -0.35240416644E+02 -0.70143755587E+01 -0.80436696635E+01  0.36821040879E+02  0.00000000000E+00 0.  1.
         11    1    4    4    0    0  0.11657922846E+02  0.10530576247E+02  0.46283305278E+01  0.16377473704E+02  0.51100000000E-03 0. -1.
        -11    1    4    4    0    0  0.42508622099E+01  0.45745296050E+01  0.13394288571E+02  0.14778468026E+02  0.51100000000E-03 0.  1.
         12    1    4    4    0    0  0.19331631588E+02 -0.80907302929E+01 -0.99789494349E+01  0.23211017391E+02  0.00000000000E+00 0. -1.
</event>
<event>
 8    1  0.1265908E-006  0.9118800E+02  0.7816164E-02  0.1184000E+00
        -11   -1    0    0    0    0  0.00000000000E+00  0.00000000000E+00  0.45593999997E+02  0.45594000000E+02  0.51100000000E-03 0. -1.
         11   -1    0    0    0    0 -0.00000000000E+00 -0.00000000000E+00 -0.45593999997E+02  0.45594000000E+02  0.51100000000E-03 0.  1.
         23    2    1    2    0    0  0.24424906542E-14  0.11102230246E-15  0.00000000000E+00  0.91188000000E+02  0.91188000000E+02 0.  0.
    9900012    2    3    3    0    0 -0.16377406814E+01 -0.47685721416E+00 -0.36781388842E+02  0.54367079962E+02  0.39999990389E+02 0.  0.
         12    1    3    3    0    0  0.16377406814E+01  0.47685721416E+00  0.36781388842E+02  0.36820920038E+02  0.00000000000E+00 0. -1.
         11    1    4    4    0    0  0.97455745354E+01 -0.24125368455E+01 -0.15194597430E+02  0.18211873829E+02  0.51100000000E-03 0. -1.
        -11    1    4    4    0    0 -0.10674398855E+01  0.63669375438E+01 -0.23844604207E+02  0.24703086278E+02  0.51100000000E-03 0.  1.
         12    1    4    4    0    0 -0.10315875331E+02 -0.44312579124E+01  0.22578127957E+01  0.11452119854E+02  0.00000000000E+00 0. -1.
</event>
<event>
 8    1  0.1265908E-006  0.9118800E+02  0.7816164E-02  0.1184000E+00
        -11   -1    0    0    0    0  0.00000000000E+00  0.00000000000E+00  0.45593999997E+02  0.45594000000E+02  0.51100000000E-03 0.  1.
         11   -1    0    0    0    0 -0.00000000000E+00 -0.00000000000E+00 -0.45593999997E+02  0.45594000000E+02  0.51100000000E-03 0. -1.
         23    2    1    2    0    0  0.00000000000E+00 -0.88817841970E-15  0.00000000000E+00  0.91188000000E+02  0.91188000000E+02 0.  0.
    9900012    2    3    3    0    0  0.99109231435E+01  0.73633045382E+01 -0.34689101817E+02  0.54367103268E+02  0.40000043521E+02 0.  0.
        -12    1    3    3    0    0 -0.99109231435E+01 -0.73633045382E+01  0.34689101817E+02  0.36820896732E+02  0.00000000000E+00 0.  1.
         11    1    4    4    0    0 -0.10977944247E+02  0.95933492852E+01 -0.47659210312E+01  0.15338240249E+02  0.51100000000E-03 0. -1.
        -11    1    4    4    0    0  0.59775411864E+01 -0.13989281107E+01 -0.65919339135E+00  0.61743448788E+01  0.51100000000E-03 0.  1.
         12    1    4    4    0    0  0.14911326205E+02 -0.83111663626E+00 -0.29263987394E+02  0.32854518140E+02  0.00000000000E+00 0. -1.
</event>
<event>
 8    1  0.1265908E-006  0.9118800E+02  0.7816164E-02  0.1184000E+00
        -11   -1    0    0    0    0  0.00000000000E+00  0.00000000000E+00  0.45593999997E+02  0.45594000000E+02  0.51100000000E-03 0.  1.
         11   -1    0    0    0    0 -0.00000000000E+00 -0.00000000000E+00 -0.45593999997E+02  0.45594000000E+02  0.51100000000E-03 0. -1.
         23    2    1    2    0    0  0.00000000000E+00  0.35527136788E-14  0.00000000000E+00  0.91188000000E+02  0.91188000000E+02 0.  0.
    9900012    2    3    3    0    0 -0.19926265780E+02 -0.30516397782E+02 -0.52415546822E+01  0.54367075283E+02  0.39999979722E+02 0.  0.
        -12    1    3    3    0    0  0.19926265780E+02  0.30516397782E+02  0.52415546822E+01  0.36820924717E+02  0.00000000000E+00 0.  1.
         11    1    4    4    0    0 -0.28100557615E+02 -0.26932740106E+02  0.13558016745E+01  0.38946784544E+02  0.51100000000E-03 0. -1.
        -11    1    4    4    0    0 -0.18279995359E+01 -0.42495760414E+00 -0.42868105443E+01  0.46796277814E+01  0.51100000000E-03 0.  1.
        -12    1    4    4    0    0  0.10002291371E+02 -0.31587000721E+01 -0.23105458124E+01  0.10740662957E+02  0.00000000000E+00 0.  1.
</event>
<event>
 8    1  0.1265908E-006  0.9118800E+02  0.7816164E-02  0.1184000E+00
        -11   -1    0    0    0    0  0.00000000000E+00  0.00000000000E+00  0.45593999997E+02  0.45594000000E+02  0.51100000000E-03 0. -1.
         11   -1    0    0    0    0 -0.00000000000E+00 -0.00000000000E+00 -0.45593999997E+02  0.45594000000E+02  0.51100000000E-03 0.  1.
         23    2    1    2    0    0 -0.88817841970E-15  0.00000000000E+00 -0.35527136788E-14  0.91188000000E+02  0.91188000000E+02 0.  0.
    9900012    2    3    3    0    0 -0.56362181665E+01  0.21412262597E+02 -0.29419833128E+02  0.54367102048E+02  0.40000040739E+02 0.  0.
         12    1    3    3    0    0  0.56362181665E+01 -0.21412262597E+02  0.29419833128E+02  0.36820897952E+02  0.00000000000E+00 0. -1.
         11    1    4    4    0    0 -0.64174026200E+01 -0.54377094407E+01  0.83815100615E-01  0.84118229642E+01  0.51100000000E-03 0. -1.
        -11    1    4    4    0    0 -0.82500851267E+01  0.19918345367E+02 -0.10933769950E+02  0.24173367832E+02  0.51100000000E-03 0.  1.
        -12    1    4    4    0    0  0.90312695802E+01  0.69316266707E+01 -0.18569878278E+02  0.21781911252E+02  0.00000000000E+00 0.  1.
</event>
<event>
 8    1  0.1265908E-006  0.9118800E+02  0.7816164E-02  0.1184000E+00
        -11   -1    0    0    0    0  0.00000000000E+00  0.00000000000E+00  0.45593999997E+02  0.45594000000E+02  0.51100000000E-03 0.  1.
         11   -1    0    0    0    0 -0.00000000000E+00 -0.00000000000E+00 -0.45593999997E+02  0.45594000000E+02  0.51100000000E-03 0. -1.
         23    2    1    2    0    0 -0.44408920985E-15  0.00000000000E+00  0.00000000000E+00  0.91188000000E+02  0.91188000000E+02 0.  0.
    9900012    2    3    3    0    0  0.22055923017E+01  0.35258175976E+02 -0.10381511765E+02  0.54367090219E+02  0.40000013773E+02 0.  0.
        -12    1    3    3    0    0 -0.22055923017E+01 -0.35258175976E+02  0.10381511765E+02  0.36820909781E+02  0.00000000000E+00 0.  1.
         11    1    4    4    0    0 -0.95213225877E+00  0.24492693142E+02 -0.21366916429E+02  0.32516821664E+02  0.51100000000E-03 0. -1.
        -11    1    4    4    0    0  0.52028287500E+01  0.34632638740E+01  0.12629031956E+02  0.14090992587E+02  0.51100000000E-03 0.  1.
         12    1    4    4    0    0 -0.20451041895E+01  0.73022189593E+01 -0.16436272929E+01  0.77592759684E+01  0.00000000000E+00 0. -1.
</event>
<event>
 8    1  0.1265908E-006  0.9118800E+02  0.7816164E-02  0.1184000E+00
        -11   -1    0    0    0    0  0.00000000000E+00  0.00000000000E+00  0.45593999997E+02  0.45594000000E+02  0.51100000000E-03 0. -1.
         11   -1    0    0    0    0 -0.00000000000E+00 -0.00000000000E+00 -0.45593999997E+02  0.45594000000E+02  0.51100000000E-03 0.  1.
         23    2    1    2    0    0  0.00000000000E+00 -0.71054273576E-14  0.88817841970E-15  0.91188000000E+02  0.91188000000E+02 0.  0.
    9900012    2    3    3    0    0  0.16304312907E+02  0.32675622384E+02 -0.47169379975E+01  0.54367130624E+02  0.40000105884E+02 0.  0.
        -12    1    3    3    0    0 -0.16304312907E+02 -0.32675622384E+02  0.47169379975E+01  0.36820869376E+02  0.00000000000E+00 0.  1.
         11    1    4    4    0    0  0.60268598956E+01  0.10342530135E+02  0.57835703149E+01  0.13294384365E+02  0.51100000000E-03 0. -1.
        -11    1    4    4    0    0  0.13048321094E+02 -0.25675329114E+01  0.13315940327E+01  0.13365030922E+02  0.51100000000E-03 0.  1.
         12    1    4    4    0    0 -0.27708680825E+01  0.24900625161E+02 -0.11832102345E+02  0.27707715337E+02  0.00000000000E+00 0. -1.
</event>
<event>
 8    1  0.1265908E-006  0.9118800E+02  0.7816164E-02  0.1184000E+00
        -11   -1    0    0    0    0  0.00000000000E+00  0.00000000000E+00  0.45593999997E+02  0.45594000000E+02  0.51100000000E-03 0. -1.
         11   -1    0    0    0    0 -0.00000000000E+00 -0.00000000000E+00 -0.45593999997E+02  0.45594000000E+02  0.51100000000E-03 0.  1.
         23    2    1    2    0    0  0.00000000000E+00  0.00000000000E+00  0.00000000000E+00  0.91188000000E+02  0.91188000000E+02 0.  0.
    9900012    2    3    3    0    0 -0.36563790285E+01 -0.28106188216E+02  0.23504303849E+02  0.54367092582E+02  0.40000019160E+02 0.  0.
        -12    1    3    3    0    0  0.36563790285E+01  0.28106188216E+02 -0.23504303849E+02  0.36820907418E+02  0.00000000000E+00 0.  1.
         11    1    4    4    0    0 -0.54106261271E+01 -0.16920739217E+02  0.98249188979E+01  0.20300623694E+02  0.51100000000E-03 0. -1.
        -11    1    4    4    0    0  0.21973012371E+00  0.81926357338E+00 -0.86376040324E+01  0.86791519062E+01  0.51100000000E-03 0.  1.
         12    1    4    4    0    0  0.15345169749E+01 -0.12004712572E+02  0.22316988984E+02  0.25387316983E+02  0.00000000000E+00 0. -1.
</event>
<event>
 8    1  0.1265908E-006  0.9118800E+02  0.7816164E-02  0.1184000E+00
        -11   -1    0    0    0    0  0.00000000000E+00  0.00000000000E+00  0.45593999997E+02  0.45594000000E+02  0.51100000000E-03 0.  1.
         11   -1    0    0    0    0 -0.00000000000E+00 -0.00000000000E+00 -0.45593999997E+02  0.45594000000E+02  0.51100000000E-03 0. -1.
         23    2    1    2    0    0  0.17763568394E-14  0.00000000000E+00  0.00000000000E+00  0.91188000000E+02  0.91188000000E+02 0.  0.
    9900012    2    3    3    0    0 -0.92165487661E+01 -0.11972403872E+02 -0.33578263802E+02  0.54367040947E+02  0.39999901447E+02 0.  0.
        -12    1    3    3    0    0  0.92165487661E+01  0.11972403872E+02  0.33578263802E+02  0.36820959053E+02  0.00000000000E+00 0.  1.
         11    1    4    4    0    0  0.49091387346E+01 -0.59592856944E+01 -0.44619940152E+01  0.89175175893E+01  0.51100000000E-03 0. -1.
        -11    1    4    4    0    0 -0.13285912135E+02 -0.18014515822E+02 -0.15215998367E+02  0.27065935198E+02  0.51100000000E-03 0.  1.
        -12    1    4    4    0    0 -0.83977536588E+00  0.12001397645E+02 -0.13900271420E+02  0.18383588160E+02  0.00000000000E+00 0.  1.
</event>
<event>
 8    1  0.1265908E-006  0.9118800E+02  0.7816164E-02  0.1184000E+00
        -11   -1    0    0    0    0  0.00000000000E+00  0.00000000000E+00  0.45593999997E+02  0.45594000000E+02  0.51100000000E-03 0. -1.
         11   -1    0    0    0    0 -0.00000000000E+00 -0.00000000000E+00 -0.45593999997E+02  0.45594000000E+02  0.51100000000E-03 0.  1.
         23    2    1    2    0    0  0.00000000000E+00  0.71054273576E-14  0.00000000000E+00  0.91188000000E+02  0.91188000000E+02 0.  0.
    9900012    2    3    3    0    0 -0.97222221496E+01  0.33700913086E+02  0.11202942597E+02  0.54367094671E+02  0.40000023922E+02 0.  0.
        -12    1    3    3    0    0  0.97222221496E+01 -0.33700913086E+02 -0.11202942597E+02  0.36820905329E+02  0.00000000000E+00 0.  1.
         11    1    4    4    0    0  0.65046630879E+00 -0.76164690422E+01 -0.18127366825E+01  0.78561900200E+01  0.51100000000E-03 0. -1.
        -11    1    4    4    0    0 -0.45018170442E+01  0.30934731181E+02  0.39084511661E+01  0.31503967063E+02  0.51100000000E-03 0.  1.
         12    1    4    4    0    0 -0.58708714143E+01  0.10382650948E+02  0.91072281137E+01  0.15006937588E+02  0.00000000000E+00 0. -1.
</event>
<event>
 8    1  0.1265908E-006  0.9118800E+02  0.7816164E-02  0.1184000E+00
        -11   -1    0    0    0    0  0.00000000000E+00  0.00000000000E+00  0.45593999997E+02  0.45594000000E+02  0.51100000000E-03 0.  1.
         11   -1    0    0    0    0 -0.00000000000E+00 -0.00000000000E+00 -0.45593999997E+02  0.45594000000E+02  0.51100000000E-03 0. -1.
         23    2    1    2    0    0  0.35527136788E-14  0.35527136788E-14 -0.88817841970E-15  0.91188000000E+02  0.91188000000E+02 0.  0.
    9900012    2    3    3    0    0 -0.27211672476E+02 -0.24345565264E+02 -0.47532473977E+01  0.54367149551E+02  0.40000149032E+02 0.  0.
        -12    1    3    3    0    0  0.27211672476E+02  0.24345565264E+02  0.47532473977E+01  0.36820850449E+02  0.00000000000E+00 0.  1.
         11    1    4    4    0    0  0.24863514343E+01 -0.94257780477E+01  0.48391970315E+01  0.10883246916E+02  0.51100000000E-03 0. -1.
        -11    1    4    4    0    0 -0.72172176124E+01  0.42645410839E+01  0.57690171641E+01  0.10176251767E+02  0.51100000000E-03 0.  1.
         12    1    4    4    0    0 -0.22480806297E+02 -0.19184328300E+02 -0.15361461593E+02  0.33307650869E+02  0.00000000000E+00 0. -1.
</event>
<event>
 8    1  0.1265908E-006  0.9118800E+02  0.7816164E-02  0.1184000E+00
        -11   -1    0    0    0    0  0.00000000000E+00  0.00000000000E+00  0.45593999997E+02  0.45594000000E+02  0.51100000000E-03 0.  1.
         11   -1    0    0    0    0 -0.00000000000E+00 -0.00000000000E+00 -0.45593999997E+02  0.45594000000E+02  0.51100000000E-03 0. -1.
         23    2    1    2    0    0  0.17763568394E-14  0.00000000000E+00  0.71054273576E-14  0.91188000000E+02  0.91188000000E+02 0.  0.
    9900012    2    3    3    0    0  0.10827160547E+01  0.95210324666E+01 -0.35552301174E+02  0.54366967260E+02  0.39999733462E+02 0.  0.
        -12    1    3    3    0    0 -0.10827160547E+01 -0.95210324666E+01  0.35552301174E+02  0.36821032740E+02  0.00000000000E+00 0.  1.
         11    1    4    4    0    0  0.12265498443E+02 -0.22603604878E+01  0.18326156728E+01  0.12605957403E+02  0.51100000000E-03 0. -1.
        -11    1    4    4    0    0 -0.17157751414E+01  0.83712405842E+01 -0.17525962847E+02  0.19498228823E+02  0.51100000000E-03 0.  1.
         12    1    4    4    0    0 -0.94670072468E+01  0.34101523701E+01 -0.19858953999E+02  0.22262781034E+02  0.00000000000E+00 0. -1.
</event>
<event>
 8    1  0.1265908E-006  0.9118800E+02  0.7816164E-02  0.1184000E+00
        -11   -1    0    0    0    0  0.00000000000E+00  0.00000000000E+00  0.45593999997E+02  0.45594000000E+02  0.51100000000E-03 0.  1.
         11   -1    0    0    0    0 -0.00000000000E+00 -0.00000000000E+00 -0.45593999997E+02  0.45594000000E+02  0.51100000000E-03 0. -1.
         23    2    1    2    0    0 -0.71054273576E-14 -0.35527136788E-14  0.00000000000E+00  0.91188000000E+02  0.91188000000E+02 0.  0.
    9900012    2    3    3    0    0 -0.19016428393E+02 -0.29705663412E+02  0.10570125525E+02  0.54367101842E+02  0.40000040270E+02 0.  0.
        -12    1    3    3    0    0  0.19016428393E+02  0.29705663412E+02 -0.10570125525E+02  0.36820898158E+02  0.00000000000E+00 0.  1.
         11    1    4    4    0    0  0.39868968265E+01 -0.95068978691E+01 -0.12229328664E+01  0.10381330284E+02  0.51100000000E-03 0. -1.
        -11    1    4    4    0    0  0.18316273536E+01  0.30885697651E+01  0.91602687031E+01  0.98389351523E+01  0.51100000000E-03 0.  1.
         12    1    4    4    0    0 -0.24834952573E+02 -0.23287335308E+02  0.26327896882E+01  0.34146836406E+02  0.00000000000E+00 0. -1.
</event>
<event>
 8    1  0.1265908E-006  0.9118800E+02  0.7816164E-02  0.1184000E+00
        -11   -1    0    0    0    0  0.00000000000E+00  0.00000000000E+00  0.45593999997E+02  0.45594000000E+02  0.51100000000E-03 0.  1.
         11   -1    0    0    0    0 -0.00000000000E+00 -0.00000000000E+00 -0.45593999997E+02  0.45594000000E+02  0.51100000000E-03 0. -1.
         23    2    1    2    0    0 -0.35527136788E-14 -0.88817841970E-15  0.00000000000E+00  0.91188000000E+02  0.91188000000E+02 0.  0.
    9900012    2    3    3    0    0  0.24212359475E+02  0.55227771614E+01 -0.27185299003E+02  0.54367083379E+02  0.39999998180E+02 0.  0.
        -12    1    3    3    0    0 -0.24212359475E+02 -0.55227771614E+01  0.27185299003E+02  0.36820916621E+02  0.00000000000E+00 0.  1.
         11    1    4    4    0    0  0.14773996642E+02 -0.14102986669E+01 -0.34546842148E+02  0.37599790182E+02  0.51100000000E-03 0. -1.
        -11    1    4    4    0    0 -0.64991778195E+00 -0.66288256066E+00 -0.11950087392E+01  0.15132258788E+01  0.51100000000E-03 0.  1.
        -12    1    4    4    0    0  0.10088280615E+02  0.75959583890E+01  0.85565518839E+01  0.15254067318E+02  0.00000000000E+00 0.  1.
</event>
<event>
 8    1  0.1265908E-006  0.9118800E+02  0.7816164E-02  0.1184000E+00
        -11   -1    0    0    0    0  0.00000000000E+00  0.00000000000E+00  0.45593999997E+02  0.45594000000E+02  0.51100000000E-03 0. -1.
         11   -1    0    0    0    0 -0.00000000000E+00 -0.00000000000E+00 -0.45593999997E+02  0.45594000000E+02  0.51100000000E-03 0.  1.
         23    2    1    2    0    0  0.00000000000E+00  0.44408920985E-15  0.00000000000E+00  0.91188000000E+02  0.91188000000E+02 0.  0.
    9900012    2    3    3    0    0 -0.19330550566E+02  0.12441687280E+01  0.31313920881E+02  0.54367084993E+02  0.40000001859E+02 0.  0.
        -12    1    3    3    0    0  0.19330550566E+02 -0.12441687280E+01 -0.31313920881E+02  0.36820915007E+02  0.00000000000E+00 0.  1.
         11    1    4    4    0    0  0.61837215647E+01  0.13738004460E+01  0.99145480838E+00  0.64116084529E+01  0.51100000000E-03 0. -1.
        -11    1    4    4    0    0 -0.29998228415E+02 -0.33776157069E+01  0.19909374830E+02  0.36161930290E+02  0.51100000000E-03 0.  1.
        -12    1    4    4    0    0  0.44839562841E+01  0.32479839889E+01  0.10413091242E+02  0.11793546251E+02  0.00000000000E+00 0.  1.
</event>
<event>
 8    1  0.1265908E-006  0.9118800E+02  0.7816164E-02  0.1184000E+00
        -11   -1    0    0    0    0  0.00000000000E+00  0.00000000000E+00  0.45593999997E+02  0.45594000000E+02  0.51100000000E-03 0. -1.
         11   -1    0    0    0    0 -0.00000000000E+00 -0.00000000000E+00 -0.45593999997E+02  0.45594000000E+02  0.51100000000E-03 0.  1.
         23    2    1    2    0    0 -0.88817841970E-15  0.00000000000E+00  0.71054273576E-14  0.91188000000E+02  0.91188000000E+02 0.  0.
    9900012    2    3    3    0    0 -0.76841090766E+01  0.49111449060E+01  0.35673731082E+02  0.54367082495E+02  0.39999996163E+02 0.  0.
        -12    1    3    3    0    0  0.76841090766E+01 -0.49111449060E+01 -0.35673731082E+02  0.36820917505E+02  0.00000000000E+00 0.  1.
         11    1    4    4    0    0 -0.49214248136E+01  0.10734489144E+01  0.69080072549E+00  0.50842817262E+01  0.51100000000E-03 0. -1.
        -11    1    4    4    0    0 -0.33687392268E+00 -0.12097939459E+02  0.30097225516E+02  0.32439429823E+02  0.51100000000E-03 0.  1.
        -12    1    4    4    0    0 -0.24258103403E+01  0.15935635451E+02  0.48857048405E+01  0.16843370946E+02  0.00000000000E+00 0.  1.
</event>
<event>
 8    1  0.1265908E-006  0.9118800E+02  0.7816164E-02  0.1184000E+00
        -11   -1    0    0    0    0  0.00000000000E+00  0.00000000000E+00  0.45593999997E+02  0.45594000000E+02  0.51100000000E-03 0.  1.
         11   -1    0    0    0    0 -0.00000000000E+00 -0.00000000000E+00 -0.45593999997E+02  0.45594000000E+02  0.51100000000E-03 0. -1.
         23    2    1    2    0    0  0.00000000000E+00  0.00000000000E+00 -0.35527136788E-14  0.91188000000E+02  0.91188000000E+02 0.  0.
    9900012    2    3    3    0    0 -0.17071944952E+02  0.16161180758E+02  0.28339811871E+02  0.54367081967E+02  0.39999994960E+02 0.  0.
         12    1    3    3    0    0  0.17071944952E+02 -0.16161180758E+02 -0.28339811871E+02  0.36820918033E+02  0.00000000000E+00 0. -1.
         11    1    4    4    0    0 -0.89337276442E+01  0.10060831963E+02  0.13455028187E+02  0.19028126896E+02  0.51100000000E-03 0. -1.
        -11    1    4    4    0    0 -0.15928968403E+02  0.11653756463E+02  0.28140878356E+01  0.19936428083E+02  0.51100000000E-03 0.  1.
        -12    1    4    4    0    0  0.77907510953E+01 -0.55534076680E+01  0.12070695848E+02  0.15402526988E+02  0.00000000000E+00 0.  1.
</event>
<event>
 8    1  0.1265908E-006  0.9118800E+02  0.7816164E-02  0.1184000E+00
        -11   -1    0    0    0    0  0.00000000000E+00  0.00000000000E+00  0.45593999997E+02  0.45594000000E+02  0.51100000000E-03 0. -1.
         11   -1    0    0    0    0 -0.00000000000E+00 -0.00000000000E+00 -0.45593999997E+02  0.45594000000E+02  0.51100000000E-03 0.  1.
         23    2    1    2    0    0  0.00000000000E+00  0.35527136788E-14  0.00000000000E+00  0.91188000000E+02  0.91188000000E+02 0.  0.
    9900012    2    3    3    0    0  0.98684557209E+01 -0.31153068033E+02 -0.16967091026E+02  0.54367051559E+02  0.39999925639E+02 0.  0.
         12    1    3    3    0    0 -0.98684557209E+01  0.31153068033E+02  0.16967091026E+02  0.36820948441E+02  0.00000000000E+00 0. -1.
         11    1    4    4    0    0  0.19487309341E+02 -0.26011750951E+02 -0.13694573307E+01  0.32530629052E+02  0.51100000000E-03 0. -1.
        -11    1    4    4    0    0 -0.27842940327E+01  0.33284512780E+01 -0.36040977387E+01  0.56409575376E+01  0.51100000000E-03 0.  1.
         12    1    4    4    0    0 -0.68345595872E+01 -0.84697683605E+01 -0.11993535957E+02  0.16195464969E+02  0.00000000000E+00 0. -1.
</event>
<event>
 8    1  0.1265908E-006  0.9118800E+02  0.7816164E-02  0.1184000E+00
        -11   -1    0    0    0    0  0.00000000000E+00  0.00000000000E+00  0.45593999997E+02  0.45594000000E+02  0.51100000000E-03 0.  1.
         11   -1    0    0    0    0 -0.00000000000E+00 -0.00000000000E+00 -0.45593999997E+02  0.45594000000E+02  0.51100000000E-03 0. -1.
         23    2    1    2    0    0 -0.35527136788E-14  0.00000000000E+00  0.00000000000E+00  0.91188000000E+02  0.91188000000E+02 0.  0.
    9900012    2    3    3    0    0 -0.21626347308E+02 -0.29574602974E+02  0.36640063458E+01  0.54367068705E+02  0.39999964726E+02 0.  0.
        -12    1    3    3    0    0  0.21626347308E+02  0.29574602974E+02 -0.36640063458E+01  0.36820931295E+02  0.00000000000E+00 0.  1.
         11    1    4    4    0    0 -0.79368176986E+01 -0.56712026997E-01  0.69142560367E+00  0.79670798327E+01  0.51100000000E-03 0. -1.
        -11    1    4    4    0    0  0.99041573289E+00 -0.31330565448E+02  0.38543485424E+01  0.31582293419E+02  0.51100000000E-03 0.  1.
        -12    1    4    4    0    0 -0.14679945342E+02  0.18126745014E+01 -0.88176780027E+00  0.14817695453E+02  0.00000000000E+00 0.  1.
</event>
<event>
 8    1  0.1265908E-006  0.9118800E+02  0.7816164E-02  0.1184000E+00
        -11   -1    0    0    0    0  0.00000000000E+00  0.00000000000E+00  0.45593999997E+02  0.45594000000E+02  0.51100000000E-03 0.  1.
         11   -1    0    0    0    0 -0.00000000000E+00 -0.00000000000E+00 -0.45593999997E+02  0.45594000000E+02  0.51100000000E-03 0. -1.
         23    2    1    2    0    0  0.00000000000E+00 -0.88817841970E-15  0.00000000000E+00  0.91188000000E+02  0.91188000000E+02 0.  0.
    9900012    2    3    3    0    0  0.20872014671E+02 -0.58566825955E+01 -0.29763039249E+02  0.54367078871E+02  0.39999987903E+02 0.  0.
        -12    1    3    3    0    0 -0.20872014671E+02  0.58566825955E+01  0.29763039249E+02  0.36820921129E+02  0.00000000000E+00 0.  1.
         11    1    4    4    0    0  0.13360869507E+02 -0.31141404702E+01 -0.19078852064E+02  0.23499219161E+02  0.51100000000E-03 0. -1.
        -11    1    4    4    0    0 -0.96582937155E+01 -0.61492551901E+01 -0.39187078259E+01  0.12101745666E+02  0.51100000000E-03 0.  1.
        -12    1    4    4    0    0  0.17169438880E+02  0.34067130648E+01 -0.67654793589E+01  0.18766114044E+02  0.00000000000E+00 0.  1.
</event>
<event>
 8    1  0.1265908E-006  0.9118800E+02  0.7816164E-02  0.1184000E+00
        -11   -1    0    0    0    0  0.00000000000E+00  0.00000000000E+00  0.45593999997E+02  0.45594000000E+02  0.51100000000E-03 0.  1.
         11   -1    0    0    0    0 -0.00000000000E+00 -0.00000000000E+00 -0.45593999997E+02  0.45594000000E+02  0.51100000000E-03 0. -1.
         23    2    1    2    0    0  0.00000000000E+00  0.00000000000E+00  0.00000000000E+00  0.91188000000E+02  0.91188000000E+02 0.  0.
    9900012    2    3    3    0    0  0.90663259416E+01 -0.34252691218E+02 -0.10016749738E+02  0.54367076640E+02  0.39999982816E+02 0.  0.
        -12    1    3    3    0    0 -0.90663259416E+01  0.34252691218E+02  0.10016749738E+02  0.36820923360E+02  0.00000000000E+00 0.  1.
         11    1    4    4    0    0  0.70204556785E+01 -0.19981119310E+02 -0.14377967630E+02  0.25598005396E+02  0.51100000000E-03 0. -1.
        -11    1    4    4    0    0 -0.10181011401E+01 -0.20984893759E+02  0.24944178078E+01  0.21157136301E+02  0.51100000000E-03 0.  1.
        -12    1    4    4    0    0  0.30639714032E+01  0.67133218504E+01  0.18668000838E+01  0.76119349432E+01  0.00000000000E+00 0.  1.
</event>
<event>
 8    1  0.1265908E-006  0.9118800E+02  0.7816164E-02  0.1184000E+00
        -11   -1    0    0    0    0  0.00000000000E+00  0.00000000000E+00  0.45593999997E+02  0.45594000000E+02  0.51100000000E-03 0.  1.
         11   -1    0    0    0    0 -0.00000000000E+00 -0.00000000000E+00 -0.45593999997E+02  0.45594000000E+02  0.51100000000E-03 0. -1.
         23    2    1    2    0    0  0.00000000000E+00  0.17763568394E-14  0.35527136788E-14  0.91188000000E+02  0.91188000000E+02 0.  0.
    9900012    2    3    3    0    0 -0.18919171699E+02 -0.13475344401E+02  0.28570289029E+02  0.54367063297E+02  0.39999952398E+02 0.  0.
         12    1    3    3    0    0  0.18919171699E+02  0.13475344401E+02 -0.28570289029E+02  0.36820936703E+02  0.00000000000E+00 0. -1.
         11    1    4    4    0    0 -0.15349961233E+01  0.51232651592E+01 -0.35430878604E+01  0.64154135360E+01  0.51100000000E-03 0. -1.
        -11    1    4    4    0    0 -0.21773908418E+02 -0.20255991015E+02  0.31325636011E+02  0.43193792743E+02  0.51100000000E-03 0.  1.
        -12    1    4    4    0    0  0.43897328424E+01  0.16573814549E+01  0.78774087876E+00  0.47578570183E+01  0.00000000000E+00 0.  1.
</event>
<event>
 8    1  0.1265908E-006  0.9118800E+02  0.7816164E-02  0.1184000E+00
        -11   -1    0    0    0    0  0.00000000000E+00  0.00000000000E+00  0.45593999997E+02  0.45594000000E+02  0.51100000000E-03 0.  1.
         11   -1    0    0    0    0 -0.00000000000E+00 -0.00000000000E+00 -0.45593999997E+02  0.45594000000E+02  0.51100000000E-03 0. -1.
         23    2    1    2    0    0  0.17763568394E-14 -0.17763568394E-14 -0.35527136788E-14  0.91188000000E+02  0.91188000000E+02 0.  0.
    9900012    2    3    3    0    0 -0.15992993217E+02  0.15748365007E+02  0.29188924022E+02  0.54367080430E+02  0.39999991457E+02 0.  0.
         12    1    3    3    0    0  0.15992993217E+02 -0.15748365007E+02 -0.29188924022E+02  0.36820919570E+02  0.00000000000E+00 0. -1.
         11    1    4    4    0    0  0.10595306194E+02  0.48912697864E+01  0.59672061479E+00  0.11685080625E+02  0.51100000000E-03 0. -1.
        -11    1    4    4    0    0 -0.90093387367E+01  0.79121709341E+01  0.47112501809E+01  0.12882799070E+02  0.51100000000E-03 0.  1.
         12    1    4    4    0    0 -0.17578960674E+02  0.29449242862E+01  0.23880953226E+02  0.29799200735E+02  0.00000000000E+00 0. -1.
</event>
<event>
 8    1  0.1265908E-006  0.9118800E+02  0.7816164E-02  0.1184000E+00
        -11   -1    0    0    0    0  0.00000000000E+00  0.00000000000E+00  0.45593999997E+02  0.45594000000E+02  0.51100000000E-03 0. -1.
         11   -1    0    0    0    0 -0.00000000000E+00 -0.00000000000E+00 -0.45593999997E+02  0.45594000000E+02  0.51100000000E-03 0.  1.
         23    2    1    2    0    0  0.88817841970E-15  0.17763568394E-14  0.71054273576E-14  0.91188000000E+02  0.91188000000E+02 0.  0.
    9900012    2    3    3    0    0  0.43765696320E+01 -0.11203727716E+02 -0.34800873091E+02  0.54367100441E+02  0.40000037075E+02 0.  0.
         12    1    3    3    0    0 -0.43765696320E+01  0.11203727716E+02  0.34800873091E+02  0.36820899559E+02  0.00000000000E+00 0. -1.
         11    1    4    4    0    0  0.11356903470E+02  0.27946421472E+01  0.99183230280E+00  0.11737674929E+02  0.51100000000E-03 0. -1.
        -11    1    4    4    0    0 -0.19473524986E+01 -0.53245605902E+01 -0.22383675007E+00  0.56739078583E+01  0.51100000000E-03 0.  1.
        -12    1    4    4    0    0 -0.50329813395E+01 -0.86738092725E+01 -0.35568868643E+02  0.36955517653E+02  0.00000000000E+00 0.  1.
</event>
<event>
 8    1  0.1265908E-006  0.9118800E+02  0.7816164E-02  0.1184000E+00
        -11   -1    0    0    0    0  0.00000000000E+00  0.00000000000E+00  0.45593999997E+02  0.45594000000E+02  0.51100000000E-03 0.  1.
         11   -1    0    0    0    0 -0.00000000000E+00 -0.00000000000E+00 -0.45593999997E+02  0.45594000000E+02  0.51100000000E-03 0. -1.
         23    2    1    2    0    0  0.00000000000E+00  0.00000000000E+00  0.35527136788E-14  0.91188000000E+02  0.91188000000E+02 0.  0.
    9900012    2    3    3    0    0  0.19498548620E+02  0.15429828380E+02  0.27157129229E+02  0.54367045775E+02  0.39999912452E+02 0.  0.
         12    1    3    3    0    0 -0.19498548620E+02 -0.15429828380E+02 -0.27157129229E+02  0.36820954225E+02  0.00000000000E+00 0. -1.
         11    1    4    4    0    0  0.60496849488E+01  0.14091719008E+02 -0.14390480510E+01  0.15402794945E+02  0.51100000000E-03 0. -1.
        -11    1    4    4    0    0  0.13501386654E+02  0.83899780135E+01  0.92924882080E+01  0.18412754004E+02  0.51100000000E-03 0.  1.
         12    1    4    4    0    0 -0.52522982902E-01 -0.70518686409E+01  0.19303689072E+02  0.20551496825E+02  0.00000000000E+00 0. -1.
</event>
<event>
 8    1  0.1265908E-006  0.9118800E+02  0.7816164E-02  0.1184000E+00
        -11   -1    0    0    0    0  0.00000000000E+00  0.00000000000E+00  0.45593999997E+02  0.45594000000E+02  0.51100000000E-03 0. -1.
         11   -1    0    0    0    0 -0.00000000000E+00 -0.00000000000E+00 -0.45593999997E+02  0.45594000000E+02  0.51100000000E-03 0.  1.
         23    2    1    2    0    0  0.00000000000E+00  0.00000000000E+00 -0.71054273576E-14  0.91188000000E+02  0.91188000000E+02 0.  0.
    9900012    2    3    3    0    0  0.26752504575E+02  0.12904512719E+02 -0.21761379662E+02  0.54367073961E+02  0.39999976709E+02 0.  0.
         12    1    3    3    0    0 -0.26752504575E+02 -0.12904512719E+02  0.21761379662E+02  0.36820926039E+02  0.00000000000E+00 0. -1.
         11    1    4    4    0    0  0.15495657606E+01  0.66290275441E+01 -0.67542877784E+01  0.95898677719E+01  0.51100000000E-03 0. -1.
        -11    1    4    4    0    0 -0.45292483429E+01  0.44640559710E+01  0.56672880436E+01  0.85182181408E+01  0.51100000000E-03 0.  1.
        -12    1    4    4    0    0  0.29732187157E+02  0.18114292034E+01 -0.20674379928E+02  0.36258988049E+02  0.00000000000E+00 0.  1.
</event>
<event>
 8    1  0.1265908E-006  0.9118800E+02  0.7816164E-02  0.1184000E+00
        -11   -1    0    0    0    0  0.00000000000E+00  0.00000000000E+00  0.45593999997E+02  0.45594000000E+02  0.51100000000E-03 0.  1.
         11   -1    0    0    0    0 -0.00000000000E+00 -0.00000000000E+00 -0.45593999997E+02  0.45594000000E+02  0.51100000000E-03 0. -1.
         23    2    1    2    0    0  0.17763568394E-14  0.35527136788E-14 -0.71054273576E-14  0.91188000000E+02  0.91188000000E+02 0.  0.
    9900012    2    3    3    0    0  0.10644615221E+02  0.26228515784E+02 -0.23548605810E+02  0.54367085983E+02  0.40000004115E+02 0.  0.
        -12    1    3    3    0    0 -0.10644615221E+02 -0.26228515784E+02  0.23548605810E+02  0.36820914017E+02  0.00000000000E+00 0.  1.
         11    1    4    4    0    0  0.75982079150E+01  0.22569438787E+01 -0.48994453651E-01  0.79264720973E+01  0.51100000000E-03 0. -1.
        -11    1    4    4    0    0 -0.14243116677E+02  0.12492868774E+02 -0.81321278376E+01  0.20617217230E+02  0.51100000000E-03 0.  1.
         12    1    4    4    0    0  0.17289523983E+02  0.11478703131E+02 -0.15367483519E+02  0.25823396656E+02  0.00000000000E+00 0. -1.
</event>
<event>
 8    1  0.1265908E-006  0.9118800E+02  0.7816164E-02  0.1184000E+00
        -11   -1    0    0    0    0  0.00000000000E+00  0.00000000000E+00  0.45593999997E+02  0.45594000000E+02  0.51100000000E-03 0.  1.
         11   -1    0    0    0    0 -0.00000000000E+00 -0.00000000000E+00 -0.45593999997E+02  0.45594000000E+02  0.51100000000E-03 0. -1.
         23    2    1    2    0    0  0.00000000000E+00  0.00000000000E+00  0.00000000000E+00  0.91188000000E+02  0.91188000000E+02 0.  0.
    9900012    2    3    3    0    0  0.21241913327E+02  0.26240983333E+02 -0.14695944423E+02  0.54367097369E+02  0.40000030073E+02 0.  0.
        -12    1    3    3    0    0 -0.21241913327E+02 -0.26240983333E+02  0.14695944423E+02  0.36820902631E+02  0.00000000000E+00 0.  1.
         11    1    4    4    0    0  0.24184247232E+02  0.23517057746E+02 -0.13331854057E+02  0.36272140164E+02  0.51100000000E-03 0. -1.
        -11    1    4    4    0    0  0.49086470467E+00  0.12459938828E+01  0.79483518304E+01  0.80603812562E+01  0.51100000000E-03 0.  1.
         12    1    4    4    0    0 -0.34331986104E+01  0.14779317040E+01 -0.93124421962E+01  0.10034575949E+02  0.00000000000E+00 0. -1.
</event>
<event>
 8    1  0.1265908E-006  0.9118800E+02  0.7816164E-02  0.1184000E+00
        -11   -1    0    0    0    0  0.00000000000E+00  0.00000000000E+00  0.45593999997E+02  0.45594000000E+02  0.51100000000E-03 0.  1.
         11   -1    0    0    0    0 -0.00000000000E+00 -0.00000000000E+00 -0.45593999997E+02  0.45594000000E+02  0.51100000000E-03 0. -1.
         23    2    1    2    0    0  0.00000000000E+00  0.00000000000E+00  0.00000000000E+00  0.91188000000E+02  0.91188000000E+02 0.  0.
    9900012    2    3    3    0    0 -0.20701008453E+02  0.25831698695E+02 -0.16123603390E+02  0.54367095683E+02  0.40000026228E+02 0.  0.
        -12    1    3    3    0    0  0.20701008453E+02 -0.25831698695E+02  0.16123603390E+02  0.36820904317E+02  0.00000000000E+00 0.  1.
         11    1    4    4    0    0 -0.55409546816E+01  0.17579857824E+02 -0.22664543574E+02  0.29213611821E+02  0.51100000000E-03 0. -1.
        -11    1    4    4    0    0 -0.70576876314E+01 -0.50550408774E+01  0.17704786899E+01  0.88599654642E+01  0.51100000000E-03 0.  1.
        -12    1    4    4    0    0 -0.81023661397E+01  0.13306881748E+02  0.47704614941E+01  0.16293518398E+02  0.00000000000E+00 0.  1.
</event>
<event>
 8    1  0.1265908E-006  0.9118800E+02  0.7816164E-02  0.1184000E+00
        -11   -1    0    0    0    0  0.00000000000E+00  0.00000000000E+00  0.45593999997E+02  0.45594000000E+02  0.51100000000E-03 0.  1.
         11   -1    0    0    0    0 -0.00000000000E+00 -0.00000000000E+00 -0.45593999997E+02  0.45594000000E+02  0.51100000000E-03 0. -1.
         23    2    1    2    0    0 -0.35527136788E-14  0.00000000000E+00 -0.17763568394E-14  0.91188000000E+02  0.91188000000E+02 0.  0.
    9900012    2    3    3    0    0  0.28646478816E+02  0.21686074959E+02  0.80539719152E+01  0.54367176282E+02  0.40000209969E+02 0.  0.
         12    1    3    3    0    0 -0.28646478816E+02 -0.21686074959E+02 -0.80539719152E+01  0.36820823718E+02  0.00000000000E+00 0. -1.
         11    1    4    4    0    0  0.17242059297E+01  0.34283801955E+01  0.10368573566E+02  0.11055948395E+02  0.51100000000E-03 0. -1.
        -11    1    4    4    0    0 -0.40060194318E+00 -0.39672107648E+01  0.59230753776E+01  0.71401726422E+01  0.51100000000E-03 0.  1.
        -12    1    4    4    0    0  0.27322874830E+02  0.22224905528E+02 -0.82376770287E+01  0.36171055245E+02  0.00000000000E+00 0.  1.
</event>
<event>
 8    1  0.1265908E-006  0.9118800E+02  0.7816164E-02  0.1184000E+00
        -11   -1    0    0    0    0  0.00000000000E+00  0.00000000000E+00  0.45593999997E+02  0.45594000000E+02  0.51100000000E-03 0.  1.
         11   -1    0    0    0    0 -0.00000000000E+00 -0.00000000000E+00 -0.45593999997E+02  0.45594000000E+02  0.51100000000E-03 0. -1.
         23    2    1    2    0    0  0.35527136788E-14  0.00000000000E+00 -0.35527136788E-14  0.91188000000E+02  0.91188000000E+02 0.  0.
    9900012    2    3    3    0    0 -0.24514038649E+02  0.40923755151E+01  0.27167882659E+02  0.54367089142E+02  0.40000011318E+02 0.  0.
         12    1    3    3    0    0  0.24514038649E+02 -0.40923755151E+01 -0.27167882659E+02  0.36820910858E+02  0.00000000000E+00 0. -1.
         11    1    4    4    0    0  0.12908245230E+00  0.25654628215E+01 -0.56787800236E+01  0.62327204803E+01  0.51100000000E-03 0. -1.
        -11    1    4    4    0    0 -0.76298682957E+01  0.12687148424E+02  0.14878993953E+02  0.20989594724E+02  0.51100000000E-03 0.  1.
        -12    1    4    4    0    0 -0.17013252805E+02 -0.11160235731E+02  0.17967668729E+02  0.27144773938E+02  0.00000000000E+00 0.  1.
</event>
<event>
 8    1  0.1265908E-006  0.9118800E+02  0.7816164E-02  0.1184000E+00
        -11   -1    0    0    0    0  0.00000000000E+00  0.00000000000E+00  0.45593999997E+02  0.45594000000E+02  0.51100000000E-03 0. -1.
         11   -1    0    0    0    0 -0.00000000000E+00 -0.00000000000E+00 -0.45593999997E+02  0.45594000000E+02  0.51100000000E-03 0.  1.
         23    2    1    2    0    0  0.35527136788E-14 -0.71054273576E-14  0.44408920985E-15  0.91188000000E+02  0.91188000000E+02 0.  0.
    9900012    2    3    3    0    0 -0.18524650030E+02  0.31582952530E+02 -0.38903218580E+01  0.54367079949E+02  0.39999990359E+02 0.  0.
         12    1    3    3    0    0  0.18524650030E+02 -0.31582952530E+02  0.38903218580E+01  0.36820920051E+02  0.00000000000E+00 0. -1.
         11    1    4    4    0    0 -0.18427329536E+02  0.71918048877E+01 -0.15826482165E+02  0.25333102245E+02  0.51100000000E-03 0.  1.
        -11    1    4    4    0    0 -0.43534342489E+01  0.12718922217E+02  0.92630765762E+01  0.16325684061E+02  0.51100000000E-03 0. -1.
        -12    1    4    4    0    0  0.42561137555E+01  0.11672225425E+02  0.26730837306E+01  0.12708293643E+02  0.00000000000E+00 0.  1.
</event>
<event>
 8    1  0.1265908E-006  0.9118800E+02  0.7816164E-02  0.1184000E+00
        -11   -1    0    0    0    0  0.00000000000E+00  0.00000000000E+00  0.45593999997E+02  0.45594000000E+02  0.51100000000E-03 0.  1.
         11   -1    0    0    0    0 -0.00000000000E+00 -0.00000000000E+00 -0.45593999997E+02  0.45594000000E+02  0.51100000000E-03 0. -1.
         23    2    1    2    0    0  0.00000000000E+00 -0.35527136788E-14  0.35527136788E-14  0.91188000000E+02  0.91188000000E+02 0.  0.
    9900012    2    3    3    0    0 -0.14913475853E+02 -0.27376785456E+02  0.19592832949E+02  0.54367092258E+02  0.40000018421E+02 0.  0.
         12    1    3    3    0    0  0.14913475853E+02  0.27376785456E+02 -0.19592832949E+02  0.36820907742E+02  0.00000000000E+00 0. -1.
         11    1    4    4    0    0  0.49120860330E+01 -0.53999137679E+01  0.24871023289E+01  0.77118957560E+01  0.51100000000E-03 0. -1.
        -11    1    4    4    0    0 -0.76836791720E+01  0.74562304477E+01  0.43465823140E+00  0.10715560002E+02  0.51100000000E-03 0.  1.
        -12    1    4    4    0    0 -0.12141882714E+02 -0.29433102136E+02  0.16671072389E+02  0.35939636501E+02  0.00000000000E+00 0.  1.
</event>
<event>
 8    1  0.1265908E-006  0.9118800E+02  0.7816164E-02  0.1184000E+00
        -11   -1    0    0    0    0  0.00000000000E+00  0.00000000000E+00  0.45593999997E+02  0.45594000000E+02  0.51100000000E-03 0.  1.
         11   -1    0    0    0    0 -0.00000000000E+00 -0.00000000000E+00 -0.45593999997E+02  0.45594000000E+02  0.51100000000E-03 0. -1.
         23    2    1    2    0    0 -0.17763568394E-14  0.00000000000E+00  0.00000000000E+00  0.91188000000E+02  0.91188000000E+02 0.  0.
    9900012    2    3    3    0    0 -0.10117677937E+02  0.29601839349E+02  0.19420180489E+02  0.54367085971E+02  0.40000004089E+02 0.  0.
         12    1    3    3    0    0  0.10117677937E+02 -0.29601839349E+02 -0.19420180489E+02  0.36820914029E+02  0.00000000000E+00 0. -1.
         11    1    4    4    0    0 -0.74180727684E+01  0.14358995856E+02  0.45765940698E+01  0.16797433707E+02  0.51100000000E-03 0. -1.
        -11    1    4    4    0    0 -0.16147880731E+02  0.12143559995E+02  0.11933210892E+02  0.23465328123E+02  0.51100000000E-03 0.  1.
         12    1    4    4    0    0  0.13448275562E+02  0.30992834977E+01  0.29103755273E+01  0.14104324142E+02  0.00000000000E+00 0. -1.
</event>
<event>
 8    1  0.1265908E-006  0.9118800E+02  0.7816164E-02  0.1184000E+00
        -11   -1    0    0    0    0  0.00000000000E+00  0.00000000000E+00  0.45593999997E+02  0.45594000000E+02  0.51100000000E-03 0. -1.
         11   -1    0    0    0    0 -0.00000000000E+00 -0.00000000000E+00 -0.45593999997E+02  0.45594000000E+02  0.51100000000E-03 0.  1.
         23    2    1    2    0    0  0.17763568394E-14  0.00000000000E+00 -0.88817841970E-15  0.91188000000E+02  0.91188000000E+02 0.  0.
    9900012    2    3    3    0    0  0.56993152046E+01  0.35808168617E+02 -0.64083403339E+01  0.54367164060E+02  0.40000182107E+02 0.  0.
        -12    1    3    3    0    0 -0.56993152046E+01 -0.35808168617E+02  0.64083403339E+01  0.36820835940E+02  0.00000000000E+00 0.  1.
         11    1    4    4    0    0 -0.14404177856E+02  0.27686375202E+02 -0.61296745016E+00  0.31215243727E+02  0.51100000000E-03 0. -1.
        -11    1    4    4    0    0  0.14056916686E+02  0.83741564573E+01 -0.43142961553E+01  0.16921482047E+02  0.51100000000E-03 0.  1.
         12    1    4    4    0    0  0.60465763747E+01 -0.25236304256E+00 -0.14810767284E+01  0.62304382860E+01  0.00000000000E+00 0. -1.
</event>
<event>
 8    1  0.1265908E-006  0.9118800E+02  0.7816164E-02  0.1184000E+00
        -11   -1    0    0    0    0  0.00000000000E+00  0.00000000000E+00  0.45593999997E+02  0.45594000000E+02  0.51100000000E-03 0. -1.
         11   -1    0    0    0    0 -0.00000000000E+00 -0.00000000000E+00 -0.45593999997E+02  0.45594000000E+02  0.51100000000E-03 0.  1.
         23    2    1    2    0    0  0.00000000000E+00  0.00000000000E+00  0.00000000000E+00  0.91188000000E+02  0.91188000000E+02 0.  0.
    9900012    2    3    3    0    0  0.14624877865E+02  0.26664366202E+02  0.20758257275E+02  0.54367072220E+02  0.39999972740E+02 0.  0.
        -12    1    3    3    0    0 -0.14624877865E+02 -0.26664366202E+02 -0.20758257275E+02  0.36820927780E+02  0.00000000000E+00 0.  1.
         11    1    4    4    0    0  0.16193854981E+02  0.14628392449E+02  0.24504657436E+02  0.32813244904E+02  0.51100000000E-03 0. -1.
        -11    1    4    4    0    0  0.31709057487E+01  0.14480622552E+02 -0.56889533275E+01  0.15877885973E+02  0.51100000000E-03 0.  1.
         12    1    4    4    0    0 -0.47398828643E+01 -0.24446487997E+01  0.19425531657E+01  0.56759413424E+01  0.00000000000E+00 0. -1.
</event>
<event>
 8    1  0.1265908E-006  0.9118800E+02  0.7816164E-02  0.1184000E+00
        -11   -1    0    0    0    0  0.00000000000E+00  0.00000000000E+00  0.45593999997E+02  0.45594000000E+02  0.51100000000E-03 0.  1.
         11   -1    0    0    0    0 -0.00000000000E+00 -0.00000000000E+00 -0.45593999997E+02  0.45594000000E+02  0.51100000000E-03 0. -1.
         23    2    1    2    0    0  0.00000000000E+00  0.00000000000E+00  0.00000000000E+00  0.91188000000E+02  0.91188000000E+02 0.  0.
    9900012    2    3    3    0    0 -0.19731316211E+02  0.79136994066E+00  0.31077806474E+02  0.54367066266E+02  0.39999959166E+02 0.  0.
         12    1    3    3    0    0  0.19731316211E+02 -0.79136994066E+00 -0.31077806474E+02  0.36820933734E+02  0.00000000000E+00 0. -1.
         11    1    4    4    0    0  0.85873733281E+01 -0.94281763709E+01  0.95387871582E+01  0.15925512584E+02  0.51100000000E-03 0. -1.
        -11    1    4    4    0    0 -0.79503179147E+01  0.35274242941E+01  0.12374414816E+02  0.15125356836E+02  0.51100000000E-03 0.  1.
         12    1    4    4    0    0 -0.20368371624E+02  0.66921220174E+01  0.91646044998E+01  0.23316196846E+02  0.00000000000E+00 0. -1.
</event>
<event>
 8    1  0.1265908E-006  0.9118800E+02  0.7816164E-02  0.1184000E+00
        -11   -1    0    0    0    0  0.00000000000E+00  0.00000000000E+00  0.45593999997E+02  0.45594000000E+02  0.51100000000E-03 0. -1.
         11   -1    0    0    0    0 -0.00000000000E+00 -0.00000000000E+00 -0.45593999997E+02  0.45594000000E+02  0.51100000000E-03 0.  1.
         23    2    1    2    0    0 -0.44408920985E-15  0.71054273576E-14 -0.22204460493E-15  0.91188000000E+02  0.91188000000E+02 0.  0.
    9900012    2    3    3    0    0  0.35213458918E+01 -0.36615483826E+02 -0.16385217321E+01  0.54367105305E+02  0.40000048164E+02 0.  0.
         12    1    3    3    0    0 -0.35213458918E+01  0.36615483826E+02  0.16385217321E+01  0.36820894695E+02  0.00000000000E+00 0. -1.
         11    1    4    4    0    0 -0.43884632911E+01 -0.10641290283E+02  0.36505362670E+01  0.12075681523E+02  0.51100000000E-03 0. -1.
        -11    1    4    4    0    0  0.95059969884E+00 -0.29252075142E+02  0.47432029750E+01  0.29649376294E+02  0.51100000000E-03 0.  1.
        -12    1    4    4    0    0  0.69592094841E+01  0.32778815998E+01 -0.10032260974E+02  0.12642047488E+02  0.00000000000E+00 0.  1.
</event>
<event>
 8    1  0.1265908E-006  0.9118800E+02  0.7816164E-02  0.1184000E+00
        -11   -1    0    0    0    0  0.00000000000E+00  0.00000000000E+00  0.45593999997E+02  0.45594000000E+02  0.51100000000E-03 0.  1.
         11   -1    0    0    0    0 -0.00000000000E+00 -0.00000000000E+00 -0.45593999997E+02  0.45594000000E+02  0.51100000000E-03 0. -1.
         23    2    1    2    0    0  0.00000000000E+00  0.35527136788E-14 -0.35527136788E-14  0.91188000000E+02  0.91188000000E+02 0.  0.
    9900012    2    3    3    0    0 -0.33762264753E+01 -0.21958235067E+02  0.29363537183E+02  0.54367077844E+02  0.39999985562E+02 0.  0.
         12    1    3    3    0    0  0.33762264753E+01  0.21958235067E+02 -0.29363537183E+02  0.36820922156E+02  0.00000000000E+00 0. -1.
         11    1    4    4    0    0 -0.38310740184E+01 -0.25212960274E+02  0.27115490418E+02  0.37223921271E+02  0.51100000000E-03 0.  1.
        -11    1    4    4    0    0 -0.37082178791E+01  0.28154214428E+01  0.84575224038E+01  0.96543856983E+01  0.51100000000E-03 0. -1.
        -12    1    4    4    0    0  0.41630654222E+01  0.43930376431E+00 -0.62094756387E+01  0.74887708748E+01  0.00000000000E+00 0.  1.
</event>
<event>
 8    1  0.1265908E-006  0.9118800E+02  0.7816164E-02  0.1184000E+00
        -11   -1    0    0    0    0  0.00000000000E+00  0.00000000000E+00  0.45593999997E+02  0.45594000000E+02  0.51100000000E-03 0. -1.
         11   -1    0    0    0    0 -0.00000000000E+00 -0.00000000000E+00 -0.45593999997E+02  0.45594000000E+02  0.51100000000E-03 0.  1.
         23    2    1    2    0    0 -0.35527136788E-14  0.35527136788E-14 -0.35527136788E-14  0.91188000000E+02  0.91188000000E+02 0.  0.
    9900012    2    3    3    0    0  0.21207038327E+02 -0.23606011936E+02  0.18676123133E+02  0.54367084077E+02  0.39999999770E+02 0.  0.
        -12    1    3    3    0    0 -0.21207038327E+02  0.23606011936E+02 -0.18676123133E+02  0.36820915923E+02  0.00000000000E+00 0.  1.
         11    1    4    4    0    0  0.72711597119E+00 -0.10611041945E+02  0.18447769329E+02  0.21294203490E+02  0.51100000000E-03 0.  1.
        -11    1    4    4    0    0 -0.31580005963E+01  0.24792734601E+01  0.24992371101E+01  0.47292653816E+01  0.51100000000E-03 0. -1.
         12    1    4    4    0    0  0.23637922953E+02 -0.15474243451E+02 -0.22708833067E+01  0.28343615205E+02  0.00000000000E+00 0. -1.
</event>
<event>
 8    1  0.1265908E-006  0.9118800E+02  0.7816164E-02  0.1184000E+00
        -11   -1    0    0    0    0  0.00000000000E+00  0.00000000000E+00  0.45593999997E+02  0.45594000000E+02  0.51100000000E-03 0. -1.
         11   -1    0    0    0    0 -0.00000000000E+00 -0.00000000000E+00 -0.45593999997E+02  0.45594000000E+02  0.51100000000E-03 0.  1.
         23    2    1    2    0    0  0.00000000000E+00  0.00000000000E+00 -0.35527136788E-14  0.91188000000E+02  0.91188000000E+02 0.  0.
    9900012    2    3    3    0    0  0.29164191762E+01 -0.25884098027E+02 -0.26024749184E+02  0.54367087442E+02  0.40000007442E+02 0.  0.
         12    1    3    3    0    0 -0.29164191762E+01  0.25884098027E+02  0.26024749184E+02  0.36820912558E+02  0.00000000000E+00 0. -1.
         11    1    4    4    0    0  0.34191697528E+00 -0.17656252438E+02 -0.26010015235E+01  0.17850080295E+02  0.51100000000E-03 0.  1.
        -11    1    4    4    0    0  0.12265105421E+02  0.15704519007E+01 -0.46114938893E+01  0.13197159025E+02  0.51100000000E-03 0. -1.
         12    1    4    4    0    0 -0.96906032205E+01 -0.97982974896E+01 -0.18812253772E+02  0.23319848122E+02  0.00000000000E+00 0. -1.
</event>
<event>
 8    1  0.1265908E-006  0.9118800E+02  0.7816164E-02  0.1184000E+00
        -11   -1    0    0    0    0  0.00000000000E+00  0.00000000000E+00  0.45593999997E+02  0.45594000000E+02  0.51100000000E-03 0.  1.
         11   -1    0    0    0    0 -0.00000000000E+00 -0.00000000000E+00 -0.45593999997E+02  0.45594000000E+02  0.51100000000E-03 0. -1.
         23    2    1    2    0    0  0.00000000000E+00  0.00000000000E+00 -0.17763568394E-14  0.91188000000E+02  0.91188000000E+02 0.  0.
    9900012    2    3    3    0    0 -0.73858964391E+01  0.34747072222E+02 -0.96886079982E+01  0.54367087204E+02  0.40000006898E+02 0.  0.
         12    1    3    3    0    0  0.73858964391E+01 -0.34747072222E+02  0.96886079982E+01  0.36820912796E+02  0.00000000000E+00 0. -1.
         11    1    4    4    0    0 -0.16697042512E+02  0.21300390033E+02  0.64497682214E+01  0.27822605100E+02  0.51100000000E-03 0. -1.
        -11    1    4    4    0    0  0.43910102717E+01  0.24505328520E+01  0.14433503942E+01  0.52315717606E+01  0.51100000000E-03 0.  1.
         12    1    4    4    0    0  0.49201358013E+01  0.10996149337E+02 -0.17581726614E+02  0.21312910343E+02  0.00000000000E+00 0. -1.
</event>
<event>
 8    1  0.1265908E-006  0.9118800E+02  0.7816164E-02  0.1184000E+00
        -11   -1    0    0    0    0  0.00000000000E+00  0.00000000000E+00  0.45593999997E+02  0.45594000000E+02  0.51100000000E-03 0. -1.
         11   -1    0    0    0    0 -0.00000000000E+00 -0.00000000000E+00 -0.45593999997E+02  0.45594000000E+02  0.51100000000E-03 0.  1.
         23    2    1    2    0    0 -0.13322676296E-14 -0.71054273576E-14  0.00000000000E+00  0.91188000000E+02  0.91188000000E+02 0.  0.
    9900012    2    3    3    0    0  0.13662258743E+01  0.36136142726E+02  0.69348701734E+01  0.54367084632E+02  0.40000001035E+02 0.  0.
         12    1    3    3    0    0 -0.13662258743E+01 -0.36136142726E+02 -0.69348701734E+01  0.36820915368E+02  0.00000000000E+00 0. -1.
         11    1    4    4    0    0 -0.23484820130E+01  0.74403501071E+01  0.95054694557E+01  0.12297484593E+02  0.51100000000E-03 0. -1.
        -11    1    4    4    0    0 -0.94599616883E+01  0.12259734577E+02  0.91271828321E+01  0.17974911230E+02  0.51100000000E-03 0.  1.
        -12    1    4    4    0    0  0.13174669576E+02  0.16436058042E+02 -0.11697782114E+02  0.24094688808E+02  0.00000000000E+00 0.  1.
</event>
<event>
 8    1  0.1265908E-006  0.9118800E+02  0.7816164E-02  0.1184000E+00
        -11   -1    0    0    0    0  0.00000000000E+00  0.00000000000E+00  0.45593999997E+02  0.45594000000E+02  0.51100000000E-03 0.  1.
         11   -1    0    0    0    0 -0.00000000000E+00 -0.00000000000E+00 -0.45593999997E+02  0.45594000000E+02  0.51100000000E-03 0. -1.
         23    2    1    2    0    0  0.00000000000E+00  0.00000000000E+00  0.35527136788E-14  0.91188000000E+02  0.91188000000E+02 0.  0.
    9900012    2    3    3    0    0 -0.19841937754E+02  0.96181440453E+01 -0.29488449103E+02  0.54367084488E+02  0.40000000706E+02 0.  0.
        -12    1    3    3    0    0  0.19841937754E+02 -0.96181440453E+01  0.29488449103E+02  0.36820915512E+02  0.00000000000E+00 0.  1.
         11    1    4    4    0    0  0.19657065606E+01 -0.19243798325E+01 -0.14588832283E+02  0.14845917542E+02  0.51100000000E-03 0. -1.
        -11    1    4    4    0    0 -0.12105272377E+02  0.19974765545E+02 -0.12333723563E+02  0.26413057663E+02  0.51100000000E-03 0.  1.
         12    1    4    4    0    0 -0.97023719376E+01 -0.84322416676E+01 -0.25658932566E+01  0.13108109282E+02  0.00000000000E+00 0. -1.
</event>
<event>
 8    1  0.1265908E-006  0.9118800E+02  0.7816164E-02  0.1184000E+00
        -11   -1    0    0    0    0  0.00000000000E+00  0.00000000000E+00  0.45593999997E+02  0.45594000000E+02  0.51100000000E-03 0.  1.
         11   -1    0    0    0    0 -0.00000000000E+00 -0.00000000000E+00 -0.45593999997E+02  0.45594000000E+02  0.51100000000E-03 0. -1.
         23    2    1    2    0    0  0.00000000000E+00  0.00000000000E+00  0.00000000000E+00  0.91188000000E+02  0.91188000000E+02 0.  0.
    9900012    2    3    3    0    0  0.27128692485E+02 -0.21649671009E+01 -0.24801743873E+02  0.54367088311E+02  0.40000009423E+02 0.  0.
        -12    1    3    3    0    0 -0.27128692485E+02  0.21649671009E+01  0.24801743873E+02  0.36820911689E+02  0.00000000000E+00 0.  1.
         11    1    4    4    0    0  0.19201296570E+02 -0.59069274585E+00  0.47021474579E+01  0.19777484644E+02  0.51100000000E-03 0.  1.
        -11    1    4    4    0    0 -0.50025009061E+01 -0.49003584921E+00 -0.94613018298E+01  0.10713607377E+02  0.51100000000E-03 0. -1.
        -12    1    4    4    0    0  0.12929896821E+02 -0.10842385059E+01 -0.20042589501E+02  0.23875996290E+02  0.00000000000E+00 0.  1.
</event>
<event>
 8    1  0.1265908E-006  0.9118800E+02  0.7816164E-02  0.1184000E+00
        -11   -1    0    0    0    0  0.00000000000E+00  0.00000000000E+00  0.45593999997E+02  0.45594000000E+02  0.51100000000E-03 0. -1.
         11   -1    0    0    0    0 -0.00000000000E+00 -0.00000000000E+00 -0.45593999997E+02  0.45594000000E+02  0.51100000000E-03 0.  1.
         23    2    1    2    0    0 -0.66613381478E-15  0.44408920985E-15  0.00000000000E+00  0.91188000000E+02  0.91188000000E+02 0.  0.
    9900012    2    3    3    0    0 -0.12274055285E+01 -0.35677556614E+01  0.36627166782E+02  0.54367017513E+02  0.39999848025E+02 0.  0.
        -12    1    3    3    0    0  0.12274055285E+01  0.35677556614E+01 -0.36627166782E+02  0.36820982487E+02  0.00000000000E+00 0.  1.
         11    1    4    4    0    0  0.62545922177E+01  0.23821024464E+01  0.37044453209E+02  0.37644200745E+02  0.51100000000E-03 0. -1.
        -11    1    4    4    0    0 -0.17750164332E+01  0.12007517813E+01 -0.57478444828E+01  0.61343463090E+01  0.51100000000E-03 0.  1.
         12    1    4    4    0    0 -0.57069813130E+01 -0.71506098891E+01  0.53305580559E+01  0.10588470460E+02  0.00000000000E+00 0. -1.
</event>
<event>
 8    1  0.1265908E-006  0.9118800E+02  0.7816164E-02  0.1184000E+00
        -11   -1    0    0    0    0  0.00000000000E+00  0.00000000000E+00  0.45593999997E+02  0.45594000000E+02  0.51100000000E-03 0.  1.
         11   -1    0    0    0    0 -0.00000000000E+00 -0.00000000000E+00 -0.45593999997E+02  0.45594000000E+02  0.51100000000E-03 0. -1.
         23    2    1    2    0    0  0.00000000000E+00  0.00000000000E+00 -0.44408920985E-15  0.91188000000E+02  0.91188000000E+02 0.  0.
    9900012    2    3    3    0    0 -0.62010340555E+01  0.36174860501E+02  0.29505773390E+01  0.54367092050E+02  0.40000017947E+02 0.  0.
         12    1    3    3    0    0  0.62010340555E+01 -0.36174860501E+02 -0.29505773390E+01  0.36820907950E+02  0.00000000000E+00 0. -1.
         11    1    4    4    0    0  0.12680624209E+02  0.84628725931E+01 -0.42207776818E+01  0.15818767568E+02  0.51100000000E-03 0. -1.
        -11    1    4    4    0    0 -0.95815475969E+01  0.18768293937E+02 -0.40385497300E+01  0.21456113251E+02  0.51100000000E-03 0.  1.
        -12    1    4    4    0    0 -0.93001106676E+01  0.89436939712E+01  0.11209904751E+02  0.17092211232E+02  0.00000000000E+00 0.  1.
</event>
<event>
 8    1  0.1265908E-006  0.9118800E+02  0.7816164E-02  0.1184000E+00
        -11   -1    0    0    0    0  0.00000000000E+00  0.00000000000E+00  0.45593999997E+02  0.45594000000E+02  0.51100000000E-03 0.  1.
         11   -1    0    0    0    0 -0.00000000000E+00 -0.00000000000E+00 -0.45593999997E+02  0.45594000000E+02  0.51100000000E-03 0. -1.
         23    2    1    2    0    0  0.00000000000E+00 -0.22204460493E-15  0.00000000000E+00  0.91188000000E+02  0.91188000000E+02 0.  0.
    9900012    2    3    3    0    0  0.32794196583E+02  0.33431999942E+00 -0.16739435162E+02  0.54367084898E+02  0.40000001642E+02 0.  0.
        -12    1    3    3    0    0 -0.32794196583E+02 -0.33431999942E+00  0.16739435162E+02  0.36820915102E+02  0.00000000000E+00 0.  1.
         11    1    4    4    0    0  0.12123726612E+02 -0.11889244863E+01 -0.25731708318E+02  0.28469617167E+02  0.51100000000E-03 0. -1.
        -11    1    4    4    0    0  0.69701527253E+01 -0.55088031729E+01  0.34613688202E+01  0.95347268331E+01  0.51100000000E-03 0.  1.
         12    1    4    4    0    0  0.13700317246E+02  0.70320476585E+01  0.55309043359E+01  0.16362740897E+02  0.00000000000E+00 0. -1.
</event>
<event>
 8    1  0.1265908E-006  0.9118800E+02  0.7816164E-02  0.1184000E+00
        -11   -1    0    0    0    0  0.00000000000E+00  0.00000000000E+00  0.45593999997E+02  0.45594000000E+02  0.51100000000E-03 0. -1.
         11   -1    0    0    0    0 -0.00000000000E+00 -0.00000000000E+00 -0.45593999997E+02  0.45594000000E+02  0.51100000000E-03 0.  1.
         23    2    1    2    0    0  0.71054273576E-14  0.00000000000E+00  0.17763568394E-14  0.91188000000E+02  0.91188000000E+02 0.  0.
    9900012    2    3    3    0    0  0.32535708288E+02  0.10512246170E+02  0.13663826242E+02  0.54367085007E+02  0.40000001891E+02 0.  0.
         12    1    3    3    0    0 -0.32535708288E+02 -0.10512246170E+02 -0.13663826242E+02  0.36820914993E+02  0.00000000000E+00 0. -1.
         11    1    4    4    0    0  0.22030719467E+01 -0.72186005576E+01 -0.33410799621E+01  0.82537588763E+01  0.51100000000E-03 0. -1.
        -11    1    4    4    0    0  0.44219060338E+01  0.84765755010E+01  0.15929760076E+02  0.18578558651E+02  0.51100000000E-03 0.  1.
        -12    1    4    4    0    0  0.25910730307E+02  0.92542712264E+01  0.10751461282E+01  0.27534767480E+02  0.00000000000E+00 0.  1.
</event>
<event>
 8    1  0.1265908E-006  0.9118800E+02  0.7816164E-02  0.1184000E+00
        -11   -1    0    0    0    0  0.00000000000E+00  0.00000000000E+00  0.45593999997E+02  0.45594000000E+02  0.51100000000E-03 0.  1.
         11   -1    0    0    0    0 -0.00000000000E+00 -0.00000000000E+00 -0.45593999997E+02  0.45594000000E+02  0.51100000000E-03 0. -1.
         23    2    1    2    0    0  0.00000000000E+00 -0.17763568394E-14  0.35527136788E-14  0.91188000000E+02  0.91188000000E+02 0.  0.
    9900012    2    3    3    0    0  0.19957388615E+02 -0.55462922460E+01  0.30442100051E+02  0.54367079675E+02  0.39999989736E+02 0.  0.
         12    1    3    3    0    0 -0.19957388615E+02  0.55462922460E+01 -0.30442100051E+02  0.36820920325E+02  0.00000000000E+00 0. -1.
         11    1    4    4    0    0  0.22304055552E+01  0.97768588512E+00  0.68506227844E+00  0.25298002326E+01  0.51100000000E-03 0. -1.
        -11    1    4    4    0    0  0.15546831494E+02  0.14243528790E+02  0.18830947936E+02  0.28269890031E+02  0.51100000000E-03 0.  1.
         12    1    4    4    0    0  0.21801515657E+01 -0.20767506921E+02  0.10926089837E+02  0.23567389412E+02  0.00000000000E+00 0. -1.
</event>
<event>
 8    1  0.1265908E-006  0.9118800E+02  0.7816164E-02  0.1184000E+00
        -11   -1    0    0    0    0  0.00000000000E+00  0.00000000000E+00  0.45593999997E+02  0.45594000000E+02  0.51100000000E-03 0. -1.
         11   -1    0    0    0    0 -0.00000000000E+00 -0.00000000000E+00 -0.45593999997E+02  0.45594000000E+02  0.51100000000E-03 0.  1.
         23    2    1    2    0    0  0.00000000000E+00  0.88817841970E-15  0.00000000000E+00  0.91188000000E+02  0.91188000000E+02 0.  0.
    9900012    2    3    3    0    0  0.27555120955E+02  0.25869854870E+01  0.24285823335E+02  0.54367103762E+02  0.40000044646E+02 0.  0.
        -12    1    3    3    0    0 -0.27555120955E+02 -0.25869854870E+01 -0.24285823335E+02  0.36820896238E+02  0.00000000000E+00 0.  1.
         11    1    4    4    0    0  0.31175109455E+02  0.94384532210E+00  0.15239634564E+02  0.34713466485E+02  0.51100000000E-03 0. -1.
        -11    1    4    4    0    0 -0.30307274691E+01 -0.76018742880E+01  0.43136248308E+01  0.92510086544E+01  0.51100000000E-03 0.  1.
         12    1    4    4    0    0 -0.58926103138E+00  0.92450144529E+01  0.47325639404E+01  0.10402628622E+02  0.00000000000E+00 0. -1.
</event>
<event>
 8    1  0.1265908E-006  0.9118800E+02  0.7816164E-02  0.1184000E+00
        -11   -1    0    0    0    0  0.00000000000E+00  0.00000000000E+00  0.45593999997E+02  0.45594000000E+02  0.51100000000E-03 0.  1.
         11   -1    0    0    0    0 -0.00000000000E+00 -0.00000000000E+00 -0.45593999997E+02  0.45594000000E+02  0.51100000000E-03 0. -1.
         23    2    1    2    0    0  0.00000000000E+00 -0.35527136788E-14  0.35527136788E-14  0.91188000000E+02  0.91188000000E+02 0.  0.
    9900012    2    3    3    0    0  0.81481344126E+01 -0.24291815474E+02 -0.26444202197E+02  0.54367079001E+02  0.39999988198E+02 0.  0.
        -12    1    3    3    0    0 -0.81481344126E+01  0.24291815474E+02  0.26444202197E+02  0.36820920999E+02  0.00000000000E+00 0.  1.
         11    1    4    4    0    0  0.57380266429E+01 -0.11561682446E+02  0.66507220443E+01  0.14519970892E+02  0.51100000000E-03 0. -1.
        -11    1    4    4    0    0  0.14270384335E+01 -0.19515850563E+01  0.19895975713E+01  0.31310735666E+01  0.51100000000E-03 0.  1.
         12    1    4    4    0    0  0.98306933626E+00 -0.10778547971E+02 -0.35084521812E+02  0.36716034542E+02  0.00000000000E+00 0. -1.
</event>
<event>
 8    1  0.1265908E-006  0.9118800E+02  0.7816164E-02  0.1184000E+00
        -11   -1    0    0    0    0  0.00000000000E+00  0.00000000000E+00  0.45593999997E+02  0.45594000000E+02  0.51100000000E-03 0.  1.
         11   -1    0    0    0    0 -0.00000000000E+00 -0.00000000000E+00 -0.45593999997E+02  0.45594000000E+02  0.51100000000E-03 0. -1.
         23    2    1    2    0    0  0.17763568394E-14  0.00000000000E+00 -0.17763568394E-14  0.91188000000E+02  0.91188000000E+02 0.  0.
    9900012    2    3    3    0    0 -0.12368431369E+02 -0.33510736218E+02  0.89351426931E+01  0.54367023487E+02  0.39999861644E+02 0.  0.
        -12    1    3    3    0    0  0.12368431369E+02  0.33510736218E+02 -0.89351426931E+01  0.36820976513E+02  0.00000000000E+00 0.  1.
         11    1    4    4    0    0 -0.18595211520E+02 -0.24874054618E+02  0.79648316168E+01  0.32061488231E+02  0.51100000000E-03 0. -1.
        -11    1    4    4    0    0  0.62582737735E+01 -0.11033097392E+02  0.79201537094E+01  0.14954065123E+02  0.51100000000E-03 0.  1.
         12    1    4    4    0    0 -0.31493622012E-01  0.23964157917E+01 -0.69498426332E+01  0.73514701333E+01  0.00000000000E+00 0. -1.
</event>
<event>
 8    1  0.1265908E-006  0.9118800E+02  0.7816164E-02  0.1184000E+00
        -11   -1    0    0    0    0  0.00000000000E+00  0.00000000000E+00  0.45593999997E+02  0.45594000000E+02  0.51100000000E-03 0.  1.
         11   -1    0    0    0    0 -0.00000000000E+00 -0.00000000000E+00 -0.45593999997E+02  0.45594000000E+02  0.51100000000E-03 0. -1.
         23    2    1    2    0    0  0.44408920985E-15  0.00000000000E+00  0.00000000000E+00  0.91188000000E+02  0.91188000000E+02 0.  0.
    9900012    2    3    3    0    0 -0.35379192316E+01 -0.81597861734E+01 -0.35730672280E+02  0.54367083058E+02  0.39999997446E+02 0.  0.
        -12    1    3    3    0    0  0.35379192316E+01  0.81597861734E+01  0.35730672280E+02  0.36820916942E+02  0.00000000000E+00 0.  1.
         11    1    4    4    0    0 -0.13334487295E+02  0.72791133050E+00  0.61657820829E+00  0.13368566687E+02  0.51100000000E-03 0.  1.
        -11    1    4    4    0    0  0.12323462849E+02 -0.92031532506E+01 -0.24867135426E+02  0.29239360303E+02  0.51100000000E-03 0. -1.
        -12    1    4    4    0    0 -0.25268947861E+01  0.31545574671E+00 -0.11480115062E+02  0.11759156068E+02  0.00000000000E+00 0.  1.
</event>
<event>
 8    1  0.1265908E-006  0.9118800E+02  0.7816164E-02  0.1184000E+00
        -11   -1    0    0    0    0  0.00000000000E+00  0.00000000000E+00  0.45593999997E+02  0.45594000000E+02  0.51100000000E-03 0.  1.
         11   -1    0    0    0    0 -0.00000000000E+00 -0.00000000000E+00 -0.45593999997E+02  0.45594000000E+02  0.51100000000E-03 0. -1.
         23    2    1    2    0    0  0.35527136788E-14  0.88817841970E-15  0.00000000000E+00  0.91188000000E+02  0.91188000000E+02 0.  0.
    9900012    2    3    3    0    0  0.15311523726E+02  0.46061387345E+01  0.33168065505E+02  0.54367084175E+02  0.39999999993E+02 0.  0.
         12    1    3    3    0    0 -0.15311523726E+02 -0.46061387345E+01 -0.33168065505E+02  0.36820915825E+02  0.00000000000E+00 0. -1.
         11    1    4    4    0    0 -0.37143894757E+01 -0.23890004237E+01  0.54400760042E+01  0.70070278574E+01  0.51100000000E-03 0. -1.
        -11    1    4    4    0    0  0.14715537180E+02  0.56195937014E+01  0.35234559975E+02  0.38595350559E+02  0.51100000000E-03 0.  1.
         12    1    4    4    0    0  0.43103760216E+01  0.13755454569E+01 -0.75065704738E+01  0.87647057583E+01  0.00000000000E+00 0. -1.
</event>
<event>
 8    1  0.1265908E-006  0.9118800E+02  0.7816164E-02  0.1184000E+00
        -11   -1    0    0    0    0  0.00000000000E+00  0.00000000000E+00  0.45593999997E+02  0.45594000000E+02  0.51100000000E-03 0.  1.
         11   -1    0    0    0    0 -0.00000000000E+00 -0.00000000000E+00 -0.45593999997E+02  0.45594000000E+02  0.51100000000E-03 0. -1.
         23    2    1    2    0    0  0.00000000000E+00  0.00000000000E+00 -0.44408920985E-15  0.91188000000E+02  0.91188000000E+02 0.  0.
    9900012    2    3    3    0    0 -0.27323709299E+02 -0.24549405617E+02 -0.25538461225E+01  0.54367074754E+02  0.39999978516E+02 0.  0.
        -12    1    3    3    0    0  0.27323709299E+02  0.24549405617E+02  0.25538461225E+01  0.36820925246E+02  0.00000000000E+00 0.  1.
         11    1    4    4    0    0 -0.29872919068E+02 -0.20411262233E+02 -0.89524212252E+01  0.37271393395E+02  0.51100000000E-03 0. -1.
        -11    1    4    4    0    0  0.85087140185E+01 -0.42406260349E+01  0.20707766790E+01  0.97298119063E+01  0.51100000000E-03 0.  1.
         12    1    4    4    0    0 -0.59595042490E+01  0.10248265053E+00  0.43277984237E+01  0.73658694520E+01  0.00000000000E+00 0. -1.
</event>
<event>
 8    1  0.1265908E-006  0.9118800E+02  0.7816164E-02  0.1184000E+00
        -11   -1    0    0    0    0  0.00000000000E+00  0.00000000000E+00  0.45593999997E+02  0.45594000000E+02  0.51100000000E-03 0. -1.
         11   -1    0    0    0    0 -0.00000000000E+00 -0.00000000000E+00 -0.45593999997E+02  0.45594000000E+02  0.51100000000E-03 0.  1.
         23    2    1    2    0    0 -0.88817841970E-15  0.00000000000E+00  0.00000000000E+00  0.91188000000E+02  0.91188000000E+02 0.  0.
    9900012    2    3    3    0    0 -0.34258780237E+01  0.33173456521E+02  0.15606565272E+02  0.54367085598E+02  0.40000003238E+02 0.  0.
         12    1    3    3    0    0  0.34258780237E+01 -0.33173456521E+02 -0.15606565272E+02  0.36820914402E+02  0.00000000000E+00 0. -1.
         11    1    4    4    0    0  0.51850129313E+01  0.11176120251E+01 -0.22740131786E+00  0.53089666939E+01  0.51100000000E-03 0. -1.
        -11    1    4    4    0    0 -0.12636519109E+02  0.20320292464E+02 -0.53394824937E+01  0.24517462646E+02  0.51100000000E-03 0.  1.
         12    1    4    4    0    0  0.40256281536E+01  0.11735552032E+02  0.21173449083E+02  0.24540656259E+02  0.00000000000E+00 0. -1.
</event>
<event>
 8    1  0.1265908E-006  0.9118800E+02  0.7816164E-02  0.1184000E+00
        -11   -1    0    0    0    0  0.00000000000E+00  0.00000000000E+00  0.45593999997E+02  0.45594000000E+02  0.51100000000E-03 0.  1.
         11   -1    0    0    0    0 -0.00000000000E+00 -0.00000000000E+00 -0.45593999997E+02  0.45594000000E+02  0.51100000000E-03 0. -1.
         23    2    1    2    0    0  0.71054273576E-14  0.00000000000E+00  0.88817841970E-15  0.91188000000E+02  0.91188000000E+02 0.  0.
    9900012    2    3    3    0    0  0.34322863891E+02  0.12537362392E+02  0.45317146463E+01  0.54367070095E+02  0.39999967895E+02 0.  0.
         12    1    3    3    0    0 -0.34322863891E+02 -0.12537362392E+02 -0.45317146463E+01  0.36820929905E+02  0.00000000000E+00 0. -1.
         11    1    4    4    0    0 -0.13550152423E+01  0.71887213556E+01  0.56185106709E+01  0.92239602912E+01  0.51100000000E-03 0. -1.
        -11    1    4    4    0    0  0.22279425939E+02  0.16476300468E+02 -0.93395341557E+00  0.27725684239E+02  0.51100000000E-03 0.  1.
        -12    1    4    4    0    0  0.13398453195E+02 -0.11127659432E+02 -0.15284260896E+00  0.17417425565E+02  0.00000000000E+00 0.  1.
</event>
<event>
 8    1  0.1265908E-006  0.9118800E+02  0.7816164E-02  0.1184000E+00
        -11   -1    0    0    0    0  0.00000000000E+00  0.00000000000E+00  0.45593999997E+02  0.45594000000E+02  0.51100000000E-03 0. -1.
         11   -1    0    0    0    0 -0.00000000000E+00 -0.00000000000E+00 -0.45593999997E+02  0.45594000000E+02  0.51100000000E-03 0.  1.
         23    2    1    2    0    0  0.17763568394E-14  0.00000000000E+00  0.00000000000E+00  0.91188000000E+02  0.91188000000E+02 0.  0.
    9900012    2    3    3    0    0  0.80785801474E+01  0.34513897895E+02 -0.99653055460E+01  0.54367083122E+02  0.39999997594E+02 0.  0.
        -12    1    3    3    0    0 -0.80785801474E+01 -0.34513897895E+02  0.99653055460E+01  0.36820916878E+02  0.00000000000E+00 0.  1.
         11    1    4    4    0    0  0.15342614790E+02  0.13171703226E+01  0.41730301914E+01  0.15954464814E+02  0.51100000000E-03 0. -1.
        -11    1    4    4    0    0 -0.93699217376E+01  0.29175399668E+02 -0.14416064429E+02  0.33864764771E+02  0.51100000000E-03 0.  1.
        -12    1    4    4    0    0  0.21058870952E+01  0.40213279042E+01  0.27772869142E+00  0.45478535373E+01  0.00000000000E+00 0.  1.
</event>
<event>
 8    1  0.1265908E-006  0.9118800E+02  0.7816164E-02  0.1184000E+00
        -11   -1    0    0    0    0  0.00000000000E+00  0.00000000000E+00  0.45593999997E+02  0.45594000000E+02  0.51100000000E-03 0.  1.
         11   -1    0    0    0    0 -0.00000000000E+00 -0.00000000000E+00 -0.45593999997E+02  0.45594000000E+02  0.51100000000E-03 0. -1.
         23    2    1    2    0    0 -0.17763568394E-14 -0.35527136788E-14 -0.35527136788E-14  0.91188000000E+02  0.91188000000E+02 0.  0.
    9900012    2    3    3    0    0  0.10709458888E+02 -0.29657788983E+02 -0.19013226918E+02  0.54367085361E+02  0.40000002696E+02 0.  0.
        -12    1    3    3    0    0 -0.10709458888E+02  0.29657788983E+02  0.19013226918E+02  0.36820914639E+02  0.00000000000E+00 0.  1.
         11    1    4    4    0    0 -0.99110775959E+01 -0.25501906316E+01 -0.11701998350E+02  0.15545729221E+02  0.51100000000E-03 0. -1.
        -11    1    4    4    0    0 -0.11203682749E+00 -0.13110121132E+02 -0.24021140312E+01  0.13328840176E+02  0.51100000000E-03 0.  1.
        -12    1    4    4    0    0  0.20732573312E+02 -0.13997477219E+02 -0.49091145373E+01  0.25492515964E+02  0.00000000000E+00 0.  1.
</event>
<event>
 8    1  0.1265908E-006  0.9118800E+02  0.7816164E-02  0.1184000E+00
        -11   -1    0    0    0    0  0.00000000000E+00  0.00000000000E+00  0.45593999997E+02  0.45594000000E+02  0.51100000000E-03 0.  1.
         11   -1    0    0    0    0 -0.00000000000E+00 -0.00000000000E+00 -0.45593999997E+02  0.45594000000E+02  0.51100000000E-03 0. -1.
         23    2    1    2    0    0 -0.35527136788E-14  0.00000000000E+00  0.00000000000E+00  0.91188000000E+02  0.91188000000E+02 0.  0.
    9900012    2    3    3    0    0  0.25768191293E+02  0.16621384824E+02 -0.20384082125E+02  0.54367069539E+02  0.39999966628E+02 0.  0.
        -12    1    3    3    0    0 -0.25768191293E+02 -0.16621384824E+02  0.20384082125E+02  0.36820930461E+02  0.00000000000E+00 0.  1.
         11    1    4    4    0    0  0.66045389339E+01  0.65242679776E+01 -0.19362390137E+02  0.21472963448E+02  0.51100000000E-03 0. -1.
        -11    1    4    4    0    0  0.14381213971E+02  0.11993978992E+02  0.96356192751E+01  0.21059914682E+02  0.51100000000E-03 0.  1.
         12    1    4    4    0    0  0.47824383880E+01 -0.18968621464E+01 -0.10657311263E+02  0.11834191409E+02  0.00000000000E+00 0. -1.
</event>
<event>
 8    1  0.1265908E-006  0.9118800E+02  0.7816164E-02  0.1184000E+00
        -11   -1    0    0    0    0  0.00000000000E+00  0.00000000000E+00  0.45593999997E+02  0.45594000000E+02  0.51100000000E-03 0.  1.
         11   -1    0    0    0    0 -0.00000000000E+00 -0.00000000000E+00 -0.45593999997E+02  0.45594000000E+02  0.51100000000E-03 0. -1.
         23    2    1    2    0    0 -0.17763568394E-14  0.88817841970E-15  0.00000000000E+00  0.91188000000E+02  0.91188000000E+02 0.  0.
    9900012    2    3    3    0    0  0.24564942710E+01 -0.56659921560E+01 -0.36299330596E+02  0.54367092448E+02  0.40000018853E+02 0.  0.
        -12    1    3    3    0    0 -0.24564942710E+01  0.56659921560E+01  0.36299330596E+02  0.36820907552E+02  0.00000000000E+00 0.  1.
         11    1    4    4    0    0 -0.85487453931E+01  0.11631441553E+01 -0.30906606938E+02  0.32088195724E+02  0.51100000000E-03 0. -1.
        -11    1    4    4    0    0  0.44417519444E+01  0.43988112926E-01  0.59855847375E+01  0.74537453807E+01  0.51100000000E-03 0.  1.
         12    1    4    4    0    0  0.65634877198E+01 -0.68731244243E+01 -0.11378308396E+02  0.14825151343E+02  0.00000000000E+00 0. -1.
</event>
<event>
 8    1  0.1265908E-006  0.9118800E+02  0.7816164E-02  0.1184000E+00
        -11   -1    0    0    0    0  0.00000000000E+00  0.00000000000E+00  0.45593999997E+02  0.45594000000E+02  0.51100000000E-03 0. -1.
         11   -1    0    0    0    0 -0.00000000000E+00 -0.00000000000E+00 -0.45593999997E+02  0.45594000000E+02  0.51100000000E-03 0.  1.
         23    2    1    2    0    0  0.35527136788E-14  0.00000000000E+00  0.00000000000E+00  0.91188000000E+02  0.91188000000E+02 0.  0.
    9900012    2    3    3    0    0 -0.30931278241E+02  0.15967915420E+02 -0.12002514165E+02  0.54367100462E+02  0.40000037123E+02 0.  0.
         12    1    3    3    0    0  0.30931278241E+02 -0.15967915420E+02  0.12002514165E+02  0.36820899538E+02  0.00000000000E+00 0. -1.
         11    1    4    4    0    0 -0.13184704449E+02  0.42480450501E+01 -0.56829162198E+01  0.14972570092E+02  0.51100000000E-03 0. -1.
        -11    1    4    4    0    0 -0.15730918244E+02  0.18278730055E+02 -0.14946179474E+02  0.28371852995E+02  0.51100000000E-03 0.  1.
         12    1    4    4    0    0 -0.20156555482E+01 -0.65588596846E+01  0.86265815281E+01  0.11022677375E+02  0.00000000000E+00 0. -1.
</event>
<event>
 8    1  0.1265908E-006  0.9118800E+02  0.7816164E-02  0.1184000E+00
        -11   -1    0    0    0    0  0.00000000000E+00  0.00000000000E+00  0.45593999997E+02  0.45594000000E+02  0.51100000000E-03 0. -1.
         11   -1    0    0    0    0 -0.00000000000E+00 -0.00000000000E+00 -0.45593999997E+02  0.45594000000E+02  0.51100000000E-03 0.  1.
         23    2    1    2    0    0 -0.17763568394E-14  0.00000000000E+00 -0.17763568394E-14  0.91188000000E+02  0.91188000000E+02 0.  0.
    9900012    2    3    3    0    0 -0.63703283862E+01 -0.33522115348E+02  0.13837176584E+02  0.54367071753E+02  0.39999971675E+02 0.  0.
        -12    1    3    3    0    0  0.63703283862E+01  0.33522115348E+02 -0.13837176584E+02  0.36820928247E+02  0.00000000000E+00 0.  1.
         11    1    4    4    0    0  0.12973413274E+02 -0.18912504137E+02  0.17869817071E+02  0.29074432533E+02  0.51100000000E-03 0. -1.
        -11    1    4    4    0    0 -0.14667742048E+02 -0.10838387232E+02 -0.56113254236E+01  0.19081411579E+02  0.51100000000E-03 0.  1.
         12    1    4    4    0    0 -0.46759996124E+01 -0.37712239795E+01  0.15786849366E+01  0.62112276410E+01  0.00000000000E+00 0. -1.
</event>
<event>
 8    1  0.1265908E-006  0.9118800E+02  0.7816164E-02  0.1184000E+00
        -11   -1    0    0    0    0  0.00000000000E+00  0.00000000000E+00  0.45593999997E+02  0.45594000000E+02  0.51100000000E-03 0. -1.
         11   -1    0    0    0    0 -0.00000000000E+00 -0.00000000000E+00 -0.45593999997E+02  0.45594000000E+02  0.51100000000E-03 0.  1.
         23    2    1    2    0    0  0.00000000000E+00 -0.17763568394E-14  0.00000000000E+00  0.91188000000E+02  0.91188000000E+02 0.  0.
    9900012    2    3    3    0    0 -0.36059537277E+02  0.58878710398E+01  0.45630720957E+01  0.54367097227E+02  0.40000029749E+02 0.  0.
        -12    1    3    3    0    0  0.36059537277E+02 -0.58878710398E+01 -0.45630720957E+01  0.36820902773E+02  0.00000000000E+00 0.  1.
         11    1    4    4    0    0 -0.14961648647E+02  0.19350138973E+02 -0.41267174465E+01  0.24805414845E+02  0.51100000000E-03 0. -1.
        -11    1    4    4    0    0 -0.93006505634E+00 -0.69528499060E+01  0.29177230785E+01  0.75973844873E+01  0.51100000000E-03 0.  1.
        -12    1    4    4    0    0 -0.20167823574E+02 -0.65094180269E+01  0.57720664637E+01  0.21964297895E+02  0.00000000000E+00 0.  1.
</event>
<event>
 8    1  0.1265908E-006  0.9118800E+02  0.7816164E-02  0.1184000E+00
        -11   -1    0    0    0    0  0.00000000000E+00  0.00000000000E+00  0.45593999997E+02  0.45594000000E+02  0.51100000000E-03 0. -1.
         11   -1    0    0    0    0 -0.00000000000E+00 -0.00000000000E+00 -0.45593999997E+02  0.45594000000E+02  0.51100000000E-03 0.  1.
         23    2    1    2    0    0 -0.35527136788E-14 -0.44408920985E-15 -0.35527136788E-14  0.91188000000E+02  0.91188000000E+02 0.  0.
    9900012    2    3    3    0    0  0.18847641196E+02 -0.31364047866E+01  0.31475530433E+02  0.54367087061E+02  0.40000006573E+02 0.  0.
        -12    1    3    3    0    0 -0.18847641196E+02  0.31364047866E+01 -0.31475530433E+02  0.36820912939E+02  0.00000000000E+00 0.  1.
         11    1    4    4    0    0 -0.10650918618E+02 -0.21657498298E+01  0.33052064241E+01  0.11360322597E+02  0.51100000000E-03 0. -1.
        -11    1    4    4    0    0  0.93660771713E+01  0.49648477107E+01  0.49289377216E+01  0.11690489369E+02  0.51100000000E-03 0.  1.
         12    1    4    4    0    0  0.20132482643E+02 -0.59355026675E+01  0.23241386287E+02  0.31316275095E+02  0.00000000000E+00 0. -1.
</event>
<event>
 8    1  0.1265908E-006  0.9118800E+02  0.7816164E-02  0.1184000E+00
        -11   -1    0    0    0    0  0.00000000000E+00  0.00000000000E+00  0.45593999997E+02  0.45594000000E+02  0.51100000000E-03 0. -1.
         11   -1    0    0    0    0 -0.00000000000E+00 -0.00000000000E+00 -0.45593999997E+02  0.45594000000E+02  0.51100000000E-03 0.  1.
         23    2    1    2    0    0  0.26645352591E-14  0.88817841970E-15  0.00000000000E+00  0.91188000000E+02  0.91188000000E+02 0.  0.
    9900012    2    3    3    0    0 -0.77538339436E+01 -0.34051688199E+01  0.35833811184E+02  0.54367093717E+02  0.40000021746E+02 0.  0.
        -12    1    3    3    0    0  0.77538339436E+01  0.34051688199E+01 -0.35833811184E+02  0.36820906283E+02  0.00000000000E+00 0.  1.
         11    1    4    4    0    0  0.78087471774E+01  0.36192725461E+01 -0.22580887252E+01  0.88980127666E+01  0.51100000000E-03 0.  1.
        -11    1    4    4    0    0 -0.13345745261E+02  0.21027109975E+01  0.13303270590E+02  0.18960678225E+02  0.51100000000E-03 0. -1.
         12    1    4    4    0    0 -0.22168358600E+01 -0.91271523635E+01  0.24788629319E+02  0.26508402725E+02  0.00000000000E+00 0. -1.
</event>
<event>
 8    1  0.1265908E-006  0.9118800E+02  0.7816164E-02  0.1184000E+00
        -11   -1    0    0    0    0  0.00000000000E+00  0.00000000000E+00  0.45593999997E+02  0.45594000000E+02  0.51100000000E-03 0. -1.
         11   -1    0    0    0    0 -0.00000000000E+00 -0.00000000000E+00 -0.45593999997E+02  0.45594000000E+02  0.51100000000E-03 0.  1.
         23    2    1    2    0    0  0.00000000000E+00  0.00000000000E+00 -0.35527136788E-14  0.91188000000E+02  0.91188000000E+02 0.  0.
    9900012    2    3    3    0    0 -0.24214491716E+02 -0.20220039343E+02 -0.18989152403E+02  0.54367088698E+02  0.40000010305E+02 0.  0.
         12    1    3    3    0    0  0.24214491716E+02  0.20220039343E+02  0.18989152403E+02  0.36820911302E+02  0.00000000000E+00 0. -1.
         11    1    4    4    0    0 -0.11113152418E+01 -0.76022362913E+00  0.75825162543E+01  0.77011372239E+01  0.51100000000E-03 0. -1.
        -11    1    4    4    0    0 -0.13825337232E+02 -0.87176612460E+01 -0.27978113675E+02  0.32402351956E+02  0.51100000000E-03 0.  1.
         12    1    4    4    0    0 -0.92778392425E+01 -0.10742154468E+02  0.14064450178E+01  0.14263599518E+02  0.00000000000E+00 0. -1.
</event>
<event>
 8    1  0.1265908E-006  0.9118800E+02  0.7816164E-02  0.1184000E+00
        -11   -1    0    0    0    0  0.00000000000E+00  0.00000000000E+00  0.45593999997E+02  0.45594000000E+02  0.51100000000E-03 0. -1.
         11   -1    0    0    0    0 -0.00000000000E+00 -0.00000000000E+00 -0.45593999997E+02  0.45594000000E+02  0.51100000000E-03 0.  1.
         23    2    1    2    0    0  0.00000000000E+00 -0.35527136788E-14  0.00000000000E+00  0.91188000000E+02  0.91188000000E+02 0.  0.
    9900012    2    3    3    0    0 -0.16246328587E+02 -0.14990110169E+02  0.29447092310E+02  0.54367111351E+02  0.40000061946E+02 0.  0.
        -12    1    3    3    0    0  0.16246328587E+02  0.14990110169E+02 -0.29447092310E+02  0.36820888649E+02  0.00000000000E+00 0.  1.
         11    1    4    4    0    0 -0.27903872149E+01  0.48916506493E+00 -0.84767757416E+00  0.29570425767E+01  0.51100000000E-03 0. -1.
        -11    1    4    4    0    0 -0.45703136657E+01  0.88759393477E+01 -0.18081822537E+01  0.10145914923E+02  0.51100000000E-03 0.  1.
         12    1    4    4    0    0 -0.88856277063E+01 -0.24355214581E+02  0.32102952138E+02  0.41264153851E+02  0.00000000000E+00 0. -1.
</event>
<event>
 8    1  0.1265908E-006  0.9118800E+02  0.7816164E-02  0.1184000E+00
        -11   -1    0    0    0    0  0.00000000000E+00  0.00000000000E+00  0.45593999997E+02  0.45594000000E+02  0.51100000000E-03 0.  1.
         11   -1    0    0    0    0 -0.00000000000E+00 -0.00000000000E+00 -0.45593999997E+02  0.45594000000E+02  0.51100000000E-03 0. -1.
         23    2    1    2    0    0  0.00000000000E+00 -0.17763568394E-14  0.00000000000E+00  0.91188000000E+02  0.91188000000E+02 0.  0.
    9900012    2    3    3    0    0 -0.33768639479E+02 -0.83710282888E+01 -0.12057549753E+02  0.54367087017E+02  0.40000006473E+02 0.  0.
        -12    1    3    3    0    0  0.33768639479E+02  0.83710282888E+01  0.12057549753E+02  0.36820912983E+02  0.00000000000E+00 0.  1.
         11    1    4    4    0    0 -0.15602446317E+02 -0.21378135258E+02 -0.91260730492E+01  0.27995467629E+02  0.51100000000E-03 0. -1.
        -11    1    4    4    0    0 -0.23672729320E+01 -0.21671427561E+01  0.21769217854E+01  0.38780765310E+01  0.51100000000E-03 0.  1.
         12    1    4    4    0    0 -0.15798920230E+02  0.15174249725E+02 -0.51083984896E+01  0.22493542857E+02  0.00000000000E+00 0. -1.
</event>
<event>
 8    1  0.1265908E-006  0.9118800E+02  0.7816164E-02  0.1184000E+00
        -11   -1    0    0    0    0  0.00000000000E+00  0.00000000000E+00  0.45593999997E+02  0.45594000000E+02  0.51100000000E-03 0.  1.
         11   -1    0    0    0    0 -0.00000000000E+00 -0.00000000000E+00 -0.45593999997E+02  0.45594000000E+02  0.51100000000E-03 0. -1.
         23    2    1    2    0    0  0.00000000000E+00  0.00000000000E+00  0.00000000000E+00  0.91188000000E+02  0.91188000000E+02 0.  0.
    9900012    2    3    3    0    0  0.26455843613E+02 -0.17301342904E+02  0.18882028512E+02  0.54367093870E+02  0.40000022094E+02 0.  0.
         12    1    3    3    0    0 -0.26455843613E+02  0.17301342904E+02 -0.18882028512E+02  0.36820906130E+02  0.00000000000E+00 0. -1.
         11    1    4    4    0    0  0.96605434415E+00 -0.71305143926E+01  0.12082861435E+02  0.14063180196E+02  0.51100000000E-03 0. -1.
        -11    1    4    4    0    0  0.21687483933E+02  0.57474092409E+01  0.81774668067E+01  0.23879921188E+02  0.51100000000E-03 0.  1.
         12    1    4    4    0    0  0.38023053358E+01 -0.15918237752E+02 -0.13782997305E+01  0.16423992485E+02  0.00000000000E+00 0. -1.
</event>
<event>
 8    1  0.1265908E-006  0.9118800E+02  0.7816164E-02  0.1184000E+00
        -11   -1    0    0    0    0  0.00000000000E+00  0.00000000000E+00  0.45593999997E+02  0.45594000000E+02  0.51100000000E-03 0.  1.
         11   -1    0    0    0    0 -0.00000000000E+00 -0.00000000000E+00 -0.45593999997E+02  0.45594000000E+02  0.51100000000E-03 0. -1.
         23    2    1    2    0    0  0.00000000000E+00  0.17763568394E-14  0.00000000000E+00  0.91188000000E+02  0.91188000000E+02 0.  0.
    9900012    2    3    3    0    0  0.19009981658E+02  0.10341810419E+02 -0.29790048545E+02  0.54367089667E+02  0.40000012515E+02 0.  0.
        -12    1    3    3    0    0 -0.19009981658E+02 -0.10341810419E+02  0.29790048545E+02  0.36820910333E+02  0.00000000000E+00 0.  1.
         11    1    4    4    0    0  0.19593074302E+01  0.48801661752E+00  0.15491789851E+01  0.25449954055E+01  0.51100000000E-03 0. -1.
        -11    1    4    4    0    0  0.29345353127E+01  0.20613177844E+02 -0.75640085626E+01  0.22152399963E+02  0.51100000000E-03 0.  1.
         12    1    4    4    0    0  0.14116138915E+02 -0.10759384042E+02 -0.23775218968E+02  0.29669694299E+02  0.00000000000E+00 0. -1.
</event>
<event>
 8    1  0.1265908E-006  0.9118800E+02  0.7816164E-02  0.1184000E+00
        -11   -1    0    0    0    0  0.00000000000E+00  0.00000000000E+00  0.45593999997E+02  0.45594000000E+02  0.51100000000E-03 0.  1.
         11   -1    0    0    0    0 -0.00000000000E+00 -0.00000000000E+00 -0.45593999997E+02  0.45594000000E+02  0.51100000000E-03 0. -1.
         23    2    1    2    0    0 -0.35527136788E-14  0.00000000000E+00 -0.17763568394E-14  0.91188000000E+02  0.91188000000E+02 0.  0.
    9900012    2    3    3    0    0  0.31453685310E+02 -0.14525142195E+02 -0.12468583381E+02  0.54367086827E+02  0.40000006039E+02 0.  0.
         12    1    3    3    0    0 -0.31453685310E+02  0.14525142195E+02  0.12468583381E+02  0.36820913173E+02  0.00000000000E+00 0. -1.
         11    1    4    4    0    0  0.20347083847E+02 -0.11686246313E+02 -0.23660485205E+02  0.33322525930E+02  0.51100000000E-03 0. -1.
        -11    1    4    4    0    0  0.78032879721E+01 -0.80663287018E+01  0.93068659781E+01  0.14579942267E+02  0.51100000000E-03 0.  1.
        -12    1    4    4    0    0  0.33033134915E+01  0.52274328190E+01  0.18850358457E+01  0.64646186306E+01  0.00000000000E+00 0.  1.
</event>
<event>
 8    1  0.1265908E-006  0.9118800E+02  0.7816164E-02  0.1184000E+00
        -11   -1    0    0    0    0  0.00000000000E+00  0.00000000000E+00  0.45593999997E+02  0.45594000000E+02  0.51100000000E-03 0.  1.
         11   -1    0    0    0    0 -0.00000000000E+00 -0.00000000000E+00 -0.45593999997E+02  0.45594000000E+02  0.51100000000E-03 0. -1.
         23    2    1    2    0    0  0.35527136788E-14  0.00000000000E+00  0.00000000000E+00  0.91188000000E+02  0.91188000000E+02 0.  0.
    9900012    2    3    3    0    0  0.21617685996E+02  0.12458595832E+02  0.27078043910E+02  0.54367334337E+02  0.40000570283E+02 0.  0.
        -12    1    3    3    0    0 -0.21617685996E+02 -0.12458595832E+02 -0.27078043910E+02  0.36820665663E+02  0.00000000000E+00 0.  1.
         11    1    4    4    0    0  0.21081510781E+02  0.78366229321E+01  0.30411555505E+02  0.37824667405E+02  0.51100000000E-03 0. -1.
        -11    1    4    4    0    0 -0.65833170525E+01 -0.10167287512E+01 -0.33597138145E+01  0.74606620312E+01  0.51100000000E-03 0.  1.
        -12    1    4    4    0    0  0.71194922669E+01  0.56387016512E+01  0.26202218973E-01  0.90820049002E+01  0.00000000000E+00 0.  1.
</event>
<event>
 8    1  0.1265908E-006  0.9118800E+02  0.7816164E-02  0.1184000E+00
        -11   -1    0    0    0    0  0.00000000000E+00  0.00000000000E+00  0.45593999997E+02  0.45594000000E+02  0.51100000000E-03 0.  1.
         11   -1    0    0    0    0 -0.00000000000E+00 -0.00000000000E+00 -0.45593999997E+02  0.45594000000E+02  0.51100000000E-03 0. -1.
         23    2    1    2    0    0  0.71054273576E-14 -0.53290705182E-14 -0.33306690739E-15  0.91188000000E+02  0.91188000000E+02 0.  0.
    9900012    2    3    3    0    0 -0.33162544760E+02  0.15970450874E+02 -0.98394033760E+00  0.54367111707E+02  0.40000062759E+02 0.  0.
        -12    1    3    3    0    0  0.33162544760E+02 -0.15970450874E+02  0.98394033760E+00  0.36820888293E+02  0.00000000000E+00 0.  1.
         11    1    4    4    0    0 -0.71519693576E+01 -0.12304662473E+02  0.32679950032E+01  0.14602574289E+02  0.51100000000E-03 0. -1.
        -11    1    4    4    0    0 -0.14427042734E+02  0.21070148205E+02 -0.21027873889E+00  0.25536932566E+02  0.51100000000E-03 0.  1.
         12    1    4    4    0    0 -0.11583532668E+02  0.72049651414E+01 -0.40416566019E+01  0.14227604853E+02  0.00000000000E+00 0. -1.
</event>
<event>
 8    1  0.1265908E-006  0.9118800E+02  0.7816164E-02  0.1184000E+00
        -11   -1    0    0    0    0  0.00000000000E+00  0.00000000000E+00  0.45593999997E+02  0.45594000000E+02  0.51100000000E-03 0. -1.
         11   -1    0    0    0    0 -0.00000000000E+00 -0.00000000000E+00 -0.45593999997E+02  0.45594000000E+02  0.51100000000E-03 0.  1.
         23    2    1    2    0    0  0.00000000000E+00  0.35527136788E-14  0.00000000000E+00  0.91188000000E+02  0.91188000000E+02 0.  0.
    9900012    2    3    3    0    0 -0.24394788697E+02  0.23799313293E+02 -0.13937996380E+02  0.54367071550E+02  0.39999971213E+02 0.  0.
        -12    1    3    3    0    0  0.24394788697E+02 -0.23799313293E+02  0.13937996380E+02  0.36820928450E+02  0.00000000000E+00 0.  1.
         11    1    4    4    0    0  0.13483455958E+01  0.61201448914E+01  0.67392913721E+01  0.92028396594E+01  0.51100000000E-03 0. -1.
        -11    1    4    4    0    0  0.36900103295E+01  0.85842052589E+01 -0.45825525156E+01  0.10406946910E+02  0.51100000000E-03 0.  1.
        -12    1    4    4    0    0 -0.29433144622E+02  0.90949631431E+01 -0.16094735236E+02  0.34757284981E+02  0.00000000000E+00 0.  1.
</event>
<event>
 8    1  0.1265908E-006  0.9118800E+02  0.7816164E-02  0.1184000E+00
        -11   -1    0    0    0    0  0.00000000000E+00  0.00000000000E+00  0.45593999997E+02  0.45594000000E+02  0.51100000000E-03 0. -1.
         11   -1    0    0    0    0 -0.00000000000E+00 -0.00000000000E+00 -0.45593999997E+02  0.45594000000E+02  0.51100000000E-03 0.  1.
         23    2    1    2    0    0 -0.35527136788E-14  0.35527136788E-14  0.00000000000E+00  0.91188000000E+02  0.91188000000E+02 0.  0.
    9900012    2    3    3    0    0 -0.21939797301E+02  0.21160083515E+02  0.20656124785E+02  0.54367091115E+02  0.40000015815E+02 0.  0.
        -12    1    3    3    0    0  0.21939797301E+02 -0.21160083515E+02 -0.20656124785E+02  0.36820908885E+02  0.00000000000E+00 0.  1.
         11    1    4    4    0    0 -0.17417362141E+02  0.14816514025E+02  0.16534278128E+02  0.28218361846E+02  0.51100000000E-03 0. -1.
        -11    1    4    4    0    0  0.90470975957E+01 -0.27012190775E+01  0.24575949226E+01  0.97563483166E+01  0.51100000000E-03 0.  1.
        -12    1    4    4    0    0 -0.13569532756E+02  0.90447885674E+01  0.16642517348E+01  0.16392380952E+02  0.00000000000E+00 0.  1.
</event>
<event>
 8    1  0.1265908E-006  0.9118800E+02  0.7816164E-02  0.1184000E+00
        -11   -1    0    0    0    0  0.00000000000E+00  0.00000000000E+00  0.45593999997E+02  0.45594000000E+02  0.51100000000E-03 0.  1.
         11   -1    0    0    0    0 -0.00000000000E+00 -0.00000000000E+00 -0.45593999997E+02  0.45594000000E+02  0.51100000000E-03 0. -1.
         23    2    1    2    0    0  0.71054273576E-14 -0.17763568394E-14  0.35527136788E-14  0.91188000000E+02  0.91188000000E+02 0.  0.
    9900012    2    3    3    0    0 -0.29858817576E+02  0.55594560946E+01 -0.20816424596E+02  0.54367081054E+02  0.39999992878E+02 0.  0.
        -12    1    3    3    0    0  0.29858817576E+02 -0.55594560946E+01  0.20816424596E+02  0.36820918946E+02  0.00000000000E+00 0.  1.
         11    1    4    4    0    0 -0.64951137454E+01 -0.10718505686E+02 -0.76675494810E+01  0.14692317108E+02  0.51100000000E-03 0. -1.
        -11    1    4    4    0    0 -0.81056443312E+01  0.17159389646E+02  0.78386305499E+00  0.18993698023E+02  0.51100000000E-03 0.  1.
        -12    1    4    4    0    0 -0.15258059499E+02 -0.88142786552E+00 -0.13932738170E+02  0.20681065922E+02  0.00000000000E+00 0.  1.
</event>
<event>
 8    1  0.1265908E-006  0.9118800E+02  0.7816164E-02  0.1184000E+00
        -11   -1    0    0    0    0  0.00000000000E+00  0.00000000000E+00  0.45593999997E+02  0.45594000000E+02  0.51100000000E-03 0.  1.
         11   -1    0    0    0    0 -0.00000000000E+00 -0.00000000000E+00 -0.45593999997E+02  0.45594000000E+02  0.51100000000E-03 0. -1.
         23    2    1    2    0    0 -0.17763568394E-14  0.00000000000E+00  0.00000000000E+00  0.91188000000E+02  0.91188000000E+02 0.  0.
    9900012    2    3    3    0    0 -0.11865240052E+02 -0.23556299276E+02  0.25692358388E+02  0.54367076104E+02  0.39999981593E+02 0.  0.
         12    1    3    3    0    0  0.11865240052E+02  0.23556299276E+02 -0.25692358388E+02  0.36820923896E+02  0.00000000000E+00 0. -1.
         11    1    4    4    0    0  0.26793807118E+01 -0.18068070470E+01 -0.79278617232E+01  0.85612279766E+01  0.51100000000E-03 0. -1.
        -11    1    4    4    0    0 -0.14734597565E+02 -0.24051690039E+02  0.28066937272E+02  0.39791269485E+02  0.51100000000E-03 0.  1.
         12    1    4    4    0    0  0.18997680184E+00  0.23021978105E+01  0.55532828395E+01  0.60145786419E+01  0.00000000000E+00 0. -1.
</event>
<event>
 8    1  0.1265908E-006  0.9118800E+02  0.7816164E-02  0.1184000E+00
        -11   -1    0    0    0    0  0.00000000000E+00  0.00000000000E+00  0.45593999997E+02  0.45594000000E+02  0.51100000000E-03 0.  1.
         11   -1    0    0    0    0 -0.00000000000E+00 -0.00000000000E+00 -0.45593999997E+02  0.45594000000E+02  0.51100000000E-03 0. -1.
         23    2    1    2    0    0 -0.17763568394E-14 -0.71054273576E-14  0.71054273576E-14  0.91188000000E+02  0.91188000000E+02 0.  0.
    9900012    2    3    3    0    0  0.97680568254E+01  0.27097626170E+02 -0.22936512054E+02  0.54367083887E+02  0.39999999338E+02 0.  0.
        -12    1    3    3    0    0 -0.97680568254E+01 -0.27097626170E+02  0.22936512054E+02  0.36820916113E+02  0.00000000000E+00 0.  1.
         11    1    4    4    0    0 -0.19621522256E+01  0.43332192962E+01  0.33673901211E+01  0.58280483281E+01  0.51100000000E-03 0. -1.
        -11    1    4    4    0    0  0.64345413298E+01  0.27974855184E+02 -0.96176621914E+01  0.30273672902E+02  0.51100000000E-03 0.  1.
         12    1    4    4    0    0  0.52956677212E+01 -0.52104483103E+01 -0.16686239983E+02  0.18265362657E+02  0.00000000000E+00 0. -1.
</event>
<event>
 8    1  0.1265908E-006  0.9118800E+02  0.7816164E-02  0.1184000E+00
        -11   -1    0    0    0    0  0.00000000000E+00  0.00000000000E+00  0.45593999997E+02  0.45594000000E+02  0.51100000000E-03 0.  1.
         11   -1    0    0    0    0 -0.00000000000E+00 -0.00000000000E+00 -0.45593999997E+02  0.45594000000E+02  0.51100000000E-03 0. -1.
         23    2    1    2    0    0  0.00000000000E+00  0.00000000000E+00 -0.17763568394E-14  0.91188000000E+02  0.91188000000E+02 0.  0.
    9900012    2    3    3    0    0 -0.38285324782E+01 -0.36044627383E+02  0.64735254157E+01  0.54367090785E+02  0.40000015062E+02 0.  0.
         12    1    3    3    0    0  0.38285324782E+01  0.36044627383E+02 -0.64735254157E+01  0.36820909215E+02  0.00000000000E+00 0. -1.
         11    1    4    4    0    0 -0.16422324018E+02 -0.96102030192E+01  0.40328300884E+01  0.19450255706E+02  0.51100000000E-03 0. -1.
        -11    1    4    4    0    0  0.69867682147E+00 -0.66045079468E+01  0.87146207701E+01  0.10956837589E+02  0.51100000000E-03 0.  1.
        -12    1    4    4    0    0  0.11895114718E+02 -0.19829916417E+02 -0.62739254428E+01  0.23959997490E+02  0.00000000000E+00 0.  1.
</event>
<event>
 8    1  0.1265908E-006  0.9118800E+02  0.7816164E-02  0.1184000E+00
        -11   -1    0    0    0    0  0.00000000000E+00  0.00000000000E+00  0.45593999997E+02  0.45594000000E+02  0.51100000000E-03 0.  1.
         11   -1    0    0    0    0 -0.00000000000E+00 -0.00000000000E+00 -0.45593999997E+02  0.45594000000E+02  0.51100000000E-03 0. -1.
         23    2    1    2    0    0  0.00000000000E+00  0.00000000000E+00  0.00000000000E+00  0.91188000000E+02  0.91188000000E+02 0.  0.
    9900012    2    3    3    0    0 -0.82203882459E+01 -0.51844723616E+01  0.35514899115E+02  0.54367331949E+02  0.40000564841E+02 0.  0.
         12    1    3    3    0    0  0.82203882459E+01  0.51844723616E+01 -0.35514899115E+02  0.36820668051E+02  0.00000000000E+00 0. -1.
         11    1    4    4    0    0  0.66817792225E+01 -0.29906306827E+01  0.48289736916E+00  0.73364320748E+01  0.51100000000E-03 0. -1.
        -11    1    4    4    0    0 -0.13217434590E+02 -0.50574955749E+01  0.25505818944E+01  0.14379996762E+02  0.51100000000E-03 0.  1.
        -12    1    4    4    0    0 -0.16847328786E+01  0.28636538960E+01  0.32481419851E+02  0.32650903112E+02  0.00000000000E+00 0.  1.
</event>
<event>
 8    1  0.1265908E-006  0.9118800E+02  0.7816164E-02  0.1184000E+00
        -11   -1    0    0    0    0  0.00000000000E+00  0.00000000000E+00  0.45593999997E+02  0.45594000000E+02  0.51100000000E-03 0. -1.
         11   -1    0    0    0    0 -0.00000000000E+00 -0.00000000000E+00 -0.45593999997E+02  0.45594000000E+02  0.51100000000E-03 0.  1.
         23    2    1    2    0    0  0.35527136788E-14  0.00000000000E+00 -0.17763568394E-14  0.91188000000E+02  0.91188000000E+02 0.  0.
    9900012    2    3    3    0    0 -0.17120300237E+02  0.31589058684E+02 -0.80501520195E+01  0.54367105710E+02  0.40000049087E+02 0.  0.
         12    1    3    3    0    0  0.17120300237E+02 -0.31589058684E+02  0.80501520195E+01  0.36820894290E+02  0.00000000000E+00 0. -1.
         11    1    4    4    0    0 -0.17524982833E+02  0.29391059566E+02  0.56534166360E+01  0.34683144690E+02  0.51100000000E-03 0. -1.
        -11    1    4    4    0    0 -0.65594251877E+01  0.51518307574E+00 -0.42922726661E+01  0.78558944300E+01  0.51100000000E-03 0.  1.
        -12    1    4    4    0    0  0.69641077828E+01  0.16828160426E+01 -0.94112959894E+01  0.11828066589E+02  0.00000000000E+00 0.  1.
</event>
<event>
 8    1  0.1265908E-006  0.9118800E+02  0.7816164E-02  0.1184000E+00
        -11   -1    0    0    0    0  0.00000000000E+00  0.00000000000E+00  0.45593999997E+02  0.45594000000E+02  0.51100000000E-03 0.  1.
         11   -1    0    0    0    0 -0.00000000000E+00 -0.00000000000E+00 -0.45593999997E+02  0.45594000000E+02  0.51100000000E-03 0. -1.
         23    2    1    2    0    0  0.17763568394E-14 -0.35527136788E-14  0.35527136788E-14  0.91188000000E+02  0.91188000000E+02 0.  0.
    9900012    2    3    3    0    0 -0.12370253095E+02  0.23235877850E+02 -0.25745888409E+02  0.54367082697E+02  0.39999996623E+02 0.  0.
        -12    1    3    3    0    0  0.12370253095E+02 -0.23235877850E+02  0.25745888409E+02  0.36820917303E+02  0.00000000000E+00 0.  1.
         11    1    4    4    0    0 -0.14042308860E+02  0.15317837718E+02 -0.12769482796E+02  0.24390208724E+02  0.51100000000E-03 0. -1.
        -11    1    4    4    0    0  0.95899735484E+01  0.87736604371E+01 -0.16719161677E+02  0.21177230167E+02  0.51100000000E-03 0.  1.
        -12    1    4    4    0    0 -0.79179177836E+01 -0.85562030490E+00  0.37427560644E+01  0.87996438048E+01  0.00000000000E+00 0.  1.
</event>
<event>
 8    1  0.1265908E-006  0.9118800E+02  0.7816164E-02  0.1184000E+00
        -11   -1    0    0    0    0  0.00000000000E+00  0.00000000000E+00  0.45593999997E+02  0.45594000000E+02  0.51100000000E-03 0. -1.
         11   -1    0    0    0    0 -0.00000000000E+00 -0.00000000000E+00 -0.45593999997E+02  0.45594000000E+02  0.51100000000E-03 0.  1.
         23    2    1    2    0    0  0.00000000000E+00  0.35527136788E-14  0.35527136788E-14  0.91188000000E+02  0.91188000000E+02 0.  0.
    9900012    2    3    3    0    0  0.80480579113E+01 -0.23956538301E+02 -0.26778599661E+02  0.54367077098E+02  0.39999983861E+02 0.  0.
         12    1    3    3    0    0 -0.80480579113E+01  0.23956538301E+02  0.26778599661E+02  0.36820922902E+02  0.00000000000E+00 0. -1.
         11    1    4    4    0    0  0.68966725356E+01  0.42123807591E+00  0.37998656394E+01  0.78854621119E+01  0.51100000000E-03 0. -1.
        -11    1    4    4    0    0  0.59617605115E+01 -0.28218163899E+02 -0.25631649726E+02  0.38584826424E+02  0.51100000000E-03 0.  1.
        -12    1    4    4    0    0 -0.48103751358E+01  0.38403875221E+01 -0.49468155749E+01  0.78967885624E+01  0.00000000000E+00 0.  1.
</event>
<event>
 8    1  0.1265908E-006  0.9118800E+02  0.7816164E-02  0.1184000E+00
        -11   -1    0    0    0    0  0.00000000000E+00  0.00000000000E+00  0.45593999997E+02  0.45594000000E+02  0.51100000000E-03 0. -1.
         11   -1    0    0    0    0 -0.00000000000E+00 -0.00000000000E+00 -0.45593999997E+02  0.45594000000E+02  0.51100000000E-03 0.  1.
         23    2    1    2    0    0  0.88817841970E-15  0.88817841970E-15 -0.71054273576E-14  0.91188000000E+02  0.91188000000E+02 0.  0.
    9900012    2    3    3    0    0  0.69673208023E+01  0.22018674116E+01 -0.36088598414E+02  0.54367099485E+02  0.40000034897E+02 0.  0.
         12    1    3    3    0    0 -0.69673208023E+01 -0.22018674116E+01  0.36088598414E+02  0.36820900515E+02  0.00000000000E+00 0. -1.
         11    1    4    4    0    0  0.10037047222E+02  0.13804351436E+02 -0.10119058351E+02  0.19841818910E+02  0.51100000000E-03 0.  1.
        -11    1    4    4    0    0  0.26804839284E+00  0.47022266979E+01 -0.15203731237E+01  0.49491737246E+01  0.51100000000E-03 0. -1.
        -12    1    4    4    0    0 -0.33377748120E+01 -0.16304710722E+02 -0.24449166939E+02  0.29576106851E+02  0.00000000000E+00 0.  1.
</event>
<event>
 8    1  0.1265908E-006  0.9118800E+02  0.7816164E-02  0.1184000E+00
        -11   -1    0    0    0    0  0.00000000000E+00  0.00000000000E+00  0.45593999997E+02  0.45594000000E+02  0.51100000000E-03 0.  1.
         11   -1    0    0    0    0 -0.00000000000E+00 -0.00000000000E+00 -0.45593999997E+02  0.45594000000E+02  0.51100000000E-03 0. -1.
         23    2    1    2    0    0  0.35527136788E-14  0.88817841970E-15  0.71054273576E-14  0.91188000000E+02  0.91188000000E+02 0.  0.
    9900012    2    3    3    0    0  0.20736015875E+02  0.58871557284E+01  0.29851945534E+02  0.54367087341E+02  0.40000007210E+02 0.  0.
         12    1    3    3    0    0 -0.20736015875E+02 -0.58871557284E+01 -0.29851945534E+02  0.36820912659E+02  0.00000000000E+00 0. -1.
         11    1    4    4    0    0 -0.10187029650E+01  0.12851433440E+01  0.14171074082E+02  0.14265647200E+02  0.51100000000E-03 0. -1.
        -11    1    4    4    0    0 -0.14983912551E+00  0.72683280988E+01  0.16488910950E+02  0.18020411474E+02  0.51100000000E-03 0.  1.
         12    1    4    4    0    0  0.21904557965E+02 -0.26663157143E+01 -0.80803949801E+00  0.22081028667E+02  0.00000000000E+00 0. -1.
</event>
<event>
 8    1  0.1265908E-006  0.9118800E+02  0.7816164E-02  0.1184000E+00
        -11   -1    0    0    0    0  0.00000000000E+00  0.00000000000E+00  0.45593999997E+02  0.45594000000E+02  0.51100000000E-03 0.  1.
         11   -1    0    0    0    0 -0.00000000000E+00 -0.00000000000E+00 -0.45593999997E+02  0.45594000000E+02  0.51100000000E-03 0. -1.
         23    2    1    2    0    0  0.00000000000E+00 -0.88817841970E-15  0.00000000000E+00  0.91188000000E+02  0.91188000000E+02 0.  0.
    9900012    2    3    3    0    0 -0.16998437389E+02 -0.59084831123E+01  0.32123590793E+02  0.54367053084E+02  0.39999929116E+02 0.  0.
         12    1    3    3    0    0  0.16998437389E+02  0.59084831123E+01 -0.32123590793E+02  0.36820946916E+02  0.00000000000E+00 0. -1.
         11    1    4    4    0    0 -0.15134968224E+02  0.25351242976E+00  0.12361710558E+02  0.19543372786E+02  0.51100000000E-03 0. -1.
        -11    1    4    4    0    0  0.34725738104E-01  0.51856435669E+01  0.22422823673E+02  0.23014671990E+02  0.51100000000E-03 0.  1.
         12    1    4    4    0    0 -0.18981949033E+01 -0.11347639109E+02 -0.26609434381E+01  0.11809008308E+02  0.00000000000E+00 0. -1.
</event>
<event>
 8    1  0.1265908E-006  0.9118800E+02  0.7816164E-02  0.1184000E+00
        -11   -1    0    0    0    0  0.00000000000E+00  0.00000000000E+00  0.45593999997E+02  0.45594000000E+02  0.51100000000E-03 0. -1.
         11   -1    0    0    0    0 -0.00000000000E+00 -0.00000000000E+00 -0.45593999997E+02  0.45594000000E+02  0.51100000000E-03 0.  1.
         23    2    1    2    0    0 -0.17763568394E-14  0.00000000000E+00  0.00000000000E+00  0.91188000000E+02  0.91188000000E+02 0.  0.
    9900012    2    3    3    0    0  0.96689079859E+01  0.33217342522E+02  0.12605575888E+02  0.54367079733E+02  0.39999989867E+02 0.  0.
        -12    1    3    3    0    0 -0.96689079859E+01 -0.33217342522E+02 -0.12605575888E+02  0.36820920267E+02  0.00000000000E+00 0.  1.
         11    1    4    4    0    0  0.16103191392E+02  0.42508718831E+01 -0.50926989501E+01  0.17416034785E+02  0.51100000000E-03 0. -1.
        -11    1    4    4    0    0 -0.27574274395E+01  0.23548936498E+02  0.18866534624E+02  0.30300197115E+02  0.51100000000E-03 0.  1.
        -12    1    4    4    0    0 -0.36768559665E+01  0.54175341412E+01 -0.11682597857E+01  0.66508478329E+01  0.00000000000E+00 0.  1.
</event>
<event>
 8    1  0.1265908E-006  0.9118800E+02  0.7816164E-02  0.1184000E+00
        -11   -1    0    0    0    0  0.00000000000E+00  0.00000000000E+00  0.45593999997E+02  0.45594000000E+02  0.51100000000E-03 0.  1.
         11   -1    0    0    0    0 -0.00000000000E+00 -0.00000000000E+00 -0.45593999997E+02  0.45594000000E+02  0.51100000000E-03 0. -1.
         23    2    1    2    0    0  0.00000000000E+00  0.00000000000E+00 -0.88817841970E-15  0.91188000000E+02  0.91188000000E+02 0.  0.
    9900012    2    3    3    0    0  0.32739365524E+02  0.16543698393E+02 -0.31967889557E+01  0.54367089215E+02  0.40000011483E+02 0.  0.
         12    1    3    3    0    0 -0.32739365524E+02 -0.16543698393E+02  0.31967889557E+01  0.36820910785E+02  0.00000000000E+00 0. -1.
         11    1    4    4    0    0  0.12408685598E+02  0.47299652350E+01  0.13239870584E+02  0.18752125819E+02  0.51100000000E-03 0. -1.
        -11    1    4    4    0    0  0.14219901755E+01 -0.55782185937E+01 -0.17224726612E+01  0.60087844917E+01  0.51100000000E-03 0.  1.
         12    1    4    4    0    0  0.18908689750E+02  0.17391951751E+02 -0.14714186878E+02  0.29606178904E+02  0.00000000000E+00 0. -1.
</event>
<event>
 8    1  0.1265908E-006  0.9118800E+02  0.7816164E-02  0.1184000E+00
        -11   -1    0    0    0    0  0.00000000000E+00  0.00000000000E+00  0.45593999997E+02  0.45594000000E+02  0.51100000000E-03 0.  1.
         11   -1    0    0    0    0 -0.00000000000E+00 -0.00000000000E+00 -0.45593999997E+02  0.45594000000E+02  0.51100000000E-03 0. -1.
         23    2    1    2    0    0  0.00000000000E+00  0.26645352591E-14  0.00000000000E+00  0.91188000000E+02  0.91188000000E+02 0.  0.
    9900012    2    3    3    0    0 -0.95189204007E+01 -0.52577837756E+01 -0.35178483069E+02  0.54367084655E+02  0.40000001087E+02 0.  0.
        -12    1    3    3    0    0  0.95189204007E+01  0.52577837756E+01  0.35178483069E+02  0.36820915345E+02  0.00000000000E+00 0.  1.
         11    1    4    4    0    0 -0.21139135014E+01 -0.14001260956E+02 -0.79428149917E+01  0.16235524288E+02  0.51100000000E-03 0. -1.
        -11    1    4    4    0    0 -0.65876382683E+01  0.13406716650E+02 -0.55505775690E+01  0.15935681376E+02  0.51100000000E-03 0.  1.
         12    1    4    4    0    0 -0.81736863105E+00 -0.46632394699E+01 -0.21685090508E+02  0.22195878991E+02  0.00000000000E+00 0. -1.
</event>
<event>
 8    1  0.1265908E-006  0.9118800E+02  0.7816164E-02  0.1184000E+00
        -11   -1    0    0    0    0  0.00000000000E+00  0.00000000000E+00  0.45593999997E+02  0.45594000000E+02  0.51100000000E-03 0.  1.
         11   -1    0    0    0    0 -0.00000000000E+00 -0.00000000000E+00 -0.45593999997E+02  0.45594000000E+02  0.51100000000E-03 0. -1.
         23    2    1    2    0    0  0.00000000000E+00  0.00000000000E+00  0.00000000000E+00  0.91188000000E+02  0.91188000000E+02 0.  0.
    9900012    2    3    3    0    0  0.12582880300E+02 -0.48614408936E+01 -0.34260998646E+02  0.54367102232E+02  0.40000041158E+02 0.  0.
        -12    1    3    3    0    0 -0.12582880300E+02  0.48614408936E+01  0.34260998646E+02  0.36820897768E+02  0.00000000000E+00 0.  1.
         11    1    4    4    0    0 -0.12830638871E+01 -0.99518422580E+01 -0.10155749633E+02  0.14276717695E+02  0.51100000000E-03 0. -1.
        -11    1    4    4    0    0  0.55096010457E+01 -0.11140324481E+02 -0.15614650546E+02  0.19956949796E+02  0.51100000000E-03 0.  1.
        -12    1    4    4    0    0  0.83563431417E+01  0.16230725845E+02 -0.84905984675E+01  0.20133434742E+02  0.00000000000E+00 0.  1.
</event>
<event>
 8    1  0.1265908E-006  0.9118800E+02  0.7816164E-02  0.1184000E+00
        -11   -1    0    0    0    0  0.00000000000E+00  0.00000000000E+00  0.45593999997E+02  0.45594000000E+02  0.51100000000E-03 0.  1.
         11   -1    0    0    0    0 -0.00000000000E+00 -0.00000000000E+00 -0.45593999997E+02  0.45594000000E+02  0.51100000000E-03 0. -1.
         23    2    1    2    0    0  0.17763568394E-14 -0.35527136788E-14  0.00000000000E+00  0.91188000000E+02  0.91188000000E+02 0.  0.
    9900012    2    3    3    0    0  0.12216757377E+02 -0.21752654409E+02 -0.27080436663E+02  0.54367120265E+02  0.40000082267E+02 0.  0.
        -12    1    3    3    0    0 -0.12216757377E+02  0.21752654409E+02  0.27080436663E+02  0.36820879735E+02  0.00000000000E+00 0.  1.
         11    1    4    4    0    0  0.15134393882E+02  0.53785480920E+01 -0.20397571098E+02  0.25962271948E+02  0.51100000000E-03 0.  1.
        -11    1    4    4    0    0 -0.28267362364E+01 -0.16394357368E+02 -0.58520279847E+01  0.17635521627E+02  0.51100000000E-03 0. -1.
        -12    1    4    4    0    0 -0.90900268259E-01 -0.10736845132E+02 -0.83083758029E+00  0.10769326689E+02  0.00000000000E+00 0.  1.
</event>
<event>
 8    1  0.1265908E-006  0.9118800E+02  0.7816164E-02  0.1184000E+00
        -11   -1    0    0    0    0  0.00000000000E+00  0.00000000000E+00  0.45593999997E+02  0.45594000000E+02  0.51100000000E-03 0.  1.
         11   -1    0    0    0    0 -0.00000000000E+00 -0.00000000000E+00 -0.45593999997E+02  0.45594000000E+02  0.51100000000E-03 0. -1.
         23    2    1    2    0    0  0.17763568394E-14  0.35527136788E-14  0.00000000000E+00  0.91188000000E+02  0.91188000000E+02 0.  0.
    9900012    2    3    3    0    0  0.78433999551E+01 -0.31348138610E+02 -0.17650918745E+02  0.54367086788E+02  0.40000005951E+02 0.  0.
        -12    1    3    3    0    0 -0.78433999551E+01  0.31348138610E+02  0.17650918745E+02  0.36820913212E+02  0.00000000000E+00 0.  1.
         11    1    4    4    0    0  0.11860431778E+01 -0.12196991430E+02 -0.14186125959E+02  0.18746185435E+02  0.51100000000E-03 0. -1.
        -11    1    4    4    0    0  0.97529334919E+01 -0.23943922872E+02 -0.92848122285E+01  0.27470691520E+02  0.51100000000E-03 0.  1.
        -12    1    4    4    0    0 -0.30955767146E+01  0.47927756916E+01  0.58200194424E+01  0.81502098338E+01  0.00000000000E+00 0.  1.
</event>
<event>
 8    1  0.1265908E-006  0.9118800E+02  0.7816164E-02  0.1184000E+00
        -11   -1    0    0    0    0  0.00000000000E+00  0.00000000000E+00  0.45593999997E+02  0.45594000000E+02  0.51100000000E-03 0.  1.
         11   -1    0    0    0    0 -0.00000000000E+00 -0.00000000000E+00 -0.45593999997E+02  0.45594000000E+02  0.51100000000E-03 0. -1.
         23    2    1    2    0    0 -0.17763568394E-14  0.00000000000E+00  0.00000000000E+00  0.91188000000E+02  0.91188000000E+02 0.  0.
    9900012    2    3    3    0    0  0.81118777404E+01  0.30227733397E+02  0.19397415527E+02  0.54367107074E+02  0.40000052195E+02 0.  0.
         12    1    3    3    0    0 -0.81118777404E+01 -0.30227733397E+02 -0.19397415527E+02  0.36820892926E+02  0.00000000000E+00 0. -1.
         11    1    4    4    0    0 -0.60920218998E+01  0.88792279232E+01 -0.35171285500E+00  0.10773909297E+02  0.51100000000E-03 0. -1.
        -11    1    4    4    0    0 -0.44520928657E+01  0.13492739664E+02 -0.14495818931E+01  0.14282032154E+02  0.51100000000E-03 0.  1.
        -12    1    4    4    0    0  0.18655992506E+02  0.78557658096E+01  0.21198710275E+02  0.29311165623E+02  0.00000000000E+00 0.  1.
</event>
<event>
 8    1  0.1265908E-006  0.9118800E+02  0.7816164E-02  0.1184000E+00
        -11   -1    0    0    0    0  0.00000000000E+00  0.00000000000E+00  0.45593999997E+02  0.45594000000E+02  0.51100000000E-03 0. -1.
         11   -1    0    0    0    0 -0.00000000000E+00 -0.00000000000E+00 -0.45593999997E+02  0.45594000000E+02  0.51100000000E-03 0.  1.
         23    2    1    2    0    0  0.00000000000E+00  0.00000000000E+00  0.00000000000E+00  0.91188000000E+02  0.91188000000E+02 0.  0.
    9900012    2    3    3    0    0  0.24943035950E+02  0.25733552402E+02  0.84503984743E+01  0.54367082086E+02  0.39999995233E+02 0.  0.
         12    1    3    3    0    0 -0.24943035950E+02 -0.25733552402E+02 -0.84503984743E+01  0.36820917914E+02  0.00000000000E+00 0. -1.
         11    1    4    4    0    0  0.43323243708E+01  0.91430268037E+01 -0.57119139205E+01  0.11618516880E+02  0.51100000000E-03 0. -1.
        -11    1    4    4    0    0 -0.37214990465E+00 -0.81843137391E+00 -0.77302422552E+01  0.77823499697E+01  0.51100000000E-03 0.  1.
         12    1    4    4    0    0  0.20982861484E+02  0.17408956972E+02  0.21892554650E+02  0.34966215237E+02  0.00000000000E+00 0. -1.
</event>
<event>
 8    1  0.1265908E-006  0.9118800E+02  0.7816164E-02  0.1184000E+00
        -11   -1    0    0    0    0  0.00000000000E+00  0.00000000000E+00  0.45593999997E+02  0.45594000000E+02  0.51100000000E-03 0.  1.
         11   -1    0    0    0    0 -0.00000000000E+00 -0.00000000000E+00 -0.45593999997E+02  0.45594000000E+02  0.51100000000E-03 0. -1.
         23    2    1    2    0    0  0.11102230246E-15  0.00000000000E+00  0.00000000000E+00  0.91188000000E+02  0.91188000000E+02 0.  0.
    9900012    2    3    3    0    0 -0.57480288145E+00 -0.17971926712E+02  0.32131967034E+02  0.54367029703E+02  0.39999875815E+02 0.  0.
         12    1    3    3    0    0  0.57480288145E+00  0.17971926712E+02 -0.32131967034E+02  0.36820970297E+02  0.00000000000E+00 0. -1.
         11    1    4    4    0    0 -0.37725366237E+00  0.82046761926E+01 -0.14696188194E+01  0.83437887969E+01  0.51100000000E-03 0. -1.
        -11    1    4    4    0    0 -0.13768435721E+01 -0.14766908389E+02  0.57579732671E+01  0.15909479502E+02  0.51100000000E-03 0.  1.
         12    1    4    4    0    0  0.11792943530E+01 -0.11409694515E+02  0.27843612586E+02  0.30113761405E+02  0.00000000000E+00 0. -1.
</event>
<event>
 8    1  0.1265908E-006  0.9118800E+02  0.7816164E-02  0.1184000E+00
        -11   -1    0    0    0    0  0.00000000000E+00  0.00000000000E+00  0.45593999997E+02  0.45594000000E+02  0.51100000000E-03 0.  1.
         11   -1    0    0    0    0 -0.00000000000E+00 -0.00000000000E+00 -0.45593999997E+02  0.45594000000E+02  0.51100000000E-03 0. -1.
         23    2    1    2    0    0  0.00000000000E+00  0.35527136788E-14  0.35527136788E-14  0.91188000000E+02  0.91188000000E+02 0.  0.
    9900012    2    3    3    0    0 -0.28110131240E+02 -0.14823984532E+02 -0.18596892126E+02  0.54367158178E+02  0.40000168697E+02 0.  0.
        -12    1    3    3    0    0  0.28110131240E+02  0.14823984532E+02  0.18596892126E+02  0.36820841822E+02  0.00000000000E+00 0.  1.
         11    1    4    4    0    0 -0.18118927120E+01 -0.12823422622E+02 -0.16107263427E+02  0.20668020184E+02  0.51100000000E-03 0. -1.
        -11    1    4    4    0    0 -0.11202457687E+02 -0.50803478572E+01  0.83449665215E+01  0.14864166949E+02  0.51100000000E-03 0.  1.
        -12    1    4    4    0    0 -0.15095780841E+02  0.30797859464E+01 -0.10834595221E+02  0.18834971045E+02  0.00000000000E+00 0.  1.
</event>
<event>
 8    1  0.1265908E-006  0.9118800E+02  0.7816164E-02  0.1184000E+00
        -11   -1    0    0    0    0  0.00000000000E+00  0.00000000000E+00  0.45593999997E+02  0.45594000000E+02  0.51100000000E-03 0.  1.
         11   -1    0    0    0    0 -0.00000000000E+00 -0.00000000000E+00 -0.45593999997E+02  0.45594000000E+02  0.51100000000E-03 0. -1.
         23    2    1    2    0    0 -0.71054273576E-14  0.35527136788E-14 -0.13322676296E-14  0.91188000000E+02  0.91188000000E+02 0.  0.
    9900012    2    3    3    0    0  0.32212522079E+02 -0.17414360972E+02  0.38565852470E+01  0.54367084795E+02  0.40000001408E+02 0.  0.
        -12    1    3    3    0    0 -0.32212522079E+02  0.17414360972E+02 -0.38565852470E+01  0.36820915205E+02  0.00000000000E+00 0.  1.
         11    1    4    4    0    0  0.23739022535E+02 -0.19178475816E+02  0.11339841541E+02  0.32556829268E+02  0.51100000000E-03 0. -1.
        -11    1    4    4    0    0  0.73751867186E+01  0.19341112645E+01 -0.13601016286E+02  0.15592363830E+02  0.51100000000E-03 0.  1.
        -12    1    4    4    0    0  0.10983128248E+01 -0.16999642114E+00  0.61177599920E+01  0.62178916977E+01  0.00000000000E+00 0.  1.
</event>
<event>
 8    1  0.1265908E-006  0.9118800E+02  0.7816164E-02  0.1184000E+00
        -11   -1    0    0    0    0  0.00000000000E+00  0.00000000000E+00  0.45593999997E+02  0.45594000000E+02  0.51100000000E-03 0.  1.
         11   -1    0    0    0    0 -0.00000000000E+00 -0.00000000000E+00 -0.45593999997E+02  0.45594000000E+02  0.51100000000E-03 0. -1.
         23    2    1    2    0    0  0.00000000000E+00  0.00000000000E+00 -0.35527136788E-14  0.91188000000E+02  0.91188000000E+02 0.  0.
    9900012    2    3    3    0    0 -0.15792490072E+02  0.26459682418E+02  0.20155957012E+02  0.54367080139E+02  0.39999990794E+02 0.  0.
         12    1    3    3    0    0  0.15792490072E+02 -0.26459682418E+02 -0.20155957012E+02  0.36820919861E+02  0.00000000000E+00 0. -1.
         11    1    4    4    0    0 -0.24189392354E+02  0.12304635824E+02  0.49320357762E+01  0.27583613657E+02  0.51100000000E-03 0.  1.
        -11    1    4    4    0    0  0.86895805667E+01  0.11601509270E+02  0.17926732621E+02  0.23053667182E+02  0.51100000000E-03 0. -1.
         12    1    4    4    0    0 -0.29267828462E+00  0.25535373231E+01 -0.27028113857E+01  0.37297993010E+01  0.00000000000E+00 0. -1.
</event>
<event>
 8    1  0.1265908E-006  0.9118800E+02  0.7816164E-02  0.1184000E+00
        -11   -1    0    0    0    0  0.00000000000E+00  0.00000000000E+00  0.45593999997E+02  0.45594000000E+02  0.51100000000E-03 0. -1.
         11   -1    0    0    0    0 -0.00000000000E+00 -0.00000000000E+00 -0.45593999997E+02  0.45594000000E+02  0.51100000000E-03 0.  1.
         23    2    1    2    0    0 -0.13322676296E-14  0.00000000000E+00  0.00000000000E+00  0.91188000000E+02  0.91188000000E+02 0.  0.
    9900012    2    3    3    0    0  0.33866359486E+01  0.13327601783E+02 -0.34156664003E+02  0.54367191098E+02  0.40000243746E+02 0.  0.
         12    1    3    3    0    0 -0.33866359486E+01 -0.13327601783E+02  0.34156664003E+02  0.36820808902E+02  0.00000000000E+00 0. -1.
         11    1    4    4    0    0  0.63761848871E+01  0.14782130827E+02 -0.14597178540E+02  0.21731192952E+02  0.51100000000E-03 0.  1.
        -11    1    4    4    0    0  0.11533381534E+02 -0.56954225931E+00 -0.79058859823E+01  0.13994509688E+02  0.51100000000E-03 0. -1.
        -12    1    4    4    0    0 -0.14522930472E+02 -0.88498678443E+00 -0.11653599481E+02  0.18641488459E+02  0.00000000000E+00 0.  1.
</event>
<event>
 8    1  0.1265908E-006  0.9118800E+02  0.7816164E-02  0.1184000E+00
        -11   -1    0    0    0    0  0.00000000000E+00  0.00000000000E+00  0.45593999997E+02  0.45594000000E+02  0.51100000000E-03 0.  1.
         11   -1    0    0    0    0 -0.00000000000E+00 -0.00000000000E+00 -0.45593999997E+02  0.45594000000E+02  0.51100000000E-03 0. -1.
         23    2    1    2    0    0  0.00000000000E+00  0.00000000000E+00 -0.35527136788E-14  0.91188000000E+02  0.91188000000E+02 0.  0.
    9900012    2    3    3    0    0  0.20851107928E+02 -0.13608222045E+02 -0.27126194045E+02  0.54367043842E+02  0.39999908045E+02 0.  0.
        -12    1    3    3    0    0 -0.20851107928E+02  0.13608222045E+02  0.27126194045E+02  0.36820956158E+02  0.00000000000E+00 0.  1.
         11    1    4    4    0    0  0.26494662103E+01 -0.80198641653E+01  0.86089441286E+01  0.12060340447E+02  0.51100000000E-03 0. -1.
        -11    1    4    4    0    0  0.53635872971E+01 -0.41426416909E+01 -0.23701113179E+02  0.24651010426E+02  0.51100000000E-03 0.  1.
         12    1    4    4    0    0  0.12838054420E+02 -0.14457161889E+01 -0.12034024995E+02  0.17655692968E+02  0.00000000000E+00 0. -1.
</event>
<event>
 8    1  0.1265908E-006  0.9118800E+02  0.7816164E-02  0.1184000E+00
        -11   -1    0    0    0    0  0.00000000000E+00  0.00000000000E+00  0.45593999997E+02  0.45594000000E+02  0.51100000000E-03 0.  1.
         11   -1    0    0    0    0 -0.00000000000E+00 -0.00000000000E+00 -0.45593999997E+02  0.45594000000E+02  0.51100000000E-03 0. -1.
         23    2    1    2    0    0 -0.17763568394E-14  0.00000000000E+00  0.17763568394E-14  0.91188000000E+02  0.91188000000E+02 0.  0.
    9900012    2    3    3    0    0 -0.10284946775E+02  0.32541276028E+02  0.13822611505E+02  0.54367090661E+02  0.40000014781E+02 0.  0.
         12    1    3    3    0    0  0.10284946775E+02 -0.32541276028E+02 -0.13822611505E+02  0.36820909339E+02  0.00000000000E+00 0. -1.
         11    1    4    4    0    0  0.78325876728E+01  0.19771153419E+02 -0.43131206173E+01  0.21699100140E+02  0.51100000000E-03 0. -1.
        -11    1    4    4    0    0 -0.79055028048E-01 -0.17387297923E+01  0.65576132198E+01  0.67846681857E+01  0.51100000000E-03 0.  1.
        -12    1    4    4    0    0 -0.18038479420E+02  0.14508852401E+02  0.11578118902E+02  0.25883322335E+02  0.00000000000E+00 0.  1.
</event>
<event>
 8    1  0.1265908E-006  0.9118800E+02  0.7816164E-02  0.1184000E+00
        -11   -1    0    0    0    0  0.00000000000E+00  0.00000000000E+00  0.45593999997E+02  0.45594000000E+02  0.51100000000E-03 0.  1.
         11   -1    0    0    0    0 -0.00000000000E+00 -0.00000000000E+00 -0.45593999997E+02  0.45594000000E+02  0.51100000000E-03 0. -1.
         23    2    1    2    0    0  0.00000000000E+00  0.00000000000E+00  0.00000000000E+00  0.91188000000E+02  0.91188000000E+02 0.  0.
    9900012    2    3    3    0    0 -0.25811548144E+02  0.32743081680E+01  0.26054218066E+02  0.54367090307E+02  0.40000013974E+02 0.  0.
         12    1    3    3    0    0  0.25811548144E+02 -0.32743081680E+01 -0.26054218066E+02  0.36820909693E+02  0.00000000000E+00 0. -1.
         11    1    4    4    0    0 -0.13640777966E+02  0.44693060562E+01 -0.66919934208E+01  0.15837559671E+02  0.51100000000E-03 0. -1.
        -11    1    4    4    0    0 -0.49404649584E+01  0.74612485903E+01  0.16151743066E+02  0.18465027183E+02  0.51100000000E-03 0.  1.
        -12    1    4    4    0    0 -0.72303052196E+01 -0.86562464784E+01  0.16594468421E+02  0.20064503454E+02  0.00000000000E+00 0.  1.
</event>
<event>
 8    1  0.1265908E-006  0.9118800E+02  0.7816164E-02  0.1184000E+00
        -11   -1    0    0    0    0  0.00000000000E+00  0.00000000000E+00  0.45593999997E+02  0.45594000000E+02  0.51100000000E-03 0.  1.
         11   -1    0    0    0    0 -0.00000000000E+00 -0.00000000000E+00 -0.45593999997E+02  0.45594000000E+02  0.51100000000E-03 0. -1.
         23    2    1    2    0    0 -0.71054273576E-14  0.00000000000E+00  0.00000000000E+00  0.91188000000E+02  0.91188000000E+02 0.  0.
    9900012    2    3    3    0    0  0.20247693662E+02 -0.30559065012E+02  0.34577151368E+01  0.54367063741E+02  0.39999953410E+02 0.  0.
         12    1    3    3    0    0 -0.20247693662E+02  0.30559065012E+02 -0.34577151368E+01  0.36820936259E+02  0.00000000000E+00 0. -1.
         11    1    4    4    0    0 -0.39921794362E+01 -0.93957794305E+00  0.36949640893E+00  0.41178673144E+01  0.51100000000E-03 0. -1.
        -11    1    4    4    0    0 -0.55287892902E+01  0.25487295914E+01  0.19956891052E+01  0.64067393276E+01  0.51100000000E-03 0.  1.
        -12    1    4    4    0    0  0.29768662389E+02 -0.32168216660E+02  0.10925296226E+01  0.43842457099E+02  0.00000000000E+00 0.  1.
</event>
<event>
 8    1  0.1265908E-006  0.9118800E+02  0.7816164E-02  0.1184000E+00
        -11   -1    0    0    0    0  0.00000000000E+00  0.00000000000E+00  0.45593999997E+02  0.45594000000E+02  0.51100000000E-03 0. -1.
         11   -1    0    0    0    0 -0.00000000000E+00 -0.00000000000E+00 -0.45593999997E+02  0.45594000000E+02  0.51100000000E-03 0.  1.
         23    2    1    2    0    0  0.00000000000E+00  0.00000000000E+00 -0.71054273576E-14  0.91188000000E+02  0.91188000000E+02 0.  0.
    9900012    2    3    3    0    0 -0.13032974018E+02  0.96039120498E+01 -0.33070947096E+02  0.54367067363E+02  0.39999961668E+02 0.  0.
         12    1    3    3    0    0  0.13032974018E+02 -0.96039120498E+01  0.33070947096E+02  0.36820932637E+02  0.00000000000E+00 0. -1.
         11    1    4    4    0    0 -0.64714387871E+01  0.31278375929E+00  0.50595888389E+01  0.82205105155E+01  0.51100000000E-03 0. -1.
        -11    1    4    4    0    0  0.86685062491E+01  0.53099394974E+01 -0.13174430571E+02  0.16640435066E+02  0.51100000000E-03 0.  1.
        -12    1    4    4    0    0 -0.15230041480E+02  0.39811887931E+01 -0.24956105364E+02  0.29506121782E+02  0.00000000000E+00 0.  1.
</event>
<event>
 8    1  0.1265908E-006  0.9118800E+02  0.7816164E-02  0.1184000E+00
        -11   -1    0    0    0    0  0.00000000000E+00  0.00000000000E+00  0.45593999997E+02  0.45594000000E+02  0.51100000000E-03 0.  1.
         11   -1    0    0    0    0 -0.00000000000E+00 -0.00000000000E+00 -0.45593999997E+02  0.45594000000E+02  0.51100000000E-03 0. -1.
         23    2    1    2    0    0  0.00000000000E+00  0.00000000000E+00  0.00000000000E+00  0.91188000000E+02  0.91188000000E+02 0.  0.
    9900012    2    3    3    0    0  0.22682349282E+02  0.17701623484E+02 -0.22976990116E+02  0.54367102161E+02  0.40000040996E+02 0.  0.
        -12    1    3    3    0    0 -0.22682349282E+02 -0.17701623484E+02  0.22976990116E+02  0.36820897839E+02  0.00000000000E+00 0.  1.
         11    1    4    4    0    0  0.14090059083E+02  0.81052827010E+01 -0.29364254544E+02  0.33563146721E+02  0.51100000000E-03 0. -1.
        -11    1    4    4    0    0 -0.16137327292E+01  0.73360828594E+01  0.70872786768E+01  0.10327234109E+02  0.51100000000E-03 0.  1.
        -12    1    4    4    0    0  0.10206022928E+02  0.22602579232E+01 -0.70001424800E+00  0.10476721331E+02  0.00000000000E+00 0.  1.
</event>
<event>
 8    1  0.1265908E-006  0.9118800E+02  0.7816164E-02  0.1184000E+00
        -11   -1    0    0    0    0  0.00000000000E+00  0.00000000000E+00  0.45593999997E+02  0.45594000000E+02  0.51100000000E-03 0. -1.
         11   -1    0    0    0    0 -0.00000000000E+00 -0.00000000000E+00 -0.45593999997E+02  0.45594000000E+02  0.51100000000E-03 0.  1.
         23    2    1    2    0    0  0.35527136788E-14  0.88817841970E-15 -0.35527136788E-14  0.91188000000E+02  0.91188000000E+02 0.  0.
    9900012    2    3    3    0    0  0.31036294233E+02  0.73615528480E+01 -0.18393876003E+02  0.54367099761E+02  0.40000035524E+02 0.  0.
         12    1    3    3    0    0 -0.31036294233E+02 -0.73615528480E+01  0.18393876003E+02  0.36820900239E+02  0.00000000000E+00 0. -1.
         11    1    4    4    0    0  0.35613990947E+01  0.12935843336E+02 -0.11318385388E+01  0.13464793539E+02  0.51100000000E-03 0. -1.
        -11    1    4    4    0    0  0.39666051868E+00 -0.73317957004E+01  0.20183534534E+01  0.76148748304E+01  0.51100000000E-03 0.  1.
        -12    1    4    4    0    0  0.27078234620E+02  0.17575052128E+01 -0.19280390917E+02  0.33287431391E+02  0.00000000000E+00 0.  1.
</event>
<event>
 8    1  0.1265908E-006  0.9118800E+02  0.7816164E-02  0.1184000E+00
        -11   -1    0    0    0    0  0.00000000000E+00  0.00000000000E+00  0.45593999997E+02  0.45594000000E+02  0.51100000000E-03 0.  1.
         11   -1    0    0    0    0 -0.00000000000E+00 -0.00000000000E+00 -0.45593999997E+02  0.45594000000E+02  0.51100000000E-03 0. -1.
         23    2    1    2    0    0  0.35527136788E-14  0.00000000000E+00  0.00000000000E+00  0.91188000000E+02  0.91188000000E+02 0.  0.
    9900012    2    3    3    0    0  0.22044736631E+02  0.19473351502E+02 -0.22149425728E+02  0.54367097079E+02  0.40000029411E+02 0.  0.
        -12    1    3    3    0    0 -0.22044736631E+02 -0.19473351502E+02  0.22149425728E+02  0.36820902921E+02  0.00000000000E+00 0.  1.
         11    1    4    4    0    0 -0.72399319374E+01  0.51653430038E+01 -0.53525907696E+00  0.89097634842E+01  0.51100000000E-03 0. -1.
        -11    1    4    4    0    0  0.12923479361E+02 -0.26100341624E+01  0.45669131554E+00  0.13192314594E+02  0.51100000000E-03 0.  1.
        -12    1    4    4    0    0  0.16361189207E+02  0.16918042661E+02 -0.22070857967E+02  0.32265019001E+02  0.00000000000E+00 0.  1.
</event>
<event>
 8    1  0.1265908E-006  0.9118800E+02  0.7816164E-02  0.1184000E+00
        -11   -1    0    0    0    0  0.00000000000E+00  0.00000000000E+00  0.45593999997E+02  0.45594000000E+02  0.51100000000E-03 0. -1.
         11   -1    0    0    0    0 -0.00000000000E+00 -0.00000000000E+00 -0.45593999997E+02  0.45594000000E+02  0.51100000000E-03 0.  1.
         23    2    1    2    0    0 -0.17763568394E-14  0.00000000000E+00  0.00000000000E+00  0.91188000000E+02  0.91188000000E+02 0.  0.
    9900012    2    3    3    0    0 -0.11093469419E+02  0.10867611521E+02 -0.33385780703E+02  0.54367076640E+02  0.39999982817E+02 0.  0.
         12    1    3    3    0    0  0.11093469419E+02 -0.10867611521E+02  0.33385780703E+02  0.36820923360E+02  0.00000000000E+00 0. -1.
         11    1    4    4    0    0  0.58209978898E+01  0.62956741089E+01  0.15340761858E+01  0.87105062381E+01  0.51100000000E-03 0. -1.
        -11    1    4    4    0    0 -0.53170474224E+01  0.13463797193E+02 -0.20755115959E+02  0.25304538465E+02  0.51100000000E-03 0.  1.
        -12    1    4    4    0    0 -0.11597419886E+02 -0.88918597815E+01 -0.14164740930E+02  0.20352031938E+02  0.00000000000E+00 0.  1.
</event>
<event>
 8    1  0.1265908E-006  0.9118800E+02  0.7816164E-02  0.1184000E+00
        -11   -1    0    0    0    0  0.00000000000E+00  0.00000000000E+00  0.45593999997E+02  0.45594000000E+02  0.51100000000E-03 0. -1.
         11   -1    0    0    0    0 -0.00000000000E+00 -0.00000000000E+00 -0.45593999997E+02  0.45594000000E+02  0.51100000000E-03 0.  1.
         23    2    1    2    0    0  0.26645352591E-14  0.17763568394E-14  0.00000000000E+00  0.91188000000E+02  0.91188000000E+02 0.  0.
    9900012    2    3    3    0    0  0.52946369733E+01  0.15065491386E+02 -0.33177967182E+02  0.54367085866E+02  0.40000003848E+02 0.  0.
         12    1    3    3    0    0 -0.52946369733E+01 -0.15065491386E+02  0.33177967182E+02  0.36820914134E+02  0.00000000000E+00 0. -1.
         11    1    4    4    0    0  0.18750385696E+02  0.43150502765E+01 -0.16609231470E+02  0.25417773170E+02  0.51100000000E-03 0. -1.
        -11    1    4    4    0    0  0.23546115565E+01  0.71241520942E+01 -0.47668451884E+01  0.88893504799E+01  0.51100000000E-03 0.  1.
        -12    1    4    4    0    0 -0.15810360279E+02  0.36262890151E+01 -0.11801890524E+02  0.20059962216E+02  0.00000000000E+00 0.  1.
</event>
<event>
 8    1  0.1265908E-006  0.9118800E+02  0.7816164E-02  0.1184000E+00
        -11   -1    0    0    0    0  0.00000000000E+00  0.00000000000E+00  0.45593999997E+02  0.45594000000E+02  0.51100000000E-03 0.  1.
         11   -1    0    0    0    0 -0.00000000000E+00 -0.00000000000E+00 -0.45593999997E+02  0.45594000000E+02  0.51100000000E-03 0. -1.
         23    2    1    2    0    0  0.88817841970E-15  0.00000000000E+00  0.35527136788E-14  0.91188000000E+02  0.91188000000E+02 0.  0.
    9900012    2    3    3    0    0  0.53766385280E+01  0.18646729186E+02 -0.31291660506E+02  0.54367125915E+02  0.40000095147E+02 0.  0.
        -12    1    3    3    0    0 -0.53766385280E+01 -0.18646729186E+02  0.31291660506E+02  0.36820874085E+02  0.00000000000E+00 0.  1.
         11    1    4    4    0    0  0.11909186894E+02 -0.11318728147E+01 -0.14706664548E+02  0.18957738550E+02  0.51100000000E-03 0. -1.
        -11    1    4    4    0    0  0.37230556239E+01 -0.31450675222E+01  0.69850619722E+00  0.49234646405E+01  0.51100000000E-03 0.  1.
        -12    1    4    4    0    0 -0.10255603990E+02  0.22923669523E+02 -0.17283502155E+02  0.30485922724E+02  0.00000000000E+00 0.  1.
</event>
<event>
 8    1  0.1265908E-006  0.9118800E+02  0.7816164E-02  0.1184000E+00
        -11   -1    0    0    0    0  0.00000000000E+00  0.00000000000E+00  0.45593999997E+02  0.45594000000E+02  0.51100000000E-03 0.  1.
         11   -1    0    0    0    0 -0.00000000000E+00 -0.00000000000E+00 -0.45593999997E+02  0.45594000000E+02  0.51100000000E-03 0. -1.
         23    2    1    2    0    0  0.00000000000E+00  0.00000000000E+00  0.00000000000E+00  0.91188000000E+02  0.91188000000E+02 0.  0.
    9900012    2    3    3    0    0  0.20184603259E+02  0.21278298823E+02 -0.22261971134E+02  0.54367087894E+02  0.40000008473E+02 0.  0.
        -12    1    3    3    0    0 -0.20184603259E+02 -0.21278298823E+02  0.22261971134E+02  0.36820912106E+02  0.00000000000E+00 0.  1.
         11    1    4    4    0    0 -0.56651571141E+00  0.19042513826E+01  0.52548567067E+01  0.56178850690E+01  0.51100000000E-03 0. -1.
        -11    1    4    4    0    0  0.87520579926E+01  0.42455341598E+01  0.49954969426E+01  0.10935175782E+02  0.51100000000E-03 0.  1.
         12    1    4    4    0    0  0.11999060978E+02  0.15128513280E+02 -0.32512324784E+02  0.37814027044E+02  0.00000000000E+00 0. -1.
</event>
<event>
 8    1  0.1265908E-006  0.9118800E+02  0.7816164E-02  0.1184000E+00
        -11   -1    0    0    0    0  0.00000000000E+00  0.00000000000E+00  0.45593999997E+02  0.45594000000E+02  0.51100000000E-03 0. -1.
         11   -1    0    0    0    0 -0.00000000000E+00 -0.00000000000E+00 -0.45593999997E+02  0.45594000000E+02  0.51100000000E-03 0.  1.
         23    2    1    2    0    0  0.55511151231E-15 -0.35527136788E-14  0.35527136788E-14  0.91188000000E+02  0.91188000000E+02 0.  0.
    9900012    2    3    3    0    0  0.79993447761E+00 -0.19590528576E+02  0.31166591870E+02  0.54367012047E+02  0.39999835563E+02 0.  0.
         12    1    3    3    0    0 -0.79993447761E+00  0.19590528576E+02 -0.31166591870E+02  0.36820987953E+02  0.00000000000E+00 0. -1.
         11    1    4    4    0    0 -0.36139055793E+01  0.14420456950E+01  0.53154020919E+01  0.65873597884E+01  0.51100000000E-03 0. -1.
        -11    1    4    4    0    0  0.95851092411E+01 -0.11090930595E+02  0.31855370601E+02  0.35066332814E+02  0.51100000000E-03 0.  1.
         12    1    4    4    0    0 -0.51712691842E+01 -0.99416436760E+01 -0.60041808229E+01  0.12713319445E+02  0.00000000000E+00 0. -1.
</event>
<event>
 8    1  0.1265908E-006  0.9118800E+02  0.7816164E-02  0.1184000E+00
        -11   -1    0    0    0    0  0.00000000000E+00  0.00000000000E+00  0.45593999997E+02  0.45594000000E+02  0.51100000000E-03 0.  1.
         11   -1    0    0    0    0 -0.00000000000E+00 -0.00000000000E+00 -0.45593999997E+02  0.45594000000E+02  0.51100000000E-03 0. -1.
         23    2    1    2    0    0  0.17763568394E-14  0.00000000000E+00  0.00000000000E+00  0.91188000000E+02  0.91188000000E+02 0.  0.
    9900012    2    3    3    0    0 -0.41300731330E+01 -0.10679361760E+02  0.34995336328E+02  0.54367084254E+02  0.40000000174E+02 0.  0.
         12    1    3    3    0    0  0.41300731330E+01  0.10679361760E+02 -0.34995336328E+02  0.36820915746E+02  0.00000000000E+00 0. -1.
         11    1    4    4    0    0  0.14388225281E+02  0.23771740042E+01  0.14331347765E+02  0.20446503663E+02  0.51100000000E-03 0. -1.
        -11    1    4    4    0    0 -0.13904869520E+02 -0.15414075616E+02  0.12441115068E+02  0.24201662503E+02  0.51100000000E-03 0.  1.
        -12    1    4    4    0    0 -0.46134288940E+01  0.23575398523E+01  0.82228734940E+01  0.97189180886E+01  0.00000000000E+00 0.  1.
</event>
<event>
 8    1  0.1265908E-006  0.9118800E+02  0.7816164E-02  0.1184000E+00
        -11   -1    0    0    0    0  0.00000000000E+00  0.00000000000E+00  0.45593999997E+02  0.45594000000E+02  0.51100000000E-03 0. -1.
         11   -1    0    0    0    0 -0.00000000000E+00 -0.00000000000E+00 -0.45593999997E+02  0.45594000000E+02  0.51100000000E-03 0.  1.
         23    2    1    2    0    0  0.88817841970E-15  0.00000000000E+00  0.00000000000E+00  0.91188000000E+02  0.91188000000E+02 0.  0.
    9900012    2    3    3    0    0 -0.39607145782E+01  0.11094088685E+02 -0.34885750422E+02  0.54367059678E+02  0.39999944147E+02 0.  0.
         12    1    3    3    0    0  0.39607145782E+01 -0.11094088685E+02  0.34885750422E+02  0.36820940322E+02  0.00000000000E+00 0. -1.
         11    1    4    4    0    0 -0.10115652851E+02  0.58580279369E+01 -0.88854379371E+00  0.11723158032E+02  0.51100000000E-03 0. -1.
        -11    1    4    4    0    0 -0.28634533961E+01  0.67780267627E+01  0.81378753218E-01  0.73585076551E+01  0.51100000000E-03 0.  1.
        -12    1    4    4    0    0  0.90183916686E+01 -0.15419660142E+01 -0.34078585381E+02  0.35285393991E+02  0.00000000000E+00 0.  1.
</event>
<event>
 8    1  0.1265908E-006  0.9118800E+02  0.7816164E-02  0.1184000E+00
        -11   -1    0    0    0    0  0.00000000000E+00  0.00000000000E+00  0.45593999997E+02  0.45594000000E+02  0.51100000000E-03 0.  1.
         11   -1    0    0    0    0 -0.00000000000E+00 -0.00000000000E+00 -0.45593999997E+02  0.45594000000E+02  0.51100000000E-03 0. -1.
         23    2    1    2    0    0  0.00000000000E+00  0.17763568394E-14  0.00000000000E+00  0.91188000000E+02  0.91188000000E+02 0.  0.
    9900012    2    3    3    0    0  0.25531620007E+02  0.12954345005E+02 -0.23153895390E+02  0.54367061033E+02  0.39999947238E+02 0.  0.
        -12    1    3    3    0    0 -0.25531620007E+02 -0.12954345005E+02  0.23153895390E+02  0.36820938967E+02  0.00000000000E+00 0.  1.
         11    1    4    4    0    0  0.36637539882E+01 -0.42246541591E+01 -0.89157701422E+01  0.10524341003E+02  0.51100000000E-03 0. -1.
        -11    1    4    4    0    0  0.74999718884E+01 -0.73028976687E+00  0.86163847732E+01  0.11446614709E+02  0.51100000000E-03 0.  1.
        -12    1    4    4    0    0  0.14367894130E+02  0.17909288931E+02 -0.22854510021E+02  0.32396105322E+02  0.00000000000E+00 0.  1.
</event>
<event>
 8    1  0.1265908E-006  0.9118800E+02  0.7816164E-02  0.1184000E+00
        -11   -1    0    0    0    0  0.00000000000E+00  0.00000000000E+00  0.45593999997E+02  0.45594000000E+02  0.51100000000E-03 0.  1.
         11   -1    0    0    0    0 -0.00000000000E+00 -0.00000000000E+00 -0.45593999997E+02  0.45594000000E+02  0.51100000000E-03 0. -1.
         23    2    1    2    0    0 -0.88817841970E-15  0.35527136788E-14  0.00000000000E+00  0.91188000000E+02  0.91188000000E+02 0.  0.
    9900012    2    3    3    0    0  0.72824559306E+01  0.27621540388E+02 -0.23233518259E+02  0.54367081646E+02  0.39999994227E+02 0.  0.
        -12    1    3    3    0    0 -0.72824559306E+01 -0.27621540388E+02  0.23233518259E+02  0.36820918354E+02  0.00000000000E+00 0.  1.
         11    1    4    4    0    0  0.12095953448E+02  0.35298246768E+01 -0.30832448207E+01  0.12972206865E+02  0.51100000000E-03 0. -1.
        -11    1    4    4    0    0 -0.13035403925E+01  0.19951267169E+02  0.54336606451E+00  0.20001188119E+02  0.51100000000E-03 0.  1.
        -12    1    4    4    0    0 -0.35099571244E+01  0.41404485418E+01 -0.20693639502E+02  0.21393686662E+02  0.00000000000E+00 0.  1.
</event>
<event>
 8    1  0.1265908E-006  0.9118800E+02  0.7816164E-02  0.1184000E+00
        -11   -1    0    0    0    0  0.00000000000E+00  0.00000000000E+00  0.45593999997E+02  0.45594000000E+02  0.51100000000E-03 0. -1.
         11   -1    0    0    0    0 -0.00000000000E+00 -0.00000000000E+00 -0.45593999997E+02  0.45594000000E+02  0.51100000000E-03 0.  1.
         23    2    1    2    0    0  0.00000000000E+00  0.35527136788E-14  0.00000000000E+00  0.91188000000E+02  0.91188000000E+02 0.  0.
    9900012    2    3    3    0    0  0.12166108731E+02 -0.27474642951E+02  0.21281669830E+02  0.54367086409E+02  0.40000005086E+02 0.  0.
        -12    1    3    3    0    0 -0.12166108731E+02  0.27474642951E+02 -0.21281669830E+02  0.36820913591E+02  0.00000000000E+00 0.  1.
         11    1    4    4    0    0  0.95982689496E+01 -0.18872674081E+02  0.54586509244E+01  0.21865531413E+02  0.51100000000E-03 0. -1.
        -11    1    4    4    0    0  0.10095571272E+02 -0.24708715094E+01  0.19518591983E+02  0.22113371488E+02  0.51100000000E-03 0.  1.
         12    1    4    4    0    0 -0.75277314899E+01 -0.61310973607E+01 -0.36955730766E+01  0.10388183508E+02  0.00000000000E+00 0. -1.
</event>
<event>
 8    1  0.1265908E-006  0.9118800E+02  0.7816164E-02  0.1184000E+00
        -11   -1    0    0    0    0  0.00000000000E+00  0.00000000000E+00  0.45593999997E+02  0.45594000000E+02  0.51100000000E-03 0. -1.
         11   -1    0    0    0    0 -0.00000000000E+00 -0.00000000000E+00 -0.45593999997E+02  0.45594000000E+02  0.51100000000E-03 0.  1.
         23    2    1    2    0    0 -0.35527136788E-14 -0.88817841970E-15  0.00000000000E+00  0.91188000000E+02  0.91188000000E+02 0.  0.
    9900012    2    3    3    0    0 -0.12423884518E+02  0.78256193326E+01  0.33766642094E+02  0.54367090957E+02  0.40000015454E+02 0.  0.
        -12    1    3    3    0    0  0.12423884518E+02 -0.78256193326E+01 -0.33766642094E+02  0.36820909043E+02  0.00000000000E+00 0.  1.
         11    1    4    4    0    0  0.14432961808E+01 -0.83786785490E+01  0.14914719112E+02  0.17167824688E+02  0.51100000000E-03 0. -1.
        -11    1    4    4    0    0  0.26640047864E+01  0.97043776374E+01 -0.15124065254E+01  0.10176406074E+02  0.51100000000E-03 0.  1.
        -12    1    4    4    0    0 -0.16531185486E+02  0.64999202443E+01  0.20364329508E+02  0.27022860194E+02  0.00000000000E+00 0.  1.
</event>
<event>
 8    1  0.1265908E-006  0.9118800E+02  0.7816164E-02  0.1184000E+00
        -11   -1    0    0    0    0  0.00000000000E+00  0.00000000000E+00  0.45593999997E+02  0.45594000000E+02  0.51100000000E-03 0.  1.
         11   -1    0    0    0    0 -0.00000000000E+00 -0.00000000000E+00 -0.45593999997E+02  0.45594000000E+02  0.51100000000E-03 0. -1.
         23    2    1    2    0    0  0.71054273576E-14 -0.17763568394E-14  0.00000000000E+00  0.91188000000E+02  0.91188000000E+02 0.  0.
    9900012    2    3    3    0    0 -0.34339006485E+02  0.12891707052E+02  0.32274536222E+01  0.54367082928E+02  0.39999997152E+02 0.  0.
         12    1    3    3    0    0  0.34339006485E+02 -0.12891707052E+02 -0.32274536222E+01  0.36820917072E+02  0.00000000000E+00 0. -1.
         11    1    4    4    0    0 -0.67229509655E+01 -0.89146718648E+01 -0.22541871478E+01  0.11390821046E+02  0.51100000000E-03 0. -1.
        -11    1    4    4    0    0 -0.17456096491E+02 -0.64382600182E+00 -0.99790645494E+00  0.17496446330E+02  0.51100000000E-03 0.  1.
         12    1    4    4    0    0 -0.10159959029E+02  0.22450204919E+02  0.64795472249E+01  0.25479815553E+02  0.00000000000E+00 0. -1.
</event>
<event>
 8    1  0.1265908E-006  0.9118800E+02  0.7816164E-02  0.1184000E+00
        -11   -1    0    0    0    0  0.00000000000E+00  0.00000000000E+00  0.45593999997E+02  0.45594000000E+02  0.51100000000E-03 0. -1.
         11   -1    0    0    0    0 -0.00000000000E+00 -0.00000000000E+00 -0.45593999997E+02  0.45594000000E+02  0.51100000000E-03 0.  1.
         23    2    1    2    0    0 -0.88817841970E-15  0.00000000000E+00 -0.35527136788E-14  0.91188000000E+02  0.91188000000E+02 0.  0.
    9900012    2    3    3    0    0 -0.40242994059E+01  0.24069893163E+02 -0.27572189872E+02  0.54367076642E+02  0.39999982820E+02 0.  0.
         12    1    3    3    0    0  0.40242994059E+01 -0.24069893163E+02  0.27572189872E+02  0.36820923358E+02  0.00000000000E+00 0. -1.
         11    1    4    4    0    0  0.23700306648E+00  0.15105812680E+02  0.28978711117E+01  0.15383088260E+02  0.51100000000E-03 0. -1.
        -11    1    4    4    0    0  0.36433902094E+01  0.73081544151E+01 -0.76631310227E+00  0.82018686410E+01  0.51100000000E-03 0.  1.
        -12    1    4    4    0    0 -0.79046926819E+01  0.16559260685E+01 -0.29703747882E+02  0.30782119741E+02  0.00000000000E+00 0.  1.
</event>
<event>
 8    1  0.1265908E-006  0.9118800E+02  0.7816164E-02  0.1184000E+00
        -11   -1    0    0    0    0  0.00000000000E+00  0.00000000000E+00  0.45593999997E+02  0.45594000000E+02  0.51100000000E-03 0. -1.
         11   -1    0    0    0    0 -0.00000000000E+00 -0.00000000000E+00 -0.45593999997E+02  0.45594000000E+02  0.51100000000E-03 0.  1.
         23    2    1    2    0    0  0.00000000000E+00  0.00000000000E+00  0.00000000000E+00  0.91188000000E+02  0.91188000000E+02 0.  0.
    9900012    2    3    3    0    0 -0.14652324168E+02  0.26715732372E+02 -0.20672656633E+02  0.54367086215E+02  0.40000004645E+02 0.  0.
         12    1    3    3    0    0  0.14652324168E+02 -0.26715732372E+02  0.20672656633E+02  0.36820913785E+02  0.00000000000E+00 0. -1.
         11    1    4    4    0    0 -0.14665113623E+02  0.48744707577E+01 -0.18176766578E+02  0.23858350032E+02  0.51100000000E-03 0.  1.
        -11    1    4    4    0    0  0.81410812303E+01  0.15266708299E+01  0.10274771114E+01  0.83464745190E+01  0.51100000000E-03 0. -1.
        -12    1    4    4    0    0 -0.81282917750E+01  0.20314590784E+02 -0.35233671663E+01  0.22162261665E+02  0.00000000000E+00 0.  1.
</event>
<event>
 8    1  0.1265908E-006  0.9118800E+02  0.7816164E-02  0.1184000E+00
        -11   -1    0    0    0    0  0.00000000000E+00  0.00000000000E+00  0.45593999997E+02  0.45594000000E+02  0.51100000000E-03 0.  1.
         11   -1    0    0    0    0 -0.00000000000E+00 -0.00000000000E+00 -0.45593999997E+02  0.45594000000E+02  0.51100000000E-03 0. -1.
         23    2    1    2    0    0  0.71054273576E-14  0.35527136788E-14 -0.17763568394E-14  0.91188000000E+02  0.91188000000E+02 0.  0.
    9900012    2    3    3    0    0  0.29424891719E+02 -0.16227758954E+02 -0.15053735507E+02  0.54367090641E+02  0.40000014734E+02 0.  0.
         12    1    3    3    0    0 -0.29424891719E+02  0.16227758954E+02  0.15053735507E+02  0.36820909359E+02  0.00000000000E+00 0. -1.
         11    1    4    4    0    0  0.83151359289E+01  0.96426072208E+01 -0.70822421396E+01  0.14569815150E+02  0.51100000000E-03 0. -1.
        -11    1    4    4    0    0 -0.13026887847E+01 -0.49756383012E+01  0.43842096660E+01  0.67583481141E+01  0.51100000000E-03 0.  1.
        -12    1    4    4    0    0  0.22412444575E+02 -0.20894727874E+02 -0.12355703033E+02  0.33038927376E+02  0.00000000000E+00 0.  1.
</event>
<event>
 8    1  0.1265908E-006  0.9118800E+02  0.7816164E-02  0.1184000E+00
        -11   -1    0    0    0    0  0.00000000000E+00  0.00000000000E+00  0.45593999997E+02  0.45594000000E+02  0.51100000000E-03 0. -1.
         11   -1    0    0    0    0 -0.00000000000E+00 -0.00000000000E+00 -0.45593999997E+02  0.45594000000E+02  0.51100000000E-03 0.  1.
         23    2    1    2    0    0  0.17763568394E-14 -0.17763568394E-14  0.00000000000E+00  0.91188000000E+02  0.91188000000E+02 0.  0.
    9900012    2    3    3    0    0  0.14747576345E+02 -0.15165501553E+02  0.30137892864E+02  0.54367135918E+02  0.40000117953E+02 0.  0.
        -12    1    3    3    0    0 -0.14747576345E+02  0.15165501553E+02 -0.30137892864E+02  0.36820864082E+02  0.00000000000E+00 0.  1.
         11    1    4    4    0    0 -0.85490557821E+00 -0.19220025284E+02  0.26400758530E+02  0.32667113228E+02  0.51100000000E-03 0. -1.
        -11    1    4    4    0    0  0.98270117504E+01 -0.39463856561E+01  0.50732597849E+01  0.11742320248E+02  0.51100000000E-03 0.  1.
         12    1    4    4    0    0  0.57754701727E+01  0.80009093863E+01 -0.13361254504E+01  0.99577024429E+01  0.00000000000E+00 0. -1.
</event>
<event>
 8    1  0.1265908E-006  0.9118800E+02  0.7816164E-02  0.1184000E+00
        -11   -1    0    0    0    0  0.00000000000E+00  0.00000000000E+00  0.45593999997E+02  0.45594000000E+02  0.51100000000E-03 0. -1.
         11   -1    0    0    0    0 -0.00000000000E+00 -0.00000000000E+00 -0.45593999997E+02  0.45594000000E+02  0.51100000000E-03 0.  1.
         23    2    1    2    0    0  0.00000000000E+00  0.88817841970E-15  0.17763568394E-14  0.91188000000E+02  0.91188000000E+02 0.  0.
    9900012    2    3    3    0    0  0.34617263919E+02  0.23005261304E+01  0.12334290070E+02  0.54367053607E+02  0.39999930308E+02 0.  0.
        -12    1    3    3    0    0 -0.34617263919E+02 -0.23005261304E+01 -0.12334290070E+02  0.36820946393E+02  0.00000000000E+00 0.  1.
         11    1    4    4    0    0  0.12392896596E+01 -0.78748418186E+01 -0.87399103495E+00  0.80195282355E+01  0.51100000000E-03 0. -1.
        -11    1    4    4    0    0 -0.25166679777E+01 -0.18955434057E+01 -0.37125439508E+01  0.48692592209E+01  0.51100000000E-03 0.  1.
         12    1    4    4    0    0  0.35894642238E+02  0.12070911355E+02  0.16920825056E+02  0.41478266151E+02  0.00000000000E+00 0. -1.
</event>
<event>
 8    1  0.1265908E-006  0.9118800E+02  0.7816164E-02  0.1184000E+00
        -11   -1    0    0    0    0  0.00000000000E+00  0.00000000000E+00  0.45593999997E+02  0.45594000000E+02  0.51100000000E-03 0. -1.
         11   -1    0    0    0    0 -0.00000000000E+00 -0.00000000000E+00 -0.45593999997E+02  0.45594000000E+02  0.51100000000E-03 0.  1.
         23    2    1    2    0    0 -0.36082248300E-15  0.00000000000E+00  0.00000000000E+00  0.91188000000E+02  0.91188000000E+02 0.  0.
    9900012    2    3    3    0    0 -0.62592272839E-01  0.18923451443E+02 -0.31586061568E+02  0.54367079076E+02  0.39999988369E+02 0.  0.
         12    1    3    3    0    0  0.62592272839E-01 -0.18923451443E+02  0.31586061568E+02  0.36820920924E+02  0.00000000000E+00 0. -1.
         11    1    4    4    0    0  0.72594099233E+01 -0.50928758693E+00  0.53326772588E+01  0.90219650459E+01  0.51100000000E-03 0. -1.
        -11    1    4    4    0    0 -0.95123404853E+01  0.38580491628E+01 -0.18207525168E+02  0.20901749636E+02  0.51100000000E-03 0.  1.
        -12    1    4    4    0    0  0.21903382891E+01  0.15574689867E+02 -0.18711213659E+02  0.24443364393E+02  0.00000000000E+00 0.  1.
</event>
<event>
 8    1  0.1265908E-006  0.9118800E+02  0.7816164E-02  0.1184000E+00
        -11   -1    0    0    0    0  0.00000000000E+00  0.00000000000E+00  0.45593999997E+02  0.45594000000E+02  0.51100000000E-03 0.  1.
         11   -1    0    0    0    0 -0.00000000000E+00 -0.00000000000E+00 -0.45593999997E+02  0.45594000000E+02  0.51100000000E-03 0. -1.
         23    2    1    2    0    0  0.22204460493E-15  0.00000000000E+00  0.00000000000E+00  0.91188000000E+02  0.91188000000E+02 0.  0.
    9900012    2    3    3    0    0 -0.15514870401E+01  0.36458729030E+02 -0.49126603494E+01  0.54367078417E+02  0.39999986867E+02 0.  0.
         12    1    3    3    0    0  0.15514870401E+01 -0.36458729030E+02  0.49126603494E+01  0.36820921583E+02  0.00000000000E+00 0. -1.
         11    1    4    4    0    0  0.10348162860E+02  0.34053165561E+01 -0.17047103287E+00  0.10895398848E+02  0.51100000000E-03 0. -1.
        -11    1    4    4    0    0  0.38452555342E+01  0.61951322170E+01  0.70859478603E+01  0.10167414157E+02  0.51100000000E-03 0.  1.
         12    1    4    4    0    0 -0.15744905434E+02  0.26858280257E+02 -0.11828137177E+02  0.33304265411E+02  0.00000000000E+00 0. -1.
</event>
<event>
 8    1  0.1265908E-006  0.9118800E+02  0.7816164E-02  0.1184000E+00
        -11   -1    0    0    0    0  0.00000000000E+00  0.00000000000E+00  0.45593999997E+02  0.45594000000E+02  0.51100000000E-03 0. -1.
         11   -1    0    0    0    0 -0.00000000000E+00 -0.00000000000E+00 -0.45593999997E+02  0.45594000000E+02  0.51100000000E-03 0.  1.
         23    2    1    2    0    0  0.88817841970E-15  0.00000000000E+00  0.00000000000E+00  0.91188000000E+02  0.91188000000E+02 0.  0.
    9900012    2    3    3    0    0  0.53824757774E+01 -0.34330773734E+02 -0.12174008590E+02  0.54367088063E+02  0.40000008858E+02 0.  0.
         12    1    3    3    0    0 -0.53824757774E+01  0.34330773734E+02  0.12174008590E+02  0.36820911937E+02  0.00000000000E+00 0. -1.
         11    1    4    4    0    0 -0.74207819415E+01  0.20649994608E+01 -0.84126196697E+00  0.77485449831E+01  0.51100000000E-03 0. -1.
        -11    1    4    4    0    0  0.16138779234E+01 -0.65944395504E+01 -0.13081023575E+02  0.14737856458E+02  0.51100000000E-03 0.  1.
        -12    1    4    4    0    0  0.11189379796E+02 -0.29801333645E+02  0.17482769519E+01  0.31880686622E+02  0.00000000000E+00 0.  1.
</event>
<event>
 8    1  0.1265908E-006  0.9118800E+02  0.7816164E-02  0.1184000E+00
        -11   -1    0    0    0    0  0.00000000000E+00  0.00000000000E+00  0.45593999997E+02  0.45594000000E+02  0.51100000000E-03 0.  1.
         11   -1    0    0    0    0 -0.00000000000E+00 -0.00000000000E+00 -0.45593999997E+02  0.45594000000E+02  0.51100000000E-03 0. -1.
         23    2    1    2    0    0 -0.88817841970E-15  0.71054273576E-14  0.00000000000E+00  0.91188000000E+02  0.91188000000E+02 0.  0.
    9900012    2    3    3    0    0  0.73977174419E+01 -0.35304975713E+02  0.73899204774E+01  0.54367102970E+02  0.40000042841E+02 0.  0.
        -12    1    3    3    0    0 -0.73977174419E+01  0.35304975713E+02 -0.73899204774E+01  0.36820897030E+02  0.00000000000E+00 0.  1.
         11    1    4    4    0    0  0.79712809251E+01 -0.17581675063E+02 -0.12450376625E+02  0.22971036023E+02  0.51100000000E-03 0. -1.
        -11    1    4    4    0    0  0.51409337012E+01 -0.42772878812E+01  0.14271617909E+02  0.15760820694E+02  0.51100000000E-03 0.  1.
         12    1    4    4    0    0 -0.57144971844E+01 -0.13446012768E+02  0.55686791931E+01  0.15635246253E+02  0.00000000000E+00 0. -1.
</event>
<event>
 8    1  0.1265908E-006  0.9118800E+02  0.7816164E-02  0.1184000E+00
        -11   -1    0    0    0    0  0.00000000000E+00  0.00000000000E+00  0.45593999997E+02  0.45594000000E+02  0.51100000000E-03 0.  1.
         11   -1    0    0    0    0 -0.00000000000E+00 -0.00000000000E+00 -0.45593999997E+02  0.45594000000E+02  0.51100000000E-03 0. -1.
         23    2    1    2    0    0  0.35527136788E-14  0.00000000000E+00  0.00000000000E+00  0.91188000000E+02  0.91188000000E+02 0.  0.
    9900012    2    3    3    0    0 -0.28368362863E+02 -0.16434192614E+02 -0.16760981117E+02  0.54367120238E+02  0.40000082207E+02 0.  0.
        -12    1    3    3    0    0  0.28368362863E+02  0.16434192614E+02  0.16760981117E+02  0.36820879762E+02  0.00000000000E+00 0.  1.
         11    1    4    4    0    0 -0.89925664306E+01 -0.17812407172E+02 -0.15069420700E+02  0.25004710371E+02  0.51100000000E-03 0. -1.
        -11    1    4    4    0    0 -0.22015858066E+02  0.50864613438E+01 -0.56927056725E+01  0.23301866739E+02  0.51100000000E-03 0.  1.
         12    1    4    4    0    0  0.26400616331E+01 -0.37082467862E+01  0.40011452554E+01  0.60605431282E+01  0.00000000000E+00 0. -1.
</event>
<event>
 8    1  0.1265908E-006  0.9118800E+02  0.7816164E-02  0.1184000E+00
        -11   -1    0    0    0    0  0.00000000000E+00  0.00000000000E+00  0.45593999997E+02  0.45594000000E+02  0.51100000000E-03 0.  1.
         11   -1    0    0    0    0 -0.00000000000E+00 -0.00000000000E+00 -0.45593999997E+02  0.45594000000E+02  0.51100000000E-03 0. -1.
         23    2    1    2    0    0  0.00000000000E+00  0.00000000000E+00  0.00000000000E+00  0.91188000000E+02  0.91188000000E+02 0.  0.
    9900012    2    3    3    0    0 -0.20283939678E+01 -0.34342991123E+02 -0.13123432231E+02  0.54367083459E+02  0.39999998362E+02 0.  0.
        -12    1    3    3    0    0  0.20283939678E+01  0.34342991123E+02  0.13123432231E+02  0.36820916541E+02  0.00000000000E+00 0.  1.
         11    1    4    4    0    0 -0.19714049543E+01 -0.77644635155E+00 -0.19270777894E+02  0.19386907627E+02  0.51100000000E-03 0. -1.
        -11    1    4    4    0    0 -0.74461098904E+00 -0.10487600213E+02 -0.15803784127E+01  0.10632111734E+02  0.51100000000E-03 0.  1.
        -12    1    4    4    0    0  0.68762197551E+00 -0.23078944559E+02  0.77277240758E+01  0.24348064098E+02  0.00000000000E+00 0.  1.
</event>
<event>
 8    1  0.1265908E-006  0.9118800E+02  0.7816164E-02  0.1184000E+00
        -11   -1    0    0    0    0  0.00000000000E+00  0.00000000000E+00  0.45593999997E+02  0.45594000000E+02  0.51100000000E-03 0. -1.
         11   -1    0    0    0    0 -0.00000000000E+00 -0.00000000000E+00 -0.45593999997E+02  0.45594000000E+02  0.51100000000E-03 0.  1.
         23    2    1    2    0    0 -0.35527136788E-14  0.00000000000E+00  0.00000000000E+00  0.91188000000E+02  0.91188000000E+02 0.  0.
    9900012    2    3    3    0    0 -0.29293644031E+02 -0.57385234902E+01 -0.21557653066E+02  0.54367073366E+02  0.39999975353E+02 0.  0.
         12    1    3    3    0    0  0.29293644031E+02  0.57385234902E+01  0.21557653066E+02  0.36820926634E+02  0.00000000000E+00 0. -1.
         11    1    4    4    0    0 -0.74394900610E+01 -0.68833979855E+01  0.94107731020E+01  0.13830756698E+02  0.51100000000E-03 0. -1.
        -11    1    4    4    0    0 -0.50428318139E+01  0.67551573435E+01 -0.96668516659E+01  0.12826157836E+02  0.51100000000E-03 0.  1.
        -12    1    4    4    0    0 -0.16811322156E+02 -0.56102828482E+01 -0.21301574502E+02  0.27710158833E+02  0.00000000000E+00 0.  1.
</event>
<event>
 8    1  0.1265908E-006  0.9118800E+02  0.7816164E-02  0.1184000E+00
        -11   -1    0    0    0    0  0.00000000000E+00  0.00000000000E+00  0.45593999997E+02  0.45594000000E+02  0.51100000000E-03 0.  1.
         11   -1    0    0    0    0 -0.00000000000E+00 -0.00000000000E+00 -0.45593999997E+02  0.45594000000E+02  0.51100000000E-03 0. -1.
         23    2    1    2    0    0  0.00000000000E+00 -0.35527136788E-14  0.00000000000E+00  0.91188000000E+02  0.91188000000E+02 0.  0.
    9900012    2    3    3    0    0  0.31006764323E+02  0.19809086775E+02  0.14050430660E+01  0.54366898731E+02  0.39999577235E+02 0.  0.
         12    1    3    3    0    0 -0.31006764323E+02 -0.19809086775E+02 -0.14050430660E+01  0.36821101269E+02  0.00000000000E+00 0. -1.
         11    1    4    4    0    0  0.12975631803E+01 -0.24214963798E+01 -0.10695356358E+01  0.29480877975E+01  0.51100000000E-03 0. -1.
        -11    1    4    4    0    0 -0.52872861239E+01 -0.37644914295E+01  0.43003867886E+01  0.77858921821E+01  0.51100000000E-03 0.  1.
        -12    1    4    4    0    0  0.34996487267E+02  0.25995074584E+02 -0.18258080868E+01  0.43632918752E+02  0.00000000000E+00 0.  1.
</event>
<event>
 8    1  0.1265908E-006  0.9118800E+02  0.7816164E-02  0.1184000E+00
        -11   -1    0    0    0    0  0.00000000000E+00  0.00000000000E+00  0.45593999997E+02  0.45594000000E+02  0.51100000000E-03 0. -1.
         11   -1    0    0    0    0 -0.00000000000E+00 -0.00000000000E+00 -0.45593999997E+02  0.45594000000E+02  0.51100000000E-03 0.  1.
         23    2    1    2    0    0  0.35527136788E-14  0.00000000000E+00  0.35527136788E-14  0.91188000000E+02  0.91188000000E+02 0.  0.
    9900012    2    3    3    0    0  0.29786661712E+02 -0.44785293606E+01  0.21177349767E+02  0.54367046939E+02  0.39999915108E+02 0.  0.
        -12    1    3    3    0    0 -0.29786661712E+02  0.44785293606E+01 -0.21177349767E+02  0.36820953061E+02  0.00000000000E+00 0.  1.
         11    1    4    4    0    0  0.85685641233E+01 -0.15366271321E+02  0.81348295062E+01  0.19383447496E+02  0.51100000000E-03 0. -1.
        -11    1    4    4    0    0 -0.10653220168E+01 -0.20301051534E+01  0.85320131331E+01  0.88346752231E+01  0.51100000000E-03 0.  1.
        -12    1    4    4    0    0  0.22283419605E+02  0.12917847114E+02  0.45105071273E+01  0.26148924221E+02  0.00000000000E+00 0.  1.
</event>
<event>
 8    1  0.1265908E-006  0.9118800E+02  0.7816164E-02  0.1184000E+00
        -11   -1    0    0    0    0  0.00000000000E+00  0.00000000000E+00  0.45593999997E+02  0.45594000000E+02  0.51100000000E-03 0. -1.
         11   -1    0    0    0    0 -0.00000000000E+00 -0.00000000000E+00 -0.45593999997E+02  0.45594000000E+02  0.51100000000E-03 0.  1.
         23    2    1    2    0    0  0.00000000000E+00 -0.71054273576E-14 -0.88817841970E-15  0.91188000000E+02  0.91188000000E+02 0.  0.
    9900012    2    3    3    0    0  0.53053100667E+01 -0.35946509588E+02 -0.59567301046E+01  0.54367075243E+02  0.39999979631E+02 0.  0.
         12    1    3    3    0    0 -0.53053100667E+01  0.35946509588E+02  0.59567301046E+01  0.36820924757E+02  0.00000000000E+00 0. -1.
         11    1    4    4    0    0  0.11603152962E+02 -0.54470986998E+00  0.57396057535E+01  0.12956579100E+02  0.51100000000E-03 0. -1.
        -11    1    4    4    0    0  0.12702890991E+01 -0.18847098188E+01  0.32284382931E+01  0.39482375270E+01  0.51100000000E-03 0.  1.
        -12    1    4    4    0    0 -0.75681319944E+01 -0.33517089899E+02 -0.14924774151E+02  0.37462258616E+02  0.00000000000E+00 0.  1.
</event>
<event>
 8    1  0.1265908E-006  0.9118800E+02  0.7816164E-02  0.1184000E+00
        -11   -1    0    0    0    0  0.00000000000E+00  0.00000000000E+00  0.45593999997E+02  0.45594000000E+02  0.51100000000E-03 0. -1.
         11   -1    0    0    0    0 -0.00000000000E+00 -0.00000000000E+00 -0.45593999997E+02  0.45594000000E+02  0.51100000000E-03 0.  1.
         23    2    1    2    0    0  0.00000000000E+00  0.00000000000E+00  0.17763568394E-14  0.91188000000E+02  0.91188000000E+02 0.  0.
    9900012    2    3    3    0    0  0.21858126426E+01  0.35944238765E+02  0.76820531854E+01  0.54367081781E+02  0.39999994537E+02 0.  0.
        -12    1    3    3    0    0 -0.21858126426E+01 -0.35944238765E+02 -0.76820531854E+01  0.36820918219E+02  0.00000000000E+00 0.  1.
         11    1    4    4    0    0  0.85919561265E-01 -0.12368879660E+01 -0.35030713581E+01  0.37160171168E+01  0.51100000000E-03 0. -1.
        -11    1    4    4    0    0  0.88632077637E+00 -0.36364249922E+01  0.90112522379E+01  0.97576543492E+01  0.51100000000E-03 0.  1.
         12    1    4    4    0    0  0.12135723050E+01  0.40817551723E+02  0.21738723057E+01  0.40893410315E+02  0.00000000000E+00 0. -1.
</event>
<event>
 8    1  0.1265908E-006  0.9118800E+02  0.7816164E-02  0.1184000E+00
        -11   -1    0    0    0    0  0.00000000000E+00  0.00000000000E+00  0.45593999997E+02  0.45594000000E+02  0.51100000000E-03 0.  1.
         11   -1    0    0    0    0 -0.00000000000E+00 -0.00000000000E+00 -0.45593999997E+02  0.45594000000E+02  0.51100000000E-03 0. -1.
         23    2    1    2    0    0  0.00000000000E+00  0.00000000000E+00 -0.35527136788E-14  0.91188000000E+02  0.91188000000E+02 0.  0.
    9900012    2    3    3    0    0  0.13844707212E+02 -0.18894820269E+02  0.28409344039E+02  0.54367068731E+02  0.39999964787E+02 0.  0.
         12    1    3    3    0    0 -0.13844707212E+02  0.18894820269E+02 -0.28409344039E+02  0.36820931269E+02  0.00000000000E+00 0. -1.
         11    1    4    4    0    0  0.29111810256E+01  0.17506520515E+01  0.53102092700E+01  0.63038147436E+01  0.51100000000E-03 0. -1.
        -11    1    4    4    0    0  0.63103309028E+01 -0.22579844588E+02  0.30902241847E+02  0.38789408465E+02  0.51100000000E-03 0.  1.
         12    1    4    4    0    0  0.46231952839E+01  0.19343722667E+01 -0.78031070780E+01  0.92738455222E+01  0.00000000000E+00 0. -1.
</event>
<event>
 8    1  0.1265908E-006  0.9118800E+02  0.7816164E-02  0.1184000E+00
        -11   -1    0    0    0    0  0.00000000000E+00  0.00000000000E+00  0.45593999997E+02  0.45594000000E+02  0.51100000000E-03 0. -1.
         11   -1    0    0    0    0 -0.00000000000E+00 -0.00000000000E+00 -0.45593999997E+02  0.45594000000E+02  0.51100000000E-03 0.  1.
         23    2    1    2    0    0 -0.71054273576E-14  0.17763568394E-14 -0.17763568394E-14  0.91188000000E+02  0.91188000000E+02 0.  0.
    9900012    2    3    3    0    0 -0.34061466217E+02 -0.11493401798E+02  0.79690796616E+01  0.54366973447E+02  0.39999747567E+02 0.  0.
        -12    1    3    3    0    0  0.34061466217E+02  0.11493401798E+02 -0.79690796616E+01  0.36821026553E+02  0.00000000000E+00 0.  1.
         11    1    4    4    0    0  0.31353630657E+01  0.36174177360E+01  0.69812640765E+01  0.84648839920E+01  0.51100000000E-03 0. -1.
        -11    1    4    4    0    0 -0.15857243694E+02 -0.69145045923E+01 -0.10584410541E+02  0.20280342652E+02  0.51100000000E-03 0.  1.
         12    1    4    4    0    0 -0.21339585589E+02 -0.81963149419E+01  0.11572226126E+02  0.25621746803E+02  0.00000000000E+00 0. -1.
</event>
<event>
 8    1  0.1265908E-006  0.9118800E+02  0.7816164E-02  0.1184000E+00
        -11   -1    0    0    0    0  0.00000000000E+00  0.00000000000E+00  0.45593999997E+02  0.45594000000E+02  0.51100000000E-03 0. -1.
         11   -1    0    0    0    0 -0.00000000000E+00 -0.00000000000E+00 -0.45593999997E+02  0.45594000000E+02  0.51100000000E-03 0.  1.
         23    2    1    2    0    0  0.00000000000E+00 -0.35527136788E-14  0.00000000000E+00  0.91188000000E+02  0.91188000000E+02 0.  0.
    9900012    2    3    3    0    0 -0.29028042993E+02  0.22511787095E+02  0.25243332114E+01  0.54367080723E+02  0.39999992125E+02 0.  0.
         12    1    3    3    0    0  0.29028042993E+02 -0.22511787095E+02 -0.25243332114E+01  0.36820919277E+02  0.00000000000E+00 0. -1.
         11    1    4    4    0    0 -0.63135753122E+01  0.16522778974E+02  0.16394754301E+02  0.24117450676E+02  0.51100000000E-03 0. -1.
        -11    1    4    4    0    0 -0.21703193966E+02  0.89579271215E+01 -0.13520219751E+02  0.27093715674E+02  0.51100000000E-03 0.  1.
        -12    1    4    4    0    0 -0.10112737145E+01 -0.29689190002E+01 -0.35020133911E+00  0.31559143736E+01  0.00000000000E+00 0.  1.
</event>
<event>
 8    1  0.1265908E-006  0.9118800E+02  0.7816164E-02  0.1184000E+00
        -11   -1    0    0    0    0  0.00000000000E+00  0.00000000000E+00  0.45593999997E+02  0.45594000000E+02  0.51100000000E-03 0.  1.
         11   -1    0    0    0    0 -0.00000000000E+00 -0.00000000000E+00 -0.45593999997E+02  0.45594000000E+02  0.51100000000E-03 0. -1.
         23    2    1    2    0    0  0.00000000000E+00  0.00000000000E+00  0.00000000000E+00  0.91188000000E+02  0.91188000000E+02 0.  0.
    9900012    2    3    3    0    0 -0.29546549190E+02 -0.21061903913E+02  0.62592454102E+01  0.54367074990E+02  0.39999979054E+02 0.  0.
         12    1    3    3    0    0  0.29546549190E+02  0.21061903913E+02 -0.62592454102E+01  0.36820925010E+02  0.00000000000E+00 0. -1.
         11    1    4    4    0    0 -0.14283941845E+02  0.39129299327E+01 -0.27409707731E+01  0.15061704297E+02  0.51100000000E-03 0. -1.
        -11    1    4    4    0    0 -0.11582742489E+01 -0.23956009013E+02  0.40539805589E+01  0.24324200412E+02  0.51100000000E-03 0.  1.
        -12    1    4    4    0    0 -0.14104333096E+02 -0.10188248334E+01  0.49462356244E+01  0.14981170281E+02  0.00000000000E+00 0.  1.
</event>
<event>
 8    1  0.1265908E-006  0.9118800E+02  0.7816164E-02  0.1184000E+00
        -11   -1    0    0    0    0  0.00000000000E+00  0.00000000000E+00  0.45593999997E+02  0.45594000000E+02  0.51100000000E-03 0.  1.
         11   -1    0    0    0    0 -0.00000000000E+00 -0.00000000000E+00 -0.45593999997E+02  0.45594000000E+02  0.51100000000E-03 0. -1.
         23    2    1    2    0    0  0.00000000000E+00  0.00000000000E+00 -0.71054273576E-14  0.91188000000E+02  0.91188000000E+02 0.  0.
    9900012    2    3    3    0    0 -0.67070100700E+01 -0.15810122545E+02 -0.32570485604E+02  0.54367075358E+02  0.39999979894E+02 0.  0.
        -12    1    3    3    0    0  0.67070100700E+01  0.15810122545E+02  0.32570485604E+02  0.36820924642E+02  0.00000000000E+00 0.  1.
         11    1    4    4    0    0  0.10294728127E+02 -0.27573392795E+01 -0.13431778231E+02  0.17146341121E+02  0.51100000000E-03 0. -1.
        -11    1    4    4    0    0 -0.15165369587E+02 -0.83522054709E+01 -0.24407840182E+02  0.29924746173E+02  0.51100000000E-03 0.  1.
        -12    1    4    4    0    0 -0.18363686103E+01 -0.47005777947E+01  0.52691328087E+01  0.72959880642E+01  0.00000000000E+00 0.  1.
</event>
<event>
 8    1  0.1265908E-006  0.9118800E+02  0.7816164E-02  0.1184000E+00
        -11   -1    0    0    0    0  0.00000000000E+00  0.00000000000E+00  0.45593999997E+02  0.45594000000E+02  0.51100000000E-03 0.  1.
         11   -1    0    0    0    0 -0.00000000000E+00 -0.00000000000E+00 -0.45593999997E+02  0.45594000000E+02  0.51100000000E-03 0. -1.
         23    2    1    2    0    0  0.17763568394E-14  0.00000000000E+00 -0.35527136788E-14  0.91188000000E+02  0.91188000000E+02 0.  0.
    9900012    2    3    3    0    0 -0.13298242978E+02  0.20718506384E+02  0.27380269993E+02  0.54367096182E+02  0.40000027367E+02 0.  0.
         12    1    3    3    0    0  0.13298242978E+02 -0.20718506384E+02 -0.27380269993E+02  0.36820903818E+02  0.00000000000E+00 0. -1.
         11    1    4    4    0    0  0.20344584167E+01  0.13069770951E+02 -0.20117854141E+01  0.13379283037E+02  0.51100000000E-03 0. -1.
        -11    1    4    4    0    0  0.19478634421E+01 -0.12492902624E+01  0.18624499972E+02  0.18767708907E+02  0.51100000000E-03 0.  1.
         12    1    4    4    0    0 -0.17280564836E+02  0.88980256947E+01  0.10767555435E+02  0.22220104239E+02  0.00000000000E+00 0. -1.
</event>
<event>
 8    1  0.1265908E-006  0.9118800E+02  0.7816164E-02  0.1184000E+00
        -11   -1    0    0    0    0  0.00000000000E+00  0.00000000000E+00  0.45593999997E+02  0.45594000000E+02  0.51100000000E-03 0.  1.
         11   -1    0    0    0    0 -0.00000000000E+00 -0.00000000000E+00 -0.45593999997E+02  0.45594000000E+02  0.51100000000E-03 0. -1.
         23    2    1    2    0    0  0.00000000000E+00 -0.17763568394E-14  0.00000000000E+00  0.91188000000E+02  0.91188000000E+02 0.  0.
    9900012    2    3    3    0    0 -0.26136625643E+02  0.99015333400E+01 -0.23971158246E+02  0.54367082166E+02  0.39999995413E+02 0.  0.
         12    1    3    3    0    0  0.26136625643E+02 -0.99015333400E+01  0.23971158246E+02  0.36820917834E+02  0.00000000000E+00 0. -1.
         11    1    4    4    0    0 -0.10160375288E+02 -0.71029086448E+01 -0.63413575228E+01  0.13924702967E+02  0.51100000000E-03 0. -1.
        -11    1    4    4    0    0 -0.18760213165E+02  0.22213467294E+02 -0.99007363196E+01  0.30714952501E+02  0.51100000000E-03 0.  1.
        -12    1    4    4    0    0  0.27839628096E+01 -0.52090253097E+01 -0.77290644038E+01  0.97274266978E+01  0.00000000000E+00 0.  1.
</event>
<event>
 8    1  0.1265908E-006  0.9118800E+02  0.7816164E-02  0.1184000E+00
        -11   -1    0    0    0    0  0.00000000000E+00  0.00000000000E+00  0.45593999997E+02  0.45594000000E+02  0.51100000000E-03 0. -1.
         11   -1    0    0    0    0 -0.00000000000E+00 -0.00000000000E+00 -0.45593999997E+02  0.45594000000E+02  0.51100000000E-03 0.  1.
         23    2    1    2    0    0 -0.17763568394E-14  0.00000000000E+00  0.00000000000E+00  0.91188000000E+02  0.91188000000E+02 0.  0.
    9900012    2    3    3    0    0 -0.56401802858E+01 -0.30135169434E+02 -0.20392127064E+02  0.54367096743E+02  0.40000028646E+02 0.  0.
         12    1    3    3    0    0  0.56401802858E+01  0.30135169434E+02  0.20392127064E+02  0.36820903257E+02  0.00000000000E+00 0. -1.
         11    1    4    4    0    0 -0.43533039025E+01 -0.51724482119E+01  0.92243488739E+01  0.11436524288E+02  0.51100000000E-03 0. -1.
        -11    1    4    4    0    0  0.62042788755E+01 -0.50707349815E+01 -0.15396669596E+02  0.17356925550E+02  0.51100000000E-03 0.  1.
        -12    1    4    4    0    0 -0.74911552589E+01 -0.19891986240E+02 -0.14219806341E+02  0.25573646906E+02  0.00000000000E+00 0.  1.
</event>
<event>
 8    1  0.1265908E-006  0.9118800E+02  0.7816164E-02  0.1184000E+00
        -11   -1    0    0    0    0  0.00000000000E+00  0.00000000000E+00  0.45593999997E+02  0.45594000000E+02  0.51100000000E-03 0. -1.
         11   -1    0    0    0    0 -0.00000000000E+00 -0.00000000000E+00 -0.45593999997E+02  0.45594000000E+02  0.51100000000E-03 0.  1.
         23    2    1    2    0    0  0.00000000000E+00 -0.44408920985E-15  0.35527136788E-14  0.91188000000E+02  0.91188000000E+02 0.  0.
    9900012    2    3    3    0    0 -0.20622931977E+02  0.11569019436E+01 -0.30481741727E+02  0.54367077630E+02  0.39999985073E+02 0.  0.
         12    1    3    3    0    0  0.20622931977E+02 -0.11569019436E+01  0.30481741727E+02  0.36820922370E+02  0.00000000000E+00 0. -1.
         11    1    4    4    0    0 -0.99522982967E+01 -0.10463293814E+02 -0.40392930661E+01  0.14994820691E+02  0.51100000000E-03 0. -1.
        -11    1    4    4    0    0 -0.14405488702E+02  0.21771652243E+01 -0.25244661326E+02  0.29147059523E+02  0.51100000000E-03 0.  1.
        -12    1    4    4    0    0  0.37348550211E+01  0.94430305334E+01 -0.11977873357E+01  0.10225197415E+02  0.00000000000E+00 0.  1.
</event>
<event>
 8    1  0.1265908E-006  0.9118800E+02  0.7816164E-02  0.1184000E+00
        -11   -1    0    0    0    0  0.00000000000E+00  0.00000000000E+00  0.45593999997E+02  0.45594000000E+02  0.51100000000E-03 0.  1.
         11   -1    0    0    0    0 -0.00000000000E+00 -0.00000000000E+00 -0.45593999997E+02  0.45594000000E+02  0.51100000000E-03 0. -1.
         23    2    1    2    0    0  0.00000000000E+00  0.35527136788E-14  0.35527136788E-14  0.91188000000E+02  0.91188000000E+02 0.  0.
    9900012    2    3    3    0    0  0.88217059465E+01 -0.21883324692E+02 -0.28267960758E+02  0.54367082021E+02  0.39999995084E+02 0.  0.
        -12    1    3    3    0    0 -0.88217059465E+01  0.21883324692E+02  0.28267960758E+02  0.36820917979E+02  0.00000000000E+00 0.  1.
         11    1    4    4    0    0  0.97412513854E-01 -0.13536624600E+01  0.22762303537E+01  0.26501162499E+01  0.51100000000E-03 0. -1.
        -11    1    4    4    0    0 -0.33553703990E+01  0.79975842276E+01 -0.14331954434E+02  0.16751859066E+02  0.51100000000E-03 0.  1.
         12    1    4    4    0    0  0.12079663832E+02 -0.28527246459E+02 -0.16212236678E+02  0.34965106706E+02  0.00000000000E+00 0. -1.
</event>
<event>
 8    1  0.1265908E-006  0.9118800E+02  0.7816164E-02  0.1184000E+00
        -11   -1    0    0    0    0  0.00000000000E+00  0.00000000000E+00  0.45593999997E+02  0.45594000000E+02  0.51100000000E-03 0.  1.
         11   -1    0    0    0    0 -0.00000000000E+00 -0.00000000000E+00 -0.45593999997E+02  0.45594000000E+02  0.51100000000E-03 0. -1.
         23    2    1    2    0    0 -0.88817841970E-15 -0.35527136788E-14  0.35527136788E-14  0.91188000000E+02  0.91188000000E+02 0.  0.
    9900012    2    3    3    0    0 -0.75357779417E+01 -0.25182120618E+02 -0.25784620815E+02  0.54367165971E+02  0.40000186465E+02 0.  0.
        -12    1    3    3    0    0  0.75357779417E+01  0.25182120618E+02  0.25784620815E+02  0.36820834029E+02  0.00000000000E+00 0.  1.
         11    1    4    4    0    0  0.36755221172E+01 -0.29370344308E+01 -0.70745427256E+01  0.84961631999E+01  0.51100000000E-03 0. -1.
        -11    1    4    4    0    0 -0.14059581322E+01 -0.29118695283E+02 -0.17075573219E+02  0.33785356803E+02  0.51100000000E-03 0.  1.
        -12    1    4    4    0    0 -0.98053419267E+01  0.68736090963E+01 -0.16345048700E+01  0.12085645969E+02  0.00000000000E+00 0.  1.
</event>
<event>
 8    1  0.1265908E-006  0.9118800E+02  0.7816164E-02  0.1184000E+00
        -11   -1    0    0    0    0  0.00000000000E+00  0.00000000000E+00  0.45593999997E+02  0.45594000000E+02  0.51100000000E-03 0.  1.
         11   -1    0    0    0    0 -0.00000000000E+00 -0.00000000000E+00 -0.45593999997E+02  0.45594000000E+02  0.51100000000E-03 0. -1.
         23    2    1    2    0    0  0.35527136788E-14  0.00000000000E+00  0.35527136788E-14  0.91188000000E+02  0.91188000000E+02 0.  0.
    9900012    2    3    3    0    0 -0.19738563014E+02 -0.20162475997E+02 -0.23656796009E+02  0.54367077882E+02  0.39999985647E+02 0.  0.
        -12    1    3    3    0    0  0.19738563014E+02  0.20162475997E+02  0.23656796009E+02  0.36820922118E+02  0.00000000000E+00 0.  1.
         11    1    4    4    0    0  0.29947527082E+01  0.10159638030E+01 -0.58325788511E+00  0.32157295057E+01  0.51100000000E-03 0. -1.
        -11    1    4    4    0    0 -0.54579174873E+01  0.64965209599E+01  0.33964097709E+01  0.91394336517E+01  0.51100000000E-03 0.  1.
        -12    1    4    4    0    0 -0.17275398235E+02 -0.27674960760E+02 -0.26469947895E+02  0.42011914725E+02  0.00000000000E+00 0.  1.
</event>
<event>
 8    1  0.1265908E-006  0.9118800E+02  0.7816164E-02  0.1184000E+00
        -11   -1    0    0    0    0  0.00000000000E+00  0.00000000000E+00  0.45593999997E+02  0.45594000000E+02  0.51100000000E-03 0.  1.
         11   -1    0    0    0    0 -0.00000000000E+00 -0.00000000000E+00 -0.45593999997E+02  0.45594000000E+02  0.51100000000E-03 0. -1.
         23    2    1    2    0    0  0.00000000000E+00  0.88817841970E-15  0.00000000000E+00  0.91188000000E+02  0.91188000000E+02 0.  0.
    9900012    2    3    3    0    0  0.33930428572E+02  0.66918840106E+01 -0.12638263723E+02  0.54367068390E+02  0.39999964009E+02 0.  0.
        -12    1    3    3    0    0 -0.33930428572E+02 -0.66918840106E+01  0.12638263723E+02  0.36820931610E+02  0.00000000000E+00 0.  1.
         11    1    4    4    0    0  0.26349592641E+02  0.10537987852E+02 -0.93238948442E+01  0.29871143863E+02  0.51100000000E-03 0. -1.
        -11    1    4    4    0    0  0.13143690971E+02 -0.32961776393E+00 -0.88893221256E+01  0.15870895007E+02  0.51100000000E-03 0.  1.
        -12    1    4    4    0    0 -0.55628550402E+01 -0.35164860780E+01  0.55749532466E+01  0.86250295209E+01  0.00000000000E+00 0.  1.
</event>
<event>
 8    1  0.1265908E-006  0.9118800E+02  0.7816164E-02  0.1184000E+00
        -11   -1    0    0    0    0  0.00000000000E+00  0.00000000000E+00  0.45593999997E+02  0.45594000000E+02  0.51100000000E-03 0.  1.
         11   -1    0    0    0    0 -0.00000000000E+00 -0.00000000000E+00 -0.45593999997E+02  0.45594000000E+02  0.51100000000E-03 0. -1.
         23    2    1    2    0    0  0.88817841970E-15  0.00000000000E+00  0.00000000000E+00  0.91188000000E+02  0.91188000000E+02 0.  0.
    9900012    2    3    3    0    0 -0.58795049372E+01  0.36093224052E+02 -0.42999502835E+01  0.54367095975E+02  0.40000026894E+02 0.  0.
        -12    1    3    3    0    0  0.58795049372E+01 -0.36093224052E+02  0.42999502835E+01  0.36820904025E+02  0.00000000000E+00 0.  1.
         11    1    4    4    0    0 -0.11982835883E+02  0.12900867989E+02 -0.16096400049E+02  0.23856128048E+02  0.51100000000E-03 0. -1.
        -11    1    4    4    0    0 -0.96340473993E+00 -0.76721150461E+00  0.42367817521E+01  0.44121516363E+01  0.51100000000E-03 0.  1.
        -12    1    4    4    0    0  0.70667356859E+01  0.23959567568E+02  0.75596680129E+01  0.26098816290E+02  0.00000000000E+00 0.  1.
</event>
<event>
 8    1  0.1265908E-006  0.9118800E+02  0.7816164E-02  0.1184000E+00
        -11   -1    0    0    0    0  0.00000000000E+00  0.00000000000E+00  0.45593999997E+02  0.45594000000E+02  0.51100000000E-03 0.  1.
         11   -1    0    0    0    0 -0.00000000000E+00 -0.00000000000E+00 -0.45593999997E+02  0.45594000000E+02  0.51100000000E-03 0. -1.
         23    2    1    2    0    0  0.00000000000E+00  0.00000000000E+00  0.17763568394E-14  0.91188000000E+02  0.91188000000E+02 0.  0.
    9900012    2    3    3    0    0 -0.15672524461E+02  0.29407843916E+02  0.15663077945E+02  0.54367064142E+02  0.39999954324E+02 0.  0.
        -12    1    3    3    0    0  0.15672524461E+02 -0.29407843916E+02 -0.15663077945E+02  0.36820935858E+02  0.00000000000E+00 0.  1.
         11    1    4    4    0    0 -0.13322834879E+01  0.31327724092E+02  0.13203330258E+02  0.34022480895E+02  0.51100000000E-03 0. -1.
        -11    1    4    4    0    0 -0.83187139889E+01  0.31988462468E+01 -0.43452534923E+01  0.99153844057E+01  0.51100000000E-03 0.  1.
         12    1    4    4    0    0 -0.60215269841E+01 -0.51187264228E+01  0.68050011794E+01  0.10429198841E+02  0.00000000000E+00 0. -1.
</event>
<event>
 8    1  0.1265908E-006  0.9118800E+02  0.7816164E-02  0.1184000E+00
        -11   -1    0    0    0    0  0.00000000000E+00  0.00000000000E+00  0.45593999997E+02  0.45594000000E+02  0.51100000000E-03 0. -1.
         11   -1    0    0    0    0 -0.00000000000E+00 -0.00000000000E+00 -0.45593999997E+02  0.45594000000E+02  0.51100000000E-03 0.  1.
         23    2    1    2    0    0  0.00000000000E+00 -0.35527136788E-14  0.35527136788E-14  0.91188000000E+02  0.91188000000E+02 0.  0.
    9900012    2    3    3    0    0 -0.12320944031E+02 -0.27745870163E+02  0.20836055644E+02  0.54367079483E+02  0.39999989297E+02 0.  0.
        -12    1    3    3    0    0  0.12320944031E+02  0.27745870163E+02 -0.20836055644E+02  0.36820920517E+02  0.00000000000E+00 0.  1.
         11    1    4    4    0    0 -0.53573783277E+01 -0.11108473725E+02  0.16631393794E+02  0.20705143101E+02  0.51100000000E-03 0. -1.
        -11    1    4    4    0    0 -0.11395485861E+02 -0.22221118346E+01  0.11989848022E+02  0.16689857246E+02  0.51100000000E-03 0.  1.
        -12    1    4    4    0    0  0.44319201579E+01 -0.14415284604E+02 -0.77851861720E+01  0.16972079137E+02  0.00000000000E+00 0.  1.
</event>
<event>
 8    1  0.1265908E-006  0.9118800E+02  0.7816164E-02  0.1184000E+00
        -11   -1    0    0    0    0  0.00000000000E+00  0.00000000000E+00  0.45593999997E+02  0.45594000000E+02  0.51100000000E-03 0.  1.
         11   -1    0    0    0    0 -0.00000000000E+00 -0.00000000000E+00 -0.45593999997E+02  0.45594000000E+02  0.51100000000E-03 0. -1.
         23    2    1    2    0    0  0.00000000000E+00  0.00000000000E+00  0.17763568394E-14  0.91188000000E+02  0.91188000000E+02 0.  0.
    9900012    2    3    3    0    0  0.34100287365E+02  0.47747663365E+01  0.13044258176E+02  0.54367073025E+02  0.39999974576E+02 0.  0.
         12    1    3    3    0    0 -0.34100287365E+02 -0.47747663365E+01 -0.13044258176E+02  0.36820926975E+02  0.00000000000E+00 0. -1.
         11    1    4    4    0    0  0.13840025396E+02  0.13336305148E+02 -0.84394011693E+01  0.20991113127E+02  0.51100000000E-03 0. -1.
        -11    1    4    4    0    0 -0.10650271867E+01 -0.10608033861E+01  0.54699830525E+01  0.56727684236E+01  0.51100000000E-03 0.  1.
        -12    1    4    4    0    0  0.21325289155E+02 -0.75007354249E+01  0.16013676293E+02  0.27703191475E+02  0.00000000000E+00 0.  1.
</event>
<event>
 8    1  0.1265908E-006  0.9118800E+02  0.7816164E-02  0.1184000E+00
        -11   -1    0    0    0    0  0.00000000000E+00  0.00000000000E+00  0.45593999997E+02  0.45594000000E+02  0.51100000000E-03 0.  1.
         11   -1    0    0    0    0 -0.00000000000E+00 -0.00000000000E+00 -0.45593999997E+02  0.45594000000E+02  0.51100000000E-03 0. -1.
         23    2    1    2    0    0 -0.35527136788E-14 -0.17763568394E-14  0.00000000000E+00  0.91188000000E+02  0.91188000000E+02 0.  0.
    9900012    2    3    3    0    0 -0.29574996417E+02 -0.14712910952E+02 -0.16267390783E+02  0.54367106955E+02  0.40000051925E+02 0.  0.
        -12    1    3    3    0    0  0.29574996417E+02  0.14712910952E+02  0.16267390783E+02  0.36820893045E+02  0.00000000000E+00 0.  1.
         11    1    4    4    0    0 -0.73118006967E+01 -0.11258480430E+02 -0.18225108647E+02  0.22635600201E+02  0.51100000000E-03 0. -1.
        -11    1    4    4    0    0 -0.55989736273E+01 -0.11757796558E+02  0.14843861242E+01  0.13107161707E+02  0.51100000000E-03 0.  1.
         12    1    4    4    0    0 -0.16664222093E+02  0.83033660356E+01  0.47333173948E+00  0.18624345047E+02  0.00000000000E+00 0. -1.
</event>
<event>
 8    1  0.1265908E-006  0.9118800E+02  0.7816164E-02  0.1184000E+00
        -11   -1    0    0    0    0  0.00000000000E+00  0.00000000000E+00  0.45593999997E+02  0.45594000000E+02  0.51100000000E-03 0. -1.
         11   -1    0    0    0    0 -0.00000000000E+00 -0.00000000000E+00 -0.45593999997E+02  0.45594000000E+02  0.51100000000E-03 0.  1.
         23    2    1    2    0    0  0.17763568394E-14 -0.35527136788E-14  0.00000000000E+00  0.91188000000E+02  0.91188000000E+02 0.  0.
    9900012    2    3    3    0    0 -0.15276704618E+02  0.20280987300E+02 -0.26666197195E+02  0.54367051849E+02  0.39999926301E+02 0.  0.
         12    1    3    3    0    0  0.15276704618E+02 -0.20280987300E+02  0.26666197195E+02  0.36820948151E+02  0.00000000000E+00 0. -1.
         11    1    4    4    0    0 -0.49748782051E+01  0.49225525137E+01 -0.15425318785E+01  0.71666129561E+01  0.51100000000E-03 0. -1.
        -11    1    4    4    0    0 -0.99833992148E+01  0.25001605454E+02 -0.89544118522E+01  0.28371288780E+02  0.51100000000E-03 0.  1.
        -12    1    4    4    0    0 -0.31842719858E+00 -0.96431706672E+01 -0.16169253464E+02  0.18829150113E+02  0.00000000000E+00 0.  1.
</event>
<event>
 8    1  0.1265908E-006  0.9118800E+02  0.7816164E-02  0.1184000E+00
        -11   -1    0    0    0    0  0.00000000000E+00  0.00000000000E+00  0.45593999997E+02  0.45594000000E+02  0.51100000000E-03 0.  1.
         11   -1    0    0    0    0 -0.00000000000E+00 -0.00000000000E+00 -0.45593999997E+02  0.45594000000E+02  0.51100000000E-03 0. -1.
         23    2    1    2    0    0  0.00000000000E+00  0.00000000000E+00 -0.35527136788E-14  0.91188000000E+02  0.91188000000E+02 0.  0.
    9900012    2    3    3    0    0 -0.30626864395E+02 -0.14029489844E+02  0.14864319646E+02  0.54367090091E+02  0.40000013481E+02 0.  0.
         12    1    3    3    0    0  0.30626864395E+02  0.14029489844E+02 -0.14864319646E+02  0.36820909909E+02  0.00000000000E+00 0. -1.
         11    1    4    4    0    0 -0.46188847304E+01 -0.17059624614E+02  0.23293387715E+01  0.17826685264E+02  0.51100000000E-03 0. -1.
        -11    1    4    4    0    0 -0.69166162426E+01 -0.46294727862E+01 -0.48277153771E+01  0.96217687848E+01  0.51100000000E-03 0.  1.
        -12    1    4    4    0    0 -0.19091363422E+02  0.76596075570E+01  0.17362696252E+02  0.26918636042E+02  0.00000000000E+00 0.  1.
</event>
<event>
 8    1  0.1265908E-006  0.9118800E+02  0.7816164E-02  0.1184000E+00
        -11   -1    0    0    0    0  0.00000000000E+00  0.00000000000E+00  0.45593999997E+02  0.45594000000E+02  0.51100000000E-03 0. -1.
         11   -1    0    0    0    0 -0.00000000000E+00 -0.00000000000E+00 -0.45593999997E+02  0.45594000000E+02  0.51100000000E-03 0.  1.
         23    2    1    2    0    0  0.17763568394E-14 -0.35527136788E-14  0.71054273576E-14  0.91188000000E+02  0.91188000000E+02 0.  0.
    9900012    2    3    3    0    0 -0.12258137254E+02  0.10708663636E+02 -0.33027902708E+02  0.54367085249E+02  0.40000002443E+02 0.  0.
         12    1    3    3    0    0  0.12258137254E+02 -0.10708663636E+02  0.33027902708E+02  0.36820914751E+02  0.00000000000E+00 0. -1.
         11    1    4    4    0    0 -0.11735644337E+02 -0.35035459433E+01 -0.81200336348E+01  0.14694731324E+02  0.51100000000E-03 0. -1.
        -11    1    4    4    0    0 -0.12743972397E+02  0.93891560343E+01 -0.66286845440E+01  0.17161134652E+02  0.51100000000E-03 0.  1.
         12    1    4    4    0    0  0.12221479480E+02  0.48230535452E+01 -0.18279184529E+02  0.22511219274E+02  0.00000000000E+00 0. -1.
</event>
<event>
 8    1  0.1265908E-006  0.9118800E+02  0.7816164E-02  0.1184000E+00
        -11   -1    0    0    0    0  0.00000000000E+00  0.00000000000E+00  0.45593999997E+02  0.45594000000E+02  0.51100000000E-03 0. -1.
         11   -1    0    0    0    0 -0.00000000000E+00 -0.00000000000E+00 -0.45593999997E+02  0.45594000000E+02  0.51100000000E-03 0.  1.
         23    2    1    2    0    0  0.00000000000E+00  0.35527136788E-14  0.00000000000E+00  0.91188000000E+02  0.91188000000E+02 0.  0.
    9900012    2    3    3    0    0  0.21964709570E+02  0.28705531284E+02 -0.70231726113E+01  0.54367069182E+02  0.39999965815E+02 0.  0.
         12    1    3    3    0    0 -0.21964709570E+02 -0.28705531284E+02  0.70231726113E+01  0.36820930818E+02  0.00000000000E+00 0. -1.
         11    1    4    4    0    0  0.18787764477E+02  0.69758010558E+01 -0.46079605808E+01  0.20563929474E+02  0.51100000000E-03 0. -1.
        -11    1    4    4    0    0  0.10501000562E+02  0.19355469603E+02 -0.88859379450E+01  0.23745844053E+02  0.51100000000E-03 0.  1.
        -12    1    4    4    0    0 -0.73240554702E+01  0.23742606251E+01  0.64707259145E+01  0.10057295656E+02  0.00000000000E+00 0.  1.
</event>
<event>
 8    1  0.1265908E-006  0.9118800E+02  0.7816164E-02  0.1184000E+00
        -11   -1    0    0    0    0  0.00000000000E+00  0.00000000000E+00  0.45593999997E+02  0.45594000000E+02  0.51100000000E-03 0. -1.
         11   -1    0    0    0    0 -0.00000000000E+00 -0.00000000000E+00 -0.45593999997E+02  0.45594000000E+02  0.51100000000E-03 0.  1.
         23    2    1    2    0    0  0.44408920985E-15 -0.35527136788E-14  0.00000000000E+00  0.91188000000E+02  0.91188000000E+02 0.  0.
    9900012    2    3    3    0    0 -0.34491906917E+01 -0.24397929944E+02  0.27360991925E+02  0.54367085005E+02  0.40000001885E+02 0.  0.
        -12    1    3    3    0    0  0.34491906917E+01  0.24397929944E+02 -0.27360991925E+02  0.36820914995E+02  0.00000000000E+00 0.  1.
         11    1    4    4    0    0 -0.35748063130E+01 -0.22609120125E+02  0.13635033425E+02  0.26643304783E+02  0.51100000000E-03 0. -1.
        -11    1    4    4    0    0 -0.12154719046E+01  0.67996964975E+01 -0.39993672288E+01  0.79817405935E+01  0.51100000000E-03 0.  1.
         12    1    4    4    0    0  0.13410875259E+01 -0.85885063163E+01  0.17725325728E+02  0.19742039628E+02  0.00000000000E+00 0. -1.
</event>
<event>
 8    1  0.1265908E-006  0.9118800E+02  0.7816164E-02  0.1184000E+00
        -11   -1    0    0    0    0  0.00000000000E+00  0.00000000000E+00  0.45593999997E+02  0.45594000000E+02  0.51100000000E-03 0.  1.
         11   -1    0    0    0    0 -0.00000000000E+00 -0.00000000000E+00 -0.45593999997E+02  0.45594000000E+02  0.51100000000E-03 0. -1.
         23    2    1    2    0    0 -0.88817841970E-15  0.00000000000E+00  0.88817841970E-15  0.91188000000E+02  0.91188000000E+02 0.  0.
    9900012    2    3    3    0    0  0.74748195567E+01  0.35433278786E+02  0.66626209694E+01  0.54367072647E+02  0.39999973714E+02 0.  0.
         12    1    3    3    0    0 -0.74748195567E+01 -0.35433278786E+02 -0.66626209694E+01  0.36820927353E+02  0.00000000000E+00 0. -1.
         11    1    4    4    0    0 -0.75283973931E+01  0.18664029461E+02 -0.39825668520E+01  0.20515447887E+02  0.51100000000E-03 0. -1.
        -11    1    4    4    0    0  0.18105607279E+02  0.19620894023E+02  0.56018015168E+01  0.27279528546E+02  0.51100000000E-03 0.  1.
        -12    1    4    4    0    0 -0.31023903288E+01 -0.28516446979E+01  0.50433863047E+01  0.65720962146E+01  0.00000000000E+00 0.  1.
</event>
<event>
 8    1  0.1265908E-006  0.9118800E+02  0.7816164E-02  0.1184000E+00
        -11   -1    0    0    0    0  0.00000000000E+00  0.00000000000E+00  0.45593999997E+02  0.45594000000E+02  0.51100000000E-03 0. -1.
         11   -1    0    0    0    0 -0.00000000000E+00 -0.00000000000E+00 -0.45593999997E+02  0.45594000000E+02  0.51100000000E-03 0.  1.
         23    2    1    2    0    0  0.00000000000E+00  0.00000000000E+00  0.35527136788E-14  0.91188000000E+02  0.91188000000E+02 0.  0.
    9900012    2    3    3    0    0 -0.97326177679E+01 -0.29131537008E+02  0.20307867313E+02  0.54367085130E+02  0.40000002170E+02 0.  0.
        -12    1    3    3    0    0  0.97326177679E+01  0.29131537008E+02 -0.20307867313E+02  0.36820914870E+02  0.00000000000E+00 0.  1.
         11    1    4    4    0    0 -0.32360533787E+01 -0.99221455577E+01 -0.78571774191E+01  0.13063546654E+02  0.51100000000E-03 0. -1.
        -11    1    4    4    0    0 -0.98478490400E+01 -0.99182576014E+01  0.30355805476E+01  0.14302682059E+02  0.51100000000E-03 0.  1.
         12    1    4    4    0    0  0.33512846507E+01 -0.92911338492E+01  0.25129464184E+02  0.27000856416E+02  0.00000000000E+00 0. -1.
</event>
<event>
 8    1  0.1265908E-006  0.9118800E+02  0.7816164E-02  0.1184000E+00
        -11   -1    0    0    0    0  0.00000000000E+00  0.00000000000E+00  0.45593999997E+02  0.45594000000E+02  0.51100000000E-03 0.  1.
         11   -1    0    0    0    0 -0.00000000000E+00 -0.00000000000E+00 -0.45593999997E+02  0.45594000000E+02  0.51100000000E-03 0. -1.
         23    2    1    2    0    0  0.00000000000E+00  0.71054273576E-14  0.00000000000E+00  0.91188000000E+02  0.91188000000E+02 0.  0.
    9900012    2    3    3    0    0  0.16225142899E+02  0.30982267149E+02 -0.11516276633E+02  0.54367071613E+02  0.39999971356E+02 0.  0.
         12    1    3    3    0    0 -0.16225142899E+02 -0.30982267149E+02  0.11516276633E+02  0.36820928387E+02  0.00000000000E+00 0. -1.
         11    1    4    4    0    0 -0.49388555370E+00  0.60160075565E+00  0.34281092594E+01  0.35153633902E+01  0.51100000000E-03 0. -1.
        -11    1    4    4    0    0  0.34012873596E+01  0.10434210782E+02 -0.23054862768E+02  0.25533668124E+02  0.51100000000E-03 0.  1.
        -12    1    4    4    0    0  0.13317741093E+02  0.19946455612E+02  0.81104768760E+01  0.25318040099E+02  0.00000000000E+00 0.  1.
</event>
<event>
 8    1  0.1265908E-006  0.9118800E+02  0.7816164E-02  0.1184000E+00
        -11   -1    0    0    0    0  0.00000000000E+00  0.00000000000E+00  0.45593999997E+02  0.45594000000E+02  0.51100000000E-03 0.  1.
         11   -1    0    0    0    0 -0.00000000000E+00 -0.00000000000E+00 -0.45593999997E+02  0.45594000000E+02  0.51100000000E-03 0. -1.
         23    2    1    2    0    0  0.00000000000E+00 -0.35527136788E-14  0.00000000000E+00  0.91188000000E+02  0.91188000000E+02 0.  0.
    9900012    2    3    3    0    0  0.21226437848E+01  0.29566240448E+02  0.21842884449E+02  0.54367084857E+02  0.40000001549E+02 0.  0.
        -12    1    3    3    0    0 -0.21226437848E+01 -0.29566240448E+02 -0.21842884449E+02  0.36820915143E+02  0.00000000000E+00 0.  1.
         11    1    4    4    0    0  0.48945081966E+01  0.92435593935E+01 -0.10216820740E+01  0.10509207167E+02  0.51100000000E-03 0. -1.
        -11    1    4    4    0    0 -0.10254044299E+02  0.19150796719E+02  0.27449047368E+02  0.35004980234E+02  0.51100000000E-03 0.  1.
        -12    1    4    4    0    0  0.74821798873E+01  0.11718843355E+01 -0.45844808450E+01  0.88528974568E+01  0.00000000000E+00 0.  1.
</event>
<event>
 8    1  0.1265908E-006  0.9118800E+02  0.7816164E-02  0.1184000E+00
        -11   -1    0    0    0    0  0.00000000000E+00  0.00000000000E+00  0.45593999997E+02  0.45594000000E+02  0.51100000000E-03 0. -1.
         11   -1    0    0    0    0 -0.00000000000E+00 -0.00000000000E+00 -0.45593999997E+02  0.45594000000E+02  0.51100000000E-03 0.  1.
         23    2    1    2    0    0 -0.17763568394E-14  0.35527136788E-14  0.35527136788E-14  0.91188000000E+02  0.91188000000E+02 0.  0.
    9900012    2    3    3    0    0  0.13514105888E+02 -0.26940642859E+02 -0.21150647360E+02  0.54367093175E+02  0.40000020512E+02 0.  0.
         12    1    3    3    0    0 -0.13514105888E+02  0.26940642859E+02  0.21150647360E+02  0.36820906825E+02  0.00000000000E+00 0. -1.
         11    1    4    4    0    0  0.55027369843E+01  0.19845595001E+01 -0.60279319777E+01  0.83996758816E+01  0.51100000000E-03 0. -1.
        -11    1    4    4    0    0  0.15196686117E+02 -0.84749694566E+01 -0.16851642691E+02  0.24222762804E+02  0.51100000000E-03 0.  1.
         12    1    4    4    0    0 -0.71853172127E+01 -0.20450232903E+02  0.17289273088E+01  0.21744654489E+02  0.00000000000E+00 0. -1.
</event>
<event>
 8    1  0.1265908E-006  0.9118800E+02  0.7816164E-02  0.1184000E+00
        -11   -1    0    0    0    0  0.00000000000E+00  0.00000000000E+00  0.45593999997E+02  0.45594000000E+02  0.51100000000E-03 0. -1.
         11   -1    0    0    0    0 -0.00000000000E+00 -0.00000000000E+00 -0.45593999997E+02  0.45594000000E+02  0.51100000000E-03 0.  1.
         23    2    1    2    0    0  0.00000000000E+00  0.35527136788E-14  0.35527136788E-14  0.91188000000E+02  0.91188000000E+02 0.  0.
    9900012    2    3    3    0    0 -0.16770279349E+02 -0.20172270477E+02 -0.25838316906E+02  0.54367063209E+02  0.39999952197E+02 0.  0.
         12    1    3    3    0    0  0.16770279349E+02  0.20172270477E+02  0.25838316906E+02  0.36820936791E+02  0.00000000000E+00 0. -1.
         11    1    4    4    0    0 -0.69894789871E+01 -0.42038795058E+01 -0.10285647525E+02  0.13127069920E+02  0.51100000000E-03 0. -1.
        -11    1    4    4    0    0 -0.17236319752E+02 -0.16157783359E+02 -0.21311547858E+02  0.31817397034E+02  0.51100000000E-03 0.  1.
         12    1    4    4    0    0  0.74555193902E+01  0.18939238779E+00  0.57588784776E+01  0.94225962544E+01  0.00000000000E+00 0. -1.
</event>
<event>
 8    1  0.1265908E-006  0.9118800E+02  0.7816164E-02  0.1184000E+00
        -11   -1    0    0    0    0  0.00000000000E+00  0.00000000000E+00  0.45593999997E+02  0.45594000000E+02  0.51100000000E-03 0.  1.
         11   -1    0    0    0    0 -0.00000000000E+00 -0.00000000000E+00 -0.45593999997E+02  0.45594000000E+02  0.51100000000E-03 0. -1.
         23    2    1    2    0    0  0.17763568394E-14  0.35527136788E-14  0.00000000000E+00  0.91188000000E+02  0.91188000000E+02 0.  0.
    9900012    2    3    3    0    0 -0.70428080936E+00 -0.30610564048E+02 -0.20451833293E+02  0.54367080296E+02  0.39999991151E+02 0.  0.
         12    1    3    3    0    0  0.70428080936E+00  0.30610564048E+02  0.20451833293E+02  0.36820919704E+02  0.00000000000E+00 0. -1.
         11    1    4    4    0    0  0.14162908698E+02 -0.76237474453E+01 -0.20908307992E+02  0.26379288301E+02  0.51100000000E-03 0. -1.
        -11    1    4    4    0    0 -0.97746534479E+01 -0.15953290089E+02 -0.23622377950E+01  0.18858194037E+02  0.51100000000E-03 0.  1.
         12    1    4    4    0    0 -0.50925360599E+01 -0.70335265142E+01  0.28187124942E+01  0.91295979579E+01  0.00000000000E+00 0. -1.
</event>
<event>
 8    1  0.1265908E-006  0.9118800E+02  0.7816164E-02  0.1184000E+00
        -11   -1    0    0    0    0  0.00000000000E+00  0.00000000000E+00  0.45593999997E+02  0.45594000000E+02  0.51100000000E-03 0.  1.
         11   -1    0    0    0    0 -0.00000000000E+00 -0.00000000000E+00 -0.45593999997E+02  0.45594000000E+02  0.51100000000E-03 0. -1.
         23    2    1    2    0    0 -0.44408920985E-15 -0.22204460493E-15  0.00000000000E+00  0.91188000000E+02  0.91188000000E+02 0.  0.
    9900012    2    3    3    0    0 -0.22362093898E+01  0.13586585039E+01 -0.36727894871E+02  0.54367016213E+02  0.39999845061E+02 0.  0.
        -12    1    3    3    0    0  0.22362093898E+01 -0.13586585039E+01  0.36727894871E+02  0.36820983787E+02  0.00000000000E+00 0.  1.
         11    1    4    4    0    0  0.19165437480E+01 -0.58845126873E+01 -0.35738371669E+02  0.36270261087E+02  0.51100000000E-03 0. -1.
        -11    1    4    4    0    0  0.34272145789E+01  0.40758827875E+01 -0.63500375070E+01  0.82874360853E+01  0.51100000000E-03 0.  1.
         12    1    4    4    0    0 -0.75799677167E+01  0.31672884037E+01  0.53605143052E+01  0.98093190403E+01  0.00000000000E+00 0. -1.
</event>
<event>
 8    1  0.1265908E-006  0.9118800E+02  0.7816164E-02  0.1184000E+00
        -11   -1    0    0    0    0  0.00000000000E+00  0.00000000000E+00  0.45593999997E+02  0.45594000000E+02  0.51100000000E-03 0. -1.
         11   -1    0    0    0    0 -0.00000000000E+00 -0.00000000000E+00 -0.45593999997E+02  0.45594000000E+02  0.51100000000E-03 0.  1.
         23    2    1    2    0    0  0.00000000000E+00 -0.35527136788E-14  0.00000000000E+00  0.91188000000E+02  0.91188000000E+02 0.  0.
    9900012    2    3    3    0    0  0.18522552003E+02 -0.20815722276E+02  0.24070729897E+02  0.54367092021E+02  0.40000017881E+02 0.  0.
        -12    1    3    3    0    0 -0.18522552003E+02  0.20815722276E+02 -0.24070729897E+02  0.36820907979E+02  0.00000000000E+00 0.  1.
         11    1    4    4    0    0  0.21940640343E+02  0.71301847878E+00  0.18558577216E+02  0.28745797651E+02  0.51100000000E-03 0. -1.
        -11    1    4    4    0    0  0.18159875825E+01 -0.19071417589E+02  0.33518016383E+01  0.19448685154E+02  0.51100000000E-03 0.  1.
         12    1    4    4    0    0 -0.52340759227E+01 -0.24573231663E+01  0.21603510427E+01  0.61726092162E+01  0.00000000000E+00 0. -1.
</event>
<event>
 8    1  0.1265908E-006  0.9118800E+02  0.7816164E-02  0.1184000E+00
        -11   -1    0    0    0    0  0.00000000000E+00  0.00000000000E+00  0.45593999997E+02  0.45594000000E+02  0.51100000000E-03 0.  1.
         11   -1    0    0    0    0 -0.00000000000E+00 -0.00000000000E+00 -0.45593999997E+02  0.45594000000E+02  0.51100000000E-03 0. -1.
         23    2    1    2    0    0  0.00000000000E+00 -0.17763568394E-14  0.00000000000E+00  0.91188000000E+02  0.91188000000E+02 0.  0.
    9900012    2    3    3    0    0 -0.16586013335E+02  0.97253323512E+01 -0.31402258255E+02  0.54367085410E+02  0.40000002809E+02 0.  0.
        -12    1    3    3    0    0  0.16586013335E+02 -0.97253323512E+01  0.31402258255E+02  0.36820914590E+02  0.00000000000E+00 0.  1.
         11    1    4    4    0    0 -0.12102314384E+02  0.18282524919E+02 -0.26106779471E+02  0.34092237613E+02  0.51100000000E-03 0. -1.
        -11    1    4    4    0    0  0.21870292958E+01  0.33010831930E+01 -0.53659805286E+01  0.66688825663E+01  0.51100000000E-03 0.  1.
        -12    1    4    4    0    0 -0.66707282470E+01 -0.11858275761E+02  0.70501743774E-01  0.13605965231E+02  0.00000000000E+00 0.  1.
</event>
<event>
 8    1  0.1265908E-006  0.9118800E+02  0.7816164E-02  0.1184000E+00
        -11   -1    0    0    0    0  0.00000000000E+00  0.00000000000E+00  0.45593999997E+02  0.45594000000E+02  0.51100000000E-03 0. -1.
         11   -1    0    0    0    0 -0.00000000000E+00 -0.00000000000E+00 -0.45593999997E+02  0.45594000000E+02  0.51100000000E-03 0.  1.
         23    2    1    2    0    0  0.00000000000E+00  0.00000000000E+00 -0.35527136788E-14  0.91188000000E+02  0.91188000000E+02 0.  0.
    9900012    2    3    3    0    0 -0.15777083323E+02 -0.28054281425E+02 -0.17883529448E+02  0.54367086242E+02  0.40000004705E+02 0.  0.
         12    1    3    3    0    0  0.15777083323E+02  0.28054281425E+02  0.17883529448E+02  0.36820913758E+02  0.00000000000E+00 0. -1.
         11    1    4    4    0    0 -0.56142803091E+01  0.81405461507E+00  0.13378930504E+01  0.58286178792E+01  0.51100000000E-03 0. -1.
        -11    1    4    4    0    0 -0.10388646624E+02 -0.18843298259E+02 -0.27929925470E+02  0.35257263152E+02  0.51100000000E-03 0.  1.
        -12    1    4    4    0    0  0.22584360966E+00 -0.10025037781E+02  0.87085029713E+01  0.13281205211E+02  0.00000000000E+00 0.  1.
</event>
<event>
 8    1  0.1265908E-006  0.9118800E+02  0.7816164E-02  0.1184000E+00
        -11   -1    0    0    0    0  0.00000000000E+00  0.00000000000E+00  0.45593999997E+02  0.45594000000E+02  0.51100000000E-03 0.  1.
         11   -1    0    0    0    0 -0.00000000000E+00 -0.00000000000E+00 -0.45593999997E+02  0.45594000000E+02  0.51100000000E-03 0. -1.
         23    2    1    2    0    0  0.00000000000E+00  0.15543122345E-14  0.00000000000E+00  0.91188000000E+02  0.91188000000E+02 0.  0.
    9900012    2    3    3    0    0  0.10621665819E+02  0.18440590165E+01 -0.35207424973E+02  0.54367039778E+02  0.39999898782E+02 0.  0.
        -12    1    3    3    0    0 -0.10621665819E+02 -0.18440590165E+01  0.35207424973E+02  0.36820960222E+02  0.00000000000E+00 0.  1.
         11    1    4    4    0    0  0.13863560415E+02  0.85634037466E+01 -0.76459033099E+01  0.17999723020E+02  0.51100000000E-03 0.  1.
        -11    1    4    4    0    0  0.91078311873E+00 -0.13203342794E+02 -0.24938985758E+02  0.28233150688E+02  0.51100000000E-03 0. -1.
         12    1    4    4    0    0 -0.41526777150E+01  0.64839980640E+01 -0.26225359047E+01  0.81341660710E+01  0.00000000000E+00 0. -1.
</event>
<event>
 8    1  0.1265908E-006  0.9118800E+02  0.7816164E-02  0.1184000E+00
        -11   -1    0    0    0    0  0.00000000000E+00  0.00000000000E+00  0.45593999997E+02  0.45594000000E+02  0.51100000000E-03 0. -1.
         11   -1    0    0    0    0 -0.00000000000E+00 -0.00000000000E+00 -0.45593999997E+02  0.45594000000E+02  0.51100000000E-03 0.  1.
         23    2    1    2    0    0  0.00000000000E+00  0.00000000000E+00 -0.17763568394E-14  0.91188000000E+02  0.91188000000E+02 0.  0.
    9900012    2    3    3    0    0 -0.30277443065E+02 -0.19983214155E+02 -0.63026576560E+01  0.54367137706E+02  0.40000122028E+02 0.  0.
         12    1    3    3    0    0  0.30277443065E+02  0.19983214155E+02  0.63026576560E+01  0.36820862294E+02  0.00000000000E+00 0. -1.
         11    1    4    4    0    0 -0.25883575601E+02 -0.79175839670E+01  0.54702066036E+01  0.27614684179E+02  0.51100000000E-03 0. -1.
        -11    1    4    4    0    0 -0.86278886108E+01  0.10606275484E+00  0.90354243069E+00  0.86757190119E+01  0.51100000000E-03 0.  1.
         12    1    4    4    0    0  0.42340211460E+01 -0.12171692943E+02 -0.12676406690E+02  0.18076734515E+02  0.00000000000E+00 0. -1.
</event>
<event>
 8    1  0.1265908E-006  0.9118800E+02  0.7816164E-02  0.1184000E+00
        -11   -1    0    0    0    0  0.00000000000E+00  0.00000000000E+00  0.45593999997E+02  0.45594000000E+02  0.51100000000E-03 0. -1.
         11   -1    0    0    0    0 -0.00000000000E+00 -0.00000000000E+00 -0.45593999997E+02  0.45594000000E+02  0.51100000000E-03 0.  1.
         23    2    1    2    0    0  0.00000000000E+00  0.00000000000E+00  0.00000000000E+00  0.91188000000E+02  0.91188000000E+02 0.  0.
    9900012    2    3    3    0    0 -0.10810720358E+02  0.34072719511E+02  0.88293747018E+01  0.54367085465E+02  0.40000002935E+02 0.  0.
        -12    1    3    3    0    0  0.10810720358E+02 -0.34072719511E+02 -0.88293747018E+01  0.36820914535E+02  0.00000000000E+00 0.  1.
         11    1    4    4    0    0  0.19073209832E+01  0.13426315482E+02  0.55140036462E+01  0.14639264231E+02  0.51100000000E-03 0. -1.
        -11    1    4    4    0    0 -0.12376305888E+02  0.28117897398E+02 -0.16250989544E+01  0.30764103244E+02  0.51100000000E-03 0.  1.
        -12    1    4    4    0    0 -0.34173545334E+00 -0.74714933694E+01  0.49404700101E+01  0.89637179902E+01  0.00000000000E+00 0.  1.
</event>
<event>
 8    1  0.1265908E-006  0.9118800E+02  0.7816164E-02  0.1184000E+00
        -11   -1    0    0    0    0  0.00000000000E+00  0.00000000000E+00  0.45593999997E+02  0.45594000000E+02  0.51100000000E-03 0.  1.
         11   -1    0    0    0    0 -0.00000000000E+00 -0.00000000000E+00 -0.45593999997E+02  0.45594000000E+02  0.51100000000E-03 0. -1.
         23    2    1    2    0    0  0.44408920985E-15  0.00000000000E+00  0.17763568394E-14  0.91188000000E+02  0.91188000000E+02 0.  0.
    9900012    2    3    3    0    0 -0.28914742498E+01 -0.35051448396E+02  0.10900248154E+02  0.54367081111E+02  0.39999993009E+02 0.  0.
         12    1    3    3    0    0  0.28914742498E+01  0.35051448396E+02 -0.10900248154E+02  0.36820918889E+02  0.00000000000E+00 0. -1.
         11    1    4    4    0    0  0.51060970756E+01 -0.20641065458E+02 -0.87389920214E+01  0.22989036353E+02  0.51100000000E-03 0. -1.
        -11    1    4    4    0    0  0.17997514418E+01 -0.54702366928E+01 -0.19160322875E+01  0.60690835152E+01  0.51100000000E-03 0.  1.
         12    1    4    4    0    0 -0.97973227672E+01 -0.89401462451E+01  0.21555272462E+02  0.25308961243E+02  0.00000000000E+00 0. -1.
</event>
<event>
 8    1  0.1265908E-006  0.9118800E+02  0.7816164E-02  0.1184000E+00
        -11   -1    0    0    0    0  0.00000000000E+00  0.00000000000E+00  0.45593999997E+02  0.45594000000E+02  0.51100000000E-03 0. -1.
         11   -1    0    0    0    0 -0.00000000000E+00 -0.00000000000E+00 -0.45593999997E+02  0.45594000000E+02  0.51100000000E-03 0.  1.
         23    2    1    2    0    0  0.00000000000E+00 -0.35527136788E-14  0.00000000000E+00  0.91188000000E+02  0.91188000000E+02 0.  0.
    9900012    2    3    3    0    0 -0.98052024162E+01 -0.98285651052E+01 -0.34103319799E+02  0.54367094148E+02  0.40000022729E+02 0.  0.
         12    1    3    3    0    0  0.98052024162E+01  0.98285651052E+01  0.34103319799E+02  0.36820905852E+02  0.00000000000E+00 0. -1.
         11    1    4    4    0    0  0.11447818849E+01  0.75028942739E+01 -0.59698541311E+00  0.76131688471E+01  0.51100000000E-03 0. -1.
        -11    1    4    4    0    0  0.70612945471E+01  0.63990388390E+00 -0.60458313320E+01  0.93179093373E+01  0.51100000000E-03 0.  1.
         12    1    4    4    0    0 -0.18011278848E+02 -0.17971363263E+02 -0.27460503054E+02  0.37436015964E+02  0.00000000000E+00 0. -1.
</event>
<event>
 8    1  0.1265908E-006  0.9118800E+02  0.7816164E-02  0.1184000E+00
        -11   -1    0    0    0    0  0.00000000000E+00  0.00000000000E+00  0.45593999997E+02  0.45594000000E+02  0.51100000000E-03 0.  1.
         11   -1    0    0    0    0 -0.00000000000E+00 -0.00000000000E+00 -0.45593999997E+02  0.45594000000E+02  0.51100000000E-03 0. -1.
         23    2    1    2    0    0 -0.35527136788E-14  0.00000000000E+00  0.00000000000E+00  0.91188000000E+02  0.91188000000E+02 0.  0.
    9900012    2    3    3    0    0  0.11690741127E+02  0.12702912159E+02 -0.32522934897E+02  0.54367099689E+02  0.40000035361E+02 0.  0.
        -12    1    3    3    0    0 -0.11690741127E+02 -0.12702912159E+02  0.32522934897E+02  0.36820900311E+02  0.00000000000E+00 0.  1.
         11    1    4    4    0    0  0.18274824965E+02  0.26511972660E+01 -0.20622970358E+02  0.27682214165E+02  0.51100000000E-03 0. -1.
        -11    1    4    4    0    0 -0.12733306945E+02  0.93951878068E+01 -0.12905417503E+02  0.20419511769E+02  0.51100000000E-03 0.  1.
        -12    1    4    4    0    0  0.61492231062E+01  0.65652708656E+00  0.10054529647E+01  0.62653737549E+01  0.00000000000E+00 0.  1.
</event>
<event>
 8    1  0.1265908E-006  0.9118800E+02  0.7816164E-02  0.1184000E+00
        -11   -1    0    0    0    0  0.00000000000E+00  0.00000000000E+00  0.45593999997E+02  0.45594000000E+02  0.51100000000E-03 0. -1.
         11   -1    0    0    0    0 -0.00000000000E+00 -0.00000000000E+00 -0.45593999997E+02  0.45594000000E+02  0.51100000000E-03 0.  1.
         23    2    1    2    0    0  0.00000000000E+00 -0.17763568394E-14  0.44408920985E-15  0.91188000000E+02  0.91188000000E+02 0.  0.
    9900012    2    3    3    0    0  0.33614986424E+02  0.14923895117E+02 -0.17596602476E+01  0.54366995642E+02  0.39999798165E+02 0.  0.
         12    1    3    3    0    0 -0.33614986424E+02 -0.14923895117E+02  0.17596602476E+01  0.36821004358E+02  0.00000000000E+00 0. -1.
         11    1    4    4    0    0  0.19482912145E+02  0.53245474438E+01  0.45647897574E+01  0.20706809916E+02  0.51100000000E-03 0. -1.
        -11    1    4    4    0    0  0.13632173070E+02 -0.64735718360E+01 -0.86777147341E+01  0.17408216686E+02  0.51100000000E-03 0.  1.
         12    1    4    4    0    0  0.49990120901E+00  0.16072919510E+02  0.23532647291E+01  0.16251969040E+02  0.00000000000E+00 0. -1.
</event>
<event>
 8    1  0.1265908E-006  0.9118800E+02  0.7816164E-02  0.1184000E+00
        -11   -1    0    0    0    0  0.00000000000E+00  0.00000000000E+00  0.45593999997E+02  0.45594000000E+02  0.51100000000E-03 0.  1.
         11   -1    0    0    0    0 -0.00000000000E+00 -0.00000000000E+00 -0.45593999997E+02  0.45594000000E+02  0.51100000000E-03 0. -1.
         23    2    1    2    0    0  0.00000000000E+00  0.00000000000E+00  0.00000000000E+00  0.91188000000E+02  0.91188000000E+02 0.  0.
    9900012    2    3    3    0    0 -0.34933462655E+02  0.37638792322E+01 -0.11012082443E+02  0.54367088011E+02  0.40000008739E+02 0.  0.
         12    1    3    3    0    0  0.34933462655E+02 -0.37638792322E+01  0.11012082443E+02  0.36820911989E+02  0.00000000000E+00 0. -1.
         11    1    4    4    0    0  0.22889958470E+01 -0.76782025621E+01 -0.58879635321E+01  0.99429578792E+01  0.51100000000E-03 0. -1.
        -11    1    4    4    0    0 -0.33493206873E+02  0.17562973256E+01 -0.20602708350E+01  0.33602443409E+02  0.51100000000E-03 0.  1.
         12    1    4    4    0    0 -0.37292516297E+01  0.96857844686E+01 -0.30638480758E+01  0.10821686723E+02  0.00000000000E+00 0. -1.
</event>
<event>
 8    1  0.1265908E-006  0.9118800E+02  0.7816164E-02  0.1184000E+00
        -11   -1    0    0    0    0  0.00000000000E+00  0.00000000000E+00  0.45593999997E+02  0.45594000000E+02  0.51100000000E-03 0. -1.
         11   -1    0    0    0    0 -0.00000000000E+00 -0.00000000000E+00 -0.45593999997E+02  0.45594000000E+02  0.51100000000E-03 0.  1.
         23    2    1    2    0    0  0.35527136788E-14 -0.17763568394E-14  0.17763568394E-14  0.91188000000E+02  0.91188000000E+02 0.  0.
    9900012    2    3    3    0    0 -0.31177172284E+02  0.13786567442E+02 -0.13917394195E+02  0.54367090524E+02  0.40000014468E+02 0.  0.
         12    1    3    3    0    0  0.31177172284E+02 -0.13786567442E+02  0.13917394195E+02  0.36820909476E+02  0.00000000000E+00 0. -1.
         11    1    4    4    0    0  0.28057543337E+01  0.52262743483E+01  0.10710015319E+01  0.60277064865E+01  0.51100000000E-03 0. -1.
        -11    1    4    4    0    0 -0.22395624354E+02  0.19718289770E+02 -0.88801362450E+01  0.31132487238E+02  0.51100000000E-03 0.  1.
        -12    1    4    4    0    0 -0.11587302264E+02 -0.11157996676E+02 -0.61082594822E+01  0.17206896799E+02  0.00000000000E+00 0.  1.
</event>
<event>
 8    1  0.1265908E-006  0.9118800E+02  0.7816164E-02  0.1184000E+00
        -11   -1    0    0    0    0  0.00000000000E+00  0.00000000000E+00  0.45593999997E+02  0.45594000000E+02  0.51100000000E-03 0. -1.
         11   -1    0    0    0    0 -0.00000000000E+00 -0.00000000000E+00 -0.45593999997E+02  0.45594000000E+02  0.51100000000E-03 0.  1.
         23    2    1    2    0    0 -0.17763568394E-14  0.88817841970E-15 -0.71054273576E-14  0.91188000000E+02  0.91188000000E+02 0.  0.
    9900012    2    3    3    0    0  0.12822209114E+02 -0.23395307115E+01  0.34436868835E+02  0.54367076795E+02  0.39999983170E+02 0.  0.
        -12    1    3    3    0    0 -0.12822209114E+02  0.23395307115E+01 -0.34436868835E+02  0.36820923205E+02  0.00000000000E+00 0.  1.
         11    1    4    4    0    0 -0.48271846986E+01  0.59072477151E+00  0.29168138850E+01  0.56708439734E+01  0.51100000000E-03 0. -1.
        -11    1    4    4    0    0  0.19586064794E+02  0.31328377058E+01  0.37250629280E+01  0.20181791306E+02  0.51100000000E-03 0.  1.
        -12    1    4    4    0    0 -0.19366709816E+01 -0.60630931888E+01  0.27794992022E+02  0.28514441516E+02  0.00000000000E+00 0.  1.
</event>
<event>
 8    1  0.1265908E-006  0.9118800E+02  0.7816164E-02  0.1184000E+00
        -11   -1    0    0    0    0  0.00000000000E+00  0.00000000000E+00  0.45593999997E+02  0.45594000000E+02  0.51100000000E-03 0.  1.
         11   -1    0    0    0    0 -0.00000000000E+00 -0.00000000000E+00 -0.45593999997E+02  0.45594000000E+02  0.51100000000E-03 0. -1.
         23    2    1    2    0    0  0.53290705182E-14  0.00000000000E+00  0.00000000000E+00  0.91188000000E+02  0.91188000000E+02 0.  0.
    9900012    2    3    3    0    0  0.14273338433E+02  0.17066376976E+02 -0.29339240211E+02  0.54367076203E+02  0.39999981819E+02 0.  0.
        -12    1    3    3    0    0 -0.14273338433E+02 -0.17066376976E+02  0.29339240211E+02  0.36820923797E+02  0.00000000000E+00 0.  1.
         11    1    4    4    0    0 -0.10017196514E+02  0.79736643690E+01 -0.84432092981E+01  0.15336601090E+02  0.51100000000E-03 0.  1.
        -11    1    4    4    0    0  0.83148905811E+01  0.46827198753E+01  0.29521701577E+01  0.99890229606E+01  0.51100000000E-03 0. -1.
         12    1    4    4    0    0  0.15975644366E+02  0.44099927320E+01 -0.23848201071E+02  0.29041452152E+02  0.00000000000E+00 0. -1.
</event>
<event>
 8    1  0.1265908E-006  0.9118800E+02  0.7816164E-02  0.1184000E+00
        -11   -1    0    0    0    0  0.00000000000E+00  0.00000000000E+00  0.45593999997E+02  0.45594000000E+02  0.51100000000E-03 0.  1.
         11   -1    0    0    0    0 -0.00000000000E+00 -0.00000000000E+00 -0.45593999997E+02  0.45594000000E+02  0.51100000000E-03 0. -1.
         23    2    1    2    0    0  0.00000000000E+00  0.17763568394E-14  0.00000000000E+00  0.91188000000E+02  0.91188000000E+02 0.  0.
    9900012    2    3    3    0    0  0.10047411936E+02  0.10761823387E+02  0.33749251261E+02  0.54367091675E+02  0.40000017092E+02 0.  0.
         12    1    3    3    0    0 -0.10047411936E+02 -0.10761823387E+02 -0.33749251261E+02  0.36820908325E+02  0.00000000000E+00 0. -1.
         11    1    4    4    0    0  0.12628547875E+02 -0.60165773675E+01  0.22559800496E+02  0.26544755100E+02  0.51100000000E-03 0. -1.
        -11    1    4    4    0    0  0.82061845474E+00  0.46789770654E+01  0.14136165127E+02  0.14912994528E+02  0.51100000000E-03 0.  1.
         12    1    4    4    0    0 -0.34017543934E+01  0.12099423689E+02 -0.29467143624E+01  0.12909342047E+02  0.00000000000E+00 0. -1.
</event>
<event>
 8    1  0.1265908E-006  0.9118800E+02  0.7816164E-02  0.1184000E+00
        -11   -1    0    0    0    0  0.00000000000E+00  0.00000000000E+00  0.45593999997E+02  0.45594000000E+02  0.51100000000E-03 0.  1.
         11   -1    0    0    0    0 -0.00000000000E+00 -0.00000000000E+00 -0.45593999997E+02  0.45594000000E+02  0.51100000000E-03 0. -1.
         23    2    1    2    0    0 -0.71054273576E-14 -0.35527136788E-14 -0.88817841970E-15  0.91188000000E+02  0.91188000000E+02 0.  0.
    9900012    2    3    3    0    0  0.32262487690E+02  0.17125896727E+02  0.46492504458E+01  0.54367082298E+02  0.39999995715E+02 0.  0.
         12    1    3    3    0    0 -0.32262487690E+02 -0.17125896727E+02 -0.46492504458E+01  0.36820917702E+02  0.00000000000E+00 0. -1.
         11    1    4    4    0    0  0.35380805403E+01 -0.33231363186E+01  0.54225046801E+01  0.72776923656E+01  0.51100000000E-03 0. -1.
        -11    1    4    4    0    0  0.22874271950E+01  0.20504730309E+02 -0.91030401706E+00  0.20651996075E+02  0.51100000000E-03 0.  1.
         12    1    4    4    0    0  0.26436979955E+02 -0.55697263325E-01  0.13704978269E+00  0.26437393857E+02  0.00000000000E+00 0. -1.
</event>
<event>
 8    1  0.1265908E-006  0.9118800E+02  0.7816164E-02  0.1184000E+00
        -11   -1    0    0    0    0  0.00000000000E+00  0.00000000000E+00  0.45593999997E+02  0.45594000000E+02  0.51100000000E-03 0.  1.
         11   -1    0    0    0    0 -0.00000000000E+00 -0.00000000000E+00 -0.45593999997E+02  0.45594000000E+02  0.51100000000E-03 0. -1.
         23    2    1    2    0    0  0.00000000000E+00 -0.35527136788E-14  0.00000000000E+00  0.91188000000E+02  0.91188000000E+02 0.  0.
    9900012    2    3    3    0    0  0.12918509920E+02 -0.31328390727E+02 -0.14402228970E+02  0.54367079813E+02  0.39999990051E+02 0.  0.
        -12    1    3    3    0    0 -0.12918509920E+02  0.31328390727E+02  0.14402228970E+02  0.36820920187E+02  0.00000000000E+00 0.  1.
         11    1    4    4    0    0 -0.64540593329E+01 -0.15318247514E+02 -0.12096710664E+00  0.16622822326E+02  0.51100000000E-03 0. -1.
        -11    1    4    4    0    0  0.14967087777E+02  0.19313652029E+01 -0.12633139093E+01  0.15143970759E+02  0.51100000000E-03 0.  1.
        -12    1    4    4    0    0  0.44054814762E+01 -0.17941508415E+02 -0.13017947954E+02  0.22600286728E+02  0.00000000000E+00 0.  1.
</event>
<event>
 8    1  0.1265908E-006  0.9118800E+02  0.7816164E-02  0.1184000E+00
        -11   -1    0    0    0    0  0.00000000000E+00  0.00000000000E+00  0.45593999997E+02  0.45594000000E+02  0.51100000000E-03 0. -1.
         11   -1    0    0    0    0 -0.00000000000E+00 -0.00000000000E+00 -0.45593999997E+02  0.45594000000E+02  0.51100000000E-03 0.  1.
         23    2    1    2    0    0  0.00000000000E+00  0.00000000000E+00 -0.35527136788E-14  0.91188000000E+02  0.91188000000E+02 0.  0.
    9900012    2    3    3    0    0 -0.79009477069E+01 -0.28291665325E+02 -0.22202167246E+02  0.54367088387E+02  0.40000009597E+02 0.  0.
         12    1    3    3    0    0  0.79009477069E+01  0.28291665325E+02  0.22202167246E+02  0.36820911613E+02  0.00000000000E+00 0. -1.
         11    1    4    4    0    0 -0.15296964170E+02 -0.94674945475E+01  0.12265143870E+01  0.18031497542E+02  0.51100000000E-03 0. -1.
        -11    1    4    4    0    0  0.38967108943E-01 -0.15149217690E+02 -0.46689084904E+01  0.15852413753E+02  0.51100000000E-03 0.  1.
         12    1    4    4    0    0  0.73570493538E+01 -0.36749530878E+01 -0.18759773143E+02  0.20483177092E+02  0.00000000000E+00 0. -1.
</event>
<event>
 8    1  0.1265908E-006  0.9118800E+02  0.7816164E-02  0.1184000E+00
        -11   -1    0    0    0    0  0.00000000000E+00  0.00000000000E+00  0.45593999997E+02  0.45594000000E+02  0.51100000000E-03 0. -1.
         11   -1    0    0    0    0 -0.00000000000E+00 -0.00000000000E+00 -0.45593999997E+02  0.45594000000E+02  0.51100000000E-03 0.  1.
         23    2    1    2    0    0  0.35527136788E-14  0.00000000000E+00  0.00000000000E+00  0.91188000000E+02  0.91188000000E+02 0.  0.
    9900012    2    3    3    0    0  0.11250354710E+02  0.23030123914E+02  0.26435257982E+02  0.54367082668E+02  0.39999996559E+02 0.  0.
        -12    1    3    3    0    0 -0.11250354710E+02 -0.23030123914E+02 -0.26435257982E+02  0.36820917332E+02  0.00000000000E+00 0.  1.
         11    1    4    4    0    0 -0.10732288090E+02  0.87739288814E+01 -0.11948874253E+01  0.13913719556E+02  0.51100000000E-03 0. -1.
        -11    1    4    4    0    0 -0.16498779602E+01 -0.34437730618E+00  0.93842510383E+00  0.19290761906E+01  0.51100000000E-03 0.  1.
         12    1    4    4    0    0  0.23632520760E+02  0.14600572338E+02  0.26691720304E+02  0.38524286922E+02  0.00000000000E+00 0. -1.
</event>
<event>
 8    1  0.1265908E-006  0.9118800E+02  0.7816164E-02  0.1184000E+00
        -11   -1    0    0    0    0  0.00000000000E+00  0.00000000000E+00  0.45593999997E+02  0.45594000000E+02  0.51100000000E-03 0.  1.
         11   -1    0    0    0    0 -0.00000000000E+00 -0.00000000000E+00 -0.45593999997E+02  0.45594000000E+02  0.51100000000E-03 0. -1.
         23    2    1    2    0    0  0.17763568394E-14  0.00000000000E+00 -0.35527136788E-14  0.91188000000E+02  0.91188000000E+02 0.  0.
    9900012    2    3    3    0    0  0.14086760827E+02 -0.19487949960E+02 -0.27884767184E+02  0.54367119169E+02  0.40000079770E+02 0.  0.
        -12    1    3    3    0    0 -0.14086760827E+02  0.19487949960E+02  0.27884767184E+02  0.36820880831E+02  0.00000000000E+00 0.  1.
         11    1    4    4    0    0  0.79400752915E+01  0.30458529172E+01 -0.86172036745E+01  0.12106949040E+02  0.51100000000E-03 0. -1.
        -11    1    4    4    0    0 -0.74502427890E+01 -0.44261113032E+00  0.30287990851E+01  0.80545419725E+01  0.51100000000E-03 0.  1.
        -12    1    4    4    0    0  0.13596928325E+02 -0.22091191747E+02 -0.22296362595E+02  0.34205628157E+02  0.00000000000E+00 0.  1.
</event>
<event>
 8    1  0.1265908E-006  0.9118800E+02  0.7816164E-02  0.1184000E+00
        -11   -1    0    0    0    0  0.00000000000E+00  0.00000000000E+00  0.45593999997E+02  0.45594000000E+02  0.51100000000E-03 0.  1.
         11   -1    0    0    0    0 -0.00000000000E+00 -0.00000000000E+00 -0.45593999997E+02  0.45594000000E+02  0.51100000000E-03 0. -1.
         23    2    1    2    0    0  0.00000000000E+00 -0.35527136788E-14  0.00000000000E+00  0.91188000000E+02  0.91188000000E+02 0.  0.
    9900012    2    3    3    0    0 -0.25627321083E+02 -0.12079192755E+02 -0.23518559789E+02  0.54366957944E+02  0.39999712224E+02 0.  0.
        -12    1    3    3    0    0  0.25627321083E+02  0.12079192755E+02  0.23518559789E+02  0.36821042056E+02  0.00000000000E+00 0.  1.
         11    1    4    4    0    0 -0.17497625773E+02 -0.20226455312E+02 -0.14781273846E+02  0.30557527042E+02  0.51100000000E-03 0. -1.
        -11    1    4    4    0    0  0.18358132754E+01  0.68375357460E+01 -0.11392798564E+02  0.13413350247E+02  0.51100000000E-03 0.  1.
        -12    1    4    4    0    0 -0.99655085860E+01  0.13097268110E+01  0.26555126216E+01  0.10396080655E+02  0.00000000000E+00 0.  1.
</event>
<event>
 8    1  0.1265908E-006  0.9118800E+02  0.7816164E-02  0.1184000E+00
        -11   -1    0    0    0    0  0.00000000000E+00  0.00000000000E+00  0.45593999997E+02  0.45594000000E+02  0.51100000000E-03 0.  1.
         11   -1    0    0    0    0 -0.00000000000E+00 -0.00000000000E+00 -0.45593999997E+02  0.45594000000E+02  0.51100000000E-03 0. -1.
         23    2    1    2    0    0  0.00000000000E+00  0.00000000000E+00  0.00000000000E+00  0.91188000000E+02  0.91188000000E+02 0.  0.
    9900012    2    3    3    0    0  0.11765853310E+02 -0.25554470495E+02  0.23755347147E+02  0.54367044221E+02  0.39999908911E+02 0.  0.
         12    1    3    3    0    0 -0.11765853310E+02  0.25554470495E+02 -0.23755347147E+02  0.36820955779E+02  0.00000000000E+00 0. -1.
         11    1    4    4    0    0 -0.61978008434E+01 -0.16991966994E+02  0.18045298512E+01  0.18176798559E+02  0.51100000000E-03 0. -1.
        -11    1    4    4    0    0  0.49086437497E+01 -0.13463432846E+02  0.14472434671E+02  0.20366889135E+02  0.51100000000E-03 0.  1.
        -12    1    4    4    0    0  0.13055010404E+02  0.49009293457E+01  0.74783826249E+01  0.15823356527E+02  0.00000000000E+00 0.  1.
</event>
<event>
 8    1  0.1265908E-006  0.9118800E+02  0.7816164E-02  0.1184000E+00
        -11   -1    0    0    0    0  0.00000000000E+00  0.00000000000E+00  0.45593999997E+02  0.45594000000E+02  0.51100000000E-03 0.  1.
         11   -1    0    0    0    0 -0.00000000000E+00 -0.00000000000E+00 -0.45593999997E+02  0.45594000000E+02  0.51100000000E-03 0. -1.
         23    2    1    2    0    0  0.17763568394E-14  0.00000000000E+00  0.00000000000E+00  0.91188000000E+02  0.91188000000E+02 0.  0.
    9900012    2    3    3    0    0 -0.12266725375E+02  0.20294719057E+02 -0.28167948086E+02  0.54367062038E+02  0.39999949527E+02 0.  0.
        -12    1    3    3    0    0  0.12266725375E+02 -0.20294719057E+02  0.28167948086E+02  0.36820937962E+02  0.00000000000E+00 0.  1.
         11    1    4    4    0    0  0.48520102985E+01  0.19865536107E+02 -0.22143414850E+02  0.30141538618E+02  0.51100000000E-03 0. -1.
        -11    1    4    4    0    0 -0.20018135451E+02 -0.94484141713E-01 -0.68631774662E+01  0.21162180403E+02  0.51100000000E-03 0.  1.
        -12    1    4    4    0    0  0.28993997783E+01  0.52366709141E+00  0.83864422965E+00  0.30633430172E+01  0.00000000000E+00 0.  1.
</event>
<event>
 8    1  0.1265908E-006  0.9118800E+02  0.7816164E-02  0.1184000E+00
        -11   -1    0    0    0    0  0.00000000000E+00  0.00000000000E+00  0.45593999997E+02  0.45594000000E+02  0.51100000000E-03 0.  1.
         11   -1    0    0    0    0 -0.00000000000E+00 -0.00000000000E+00 -0.45593999997E+02  0.45594000000E+02  0.51100000000E-03 0. -1.
         23    2    1    2    0    0  0.00000000000E+00 -0.17763568394E-14  0.35527136788E-14  0.91188000000E+02  0.91188000000E+02 0.  0.
    9900012    2    3    3    0    0  0.29713980198E+02 -0.14650879814E+02 -0.16068945131E+02  0.54367083442E+02  0.39999998322E+02 0.  0.
         12    1    3    3    0    0 -0.29713980198E+02  0.14650879814E+02  0.16068945131E+02  0.36820916558E+02  0.00000000000E+00 0. -1.
         11    1    4    4    0    0  0.51208404257E+01 -0.84475664016E+01 -0.18701306530E+02  0.21150017754E+02  0.51100000000E-03 0. -1.
        -11    1    4    4    0    0  0.13925478562E+02  0.21340489083E+01 -0.78197346822E+01  0.16112770360E+02  0.51100000000E-03 0.  1.
        -12    1    4    4    0    0  0.10667661211E+02 -0.83373623209E+01  0.10452096081E+02  0.17104295328E+02  0.00000000000E+00 0.  1.
</event>
<event>
 8    1  0.1265908E-006  0.9118800E+02  0.7816164E-02  0.1184000E+00
        -11   -1    0    0    0    0  0.00000000000E+00  0.00000000000E+00  0.45593999997E+02  0.45594000000E+02  0.51100000000E-03 0. -1.
         11   -1    0    0    0    0 -0.00000000000E+00 -0.00000000000E+00 -0.45593999997E+02  0.45594000000E+02  0.51100000000E-03 0.  1.
         23    2    1    2    0    0  0.00000000000E+00  0.00000000000E+00  0.00000000000E+00  0.91188000000E+02  0.91188000000E+02 0.  0.
    9900012    2    3    3    0    0 -0.29817514916E+02 -0.19274782373E+02 -0.97557027092E+01  0.54367147666E+02  0.40000144733E+02 0.  0.
         12    1    3    3    0    0  0.29817514916E+02  0.19274782373E+02  0.97557027092E+01  0.36820852334E+02  0.00000000000E+00 0. -1.
         11    1    4    4    0    0 -0.25116833665E+02 -0.16229740235E+02 -0.16561055356E+02  0.34183744035E+02  0.51100000000E-03 0.  1.
        -11    1    4    4    0    0 -0.41152136538E+01  0.68681487466E+01 -0.23558593759E+00  0.80101155808E+01  0.51100000000E-03 0. -1.
        -12    1    4    4    0    0 -0.58546759682E+00 -0.99131908838E+01  0.70409385841E+01  0.12173288050E+02  0.00000000000E+00 0.  1.
</event>
<event>
 8    1  0.1265908E-006  0.9118800E+02  0.7816164E-02  0.1184000E+00
        -11   -1    0    0    0    0  0.00000000000E+00  0.00000000000E+00  0.45593999997E+02  0.45594000000E+02  0.51100000000E-03 0.  1.
         11   -1    0    0    0    0 -0.00000000000E+00 -0.00000000000E+00 -0.45593999997E+02  0.45594000000E+02  0.51100000000E-03 0. -1.
         23    2    1    2    0    0  0.17763568394E-14  0.00000000000E+00  0.17763568394E-14  0.91188000000E+02  0.91188000000E+02 0.  0.
    9900012    2    3    3    0    0 -0.88584968904E+01  0.32935463274E+02  0.13876670300E+02  0.54367086285E+02  0.40000004804E+02 0.  0.
         12    1    3    3    0    0  0.88584968904E+01 -0.32935463274E+02 -0.13876670300E+02  0.36820913715E+02  0.00000000000E+00 0. -1.
         11    1    4    4    0    0 -0.21071604495E+02  0.14250344789E+02 -0.22738156506E+01  0.25539285042E+02  0.51100000000E-03 0. -1.
        -11    1    4    4    0    0  0.20992606479E+01  0.64191148283E+01  0.92794692463E+00  0.68171120134E+01  0.51100000000E-03 0.  1.
         12    1    4    4    0    0  0.10113846956E+02  0.12266003656E+02  0.15222539026E+02  0.22010689229E+02  0.00000000000E+00 0. -1.
</event>
<event>
 8    1  0.1265908E-006  0.9118800E+02  0.7816164E-02  0.1184000E+00
        -11   -1    0    0    0    0  0.00000000000E+00  0.00000000000E+00  0.45593999997E+02  0.45594000000E+02  0.51100000000E-03 0.  1.
         11   -1    0    0    0    0 -0.00000000000E+00 -0.00000000000E+00 -0.45593999997E+02  0.45594000000E+02  0.51100000000E-03 0. -1.
         23    2    1    2    0    0  0.00000000000E+00  0.17763568394E-14  0.00000000000E+00  0.91188000000E+02  0.91188000000E+02 0.  0.
    9900012    2    3    3    0    0 -0.25330263405E+01  0.27149920336E+01  0.36633215968E+02  0.54367083168E+02  0.39999997699E+02 0.  0.
         12    1    3    3    0    0  0.25330263405E+01 -0.27149920336E+01 -0.36633215968E+02  0.36820916832E+02  0.00000000000E+00 0. -1.
         11    1    4    4    0    0  0.40736435861E+01 -0.60510676784E+01 -0.10636253823E+01  0.73716545857E+01  0.51100000000E-03 0. -1.
        -11    1    4    4    0    0 -0.12864767813E+01 -0.60016942428E+01 -0.24932733199E-01  0.61380760989E+01  0.51100000000E-03 0.  1.
         12    1    4    4    0    0 -0.53201931453E+01  0.14767753955E+02  0.37721774083E+02  0.40857352484E+02  0.00000000000E+00 0. -1.
</event>
<event>
 8    1  0.1265908E-006  0.9118800E+02  0.7816164E-02  0.1184000E+00
        -11   -1    0    0    0    0  0.00000000000E+00  0.00000000000E+00  0.45593999997E+02  0.45594000000E+02  0.51100000000E-03 0.  1.
         11   -1    0    0    0    0 -0.00000000000E+00 -0.00000000000E+00 -0.45593999997E+02  0.45594000000E+02  0.51100000000E-03 0. -1.
         23    2    1    2    0    0  0.00000000000E+00 -0.88817841970E-15  0.71054273576E-14  0.91188000000E+02  0.91188000000E+02 0.  0.
    9900012    2    3    3    0    0 -0.21860706833E+02  0.29504204958E+01 -0.29481937122E+02  0.54367080663E+02  0.39999991987E+02 0.  0.
        -12    1    3    3    0    0  0.21860706833E+02 -0.29504204958E+01  0.29481937122E+02  0.36820919337E+02  0.00000000000E+00 0.  1.
         11    1    4    4    0    0 -0.42967565052E+01  0.15385449237E+02 -0.15454697454E+02  0.22226602042E+02  0.51100000000E-03 0. -1.
        -11    1    4    4    0    0 -0.12779139147E+02  0.11381497741E+01 -0.12417913945E+01  0.12889679141E+02  0.51100000000E-03 0.  1.
         12    1    4    4    0    0 -0.47848111815E+01 -0.13573178515E+02 -0.12785448274E+02  0.19250799480E+02  0.00000000000E+00 0. -1.
</event>
<event>
 8    1  0.1265908E-006  0.9118800E+02  0.7816164E-02  0.1184000E+00
        -11   -1    0    0    0    0  0.00000000000E+00  0.00000000000E+00  0.45593999997E+02  0.45594000000E+02  0.51100000000E-03 0.  1.
         11   -1    0    0    0    0 -0.00000000000E+00 -0.00000000000E+00 -0.45593999997E+02  0.45594000000E+02  0.51100000000E-03 0. -1.
         23    2    1    2    0    0 -0.17763568394E-14  0.00000000000E+00  0.00000000000E+00  0.91188000000E+02  0.91188000000E+02 0.  0.
    9900012    2    3    3    0    0 -0.98864810104E+01 -0.32480427129E+01 -0.35319793022E+02  0.54367081118E+02  0.39999993025E+02 0.  0.
        -12    1    3    3    0    0  0.98864810104E+01  0.32480427129E+01  0.35319793022E+02  0.36820918882E+02  0.00000000000E+00 0.  1.
         11    1    4    4    0    0 -0.88402369141E+01 -0.66933242193E+01  0.28013392407E+01  0.11436690063E+02  0.51100000000E-03 0. -1.
        -11    1    4    4    0    0  0.69921355105E+01 -0.10871581155E+01 -0.53118570962E+01  0.88480335576E+01  0.51100000000E-03 0.  1.
        -12    1    4    4    0    0 -0.80383796068E+01  0.45324396220E+01 -0.32809275166E+02  0.34082357497E+02  0.00000000000E+00 0.  1.
</event>
<event>
 8    1  0.1265908E-006  0.9118800E+02  0.7816164E-02  0.1184000E+00
        -11   -1    0    0    0    0  0.00000000000E+00  0.00000000000E+00  0.45593999997E+02  0.45594000000E+02  0.51100000000E-03 0. -1.
         11   -1    0    0    0    0 -0.00000000000E+00 -0.00000000000E+00 -0.45593999997E+02  0.45594000000E+02  0.51100000000E-03 0.  1.
         23    2    1    2    0    0 -0.44408920985E-15  0.00000000000E+00 -0.88817841970E-15  0.91188000000E+02  0.91188000000E+02 0.  0.
    9900012    2    3    3    0    0  0.37388991287E+01  0.36031090645E+02 -0.66000226764E+01  0.54367093451E+02  0.40000021140E+02 0.  0.
         12    1    3    3    0    0 -0.37388991287E+01 -0.36031090645E+02  0.66000226764E+01  0.36820906549E+02  0.00000000000E+00 0. -1.
         11    1    4    4    0    0  0.15112591620E+01  0.23305573592E+02 -0.10904793933E+01  0.23379966002E+02  0.51100000000E-03 0. -1.
        -11    1    4    4    0    0  0.86842408240E+01 -0.40817678585E+00 -0.12130475485E+02  0.14924177791E+02  0.51100000000E-03 0.  1.
        -12    1    4    4    0    0 -0.64566008573E+01  0.13133693839E+02  0.66209322020E+01  0.16062949658E+02  0.00000000000E+00 0.  1.
</event>
<event>
 8    1  0.1265908E-006  0.9118800E+02  0.7816164E-02  0.1184000E+00
        -11   -1    0    0    0    0  0.00000000000E+00  0.00000000000E+00  0.45593999997E+02  0.45594000000E+02  0.51100000000E-03 0. -1.
         11   -1    0    0    0    0 -0.00000000000E+00 -0.00000000000E+00 -0.45593999997E+02  0.45594000000E+02  0.51100000000E-03 0.  1.
         23    2    1    2    0    0  0.00000000000E+00 -0.17763568394E-14  0.27755575616E-16  0.91188000000E+02  0.91188000000E+02 0.  0.
    9900012    2    3    3    0    0 -0.35993302931E+02 -0.77597077291E+01 -0.21284003550E+00  0.54367133351E+02  0.40000112099E+02 0.  0.
        -12    1    3    3    0    0  0.35993302931E+02  0.77597077291E+01  0.21284003550E+00  0.36820866649E+02  0.00000000000E+00 0.  1.
         11    1    4    4    0    0 -0.24028125293E+02  0.12991552139E+02 -0.19385595862E+01  0.27384105712E+02  0.51100000000E-03 0. -1.
        -11    1    4    4    0    0 -0.50838023711E+01 -0.14296040554E+02  0.63829787511E+01  0.16460991467E+02  0.51100000000E-03 0.  1.
         12    1    4    4    0    0 -0.68813752666E+01 -0.64552193133E+01 -0.46572592004E+01  0.10522036172E+02  0.00000000000E+00 0. -1.
</event>
<event>
 8    1  0.1265908E-006  0.9118800E+02  0.7816164E-02  0.1184000E+00
        -11   -1    0    0    0    0  0.00000000000E+00  0.00000000000E+00  0.45593999997E+02  0.45594000000E+02  0.51100000000E-03 0.  1.
         11   -1    0    0    0    0 -0.00000000000E+00 -0.00000000000E+00 -0.45593999997E+02  0.45594000000E+02  0.51100000000E-03 0. -1.
         23    2    1    2    0    0  0.00000000000E+00  0.35527136788E-14  0.35527136788E-14  0.91188000000E+02  0.91188000000E+02 0.  0.
    9900012    2    3    3    0    0  0.23855758939E+02  0.17683128125E+02 -0.21771292486E+02  0.54367089753E+02  0.40000012711E+02 0.  0.
        -12    1    3    3    0    0 -0.23855758939E+02 -0.17683128125E+02  0.21771292486E+02  0.36820910247E+02  0.00000000000E+00 0.  1.
         11    1    4    4    0    0  0.10129503361E+02  0.40783895859E+01 -0.25737304419E+02  0.27957985245E+02  0.51100000000E-03 0. -1.
        -11    1    4    4    0    0  0.11604579371E+02  0.16678210502E+02  0.71109982361E+01  0.21526617572E+02  0.51100000000E-03 0.  1.
        -12    1    4    4    0    0  0.21216762073E+01 -0.30734719625E+01 -0.31449863037E+01  0.48824869363E+01  0.00000000000E+00 0.  1.
</event>
<event>
 8    1  0.1265908E-006  0.9118800E+02  0.7816164E-02  0.1184000E+00
        -11   -1    0    0    0    0  0.00000000000E+00  0.00000000000E+00  0.45593999997E+02  0.45594000000E+02  0.51100000000E-03 0.  1.
         11   -1    0    0    0    0 -0.00000000000E+00 -0.00000000000E+00 -0.45593999997E+02  0.45594000000E+02  0.51100000000E-03 0. -1.
         23    2    1    2    0    0  0.00000000000E+00  0.71054273576E-14 -0.17763568394E-14  0.91188000000E+02  0.91188000000E+02 0.  0.
    9900012    2    3    3    0    0 -0.76971215865E+01 -0.34001354483E+02  0.11850824228E+02  0.54367084445E+02  0.40000000610E+02 0.  0.
         12    1    3    3    0    0  0.76971215865E+01  0.34001354483E+02 -0.11850824228E+02  0.36820915555E+02  0.00000000000E+00 0. -1.
         11    1    4    4    0    0  0.46430640391E+01 -0.49406092537E+01 -0.30683529114E+00  0.67868852669E+01  0.51100000000E-03 0. -1.
        -11    1    4    4    0    0 -0.83040271130E+01 -0.34315069262E+02  0.18845117764E+01  0.35355794852E+02  0.51100000000E-03 0.  1.
        -12    1    4    4    0    0 -0.40361585127E+01  0.52543240327E+01  0.10273147743E+02  0.12224404326E+02  0.00000000000E+00 0.  1.
</event>
<event>
 8    1  0.1265908E-006  0.9118800E+02  0.7816164E-02  0.1184000E+00
        -11   -1    0    0    0    0  0.00000000000E+00  0.00000000000E+00  0.45593999997E+02  0.45594000000E+02  0.51100000000E-03 0. -1.
         11   -1    0    0    0    0 -0.00000000000E+00 -0.00000000000E+00 -0.45593999997E+02  0.45594000000E+02  0.51100000000E-03 0.  1.
         23    2    1    2    0    0 -0.53290705182E-14  0.00000000000E+00  0.00000000000E+00  0.91188000000E+02  0.91188000000E+02 0.  0.
    9900012    2    3    3    0    0  0.85199210014E+01 -0.23160715671E+02 -0.27327123689E+02  0.54367088912E+02  0.40000010793E+02 0.  0.
         12    1    3    3    0    0 -0.85199210014E+01  0.23160715671E+02  0.27327123689E+02  0.36820911088E+02  0.00000000000E+00 0. -1.
         11    1    4    4    0    0 -0.94656480975E+01 -0.13805082416E+02 -0.12961688430E+02  0.21170360451E+02  0.51100000000E-03 0. -1.
        -11    1    4    4    0    0  0.32913682665E+01 -0.12646299847E+02 -0.12393472738E+02  0.18010001989E+02  0.51100000000E-03 0.  1.
         12    1    4    4    0    0  0.14694200832E+02  0.32906665930E+01 -0.19719625206E+01  0.15186726471E+02  0.00000000000E+00 0. -1.
</event>
<event>
 8    1  0.1265908E-006  0.9118800E+02  0.7816164E-02  0.1184000E+00
        -11   -1    0    0    0    0  0.00000000000E+00  0.00000000000E+00  0.45593999997E+02  0.45594000000E+02  0.51100000000E-03 0.  1.
         11   -1    0    0    0    0 -0.00000000000E+00 -0.00000000000E+00 -0.45593999997E+02  0.45594000000E+02  0.51100000000E-03 0. -1.
         23    2    1    2    0    0  0.00000000000E+00  0.88817841970E-15  0.00000000000E+00  0.91188000000E+02  0.91188000000E+02 0.  0.
    9900012    2    3    3    0    0 -0.30866856143E+02  0.13093243336E+01 -0.20032586646E+02  0.54367059407E+02  0.39999943531E+02 0.  0.
        -12    1    3    3    0    0  0.30866856143E+02 -0.13093243336E+01  0.20032586646E+02  0.36820940593E+02  0.00000000000E+00 0.  1.
         11    1    4    4    0    0 -0.18925722330E+02  0.82584102146E+01 -0.67375377428E+01  0.21720467768E+02  0.51100000000E-03 0. -1.
        -11    1    4    4    0    0 -0.17292919542E+02 -0.91643493043E+01 -0.16500069604E+01  0.19640592855E+02  0.51100000000E-03 0.  1.
         12    1    4    4    0    0  0.53517857286E+01  0.22152634233E+01 -0.11645041943E+02  0.13005998784E+02  0.00000000000E+00 0. -1.
</event>
<event>
 8    1  0.1265908E-006  0.9118800E+02  0.7816164E-02  0.1184000E+00
        -11   -1    0    0    0    0  0.00000000000E+00  0.00000000000E+00  0.45593999997E+02  0.45594000000E+02  0.51100000000E-03 0. -1.
         11   -1    0    0    0    0 -0.00000000000E+00 -0.00000000000E+00 -0.45593999997E+02  0.45594000000E+02  0.51100000000E-03 0.  1.
         23    2    1    2    0    0 -0.66613381478E-15  0.00000000000E+00  0.00000000000E+00  0.91188000000E+02  0.91188000000E+02 0.  0.
    9900012    2    3    3    0    0  0.18393674426E+01  0.33480333840E+02 -0.15213942334E+02  0.54367081109E+02  0.39999993005E+02 0.  0.
         12    1    3    3    0    0 -0.18393674426E+01 -0.33480333840E+02  0.15213942334E+02  0.36820918891E+02  0.00000000000E+00 0. -1.
         11    1    4    4    0    0 -0.24773657937E+01  0.29019588772E+01  0.48991889867E+01  0.62097310400E+01  0.51100000000E-03 0. -1.
        -11    1    4    4    0    0 -0.67027581274E+01 -0.37618543149E+01 -0.38078381663E+01  0.85777704657E+01  0.51100000000E-03 0.  1.
        -12    1    4    4    0    0  0.11019491364E+02  0.34340229277E+02 -0.16305293154E+02  0.39579579604E+02  0.00000000000E+00 0.  1.
</event>
<event>
 8    1  0.1265908E-006  0.9118800E+02  0.7816164E-02  0.1184000E+00
        -11   -1    0    0    0    0  0.00000000000E+00  0.00000000000E+00  0.45593999997E+02  0.45594000000E+02  0.51100000000E-03 0. -1.
         11   -1    0    0    0    0 -0.00000000000E+00 -0.00000000000E+00 -0.45593999997E+02  0.45594000000E+02  0.51100000000E-03 0.  1.
         23    2    1    2    0    0 -0.17763568394E-14  0.00000000000E+00  0.88817841970E-15  0.91188000000E+02  0.91188000000E+02 0.  0.
    9900012    2    3    3    0    0  0.11540647822E+02  0.34465864484E+02  0.58903515691E+01  0.54367100930E+02  0.40000038189E+02 0.  0.
         12    1    3    3    0    0 -0.11540647822E+02 -0.34465864484E+02 -0.58903515691E+01  0.36820899070E+02  0.00000000000E+00 0. -1.
         11    1    4    4    0    0 -0.24742644793E+01  0.31509694273E+02  0.72777598518E+00  0.31615067231E+02  0.51100000000E-03 0. -1.
        -11    1    4    4    0    0 -0.20062180979E+00  0.53009283406E+01 -0.30992087478E+01  0.61437110533E+01  0.51100000000E-03 0.  1.
         12    1    4    4    0    0  0.14215534111E+02 -0.23447581301E+01  0.82617843317E+01  0.16608322645E+02  0.00000000000E+00 0. -1.
</event>
<event>
 8    1  0.1265908E-006  0.9118800E+02  0.7816164E-02  0.1184000E+00
        -11   -1    0    0    0    0  0.00000000000E+00  0.00000000000E+00  0.45593999997E+02  0.45594000000E+02  0.51100000000E-03 0. -1.
         11   -1    0    0    0    0 -0.00000000000E+00 -0.00000000000E+00 -0.45593999997E+02  0.45594000000E+02  0.51100000000E-03 0.  1.
         23    2    1    2    0    0  0.00000000000E+00 -0.17763568394E-14  0.00000000000E+00  0.91188000000E+02  0.91188000000E+02 0.  0.
    9900012    2    3    3    0    0  0.23096835785E+02  0.12058715248E+02  0.26017350875E+02  0.54367095839E+02  0.40000026584E+02 0.  0.
        -12    1    3    3    0    0 -0.23096835785E+02 -0.12058715248E+02 -0.26017350875E+02  0.36820904161E+02  0.00000000000E+00 0.  1.
         11    1    4    4    0    0  0.18418161677E+02 -0.31407639250E+01  0.13636700387E+02  0.23131205660E+02  0.51100000000E-03 0. -1.
        -11    1    4    4    0    0 -0.78876276205E+01 -0.18434296289E-01  0.75476744771E+01  0.10917069184E+02  0.51100000000E-03 0.  1.
        -12    1    4    4    0    0  0.12566301728E+02  0.15217913470E+02  0.48329760103E+01  0.20318820995E+02  0.00000000000E+00 0.  1.
</event>
<event>
 8    1  0.1265908E-006  0.9118800E+02  0.7816164E-02  0.1184000E+00
        -11   -1    0    0    0    0  0.00000000000E+00  0.00000000000E+00  0.45593999997E+02  0.45594000000E+02  0.51100000000E-03 0.  1.
         11   -1    0    0    0    0 -0.00000000000E+00 -0.00000000000E+00 -0.45593999997E+02  0.45594000000E+02  0.51100000000E-03 0. -1.
         23    2    1    2    0    0  0.00000000000E+00  0.22204460493E-15 -0.35527136788E-14  0.91188000000E+02  0.91188000000E+02 0.  0.
    9900012    2    3    3    0    0 -0.18579942716E+02  0.18409308509E+01  0.31736047378E+02  0.54367082020E+02  0.39999995081E+02 0.  0.
         12    1    3    3    0    0  0.18579942716E+02 -0.18409308509E+01 -0.31736047378E+02  0.36820917980E+02  0.00000000000E+00 0. -1.
         11    1    4    4    0    0 -0.23013470478E+02 -0.64535209041E+01  0.72615016665E+01  0.24979935193E+02  0.51100000000E-03 0. -1.
        -11    1    4    4    0    0  0.12189302035E+01 -0.13662430014E+01  0.16100586912E+02  0.16204360831E+02  0.51100000000E-03 0.  1.
        -12    1    4    4    0    0  0.32145975590E+01  0.96606947563E+01  0.83739587994E+01  0.13182785996E+02  0.00000000000E+00 0.  1.
</event>
<event>
 8    1  0.1265908E-006  0.9118800E+02  0.7816164E-02  0.1184000E+00
        -11   -1    0    0    0    0  0.00000000000E+00  0.00000000000E+00  0.45593999997E+02  0.45594000000E+02  0.51100000000E-03 0. -1.
         11   -1    0    0    0    0 -0.00000000000E+00 -0.00000000000E+00 -0.45593999997E+02  0.45594000000E+02  0.51100000000E-03 0.  1.
         23    2    1    2    0    0 -0.71054273576E-14  0.00000000000E+00  0.00000000000E+00  0.91188000000E+02  0.91188000000E+02 0.  0.
    9900012    2    3    3    0    0 -0.32141495640E+02 -0.57441105448E+01  0.17020845230E+02  0.54367085831E+02  0.40000003769E+02 0.  0.
        -12    1    3    3    0    0  0.32141495640E+02  0.57441105448E+01 -0.17020845230E+02  0.36820914169E+02  0.00000000000E+00 0.  1.
         11    1    4    4    0    0 -0.22060057954E+02 -0.11286910256E+02  0.59050445801E+01  0.25473712957E+02  0.51100000000E-03 0. -1.
        -11    1    4    4    0    0  0.35141356199E+01 -0.69522337137E+01  0.10429861739E+01  0.78594225733E+01  0.51100000000E-03 0.  1.
         12    1    4    4    0    0 -0.13595573306E+02  0.12495033425E+02  0.10072814476E+02  0.21033950301E+02  0.00000000000E+00 0. -1.
</event>
<event>
 8    1  0.1265908E-006  0.9118800E+02  0.7816164E-02  0.1184000E+00
        -11   -1    0    0    0    0  0.00000000000E+00  0.00000000000E+00  0.45593999997E+02  0.45594000000E+02  0.51100000000E-03 0.  1.
         11   -1    0    0    0    0 -0.00000000000E+00 -0.00000000000E+00 -0.45593999997E+02  0.45594000000E+02  0.51100000000E-03 0. -1.
         23    2    1    2    0    0  0.88817841970E-15  0.71054273576E-14 -0.35527136788E-14  0.91188000000E+02  0.91188000000E+02 0.  0.
    9900012    2    3    3    0    0  0.68298372875E+01  0.32405271019E+02 -0.16094416153E+02  0.54367102421E+02  0.40000041590E+02 0.  0.
        -12    1    3    3    0    0 -0.68298372875E+01 -0.32405271019E+02  0.16094416153E+02  0.36820897579E+02  0.00000000000E+00 0.  1.
         11    1    4    4    0    0  0.12603717893E+02  0.19165541889E+02 -0.28786040704E+01  0.23118349039E+02  0.51100000000E-03 0. -1.
        -11    1    4    4    0    0  0.34998646482E+01  0.20138259236E+01  0.59427737896E+01  0.71847830853E+01  0.51100000000E-03 0.  1.
        -12    1    4    4    0    0 -0.92737452535E+01  0.11225903206E+02 -0.19158585872E+02  0.24063970297E+02  0.00000000000E+00 0.  1.
</event>
<event>
 8    1  0.1265908E-006  0.9118800E+02  0.7816164E-02  0.1184000E+00
        -11   -1    0    0    0    0  0.00000000000E+00  0.00000000000E+00  0.45593999997E+02  0.45594000000E+02  0.51100000000E-03 0. -1.
         11   -1    0    0    0    0 -0.00000000000E+00 -0.00000000000E+00 -0.45593999997E+02  0.45594000000E+02  0.51100000000E-03 0.  1.
         23    2    1    2    0    0  0.00000000000E+00  0.00000000000E+00 -0.88817841970E-15  0.91188000000E+02  0.91188000000E+02 0.  0.
    9900012    2    3    3    0    0 -0.13986110512E+02  0.33244422389E+02 -0.74145970132E+01  0.54367093492E+02  0.40000021233E+02 0.  0.
         12    1    3    3    0    0  0.13986110512E+02 -0.33244422389E+02  0.74145970132E+01  0.36820906508E+02  0.00000000000E+00 0. -1.
         11    1    4    4    0    0 -0.78506281971E+01  0.27351495880E+02  0.85972484675E+01  0.29726240452E+02  0.51100000000E-03 0. -1.
        -11    1    4    4    0    0 -0.53703132500E+01  0.78172094809E+01 -0.18865316268E+02  0.21115141170E+02  0.51100000000E-03 0.  1.
        -12    1    4    4    0    0 -0.76516906529E+00 -0.19242829721E+01  0.28534707871E+01  0.35257118696E+01  0.00000000000E+00 0.  1.
</event>
<event>
 8    1  0.1265908E-006  0.9118800E+02  0.7816164E-02  0.1184000E+00
        -11   -1    0    0    0    0  0.00000000000E+00  0.00000000000E+00  0.45593999997E+02  0.45594000000E+02  0.51100000000E-03 0.  1.
         11   -1    0    0    0    0 -0.00000000000E+00 -0.00000000000E+00 -0.45593999997E+02  0.45594000000E+02  0.51100000000E-03 0. -1.
         23    2    1    2    0    0  0.88817841970E-15  0.00000000000E+00  0.35527136788E-14  0.91188000000E+02  0.91188000000E+02 0.  0.
    9900012    2    3    3    0    0  0.21944434440E+01  0.27330182438E+02 -0.24576923412E+02  0.54367087212E+02  0.40000006918E+02 0.  0.
        -12    1    3    3    0    0 -0.21944434440E+01 -0.27330182438E+02  0.24576923412E+02  0.36820912788E+02  0.00000000000E+00 0.  1.
         11    1    4    4    0    0 -0.11981979685E+02 -0.32979711612E+01 -0.10439190984E+02  0.16230254453E+02  0.51100000000E-03 0. -1.
        -11    1    4    4    0    0  0.10576647084E+02  0.13581323676E+02 -0.30412245757E+01  0.17480470918E+02  0.51100000000E-03 0.  1.
         12    1    4    4    0    0  0.35997760450E+01  0.17046829924E+02 -0.11096507852E+02  0.20656361842E+02  0.00000000000E+00 0. -1.
</event>
<event>
 8    1  0.1265908E-006  0.9118800E+02  0.7816164E-02  0.1184000E+00
        -11   -1    0    0    0    0  0.00000000000E+00  0.00000000000E+00  0.45593999997E+02  0.45594000000E+02  0.51100000000E-03 0.  1.
         11   -1    0    0    0    0 -0.00000000000E+00 -0.00000000000E+00 -0.45593999997E+02  0.45594000000E+02  0.51100000000E-03 0. -1.
         23    2    1    2    0    0  0.00000000000E+00 -0.44408920985E-15  0.00000000000E+00  0.91188000000E+02  0.91188000000E+02 0.  0.
    9900012    2    3    3    0    0  0.51417771793E+01  0.32360559703E+01 -0.36316254114E+02  0.54367078723E+02  0.39999987564E+02 0.  0.
        -12    1    3    3    0    0 -0.51417771793E+01 -0.32360559703E+01  0.36316254114E+02  0.36820921277E+02  0.00000000000E+00 0.  1.
         11    1    4    4    0    0  0.43419158914E+01  0.19123711863E+01 -0.32239509660E+02  0.32586736267E+02  0.51100000000E-03 0. -1.
        -11    1    4    4    0    0 -0.53179358247E+01 -0.18671916645E+01  0.68417657931E+01  0.88643446219E+01  0.51100000000E-03 0.  1.
        -12    1    4    4    0    0  0.61177971126E+01  0.31908764485E+01 -0.10918510247E+02  0.12915997834E+02  0.00000000000E+00 0.  1.
</event>
<event>
 8    1  0.1265908E-006  0.9118800E+02  0.7816164E-02  0.1184000E+00
        -11   -1    0    0    0    0  0.00000000000E+00  0.00000000000E+00  0.45593999997E+02  0.45594000000E+02  0.51100000000E-03 0.  1.
         11   -1    0    0    0    0 -0.00000000000E+00 -0.00000000000E+00 -0.45593999997E+02  0.45594000000E+02  0.51100000000E-03 0. -1.
         23    2    1    2    0    0 -0.35527136788E-14 -0.71054273576E-14  0.71054273576E-14  0.91188000000E+02  0.91188000000E+02 0.  0.
    9900012    2    3    3    0    0 -0.16860410819E+02 -0.27832613334E+02  0.17229626790E+02  0.54366975336E+02  0.39999751872E+02 0.  0.
         12    1    3    3    0    0  0.16860410819E+02  0.27832613334E+02 -0.17229626790E+02  0.36821024664E+02  0.00000000000E+00 0. -1.
         11    1    4    4    0    0 -0.17645489228E+02 -0.25673240958E+01  0.33160797416E+01  0.18137001632E+02  0.51100000000E-03 0. -1.
        -11    1    4    4    0    0 -0.57508689973E+01 -0.79650985847E+01 -0.38834103072E+01  0.10563908631E+02  0.51100000000E-03 0.  1.
        -12    1    4    4    0    0  0.65359474061E+01 -0.17300190654E+02  0.17796957356E+02  0.25666065072E+02  0.00000000000E+00 0.  1.
</event>
<event>
 8    1  0.1265908E-006  0.9118800E+02  0.7816164E-02  0.1184000E+00
        -11   -1    0    0    0    0  0.00000000000E+00  0.00000000000E+00  0.45593999997E+02  0.45594000000E+02  0.51100000000E-03 0.  1.
         11   -1    0    0    0    0 -0.00000000000E+00 -0.00000000000E+00 -0.45593999997E+02  0.45594000000E+02  0.51100000000E-03 0. -1.
         23    2    1    2    0    0  0.00000000000E+00  0.00000000000E+00  0.00000000000E+00  0.91188000000E+02  0.91188000000E+02 0.  0.
    9900012    2    3    3    0    0  0.26633456977E+02  0.25018086725E+02  0.45316623111E+01  0.54367059528E+02  0.39999943806E+02 0.  0.
        -12    1    3    3    0    0 -0.26633456977E+02 -0.25018086725E+02 -0.45316623111E+01  0.36820940472E+02  0.00000000000E+00 0.  1.
         11    1    4    4    0    0  0.13220602611E+02  0.97401251021E+00 -0.11729908610E+01  0.13308228342E+02  0.51100000000E-03 0. -1.
        -11    1    4    4    0    0  0.37925720392E+01  0.21932659705E+02 -0.84555257243E+01  0.23810104577E+02  0.51100000000E-03 0.  1.
        -12    1    4    4    0    0  0.96202823267E+01  0.21114145098E+01  0.14160178896E+02  0.17248726610E+02  0.00000000000E+00 0.  1.
</event>
<event>
 8    1  0.1265908E-006  0.9118800E+02  0.7816164E-02  0.1184000E+00
        -11   -1    0    0    0    0  0.00000000000E+00  0.00000000000E+00  0.45593999997E+02  0.45594000000E+02  0.51100000000E-03 0.  1.
         11   -1    0    0    0    0 -0.00000000000E+00 -0.00000000000E+00 -0.45593999997E+02  0.45594000000E+02  0.51100000000E-03 0. -1.
         23    2    1    2    0    0  0.00000000000E+00  0.00000000000E+00  0.00000000000E+00  0.91188000000E+02  0.91188000000E+02 0.  0.
    9900012    2    3    3    0    0 -0.24902758084E+02 -0.27099750794E+02 -0.11120600105E+01  0.54367074825E+02  0.39999978679E+02 0.  0.
        -12    1    3    3    0    0  0.24902758084E+02  0.27099750794E+02  0.11120600105E+01  0.36820925175E+02  0.00000000000E+00 0.  1.
         11    1    4    4    0    0  0.61983422808E+00 -0.16946131279E+01 -0.27377016151E+01  0.32788593319E+01  0.51100000000E-03 0. -1.
        -11    1    4    4    0    0  0.92810556512E+01 -0.55278852075E+01 -0.14066359633E+01  0.10893765826E+02  0.51100000000E-03 0.  1.
        -12    1    4    4    0    0 -0.34803647963E+02 -0.19877252458E+02  0.30322775679E+01  0.40194449668E+02  0.00000000000E+00 0.  1.
</event>
<event>
 8    1  0.1265908E-006  0.9118800E+02  0.7816164E-02  0.1184000E+00
        -11   -1    0    0    0    0  0.00000000000E+00  0.00000000000E+00  0.45593999997E+02  0.45594000000E+02  0.51100000000E-03 0. -1.
         11   -1    0    0    0    0 -0.00000000000E+00 -0.00000000000E+00 -0.45593999997E+02  0.45594000000E+02  0.51100000000E-03 0.  1.
         23    2    1    2    0    0  0.00000000000E+00 -0.17763568394E-14 -0.66613381478E-15  0.91188000000E+02  0.91188000000E+02 0.  0.
    9900012    2    3    3    0    0 -0.35454215773E+02 -0.98606235986E+01 -0.12434968622E+01  0.54367087488E+02  0.40000007545E+02 0.  0.
        -12    1    3    3    0    0  0.35454215773E+02  0.98606235986E+01  0.12434968622E+01  0.36820912512E+02  0.00000000000E+00 0.  1.
         11    1    4    4    0    0 -0.56518164460E+01 -0.32889555861E+01 -0.44332603182E+01  0.79002566602E+01  0.51100000000E-03 0. -1.
        -11    1    4    4    0    0 -0.24501551289E+02 -0.10185244900E+02 -0.12636620066E+02  0.29389613747E+02  0.51100000000E-03 0.  1.
         12    1    4    4    0    0 -0.53008480378E+01  0.36135768877E+01  0.15826383522E+02  0.17077217081E+02  0.00000000000E+00 0. -1.
</event>
<event>
 8    1  0.1265908E-006  0.9118800E+02  0.7816164E-02  0.1184000E+00
        -11   -1    0    0    0    0  0.00000000000E+00  0.00000000000E+00  0.45593999997E+02  0.45594000000E+02  0.51100000000E-03 0.  1.
         11   -1    0    0    0    0 -0.00000000000E+00 -0.00000000000E+00 -0.45593999997E+02  0.45594000000E+02  0.51100000000E-03 0. -1.
         23    2    1    2    0    0  0.00000000000E+00 -0.17763568394E-14 -0.35527136788E-14  0.91188000000E+02  0.91188000000E+02 0.  0.
    9900012    2    3    3    0    0  0.17041575407E+02  0.12937513513E+02 -0.29966392949E+02  0.54367092154E+02  0.40000018182E+02 0.  0.
        -12    1    3    3    0    0 -0.17041575407E+02 -0.12937513513E+02  0.29966392949E+02  0.36820907846E+02  0.00000000000E+00 0.  1.
         11    1    4    4    0    0 -0.50812915464E+01  0.12647461966E+02 -0.17460957153E+02  0.22150910657E+02  0.51100000000E-03 0. -1.
        -11    1    4    4    0    0  0.18608227207E+02  0.85510670050E+01 -0.67971200525E+01  0.21577481502E+02  0.51100000000E-03 0.  1.
        -12    1    4    4    0    0  0.35146397466E+01 -0.82610154581E+01 -0.57083157438E+01  0.10638699995E+02  0.00000000000E+00 0.  1.
</event>
<event>
 8    1  0.1265908E-006  0.9118800E+02  0.7816164E-02  0.1184000E+00
        -11   -1    0    0    0    0  0.00000000000E+00  0.00000000000E+00  0.45593999997E+02  0.45594000000E+02  0.51100000000E-03 0.  1.
         11   -1    0    0    0    0 -0.00000000000E+00 -0.00000000000E+00 -0.45593999997E+02  0.45594000000E+02  0.51100000000E-03 0. -1.
         23    2    1    2    0    0  0.00000000000E+00  0.00000000000E+00 -0.17763568394E-14  0.91188000000E+02  0.91188000000E+02 0.  0.
    9900012    2    3    3    0    0  0.36073108487E+02 -0.19659425446E+01 -0.71166377194E+01  0.54367073635E+02  0.39999975965E+02 0.  0.
         12    1    3    3    0    0 -0.36073108487E+02  0.19659425446E+01  0.71166377194E+01  0.36820926365E+02  0.00000000000E+00 0. -1.
         11    1    4    4    0    0  0.90680379649E+01  0.12051847439E+01 -0.20054068492E+02  0.22041947421E+02  0.51100000000E-03 0. -1.
        -11    1    4    4    0    0  0.10858581242E+02 -0.57888808240E+01  0.15683100583E+01  0.12404818599E+02  0.51100000000E-03 0.  1.
         12    1    4    4    0    0  0.16146489280E+02  0.26177535355E+01  0.11369120714E+02  0.19920307614E+02  0.00000000000E+00 0. -1.
</event>
<event>
 8    1  0.1265908E-006  0.9118800E+02  0.7816164E-02  0.1184000E+00
        -11   -1    0    0    0    0  0.00000000000E+00  0.00000000000E+00  0.45593999997E+02  0.45594000000E+02  0.51100000000E-03 0.  1.
         11   -1    0    0    0    0 -0.00000000000E+00 -0.00000000000E+00 -0.45593999997E+02  0.45594000000E+02  0.51100000000E-03 0. -1.
         23    2    1    2    0    0  0.00000000000E+00  0.00000000000E+00  0.00000000000E+00  0.91188000000E+02  0.91188000000E+02 0.  0.
    9900012    2    3    3    0    0  0.17734656840E+02 -0.21084071840E+02  0.24427925333E+02  0.54367086450E+02  0.40000005181E+02 0.  0.
         12    1    3    3    0    0 -0.17734656840E+02  0.21084071840E+02 -0.24427925333E+02  0.36820913550E+02  0.00000000000E+00 0. -1.
         11    1    4    4    0    0 -0.39091359008E+01 -0.70545741093E+01 -0.51408014280E+00  0.80816234761E+01  0.51100000000E-03 0. -1.
        -11    1    4    4    0    0  0.19404447767E+02  0.47567148401E+01  0.14398227433E+02  0.24626568633E+02  0.51100000000E-03 0.  1.
        -12    1    4    4    0    0  0.22393449743E+01 -0.18786212570E+02  0.10543778043E+02  0.21658894341E+02  0.00000000000E+00 0.  1.
</event>
<event>
 8    1  0.1265908E-006  0.9118800E+02  0.7816164E-02  0.1184000E+00
        -11   -1    0    0    0    0  0.00000000000E+00  0.00000000000E+00  0.45593999997E+02  0.45594000000E+02  0.51100000000E-03 0. -1.
         11   -1    0    0    0    0 -0.00000000000E+00 -0.00000000000E+00 -0.45593999997E+02  0.45594000000E+02  0.51100000000E-03 0.  1.
         23    2    1    2    0    0  0.00000000000E+00 -0.35527136788E-14  0.35527136788E-14  0.91188000000E+02  0.91188000000E+02 0.  0.
    9900012    2    3    3    0    0  0.12522186171E+02 -0.21829705290E+02  0.26878216289E+02  0.54367086236E+02  0.40000004693E+02 0.  0.
        -12    1    3    3    0    0 -0.12522186171E+02  0.21829705290E+02 -0.26878216289E+02  0.36820913764E+02  0.00000000000E+00 0.  1.
         11    1    4    4    0    0 -0.77955388392E+01  0.23028329668E+00  0.12239710027E+02  0.14513233892E+02  0.51100000000E-03 0. -1.
        -11    1    4    4    0    0  0.57748254109E+01 -0.19644521935E+02  0.22527101591E+01  0.20599285276E+02  0.51100000000E-03 0.  1.
        -12    1    4    4    0    0  0.14542899599E+02 -0.24154666516E+01  0.12385796102E+02  0.19254567068E+02  0.00000000000E+00 0.  1.
</event>
<event>
 8    1  0.1265908E-006  0.9118800E+02  0.7816164E-02  0.1184000E+00
        -11   -1    0    0    0    0  0.00000000000E+00  0.00000000000E+00  0.45593999997E+02  0.45594000000E+02  0.51100000000E-03 0. -1.
         11   -1    0    0    0    0 -0.00000000000E+00 -0.00000000000E+00 -0.45593999997E+02  0.45594000000E+02  0.51100000000E-03 0.  1.
         23    2    1    2    0    0  0.17763568394E-14  0.71054273576E-14  0.44408920985E-15  0.91188000000E+02  0.91188000000E+02 0.  0.
    9900012    2    3    3    0    0 -0.14798657205E+02 -0.33517940637E+02  0.36505876991E+01  0.54367090313E+02  0.40000013987E+02 0.  0.
        -12    1    3    3    0    0  0.14798657205E+02  0.33517940637E+02 -0.36505876991E+01  0.36820909687E+02  0.00000000000E+00 0.  1.
         11    1    4    4    0    0 -0.61591620678E+01 -0.43621450046E+01 -0.59192902402E+01  0.95917455986E+01  0.51100000000E-03 0. -1.
        -11    1    4    4    0    0 -0.33721745453E+01  0.66995570073E+01  0.16839290325E+01  0.76870828346E+01  0.51100000000E-03 0.  1.
        -12    1    4    4    0    0 -0.52673205921E+01 -0.35855352640E+02  0.78859489068E+01  0.37088261880E+02  0.00000000000E+00 0.  1.
</event>
<event>
 8    1  0.1265908E-006  0.9118800E+02  0.7816164E-02  0.1184000E+00
        -11   -1    0    0    0    0  0.00000000000E+00  0.00000000000E+00  0.45593999997E+02  0.45594000000E+02  0.51100000000E-03 0. -1.
         11   -1    0    0    0    0 -0.00000000000E+00 -0.00000000000E+00 -0.45593999997E+02  0.45594000000E+02  0.51100000000E-03 0.  1.
         23    2    1    2    0    0 -0.88817841970E-15  0.35527136788E-14  0.00000000000E+00  0.91188000000E+02  0.91188000000E+02 0.  0.
    9900012    2    3    3    0    0  0.79124475313E+01 -0.31092623292E+02  0.18067139996E+02  0.54367087508E+02  0.40000007591E+02 0.  0.
        -12    1    3    3    0    0 -0.79124475313E+01  0.31092623292E+02 -0.18067139996E+02  0.36820912492E+02  0.00000000000E+00 0.  1.
         11    1    4    4    0    0 -0.17735002404E+01 -0.17663574645E+02 -0.32753781874E+01  0.18052015812E+02  0.51100000000E-03 0. -1.
        -11    1    4    4    0    0  0.10392715489E+02 -0.19844993438E+02  0.13488716316E+02  0.26149144688E+02  0.51100000000E-03 0.  1.
        -12    1    4    4    0    0 -0.70676771704E+00  0.64159447904E+01  0.78538018678E+01  0.10165927008E+02  0.00000000000E+00 0.  1.
</event>
<event>
 8    1  0.1265908E-006  0.9118800E+02  0.7816164E-02  0.1184000E+00
        -11   -1    0    0    0    0  0.00000000000E+00  0.00000000000E+00  0.45593999997E+02  0.45594000000E+02  0.51100000000E-03 0. -1.
         11   -1    0    0    0    0 -0.00000000000E+00 -0.00000000000E+00 -0.45593999997E+02  0.45594000000E+02  0.51100000000E-03 0.  1.
         23    2    1    2    0    0  0.17763568394E-14  0.00000000000E+00  0.00000000000E+00  0.91188000000E+02  0.91188000000E+02 0.  0.
    9900012    2    3    3    0    0 -0.10787728236E+02  0.25236205102E+02 -0.24546678322E+02  0.54367074630E+02  0.39999978235E+02 0.  0.
         12    1    3    3    0    0  0.10787728236E+02 -0.25236205102E+02  0.24546678322E+02  0.36820925370E+02  0.00000000000E+00 0. -1.
         11    1    4    4    0    0 -0.11278573880E+01 -0.68739915695E+01  0.12828219525E+01  0.70830399412E+01  0.51100000000E-03 0. -1.
        -11    1    4    4    0    0 -0.42936730238E+01  0.27076788221E+01  0.28838756734E+01  0.58381411254E+01  0.51100000000E-03 0.  1.
         12    1    4    4    0    0 -0.53661978244E+01  0.29402517849E+02 -0.28713375948E+02  0.41445893564E+02  0.00000000000E+00 0. -1.
</event>
<event>
 8    1  0.1265908E-006  0.9118800E+02  0.7816164E-02  0.1184000E+00
        -11   -1    0    0    0    0  0.00000000000E+00  0.00000000000E+00  0.45593999997E+02  0.45594000000E+02  0.51100000000E-03 0. -1.
         11   -1    0    0    0    0 -0.00000000000E+00 -0.00000000000E+00 -0.45593999997E+02  0.45594000000E+02  0.51100000000E-03 0.  1.
         23    2    1    2    0    0  0.00000000000E+00 -0.35527136788E-14  0.44408920985E-15  0.91188000000E+02  0.91188000000E+02 0.  0.
    9900012    2    3    3    0    0  0.26702557387E+02  0.25301625666E+02  0.16065065920E+01  0.54367086164E+02  0.40000004527E+02 0.  0.
        -12    1    3    3    0    0 -0.26702557387E+02 -0.25301625666E+02 -0.16065065920E+01  0.36820913836E+02  0.00000000000E+00 0.  1.
         11    1    4    4    0    0  0.73158913006E+00  0.14261592499E+02  0.87217868758E+01  0.16733135087E+02  0.51100000000E-03 0. -1.
        -11    1    4    4    0    0  0.39885559013E+00 -0.59057441408E+01  0.74454879161E+00  0.59658404942E+01  0.51100000000E-03 0.  1.
        -12    1    4    4    0    0  0.25572112667E+02  0.16945777307E+02 -0.78598290754E+01  0.31668110583E+02  0.00000000000E+00 0.  1.
</event>
<event>
 8    1  0.1265908E-006  0.9118800E+02  0.7816164E-02  0.1184000E+00
        -11   -1    0    0    0    0  0.00000000000E+00  0.00000000000E+00  0.45593999997E+02  0.45594000000E+02  0.51100000000E-03 0.  1.
         11   -1    0    0    0    0 -0.00000000000E+00 -0.00000000000E+00 -0.45593999997E+02  0.45594000000E+02  0.51100000000E-03 0. -1.
         23    2    1    2    0    0  0.00000000000E+00  0.00000000000E+00 -0.71054273576E-14  0.91188000000E+02  0.91188000000E+02 0.  0.
    9900012    2    3    3    0    0 -0.49377010028E+01 -0.78763958918E+01  0.35628111736E+02  0.54367070499E+02  0.39999968816E+02 0.  0.
         12    1    3    3    0    0  0.49377010028E+01  0.78763958918E+01 -0.35628111736E+02  0.36820929501E+02  0.00000000000E+00 0. -1.
         11    1    4    4    0    0 -0.79354686924E+01 -0.68672172014E+01 -0.46641859305E+01  0.11484117995E+02  0.51100000000E-03 0. -1.
        -11    1    4    4    0    0 -0.24827299012E+00 -0.60957577033E+01  0.81572515154E+01  0.10186297365E+02  0.51100000000E-03 0.  1.
         12    1    4    4    0    0  0.32460406797E+01  0.50865790129E+01  0.32135046151E+02  0.32696655139E+02  0.00000000000E+00 0. -1.
</event>
<event>
 8    1  0.1265908E-006  0.9118800E+02  0.7816164E-02  0.1184000E+00
        -11   -1    0    0    0    0  0.00000000000E+00  0.00000000000E+00  0.45593999997E+02  0.45594000000E+02  0.51100000000E-03 0. -1.
         11   -1    0    0    0    0 -0.00000000000E+00 -0.00000000000E+00 -0.45593999997E+02  0.45594000000E+02  0.51100000000E-03 0.  1.
         23    2    1    2    0    0 -0.71054273576E-14 -0.44408920985E-15  0.17763568394E-14  0.91188000000E+02  0.91188000000E+02 0.  0.
    9900012    2    3    3    0    0 -0.34778755653E+02 -0.28258544837E+01  0.11757204871E+02  0.54367093374E+02  0.40000020965E+02 0.  0.
        -12    1    3    3    0    0  0.34778755653E+02  0.28258544837E+01 -0.11757204871E+02  0.36820906626E+02  0.00000000000E+00 0.  1.
         11    1    4    4    0    0 -0.28523305817E+02  0.98994620115E+01 -0.63475889603E+01  0.30852393890E+02  0.51100000000E-03 0. -1.
        -11    1    4    4    0    0 -0.31857869657E+01 -0.83073940221E+01  0.75539651534E+01  0.11671521916E+02  0.51100000000E-03 0.  1.
         12    1    4    4    0    0 -0.30696628703E+01 -0.44179224732E+01  0.10550828678E+02  0.11843177568E+02  0.00000000000E+00 0. -1.
</event>
<event>
 8    1  0.1265908E-006  0.9118800E+02  0.7816164E-02  0.1184000E+00
        -11   -1    0    0    0    0  0.00000000000E+00  0.00000000000E+00  0.45593999997E+02  0.45594000000E+02  0.51100000000E-03 0.  1.
         11   -1    0    0    0    0 -0.00000000000E+00 -0.00000000000E+00 -0.45593999997E+02  0.45594000000E+02  0.51100000000E-03 0. -1.
         23    2    1    2    0    0  0.00000000000E+00  0.17763568394E-14  0.00000000000E+00  0.91188000000E+02  0.91188000000E+02 0.  0.
    9900012    2    3    3    0    0  0.23010826741E+02 -0.67772631326E+01  0.27934777586E+02  0.54367065172E+02  0.39999956672E+02 0.  0.
         12    1    3    3    0    0 -0.23010826741E+02  0.67772631326E+01 -0.27934777586E+02  0.36820934828E+02  0.00000000000E+00 0. -1.
         11    1    4    4    0    0 -0.62750701132E+01 -0.89132003799E+01  0.48551975087E+01  0.11932920391E+02  0.51100000000E-03 0. -1.
        -11    1    4    4    0    0  0.66758716138E+01 -0.73924409381E+01  0.21631742590E+01  0.10192878296E+02  0.51100000000E-03 0.  1.
        -12    1    4    4    0    0  0.22610025240E+02  0.95283781854E+01  0.20916405818E+02  0.32241266485E+02  0.00000000000E+00 0.  1.
</event>
<event>
 8    1  0.1265908E-006  0.9118800E+02  0.7816164E-02  0.1184000E+00
        -11   -1    0    0    0    0  0.00000000000E+00  0.00000000000E+00  0.45593999997E+02  0.45594000000E+02  0.51100000000E-03 0.  1.
         11   -1    0    0    0    0 -0.00000000000E+00 -0.00000000000E+00 -0.45593999997E+02  0.45594000000E+02  0.51100000000E-03 0. -1.
         23    2    1    2    0    0  0.17763568394E-14  0.17763568394E-14  0.00000000000E+00  0.91188000000E+02  0.91188000000E+02 0.  0.
    9900012    2    3    3    0    0  0.84244757507E+01 -0.55907137690E+01  0.35405485224E+02  0.54367132872E+02  0.40000111008E+02 0.  0.
         12    1    3    3    0    0 -0.84244757507E+01  0.55907137690E+01 -0.35405485224E+02  0.36820867128E+02  0.00000000000E+00 0. -1.
         11    1    4    4    0    0 -0.11563598233E+02  0.96140166967E+01  0.15560038622E+02  0.21639337405E+02  0.51100000000E-03 0. -1.
        -11    1    4    4    0    0  0.10234282735E+02 -0.46055123037E+01  0.11555623203E+02  0.16108498209E+02  0.51100000000E-03 0.  1.
         12    1    4    4    0    0  0.97537912482E+01 -0.10599218162E+02  0.82898233990E+01  0.16619297258E+02  0.00000000000E+00 0. -1.
</event>
<event>
 8    1  0.1265908E-006  0.9118800E+02  0.7816164E-02  0.1184000E+00
        -11   -1    0    0    0    0  0.00000000000E+00  0.00000000000E+00  0.45593999997E+02  0.45594000000E+02  0.51100000000E-03 0. -1.
         11   -1    0    0    0    0 -0.00000000000E+00 -0.00000000000E+00 -0.45593999997E+02  0.45594000000E+02  0.51100000000E-03 0.  1.
         23    2    1    2    0    0  0.00000000000E+00  0.00000000000E+00 -0.44408920985E-15  0.91188000000E+02  0.91188000000E+02 0.  0.
    9900012    2    3    3    0    0  0.26627321045E+02 -0.25258947479E+02  0.29589240956E+01  0.54367029269E+02  0.39999874824E+02 0.  0.
        -12    1    3    3    0    0 -0.26627321045E+02  0.25258947479E+02 -0.29589240956E+01  0.36820970731E+02  0.00000000000E+00 0.  1.
         11    1    4    4    0    0  0.23947456896E+02 -0.97152103891E+01  0.54468933434E+01  0.26410881319E+02  0.51100000000E-03 0. -1.
        -11    1    4    4    0    0 -0.72025304929E+01  0.19170567025E+01 -0.25959446971E+01  0.78924318834E+01  0.51100000000E-03 0.  1.
        -12    1    4    4    0    0  0.98823946421E+01 -0.17460793792E+02  0.10797544931E+00  0.20063716067E+02  0.00000000000E+00 0.  1.
</event>
<event>
 8    1  0.1265908E-006  0.9118800E+02  0.7816164E-02  0.1184000E+00
        -11   -1    0    0    0    0  0.00000000000E+00  0.00000000000E+00  0.45593999997E+02  0.45594000000E+02  0.51100000000E-03 0.  1.
         11   -1    0    0    0    0 -0.00000000000E+00 -0.00000000000E+00 -0.45593999997E+02  0.45594000000E+02  0.51100000000E-03 0. -1.
         23    2    1    2    0    0  0.00000000000E+00  0.00000000000E+00 -0.35527136788E-14  0.91188000000E+02  0.91188000000E+02 0.  0.
    9900012    2    3    3    0    0 -0.10601639164E+02 -0.16436086363E+02 -0.31196786576E+02  0.54367093159E+02  0.40000020475E+02 0.  0.
        -12    1    3    3    0    0  0.10601639164E+02  0.16436086363E+02  0.31196786576E+02  0.36820906841E+02  0.00000000000E+00 0.  1.
         11    1    4    4    0    0 -0.18615025396E+02 -0.19717609281E+01 -0.93799801272E+01  0.20937789737E+02  0.51100000000E-03 0. -1.
        -11    1    4    4    0    0  0.56880098794E+01 -0.57120803530E+01  0.16918465021E+01  0.82367264854E+01  0.51100000000E-03 0.  1.
        -12    1    4    4    0    0  0.23253763520E+01 -0.87522450820E+01 -0.23508652951E+02  0.25192576937E+02  0.00000000000E+00 0.  1.
</event>
<event>
 8    1  0.1265908E-006  0.9118800E+02  0.7816164E-02  0.1184000E+00
        -11   -1    0    0    0    0  0.00000000000E+00  0.00000000000E+00  0.45593999997E+02  0.45594000000E+02  0.51100000000E-03 0. -1.
         11   -1    0    0    0    0 -0.00000000000E+00 -0.00000000000E+00 -0.45593999997E+02  0.45594000000E+02  0.51100000000E-03 0.  1.
         23    2    1    2    0    0  0.00000000000E+00  0.00000000000E+00  0.00000000000E+00  0.91188000000E+02  0.91188000000E+02 0.  0.
    9900012    2    3    3    0    0  0.28883129078E+02 -0.22119597737E+02 -0.56806580501E+01  0.54367059962E+02  0.39999944795E+02 0.  0.
         12    1    3    3    0    0 -0.28883129078E+02  0.22119597737E+02  0.56806580501E+01  0.36820940038E+02  0.00000000000E+00 0. -1.
         11    1    4    4    0    0  0.12724817654E+01  0.26341993078E+01  0.74990887371E+01  0.80495060709E+01  0.51100000000E-03 0. -1.
        -11    1    4    4    0    0 -0.35702363633E+00  0.31100840493E+01 -0.51552967461E+01  0.60313492249E+01  0.51100000000E-03 0.  1.
        -12    1    4    4    0    0  0.27967670949E+02 -0.27863881094E+02 -0.80244500411E+01  0.40286204666E+02  0.00000000000E+00 0.  1.
</event>
<event>
 8    1  0.1265908E-006  0.9118800E+02  0.7816164E-02  0.1184000E+00
        -11   -1    0    0    0    0  0.00000000000E+00  0.00000000000E+00  0.45593999997E+02  0.45594000000E+02  0.51100000000E-03 0. -1.
         11   -1    0    0    0    0 -0.00000000000E+00 -0.00000000000E+00 -0.45593999997E+02  0.45594000000E+02  0.51100000000E-03 0.  1.
         23    2    1    2    0    0  0.00000000000E+00  0.35527136788E-14  0.00000000000E+00  0.91188000000E+02  0.91188000000E+02 0.  0.
    9900012    2    3    3    0    0  0.34846643310E+01  0.15536328856E+02  0.33200274889E+02  0.54367100329E+02  0.40000036821E+02 0.  0.
        -12    1    3    3    0    0 -0.34846643310E+01 -0.15536328856E+02 -0.33200274889E+02  0.36820899671E+02  0.00000000000E+00 0.  1.
         11    1    4    4    0    0  0.92332434404E+01  0.12880991454E+01  0.22482964941E+02  0.24339180278E+02  0.51100000000E-03 0. -1.
        -11    1    4    4    0    0  0.86999492977E+01  0.25474781278E+01  0.59192456188E+01  0.10826644519E+02  0.51100000000E-03 0.  1.
        -12    1    4    4    0    0 -0.14448528407E+02  0.11700751583E+02  0.47980643299E+01  0.19201275532E+02  0.00000000000E+00 0.  1.
</event>
<event>
 8    1  0.1265908E-006  0.9118800E+02  0.7816164E-02  0.1184000E+00
        -11   -1    0    0    0    0  0.00000000000E+00  0.00000000000E+00  0.45593999997E+02  0.45594000000E+02  0.51100000000E-03 0. -1.
         11   -1    0    0    0    0 -0.00000000000E+00 -0.00000000000E+00 -0.45593999997E+02  0.45594000000E+02  0.51100000000E-03 0.  1.
         23    2    1    2    0    0 -0.17763568394E-14  0.00000000000E+00  0.00000000000E+00  0.91188000000E+02  0.91188000000E+02 0.  0.
    9900012    2    3    3    0    0  0.14579350307E+02 -0.18733818268E+02  0.28147228934E+02  0.54367083405E+02  0.39999998237E+02 0.  0.
        -12    1    3    3    0    0 -0.14579350307E+02  0.18733818268E+02 -0.28147228934E+02  0.36820916595E+02  0.00000000000E+00 0.  1.
         11    1    4    4    0    0 -0.10234386187E+01 -0.86818698863E+00  0.26632075206E+02  0.26665869671E+02  0.51100000000E-03 0. -1.
        -11    1    4    4    0    0 -0.25555691538E+01 -0.74943787393E+00 -0.30800168695E+00  0.26809431413E+01  0.51100000000E-03 0.  1.
        -12    1    4    4    0    0  0.18158358080E+02 -0.17116193405E+02  0.18231554145E+01  0.25020270592E+02  0.00000000000E+00 0.  1.
</event>
<event>
 8    1  0.1265908E-006  0.9118800E+02  0.7816164E-02  0.1184000E+00
        -11   -1    0    0    0    0  0.00000000000E+00  0.00000000000E+00  0.45593999997E+02  0.45594000000E+02  0.51100000000E-03 0.  1.
         11   -1    0    0    0    0 -0.00000000000E+00 -0.00000000000E+00 -0.45593999997E+02  0.45594000000E+02  0.51100000000E-03 0. -1.
         23    2    1    2    0    0  0.88817841970E-15  0.00000000000E+00  0.17763568394E-14  0.91188000000E+02  0.91188000000E+02 0.  0.
    9900012    2    3    3    0    0  0.69703580962E+01  0.33408842729E+02  0.13821910647E+02  0.54367056525E+02  0.39999936960E+02 0.  0.
         12    1    3    3    0    0 -0.69703580962E+01 -0.33408842729E+02 -0.13821910647E+02  0.36820943475E+02  0.00000000000E+00 0. -1.
         11    1    4    4    0    0 -0.22930484397E+01  0.24125739740E+02  0.64654678265E+01  0.25082098470E+02  0.51100000000E-03 0. -1.
        -11    1    4    4    0    0  0.58861704996E+01  0.17975318065E+02  0.37264939770E+01  0.19278117655E+02  0.51100000000E-03 0.  1.
        -12    1    4    4    0    0  0.33772360363E+01 -0.86922150770E+01  0.36299488437E+01  0.10006840400E+02  0.00000000000E+00 0.  1.
</event>
<event>
 8    1  0.1265908E-006  0.9118800E+02  0.7816164E-02  0.1184000E+00
        -11   -1    0    0    0    0  0.00000000000E+00  0.00000000000E+00  0.45593999997E+02  0.45594000000E+02  0.51100000000E-03 0.  1.
         11   -1    0    0    0    0 -0.00000000000E+00 -0.00000000000E+00 -0.45593999997E+02  0.45594000000E+02  0.51100000000E-03 0. -1.
         23    2    1    2    0    0  0.55511151231E-15  0.00000000000E+00  0.00000000000E+00  0.91188000000E+02  0.91188000000E+02 0.  0.
    9900012    2    3    3    0    0  0.54621759943E+00  0.35640674696E+02  0.92316585046E+01  0.54367087936E+02  0.40000008569E+02 0.  0.
         12    1    3    3    0    0 -0.54621759943E+00 -0.35640674696E+02 -0.92316585046E+01  0.36820912064E+02  0.00000000000E+00 0. -1.
         11    1    4    4    0    0  0.65910090713E+01 -0.66031146074E+00  0.48328923000E+01  0.81996499955E+01  0.51100000000E-03 0. -1.
        -11    1    4    4    0    0  0.68970907414E+01  0.27436509021E+00  0.38057231412E+01  0.78821739252E+01  0.51100000000E-03 0.  1.
        -12    1    4    4    0    0 -0.12941882213E+02  0.36026621066E+02  0.59304306330E+00  0.38285264016E+02  0.00000000000E+00 0.  1.
</event>
<event>
 8    1  0.1265908E-006  0.9118800E+02  0.7816164E-02  0.1184000E+00
        -11   -1    0    0    0    0  0.00000000000E+00  0.00000000000E+00  0.45593999997E+02  0.45594000000E+02  0.51100000000E-03 0.  1.
         11   -1    0    0    0    0 -0.00000000000E+00 -0.00000000000E+00 -0.45593999997E+02  0.45594000000E+02  0.51100000000E-03 0. -1.
         23    2    1    2    0    0  0.00000000000E+00  0.17763568394E-14  0.00000000000E+00  0.91188000000E+02  0.91188000000E+02 0.  0.
    9900012    2    3    3    0    0  0.28622595529E+02  0.12519606629E+02  0.19488118893E+02  0.54367077918E+02  0.39999985730E+02 0.  0.
        -12    1    3    3    0    0 -0.28622595529E+02 -0.12519606629E+02 -0.19488118893E+02  0.36820922082E+02  0.00000000000E+00 0.  1.
         11    1    4    4    0    0  0.10120374978E+02 -0.89849562670E+01  0.18565725919E+02  0.22974716712E+02  0.51100000000E-03 0. -1.
        -11    1    4    4    0    0  0.33839550478E+01  0.85704343943E+01  0.58250735613E+01  0.10901145799E+02  0.51100000000E-03 0.  1.
         12    1    4    4    0    0  0.15118265503E+02  0.12934128502E+02 -0.49026805873E+01  0.20491215407E+02  0.00000000000E+00 0. -1.
</event>
<event>
 8    1  0.1265908E-006  0.9118800E+02  0.7816164E-02  0.1184000E+00
        -11   -1    0    0    0    0  0.00000000000E+00  0.00000000000E+00  0.45593999997E+02  0.45594000000E+02  0.51100000000E-03 0.  1.
         11   -1    0    0    0    0 -0.00000000000E+00 -0.00000000000E+00 -0.45593999997E+02  0.45594000000E+02  0.51100000000E-03 0. -1.
         23    2    1    2    0    0 -0.35527136788E-14  0.88817841970E-15  0.35527136788E-14  0.91188000000E+02  0.91188000000E+02 0.  0.
    9900012    2    3    3    0    0  0.26418182400E+02  0.73572313472E+01 -0.24570956968E+02  0.54367066542E+02  0.39999959796E+02 0.  0.
        -12    1    3    3    0    0 -0.26418182400E+02 -0.73572313472E+01  0.24570956968E+02  0.36820933458E+02  0.00000000000E+00 0.  1.
         11    1    4    4    0    0  0.18608518045E+02  0.14491460331E+02 -0.69778528620E+01  0.24596133786E+02  0.51100000000E-03 0. -1.
        -11    1    4    4    0    0 -0.11274182496E+01  0.46912095167E+01 -0.13584345260E+02  0.14415719026E+02  0.51100000000E-03 0.  1.
         12    1    4    4    0    0  0.89370826043E+01 -0.11825438501E+02 -0.40087588456E+01  0.15355213730E+02  0.00000000000E+00 0. -1.
</event>
<event>
 8    1  0.1265908E-006  0.9118800E+02  0.7816164E-02  0.1184000E+00
        -11   -1    0    0    0    0  0.00000000000E+00  0.00000000000E+00  0.45593999997E+02  0.45594000000E+02  0.51100000000E-03 0.  1.
         11   -1    0    0    0    0 -0.00000000000E+00 -0.00000000000E+00 -0.45593999997E+02  0.45594000000E+02  0.51100000000E-03 0. -1.
         23    2    1    2    0    0  0.00000000000E+00  0.00000000000E+00  0.71054273576E-14  0.91188000000E+02  0.91188000000E+02 0.  0.
    9900012    2    3    3    0    0  0.92792101510E+01 -0.19790744815E+01 -0.35577571069E+02  0.54367027172E+02  0.39999870044E+02 0.  0.
        -12    1    3    3    0    0 -0.92792101510E+01  0.19790744815E+01  0.35577571069E+02  0.36820972828E+02  0.00000000000E+00 0.  1.
         11    1    4    4    0    0  0.24624437331E+01  0.16535887368E+01 -0.56659337679E+01  0.63953725906E+01  0.51100000000E-03 0. -1.
        -11    1    4    4    0    0  0.70446987840E+01 -0.64649185676E+01 -0.38111933330E+02  0.39293032658E+02  0.51100000000E-03 0.  1.
        -12    1    4    4    0    0 -0.22793236610E+00  0.28322553493E+01  0.82002960291E+01  0.86786219236E+01  0.00000000000E+00 0.  1.
</event>
<event>
 8    1  0.1265908E-006  0.9118800E+02  0.7816164E-02  0.1184000E+00
        -11   -1    0    0    0    0  0.00000000000E+00  0.00000000000E+00  0.45593999997E+02  0.45594000000E+02  0.51100000000E-03 0. -1.
         11   -1    0    0    0    0 -0.00000000000E+00 -0.00000000000E+00 -0.45593999997E+02  0.45594000000E+02  0.51100000000E-03 0.  1.
         23    2    1    2    0    0  0.35527136788E-14  0.00000000000E+00  0.00000000000E+00  0.91188000000E+02  0.91188000000E+02 0.  0.
    9900012    2    3    3    0    0  0.30923423744E+02 -0.17367279323E+02  0.98944895775E+01  0.54367062327E+02  0.39999950186E+02 0.  0.
         12    1    3    3    0    0 -0.30923423744E+02  0.17367279323E+02 -0.98944895775E+01  0.36820937673E+02  0.00000000000E+00 0. -1.
         11    1    4    4    0    0  0.28709220021E+01  0.14342450820E+01  0.18497552948E+01  0.37041661692E+01  0.51100000000E-03 0. -1.
        -11    1    4    4    0    0  0.14389129837E+02 -0.16890986439E+02 -0.12837340555E+02  0.25634933063E+02  0.51100000000E-03 0.  1.
        -12    1    4    4    0    0  0.13663371905E+02 -0.19105379656E+01  0.20882074838E+02  0.25027963095E+02  0.00000000000E+00 0.  1.
</event>
<event>
 8    1  0.1265908E-006  0.9118800E+02  0.7816164E-02  0.1184000E+00
        -11   -1    0    0    0    0  0.00000000000E+00  0.00000000000E+00  0.45593999997E+02  0.45594000000E+02  0.51100000000E-03 0.  1.
         11   -1    0    0    0    0 -0.00000000000E+00 -0.00000000000E+00 -0.45593999997E+02  0.45594000000E+02  0.51100000000E-03 0. -1.
         23    2    1    2    0    0  0.00000000000E+00  0.00000000000E+00  0.00000000000E+00  0.91188000000E+02  0.91188000000E+02 0.  0.
    9900012    2    3    3    0    0  0.29105313709E+02 -0.18126211608E+02  0.13420148979E+02  0.54367092461E+02  0.40000018884E+02 0.  0.
         12    1    3    3    0    0 -0.29105313709E+02  0.18126211608E+02 -0.13420148979E+02  0.36820907539E+02  0.00000000000E+00 0. -1.
         11    1    4    4    0    0  0.28986631024E+02 -0.14687422161E+02  0.16981622487E+02  0.36664978527E+02  0.51100000000E-03 0. -1.
        -11    1    4    4    0    0  0.76513054634E+01  0.14888184256E+01  0.53382947308E+00  0.78130678844E+01  0.51100000000E-03 0.  1.
         12    1    4    4    0    0 -0.75326227783E+01 -0.49276078726E+01 -0.40953029806E+01  0.98890460495E+01  0.00000000000E+00 0. -1.
</event>
<event>
 8    1  0.1265908E-006  0.9118800E+02  0.7816164E-02  0.1184000E+00
        -11   -1    0    0    0    0  0.00000000000E+00  0.00000000000E+00  0.45593999997E+02  0.45594000000E+02  0.51100000000E-03 0.  1.
         11   -1    0    0    0    0 -0.00000000000E+00 -0.00000000000E+00 -0.45593999997E+02  0.45594000000E+02  0.51100000000E-03 0. -1.
         23    2    1    2    0    0  0.00000000000E+00  0.13322676296E-14 -0.88817841970E-15  0.91188000000E+02  0.91188000000E+02 0.  0.
    9900012    2    3    3    0    0 -0.36599513877E+02  0.98838418506E+00 -0.39088832389E+01  0.54367072696E+02  0.39999973825E+02 0.  0.
         12    1    3    3    0    0  0.36599513877E+02 -0.98838418506E+00  0.39088832389E+01  0.36820927304E+02  0.00000000000E+00 0. -1.
         11    1    4    4    0    0 -0.53758107344E+01  0.50078872504E+01 -0.10820852172E+02  0.13079339347E+02  0.51100000000E-03 0. -1.
        -11    1    4    4    0    0 -0.49695142999E+01  0.82775271240E+01 -0.38070984441E+01  0.10378223667E+02  0.51100000000E-03 0.  1.
        -12    1    4    4    0    0 -0.26254188843E+02 -0.12297030189E+02  0.10719067378E+02  0.30909509681E+02  0.00000000000E+00 0.  1.
</event>
<event>
 8    1  0.1265908E-006  0.9118800E+02  0.7816164E-02  0.1184000E+00
        -11   -1    0    0    0    0  0.00000000000E+00  0.00000000000E+00  0.45593999997E+02  0.45594000000E+02  0.51100000000E-03 0.  1.
         11   -1    0    0    0    0 -0.00000000000E+00 -0.00000000000E+00 -0.45593999997E+02  0.45594000000E+02  0.51100000000E-03 0. -1.
         23    2    1    2    0    0  0.71054273576E-14  0.00000000000E+00 -0.35527136788E-14  0.91188000000E+02  0.91188000000E+02 0.  0.
    9900012    2    3    3    0    0 -0.24279983608E+02  0.90514391836E+01  0.26159777750E+02  0.54367080304E+02  0.39999991170E+02 0.  0.
         12    1    3    3    0    0  0.24279983608E+02 -0.90514391836E+01 -0.26159777750E+02  0.36820919696E+02  0.00000000000E+00 0. -1.
         11    1    4    4    0    0 -0.13366025133E+02  0.68163359120E+00  0.11691969543E+02  0.17771252186E+02  0.51100000000E-03 0. -1.
        -11    1    4    4    0    0 -0.13542578586E+02  0.49711148681E+01  0.22938502279E+02  0.27097754609E+02  0.51100000000E-03 0.  1.
         12    1    4    4    0    0  0.26286201107E+01  0.33986907243E+01 -0.84706940720E+01  0.94980735092E+01  0.00000000000E+00 0. -1.
</event>
<event>
 8    1  0.1265908E-006  0.9118800E+02  0.7816164E-02  0.1184000E+00
        -11   -1    0    0    0    0  0.00000000000E+00  0.00000000000E+00  0.45593999997E+02  0.45594000000E+02  0.51100000000E-03 0. -1.
         11   -1    0    0    0    0 -0.00000000000E+00 -0.00000000000E+00 -0.45593999997E+02  0.45594000000E+02  0.51100000000E-03 0.  1.
         23    2    1    2    0    0 -0.17763568394E-14 -0.35527136788E-14 -0.17763568394E-14  0.91188000000E+02  0.91188000000E+02 0.  0.
    9900012    2    3    3    0    0 -0.15258284545E+02 -0.30770100708E+02 -0.13272663524E+02  0.54367109980E+02  0.40000058820E+02 0.  0.
         12    1    3    3    0    0  0.15258284545E+02  0.30770100708E+02  0.13272663524E+02  0.36820890020E+02  0.00000000000E+00 0. -1.
         11    1    4    4    0    0 -0.17343158502E+01  0.23459702859E+01  0.36792917736E+01  0.46955954114E+01  0.51100000000E-03 0. -1.
        -11    1    4    4    0    0 -0.78555570254E+00 -0.19238512261E+02 -0.22898295970E+02  0.29917710647E+02  0.51100000000E-03 0.  1.
        -12    1    4    4    0    0 -0.12738412993E+02 -0.13877558733E+02  0.59463406721E+01  0.19753803921E+02  0.00000000000E+00 0.  1.
</event>
<event>
 8    1  0.1265908E-006  0.9118800E+02  0.7816164E-02  0.1184000E+00
        -11   -1    0    0    0    0  0.00000000000E+00  0.00000000000E+00  0.45593999997E+02  0.45594000000E+02  0.51100000000E-03 0. -1.
         11   -1    0    0    0    0 -0.00000000000E+00 -0.00000000000E+00 -0.45593999997E+02  0.45594000000E+02  0.51100000000E-03 0.  1.
         23    2    1    2    0    0  0.88817841970E-15  0.00000000000E+00 -0.17763568394E-14  0.91188000000E+02  0.91188000000E+02 0.  0.
    9900012    2    3    3    0    0  0.46623964818E+01  0.32898886093E+02 -0.15865233754E+02  0.54367078105E+02  0.39999986157E+02 0.  0.
         12    1    3    3    0    0 -0.46623964818E+01 -0.32898886093E+02  0.15865233754E+02  0.36820921895E+02  0.00000000000E+00 0. -1.
         11    1    4    4    0    0 -0.65179662594E+01  0.27221728529E+01 -0.69857023263E+00  0.70980356318E+01  0.51100000000E-03 0. -1.
        -11    1    4    4    0    0  0.28185062957E+01 -0.65353774127E+01 -0.23569022887E+01  0.74973411504E+01  0.51100000000E-03 0.  1.
        -12    1    4    4    0    0  0.83618564455E+01  0.36712090653E+02 -0.12809761233E+02  0.39771701323E+02  0.00000000000E+00 0.  1.
</event>
<event>
 8    1  0.1265908E-006  0.9118800E+02  0.7816164E-02  0.1184000E+00
        -11   -1    0    0    0    0  0.00000000000E+00  0.00000000000E+00  0.45593999997E+02  0.45594000000E+02  0.51100000000E-03 0. -1.
         11   -1    0    0    0    0 -0.00000000000E+00 -0.00000000000E+00 -0.45593999997E+02  0.45594000000E+02  0.51100000000E-03 0.  1.
         23    2    1    2    0    0 -0.35527136788E-14  0.22204460493E-14  0.35527136788E-14  0.91188000000E+02  0.91188000000E+02 0.  0.
    9900012    2    3    3    0    0 -0.26498368903E+02 -0.25813826794E+01  0.25435266186E+02  0.54367083974E+02  0.39999999535E+02 0.  0.
        -12    1    3    3    0    0  0.26498368903E+02  0.25813826794E+01 -0.25435266186E+02  0.36820916026E+02  0.00000000000E+00 0.  1.
         11    1    4    4    0    0 -0.23378151799E+02 -0.12306811714E+02  0.26796324639E+01  0.26555150659E+02  0.51100000000E-03 0. -1.
        -11    1    4    4    0    0  0.48336390834E+00  0.82277253080E+01  0.50163204177E+01  0.96484493680E+01  0.51100000000E-03 0.  1.
         12    1    4    4    0    0 -0.36035810115E+01  0.14977037264E+01  0.17739313305E+02  0.18163483947E+02  0.00000000000E+00 0. -1.
</event>
<event>
 8    1  0.1265908E-006  0.9118800E+02  0.7816164E-02  0.1184000E+00
        -11   -1    0    0    0    0  0.00000000000E+00  0.00000000000E+00  0.45593999997E+02  0.45594000000E+02  0.51100000000E-03 0.  1.
         11   -1    0    0    0    0 -0.00000000000E+00 -0.00000000000E+00 -0.45593999997E+02  0.45594000000E+02  0.51100000000E-03 0. -1.
         23    2    1    2    0    0  0.35527136788E-14 -0.35527136788E-14  0.00000000000E+00  0.91188000000E+02  0.91188000000E+02 0.  0.
    9900012    2    3    3    0    0  0.23672947567E+02 -0.23136866863E+02 -0.16126317134E+02  0.54367066293E+02  0.39999959229E+02 0.  0.
        -12    1    3    3    0    0 -0.23672947567E+02  0.23136866863E+02  0.16126317134E+02  0.36820933707E+02  0.00000000000E+00 0.  1.
         11    1    4    4    0    0  0.93084527442E+01 -0.19791119164E+02 -0.14008387802E+01  0.21915703042E+02  0.51100000000E-03 0. -1.
        -11    1    4    4    0    0  0.13513670167E+02  0.38509735593E+01  0.20284316394E+01  0.14197317138E+02  0.51100000000E-03 0.  1.
        -12    1    4    4    0    0  0.85082465541E+00 -0.71967212580E+01 -0.16753909993E+02  0.18254046113E+02  0.00000000000E+00 0.  1.
</event>
<event>
 8    1  0.1265908E-006  0.9118800E+02  0.7816164E-02  0.1184000E+00
        -11   -1    0    0    0    0  0.00000000000E+00  0.00000000000E+00  0.45593999997E+02  0.45594000000E+02  0.51100000000E-03 0. -1.
         11   -1    0    0    0    0 -0.00000000000E+00 -0.00000000000E+00 -0.45593999997E+02  0.45594000000E+02  0.51100000000E-03 0.  1.
         23    2    1    2    0    0  0.00000000000E+00 -0.17763568394E-14 -0.35527136788E-14  0.91188000000E+02  0.91188000000E+02 0.  0.
    9900012    2    3    3    0    0 -0.30803776379E+02  0.81516345442E+01 -0.18450988369E+02  0.54367343342E+02  0.40000590811E+02 0.  0.
        -12    1    3    3    0    0  0.30803776379E+02 -0.81516345442E+01  0.18450988369E+02  0.36820656658E+02  0.00000000000E+00 0.  1.
         11    1    4    4    0    0 -0.14731884389E+02 -0.74697013977E+01  0.53409097072E+01  0.17359440469E+02  0.51100000000E-03 0. -1.
        -11    1    4    4    0    0 -0.67831876108E+01 -0.94500158706E+00 -0.14122310720E+02  0.15695359904E+02  0.51100000000E-03 0.  1.
         12    1    4    4    0    0 -0.92887043790E+01  0.16566337529E+02 -0.96695873560E+01  0.21312542969E+02  0.00000000000E+00 0. -1.
</event>
<event>
 8    1  0.1265908E-006  0.9118800E+02  0.7816164E-02  0.1184000E+00
        -11   -1    0    0    0    0  0.00000000000E+00  0.00000000000E+00  0.45593999997E+02  0.45594000000E+02  0.51100000000E-03 0.  1.
         11   -1    0    0    0    0 -0.00000000000E+00 -0.00000000000E+00 -0.45593999997E+02  0.45594000000E+02  0.51100000000E-03 0. -1.
         23    2    1    2    0    0  0.00000000000E+00 -0.88817841970E-15  0.00000000000E+00  0.91188000000E+02  0.91188000000E+02 0.  0.
    9900012    2    3    3    0    0  0.10531712252E+01 -0.46781472619E+01 -0.36507346230E+02  0.54367074425E+02  0.39999977768E+02 0.  0.
        -12    1    3    3    0    0 -0.10531712252E+01  0.46781472619E+01  0.36507346230E+02  0.36820925575E+02  0.00000000000E+00 0.  1.
         11    1    4    4    0    0  0.60984615082E+01 -0.17333038339E+02 -0.15583310220E+02  0.24092841437E+02  0.51100000000E-03 0. -1.
        -11    1    4    4    0    0  0.59256143638E+01  0.62533134399E+01 -0.52073971834E+01  0.10066470099E+02  0.51100000000E-03 0.  1.
         12    1    4    4    0    0 -0.10970904647E+02  0.64015776369E+01 -0.15716638826E+02  0.20207762890E+02  0.00000000000E+00 0. -1.
</event>
<event>
 8    1  0.1265908E-006  0.9118800E+02  0.7816164E-02  0.1184000E+00
        -11   -1    0    0    0    0  0.00000000000E+00  0.00000000000E+00  0.45593999997E+02  0.45594000000E+02  0.51100000000E-03 0. -1.
         11   -1    0    0    0    0 -0.00000000000E+00 -0.00000000000E+00 -0.45593999997E+02  0.45594000000E+02  0.51100000000E-03 0.  1.
         23    2    1    2    0    0  0.00000000000E+00 -0.35527136788E-14  0.88817841970E-15  0.91188000000E+02  0.91188000000E+02 0.  0.
    9900012    2    3    3    0    0  0.35237481748E+02 -0.10576137939E+02 -0.14985923689E+01  0.54367073983E+02  0.39999976760E+02 0.  0.
        -12    1    3    3    0    0 -0.35237481748E+02  0.10576137939E+02  0.14985923689E+01  0.36820926017E+02  0.00000000000E+00 0.  1.
         11    1    4    4    0    0  0.23002161946E+02  0.85486106044E+01 -0.30218802669E-01  0.24539338029E+02  0.51100000000E-03 0. -1.
        -11    1    4    4    0    0  0.25416234777E+01 -0.29909704606E+00 -0.74064017656E+01  0.78360765897E+01  0.51100000000E-03 0.  1.
        -12    1    4    4    0    0  0.96936963243E+01 -0.18825651498E+02  0.59380281994E+01  0.21991659365E+02  0.00000000000E+00 0.  1.
</event>
<event>
 8    1  0.1265908E-006  0.9118800E+02  0.7816164E-02  0.1184000E+00
        -11   -1    0    0    0    0  0.00000000000E+00  0.00000000000E+00  0.45593999997E+02  0.45594000000E+02  0.51100000000E-03 0. -1.
         11   -1    0    0    0    0 -0.00000000000E+00 -0.00000000000E+00 -0.45593999997E+02  0.45594000000E+02  0.51100000000E-03 0.  1.
         23    2    1    2    0    0 -0.35527136788E-14 -0.35527136788E-14  0.00000000000E+00  0.91188000000E+02  0.91188000000E+02 0.  0.
    9900012    2    3    3    0    0  0.26052471553E+02  0.25864025661E+02 -0.28462433203E+01  0.54367079337E+02  0.39999988965E+02 0.  0.
         12    1    3    3    0    0 -0.26052471553E+02 -0.25864025661E+02  0.28462433203E+01  0.36820920663E+02  0.00000000000E+00 0. -1.
         11    1    4    4    0    0  0.18429692185E+01 -0.61601004754E+01  0.18507760660E+01  0.66909450539E+01  0.51100000000E-03 0. -1.
        -11    1    4    4    0    0 -0.31308726463E+00  0.32291486424E-01 -0.72775728361E+01  0.72843759528E+01  0.51100000000E-03 0.  1.
        -12    1    4    4    0    0  0.24522589599E+02  0.31991834650E+02  0.25805534498E+01  0.40391758331E+02  0.00000000000E+00 0.  1.
</event>
<event>
 8    1  0.1265908E-006  0.9118800E+02  0.7816164E-02  0.1184000E+00
        -11   -1    0    0    0    0  0.00000000000E+00  0.00000000000E+00  0.45593999997E+02  0.45594000000E+02  0.51100000000E-03 0.  1.
         11   -1    0    0    0    0 -0.00000000000E+00 -0.00000000000E+00 -0.45593999997E+02  0.45594000000E+02  0.51100000000E-03 0. -1.
         23    2    1    2    0    0  0.00000000000E+00 -0.35527136788E-14  0.35527136788E-14  0.91188000000E+02  0.91188000000E+02 0.  0.
    9900012    2    3    3    0    0  0.13516512479E+02 -0.16252342779E+02  0.30148725111E+02  0.54367076855E+02  0.39999983307E+02 0.  0.
         12    1    3    3    0    0 -0.13516512479E+02  0.16252342779E+02 -0.30148725111E+02  0.36820923145E+02  0.00000000000E+00 0. -1.
         11    1    4    4    0    0  0.68401869945E+01  0.58106421742E+00 -0.17499684385E+01  0.70843619008E+01  0.51100000000E-03 0. -1.
        -11    1    4    4    0    0  0.16603290462E+01  0.25300354159E+01 -0.46910488505E+01  0.55824467150E+01  0.51100000000E-03 0.  1.
        -12    1    4    4    0    0  0.50159964385E+01 -0.19363442412E+02  0.36589742400E+02  0.41700268239E+02  0.00000000000E+00 0.  1.
</event>
<event>
 8    1  0.1265908E-006  0.9118800E+02  0.7816164E-02  0.1184000E+00
        -11   -1    0    0    0    0  0.00000000000E+00  0.00000000000E+00  0.45593999997E+02  0.45594000000E+02  0.51100000000E-03 0. -1.
         11   -1    0    0    0    0 -0.00000000000E+00 -0.00000000000E+00 -0.45593999997E+02  0.45594000000E+02  0.51100000000E-03 0.  1.
         23    2    1    2    0    0 -0.71054273576E-14  0.19984014443E-14  0.00000000000E+00  0.91188000000E+02  0.91188000000E+02 0.  0.
    9900012    2    3    3    0    0 -0.32661222960E+02  0.19063389628E+01 -0.16893496332E+02  0.54367084316E+02  0.40000000316E+02 0.  0.
         12    1    3    3    0    0  0.32661222960E+02 -0.19063389628E+01  0.16893496332E+02  0.36820915684E+02  0.00000000000E+00 0. -1.
         11    1    4    4    0    0 -0.77273203957E+01 -0.12613528933E+02 -0.96341973354E+01  0.17653055010E+02  0.51100000000E-03 0. -1.
        -11    1    4    4    0    0  0.63846507554E+00 -0.13240402111E+01  0.42559115621E+01  0.45026107559E+01  0.51100000000E-03 0.  1.
        -12    1    4    4    0    0 -0.25572367640E+02  0.15843908107E+02 -0.11515210559E+02  0.32211418550E+02  0.00000000000E+00 0.  1.
</event>
<event>
 8    1  0.1265908E-006  0.9118800E+02  0.7816164E-02  0.1184000E+00
        -11   -1    0    0    0    0  0.00000000000E+00  0.00000000000E+00  0.45593999997E+02  0.45594000000E+02  0.51100000000E-03 0.  1.
         11   -1    0    0    0    0 -0.00000000000E+00 -0.00000000000E+00 -0.45593999997E+02  0.45594000000E+02  0.51100000000E-03 0. -1.
         23    2    1    2    0    0  0.35527136788E-14  0.35527136788E-14 -0.17763568394E-14  0.91188000000E+02  0.91188000000E+02 0.  0.
    9900012    2    3    3    0    0  0.30237749425E+02 -0.16315743495E+02  0.13238393314E+02  0.54367081575E+02  0.39999994067E+02 0.  0.
        -12    1    3    3    0    0 -0.30237749425E+02  0.16315743495E+02 -0.13238393314E+02  0.36820918425E+02  0.00000000000E+00 0.  1.
         11    1    4    4    0    0  0.27211598045E+02 -0.29278805465E+01  0.20759307046E+02  0.34351017189E+02  0.51100000000E-03 0.  1.
        -11    1    4    4    0    0 -0.45702438140E+01 -0.80762681613E+01 -0.38304277305E+01  0.10039193832E+02  0.51100000000E-03 0. -1.
        -12    1    4    4    0    0  0.75963951945E+01 -0.53115947872E+01 -0.36904860008E+01  0.99768705543E+01  0.00000000000E+00 0.  1.
</event>
<event>
 8    1  0.1265908E-006  0.9118800E+02  0.7816164E-02  0.1184000E+00
        -11   -1    0    0    0    0  0.00000000000E+00  0.00000000000E+00  0.45593999997E+02  0.45594000000E+02  0.51100000000E-03 0.  1.
         11   -1    0    0    0    0 -0.00000000000E+00 -0.00000000000E+00 -0.45593999997E+02  0.45594000000E+02  0.51100000000E-03 0. -1.
         23    2    1    2    0    0  0.13322676296E-14  0.88817841970E-15  0.00000000000E+00  0.91188000000E+02  0.91188000000E+02 0.  0.
    9900012    2    3    3    0    0  0.33597180358E+01 -0.60352194141E+01  0.36167224347E+02  0.54367086165E+02  0.40000004531E+02 0.  0.
         12    1    3    3    0    0 -0.33597180358E+01  0.60352194141E+01 -0.36167224347E+02  0.36820913835E+02  0.00000000000E+00 0. -1.
         11    1    4    4    0    0 -0.48963458332E+01 -0.10119562449E+02 -0.21954263385E+01  0.11454241299E+02  0.51100000000E-03 0. -1.
        -11    1    4    4    0    0  0.67534734045E+01  0.10505204909E+02  0.22489844143E+02  0.25724731739E+02  0.51100000000E-03 0.  1.
         12    1    4    4    0    0  0.15025904644E+01 -0.64208618745E+01  0.15872806543E+02  0.17188113127E+02  0.00000000000E+00 0. -1.
</event>
<event>
 8    1  0.1265908E-006  0.9118800E+02  0.7816164E-02  0.1184000E+00
        -11   -1    0    0    0    0  0.00000000000E+00  0.00000000000E+00  0.45593999997E+02  0.45594000000E+02  0.51100000000E-03 0. -1.
         11   -1    0    0    0    0 -0.00000000000E+00 -0.00000000000E+00 -0.45593999997E+02  0.45594000000E+02  0.51100000000E-03 0.  1.
         23    2    1    2    0    0 -0.88817841970E-15  0.11102230246E-15  0.00000000000E+00  0.91188000000E+02  0.91188000000E+02 0.  0.
    9900012    2    3    3    0    0  0.65585161632E+01 -0.28374995597E+00 -0.36230994571E+02  0.54367087248E+02  0.40000006999E+02 0.  0.
         12    1    3    3    0    0 -0.65585161632E+01  0.28374995597E+00  0.36230994571E+02  0.36820912752E+02  0.00000000000E+00 0. -1.
         11    1    4    4    0    0 -0.49844363487E+01  0.87913099763E+00  0.25752579894E+01  0.56788582478E+01  0.51100000000E-03 0. -1.
        -11    1    4    4    0    0  0.16763363640E+02  0.52915659947E+01 -0.13825142059E+02  0.22363934905E+02  0.51100000000E-03 0.  1.
         12    1    4    4    0    0 -0.52204111282E+01 -0.64544469483E+01 -0.24981110501E+02  0.26324294096E+02  0.00000000000E+00 0. -1.
</event>
<event>
 8    1  0.1265908E-006  0.9118800E+02  0.7816164E-02  0.1184000E+00
        -11   -1    0    0    0    0  0.00000000000E+00  0.00000000000E+00  0.45593999997E+02  0.45594000000E+02  0.51100000000E-03 0. -1.
         11   -1    0    0    0    0 -0.00000000000E+00 -0.00000000000E+00 -0.45593999997E+02  0.45594000000E+02  0.51100000000E-03 0.  1.
         23    2    1    2    0    0  0.71054273576E-14  0.00000000000E+00  0.17763568394E-14  0.91188000000E+02  0.91188000000E+02 0.  0.
    9900012    2    3    3    0    0 -0.29490609337E+02 -0.19830275861E+02 -0.96356121842E+01  0.54367069784E+02  0.39999967187E+02 0.  0.
         12    1    3    3    0    0  0.29490609337E+02  0.19830275861E+02  0.96356121842E+01  0.36820930216E+02  0.00000000000E+00 0. -1.
         11    1    4    4    0    0 -0.15078969816E+01  0.45142753771E+01  0.91850992083E-01  0.47603437222E+01  0.51100000000E-03 0. -1.
        -11    1    4    4    0    0 -0.88965629355E+01 -0.50916504308E+01 -0.18468368767E+02  0.21122366850E+02  0.51100000000E-03 0.  1.
        -12    1    4    4    0    0 -0.19086149420E+02 -0.19252900807E+02  0.87409055908E+01  0.28484359212E+02  0.00000000000E+00 0.  1.
</event>
<event>
 8    1  0.1265908E-006  0.9118800E+02  0.7816164E-02  0.1184000E+00
        -11   -1    0    0    0    0  0.00000000000E+00  0.00000000000E+00  0.45593999997E+02  0.45594000000E+02  0.51100000000E-03 0.  1.
         11   -1    0    0    0    0 -0.00000000000E+00 -0.00000000000E+00 -0.45593999997E+02  0.45594000000E+02  0.51100000000E-03 0. -1.
         23    2    1    2    0    0 -0.71054273576E-14 -0.22204460493E-14  0.16653345369E-15  0.91188000000E+02  0.91188000000E+02 0.  0.
    9900012    2    3    3    0    0 -0.36797363094E+02  0.13095302241E+01  0.16342443855E+00  0.54366980085E+02  0.39999762699E+02 0.  0.
        -12    1    3    3    0    0  0.36797363094E+02 -0.13095302241E+01 -0.16342443855E+00  0.36821019915E+02  0.00000000000E+00 0.  1.
         11    1    4    4    0    0 -0.12346258505E+02  0.95818419040E+01 -0.22045477397E+00  0.15629791870E+02  0.51100000000E-03 0. -1.
        -11    1    4    4    0    0 -0.68139196277E+01 -0.17467087279E+02 -0.11768564297E+01  0.18785995583E+02  0.51100000000E-03 0.  1.
        -12    1    4    4    0    0 -0.17637184961E+02  0.91947755996E+01  0.15607356422E+01  0.19951192632E+02  0.00000000000E+00 0.  1.
</event>
<event>
 8    1  0.1265908E-006  0.9118800E+02  0.7816164E-02  0.1184000E+00
        -11   -1    0    0    0    0  0.00000000000E+00  0.00000000000E+00  0.45593999997E+02  0.45594000000E+02  0.51100000000E-03 0.  1.
         11   -1    0    0    0    0 -0.00000000000E+00 -0.00000000000E+00 -0.45593999997E+02  0.45594000000E+02  0.51100000000E-03 0. -1.
         23    2    1    2    0    0  0.00000000000E+00  0.13322676296E-14  0.00000000000E+00  0.91188000000E+02  0.91188000000E+02 0.  0.
    9900012    2    3    3    0    0 -0.33007643257E+02  0.13067742999E+01  0.16265548933E+02  0.54367078576E+02  0.39999987229E+02 0.  0.
         12    1    3    3    0    0  0.33007643257E+02 -0.13067742999E+01 -0.16265548933E+02  0.36820921424E+02  0.00000000000E+00 0. -1.
         11    1    4    4    0    0 -0.12907850228E+02 -0.10364396373E+02  0.71420939680E+01  0.18028943846E+02  0.51100000000E-03 0. -1.
        -11    1    4    4    0    0 -0.18302369879E+02  0.34200551474E+01  0.16686197920E+02  0.25002054349E+02  0.51100000000E-03 0.  1.
         12    1    4    4    0    0 -0.17974231498E+01  0.82511155252E+01 -0.75627429552E+01  0.11336080381E+02  0.00000000000E+00 0. -1.
</event>
<event>
 8    1  0.1265908E-006  0.9118800E+02  0.7816164E-02  0.1184000E+00
        -11   -1    0    0    0    0  0.00000000000E+00  0.00000000000E+00  0.45593999997E+02  0.45594000000E+02  0.51100000000E-03 0.  1.
         11   -1    0    0    0    0 -0.00000000000E+00 -0.00000000000E+00 -0.45593999997E+02  0.45594000000E+02  0.51100000000E-03 0. -1.
         23    2    1    2    0    0 -0.88817841970E-15 -0.71054273576E-14 -0.35527136788E-14  0.91188000000E+02  0.91188000000E+02 0.  0.
    9900012    2    3    3    0    0  0.36667793082E+01  0.32378018503E+02  0.17146904579E+02  0.54366841826E+02  0.39999447506E+02 0.  0.
         12    1    3    3    0    0 -0.36667793082E+01 -0.32378018503E+02 -0.17146904579E+02  0.36821158174E+02  0.00000000000E+00 0. -1.
         11    1    4    4    0    0  0.14224744950E+01  0.93934788685E+01  0.26709917091E+02  0.28349260135E+02  0.51100000000E-03 0. -1.
        -11    1    4    4    0    0 -0.24170139994E+01  0.11014800687E+02 -0.34570053624E+01  0.11794858082E+02  0.51100000000E-03 0.  1.
        -12    1    4    4    0    0  0.46613188126E+01  0.11969738947E+02 -0.61060071491E+01  0.14222723609E+02  0.00000000000E+00 0.  1.
</event>
<event>
 8    1  0.1265908E-006  0.9118800E+02  0.7816164E-02  0.1184000E+00
        -11   -1    0    0    0    0  0.00000000000E+00  0.00000000000E+00  0.45593999997E+02  0.45594000000E+02  0.51100000000E-03 0. -1.
         11   -1    0    0    0    0 -0.00000000000E+00 -0.00000000000E+00 -0.45593999997E+02  0.45594000000E+02  0.51100000000E-03 0.  1.
         23    2    1    2    0    0  0.17763568394E-14  0.35527136788E-14  0.35527136788E-14  0.91188000000E+02  0.91188000000E+02 0.  0.
    9900012    2    3    3    0    0  0.12962709285E+02  0.20649235880E+02  0.27592701234E+02  0.54367082904E+02  0.39999997095E+02 0.  0.
        -12    1    3    3    0    0 -0.12962709285E+02 -0.20649235880E+02 -0.27592701234E+02  0.36820917096E+02  0.00000000000E+00 0.  1.
         11    1    4    4    0    0 -0.66698525916E+01 -0.77849059286E+00  0.16930114176E+02  0.18213230012E+02  0.51100000000E-03 0.  1.
        -11    1    4    4    0    0  0.58929762717E+01  0.88489316927E+01  0.13635211223E+02  0.17290163296E+02  0.51100000000E-03 0. -1.
        -12    1    4    4    0    0  0.13739585605E+02  0.12578794780E+02 -0.29726241656E+01  0.18863689595E+02  0.00000000000E+00 0.  1.
</event>
<event>
 8    1  0.1265908E-006  0.9118800E+02  0.7816164E-02  0.1184000E+00
        -11   -1    0    0    0    0  0.00000000000E+00  0.00000000000E+00  0.45593999997E+02  0.45594000000E+02  0.51100000000E-03 0.  1.
         11   -1    0    0    0    0 -0.00000000000E+00 -0.00000000000E+00 -0.45593999997E+02  0.45594000000E+02  0.51100000000E-03 0. -1.
         23    2    1    2    0    0  0.00000000000E+00  0.00000000000E+00  0.00000000000E+00  0.91188000000E+02  0.91188000000E+02 0.  0.
    9900012    2    3    3    0    0 -0.29775206579E+02 -0.15368054375E+01 -0.21606805721E+02  0.54367098989E+02  0.40000033766E+02 0.  0.
        -12    1    3    3    0    0  0.29775206579E+02  0.15368054375E+01  0.21606805721E+02  0.36820901011E+02  0.00000000000E+00 0.  1.
         11    1    4    4    0    0 -0.13054453220E+02 -0.41422807120E+01 -0.74260960894E+01  0.15579606599E+02  0.51100000000E-03 0.  1.
        -11    1    4    4    0    0  0.28540693800E+01 -0.90528989086E+01  0.33224558909E+01  0.10056808842E+02  0.51100000000E-03 0. -1.
         12    1    4    4    0    0 -0.19574822739E+02  0.11658374183E+02 -0.17503165523E+02  0.28730683548E+02  0.00000000000E+00 0. -1.
</event>
<event>
 8    1  0.1265908E-006  0.9118800E+02  0.7816164E-02  0.1184000E+00
        -11   -1    0    0    0    0  0.00000000000E+00  0.00000000000E+00  0.45593999997E+02  0.45594000000E+02  0.51100000000E-03 0. -1.
         11   -1    0    0    0    0 -0.00000000000E+00 -0.00000000000E+00 -0.45593999997E+02  0.45594000000E+02  0.51100000000E-03 0.  1.
         23    2    1    2    0    0 -0.44408920985E-15  0.22204460493E-15  0.00000000000E+00  0.91188000000E+02  0.91188000000E+02 0.  0.
    9900012    2    3    3    0    0  0.28446404238E+01  0.14261012824E+01  0.36683164338E+02  0.54367078096E+02  0.39999986136E+02 0.  0.
        -12    1    3    3    0    0 -0.28446404238E+01 -0.14261012824E+01 -0.36683164338E+02  0.36820921904E+02  0.00000000000E+00 0.  1.
         11    1    4    4    0    0  0.85850287688E+01 -0.53799291071E+01  0.32127476076E+02  0.33687105477E+02  0.51100000000E-03 0. -1.
        -11    1    4    4    0    0 -0.41710472585E+01  0.23280690701E+01 -0.68359998267E+01  0.83395704157E+01  0.51100000000E-03 0.  1.
        -12    1    4    4    0    0 -0.15693410866E+01  0.44779613195E+01  0.11391688089E+02  0.12340402203E+02  0.00000000000E+00 0.  1.
</event>
<event>
 8    1  0.1265908E-006  0.9118800E+02  0.7816164E-02  0.1184000E+00
        -11   -1    0    0    0    0  0.00000000000E+00  0.00000000000E+00  0.45593999997E+02  0.45594000000E+02  0.51100000000E-03 0.  1.
         11   -1    0    0    0    0 -0.00000000000E+00 -0.00000000000E+00 -0.45593999997E+02  0.45594000000E+02  0.51100000000E-03 0. -1.
         23    2    1    2    0    0 -0.17763568394E-14  0.35527136788E-14  0.00000000000E+00  0.91188000000E+02  0.91188000000E+02 0.  0.
    9900012    2    3    3    0    0 -0.80645500265E+01 -0.25357617793E+02 -0.25450620187E+02  0.54367084541E+02  0.40000000829E+02 0.  0.
        -12    1    3    3    0    0  0.80645500265E+01  0.25357617793E+02  0.25450620187E+02  0.36820915459E+02  0.00000000000E+00 0.  1.
         11    1    4    4    0    0 -0.49983122434E+01 -0.14597911632E+02 -0.14010295165E+02  0.20841557527E+02  0.51100000000E-03 0. -1.
        -11    1    4    4    0    0 -0.13366772612E+02 -0.13392877148E+02 -0.15176710919E+01  0.18982705133E+02  0.51100000000E-03 0.  1.
        -12    1    4    4    0    0  0.10300534829E+02  0.26331709872E+01 -0.99226539310E+01  0.14542821881E+02  0.00000000000E+00 0.  1.
</event>
<event>
 8    1  0.1265908E-006  0.9118800E+02  0.7816164E-02  0.1184000E+00
        -11   -1    0    0    0    0  0.00000000000E+00  0.00000000000E+00  0.45593999997E+02  0.45594000000E+02  0.51100000000E-03 0. -1.
         11   -1    0    0    0    0 -0.00000000000E+00 -0.00000000000E+00 -0.45593999997E+02  0.45594000000E+02  0.51100000000E-03 0.  1.
         23    2    1    2    0    0  0.00000000000E+00 -0.35527136788E-14  0.00000000000E+00  0.91188000000E+02  0.91188000000E+02 0.  0.
    9900012    2    3    3    0    0 -0.16685571502E+02 -0.23800599847E+02 -0.22603209251E+02  0.54367055989E+02  0.39999935739E+02 0.  0.
         12    1    3    3    0    0  0.16685571502E+02  0.23800599847E+02  0.22603209251E+02  0.36820944011E+02  0.00000000000E+00 0. -1.
         11    1    4    4    0    0  0.57139296317E+01 -0.55875981401E+01 -0.22628728159E+01  0.83060723843E+01  0.51100000000E-03 0. -1.
        -11    1    4    4    0    0 -0.11012659219E+02 -0.25515651713E+02 -0.14116722477E+02  0.31170643226E+02  0.51100000000E-03 0.  1.
        -12    1    4    4    0    0 -0.11386841915E+02  0.73026500061E+01 -0.62236139577E+01  0.14890340379E+02  0.00000000000E+00 0.  1.
</event>
<event>
 8    1  0.1265908E-006  0.9118800E+02  0.7816164E-02  0.1184000E+00
        -11   -1    0    0    0    0  0.00000000000E+00  0.00000000000E+00  0.45593999997E+02  0.45594000000E+02  0.51100000000E-03 0. -1.
         11   -1    0    0    0    0 -0.00000000000E+00 -0.00000000000E+00 -0.45593999997E+02  0.45594000000E+02  0.51100000000E-03 0.  1.
         23    2    1    2    0    0  0.00000000000E+00  0.00000000000E+00  0.00000000000E+00  0.91188000000E+02  0.91188000000E+02 0.  0.
    9900012    2    3    3    0    0  0.11238590401E+02  0.19944038847E+02  0.28839365028E+02  0.54367087804E+02  0.40000008266E+02 0.  0.
        -12    1    3    3    0    0 -0.11238590401E+02 -0.19944038847E+02 -0.28839365028E+02  0.36820912196E+02  0.00000000000E+00 0.  1.
         11    1    4    4    0    0 -0.16902715312E+01  0.27494810663E+02  0.11990772571E+02  0.30043306382E+02  0.51100000000E-03 0. -1.
        -11    1    4    4    0    0  0.14229988843E+02 -0.58122538002E+01  0.14833274418E+02  0.21361200971E+02  0.51100000000E-03 0.  1.
         12    1    4    4    0    0 -0.13011269107E+01 -0.17385180157E+01  0.20153180386E+01  0.29625804504E+01  0.00000000000E+00 0. -1.
</event>
<event>
 8    1  0.1265908E-006  0.9118800E+02  0.7816164E-02  0.1184000E+00
        -11   -1    0    0    0    0  0.00000000000E+00  0.00000000000E+00  0.45593999997E+02  0.45594000000E+02  0.51100000000E-03 0.  1.
         11   -1    0    0    0    0 -0.00000000000E+00 -0.00000000000E+00 -0.45593999997E+02  0.45594000000E+02  0.51100000000E-03 0. -1.
         23    2    1    2    0    0  0.00000000000E+00  0.00000000000E+00  0.00000000000E+00  0.91188000000E+02  0.91188000000E+02 0.  0.
    9900012    2    3    3    0    0  0.35360430694E+02  0.72651167946E+01 -0.72549367663E+01  0.54367135148E+02  0.40000116198E+02 0.  0.
        -12    1    3    3    0    0 -0.35360430694E+02 -0.72651167946E+01  0.72549367663E+01  0.36820864852E+02  0.00000000000E+00 0.  1.
         11    1    4    4    0    0  0.22966623168E+02  0.14250298701E+02 -0.61379260501E+01  0.27716618287E+02  0.51100000000E-03 0. -1.
        -11    1    4    4    0    0  0.16469356802E+02 -0.11739954429E+02 -0.20088622939E+01  0.20324905201E+02  0.51100000000E-03 0.  1.
         12    1    4    4    0    0 -0.40755492756E+01  0.47547725225E+01  0.89185157763E+00  0.63256116601E+01  0.00000000000E+00 0. -1.
</event>
<event>
 8    1  0.1265908E-006  0.9118800E+02  0.7816164E-02  0.1184000E+00
        -11   -1    0    0    0    0  0.00000000000E+00  0.00000000000E+00  0.45593999997E+02  0.45594000000E+02  0.51100000000E-03 0.  1.
         11   -1    0    0    0    0 -0.00000000000E+00 -0.00000000000E+00 -0.45593999997E+02  0.45594000000E+02  0.51100000000E-03 0. -1.
         23    2    1    2    0    0  0.00000000000E+00 -0.44408920985E-15 -0.35527136788E-14  0.91188000000E+02  0.91188000000E+02 0.  0.
    9900012    2    3    3    0    0 -0.27068211050E+02 -0.32291741231E+01  0.24752053838E+02  0.54367084963E+02  0.40000001790E+02 0.  0.
         12    1    3    3    0    0  0.27068211050E+02  0.32291741231E+01 -0.24752053838E+02  0.36820915037E+02  0.00000000000E+00 0. -1.
         11    1    4    4    0    0 -0.78668431310E+01  0.54815576405E+01  0.13215216037E+01  0.96789004863E+01  0.51100000000E-03 0. -1.
        -11    1    4    4    0    0 -0.24256564062E+02 -0.16006532516E+02  0.19384479090E+02  0.34933479831E+02  0.51100000000E-03 0.  1.
        -12    1    4    4    0    0  0.50551961433E+01  0.72958007525E+01  0.40460531449E+01  0.97547046454E+01  0.00000000000E+00 0.  1.
</event>
<event>
 8    1  0.1265908E-006  0.9118800E+02  0.7816164E-02  0.1184000E+00
        -11   -1    0    0    0    0  0.00000000000E+00  0.00000000000E+00  0.45593999997E+02  0.45594000000E+02  0.51100000000E-03 0.  1.
         11   -1    0    0    0    0 -0.00000000000E+00 -0.00000000000E+00 -0.45593999997E+02  0.45594000000E+02  0.51100000000E-03 0. -1.
         23    2    1    2    0    0  0.17763568394E-14  0.44408920985E-15 -0.71054273576E-14  0.91188000000E+02  0.91188000000E+02 0.  0.
    9900012    2    3    3    0    0  0.82349981538E+01  0.97271226960E+00 -0.35875054935E+02  0.54367069399E+02  0.39999966308E+02 0.  0.
        -12    1    3    3    0    0 -0.82349981538E+01 -0.97271226960E+00  0.35875054935E+02  0.36820930601E+02  0.00000000000E+00 0.  1.
         11    1    4    4    0    0 -0.36423943680E+01 -0.53149630656E+01 -0.24031626791E+02  0.24880413092E+02  0.51100000000E-03 0. -1.
        -11    1    4    4    0    0 -0.31274479577E+01  0.50839590416E+00 -0.12985817343E+02  0.13366781567E+02  0.51100000000E-03 0.  1.
        -12    1    4    4    0    0  0.15004840479E+02  0.57792794310E+01  0.11423891993E+01  0.16119874740E+02  0.00000000000E+00 0.  1.
</event>
<event>
 8    1  0.1265908E-006  0.9118800E+02  0.7816164E-02  0.1184000E+00
        -11   -1    0    0    0    0  0.00000000000E+00  0.00000000000E+00  0.45593999997E+02  0.45594000000E+02  0.51100000000E-03 0.  1.
         11   -1    0    0    0    0 -0.00000000000E+00 -0.00000000000E+00 -0.45593999997E+02  0.45594000000E+02  0.51100000000E-03 0. -1.
         23    2    1    2    0    0  0.00000000000E+00  0.00000000000E+00  0.35527136788E-14  0.91188000000E+02  0.91188000000E+02 0.  0.
    9900012    2    3    3    0    0 -0.30636137789E+02 -0.14457528862E+02  0.14428702389E+02  0.54367074808E+02  0.39999978639E+02 0.  0.
         12    1    3    3    0    0  0.30636137789E+02  0.14457528862E+02 -0.14428702389E+02  0.36820925192E+02  0.00000000000E+00 0. -1.
         11    1    4    4    0    0 -0.75939261871E+01 -0.10426530035E+02  0.11525934575E+01  0.12950239976E+02  0.51100000000E-03 0. -1.
        -11    1    4    4    0    0 -0.19468022819E+02 -0.18199757177E-01 -0.68096587543E+01  0.20624638090E+02  0.51100000000E-03 0.  1.
        -12    1    4    4    0    0 -0.35741887825E+01 -0.40127990696E+01  0.20085767686E+02  0.20792196742E+02  0.00000000000E+00 0.  1.
</event>
<event>
 8    1  0.1265908E-006  0.9118800E+02  0.7816164E-02  0.1184000E+00
        -11   -1    0    0    0    0  0.00000000000E+00  0.00000000000E+00  0.45593999997E+02  0.45594000000E+02  0.51100000000E-03 0. -1.
         11   -1    0    0    0    0 -0.00000000000E+00 -0.00000000000E+00 -0.45593999997E+02  0.45594000000E+02  0.51100000000E-03 0.  1.
         23    2    1    2    0    0 -0.35527136788E-14  0.35527136788E-14  0.00000000000E+00  0.91188000000E+02  0.91188000000E+02 0.  0.
    9900012    2    3    3    0    0  0.18149665182E+02 -0.24722202803E+02 -0.20376029388E+02  0.54367078891E+02  0.39999987949E+02 0.  0.
         12    1    3    3    0    0 -0.18149665182E+02  0.24722202803E+02  0.20376029388E+02  0.36820921109E+02  0.00000000000E+00 0. -1.
         11    1    4    4    0    0  0.46072340084E+01 -0.53852306309E+01 -0.19778649123E+02  0.21010051774E+02  0.51100000000E-03 0. -1.
        -11    1    4    4    0    0  0.17651720781E+02 -0.89026177985E+01 -0.63353210195E+01  0.20759964905E+02  0.51100000000E-03 0.  1.
         12    1    4    4    0    0 -0.41092896074E+01 -0.10434354374E+02  0.57379407543E+01  0.12597062212E+02  0.00000000000E+00 0. -1.
</event>
<event>
 8    1  0.1265908E-006  0.9118800E+02  0.7816164E-02  0.1184000E+00
        -11   -1    0    0    0    0  0.00000000000E+00  0.00000000000E+00  0.45593999997E+02  0.45594000000E+02  0.51100000000E-03 0.  1.
         11   -1    0    0    0    0 -0.00000000000E+00 -0.00000000000E+00 -0.45593999997E+02  0.45594000000E+02  0.51100000000E-03 0. -1.
         23    2    1    2    0    0 -0.17763568394E-14  0.00000000000E+00  0.00000000000E+00  0.91188000000E+02  0.91188000000E+02 0.  0.
    9900012    2    3    3    0    0 -0.14265114505E+02 -0.29530730635E+02 -0.16739767584E+02  0.54367117848E+02  0.40000076759E+02 0.  0.
        -12    1    3    3    0    0  0.14265114505E+02  0.29530730635E+02  0.16739767584E+02  0.36820882152E+02  0.00000000000E+00 0.  1.
         11    1    4    4    0    0 -0.97255914420E+01 -0.18056820366E+02 -0.12339127743E+02  0.23935119894E+02  0.51100000000E-03 0. -1.
        -11    1    4    4    0    0 -0.31905162190E+01 -0.19580580679E+02  0.21054793819E+01  0.19950227496E+02  0.51100000000E-03 0.  1.
         12    1    4    4    0    0 -0.13490068442E+01  0.81066704099E+01 -0.65061192223E+01  0.10481770458E+02  0.00000000000E+00 0. -1.
</event>
<event>
 8    1  0.1265908E-006  0.9118800E+02  0.7816164E-02  0.1184000E+00
        -11   -1    0    0    0    0  0.00000000000E+00  0.00000000000E+00  0.45593999997E+02  0.45594000000E+02  0.51100000000E-03 0.  1.
         11   -1    0    0    0    0 -0.00000000000E+00 -0.00000000000E+00 -0.45593999997E+02  0.45594000000E+02  0.51100000000E-03 0. -1.
         23    2    1    2    0    0  0.00000000000E+00  0.00000000000E+00 -0.71054273576E-14  0.91188000000E+02  0.91188000000E+02 0.  0.
    9900012    2    3    3    0    0  0.72239083631E+01 -0.10816092802E+01 -0.36089130761E+02  0.54367080813E+02  0.39999992330E+02 0.  0.
        -12    1    3    3    0    0 -0.72239083631E+01  0.10816092802E+01  0.36089130761E+02  0.36820919187E+02  0.00000000000E+00 0.  1.
         11    1    4    4    0    0  0.10562579116E+01 -0.20629423677E+01 -0.33844538554E+02  0.33923799937E+02  0.51100000000E-03 0. -1.
        -11    1    4    4    0    0  0.12005405877E+02 -0.23850700850E+01 -0.49212527332E+01  0.13192310575E+02  0.51100000000E-03 0.  1.
        -12    1    4    4    0    0 -0.58377554257E+01  0.33664031725E+01  0.26766605261E+01  0.72509703007E+01  0.00000000000E+00 0.  1.
</event>
<event>
 8    1  0.1265908E-006  0.9118800E+02  0.7816164E-02  0.1184000E+00
        -11   -1    0    0    0    0  0.00000000000E+00  0.00000000000E+00  0.45593999997E+02  0.45594000000E+02  0.51100000000E-03 0.  1.
         11   -1    0    0    0    0 -0.00000000000E+00 -0.00000000000E+00 -0.45593999997E+02  0.45594000000E+02  0.51100000000E-03 0. -1.
         23    2    1    2    0    0  0.00000000000E+00  0.00000000000E+00  0.00000000000E+00  0.91188000000E+02  0.91188000000E+02 0.  0.
    9900012    2    3    3    0    0 -0.25946944049E+02 -0.12544748633E+02 -0.22916505863E+02  0.54367070290E+02  0.39999968340E+02 0.  0.
        -12    1    3    3    0    0  0.25946944049E+02  0.12544748633E+02  0.22916505863E+02  0.36820929710E+02  0.00000000000E+00 0.  1.
         11    1    4    4    0    0  0.23290607377E+01 -0.98670491889E+00  0.13659705826E+01  0.28747150138E+01  0.51100000000E-03 0. -1.
        -11    1    4    4    0    0 -0.94537203362E+01 -0.61164011790E+01  0.79419691743E+01  0.13778899310E+02  0.51100000000E-03 0.  1.
         12    1    4    4    0    0 -0.18822284451E+02 -0.54416425349E+01 -0.32224445619E+02  0.37713455966E+02  0.00000000000E+00 0. -1.
</event>
<event>
 8    1  0.1265908E-006  0.9118800E+02  0.7816164E-02  0.1184000E+00
        -11   -1    0    0    0    0  0.00000000000E+00  0.00000000000E+00  0.45593999997E+02  0.45594000000E+02  0.51100000000E-03 0.  1.
         11   -1    0    0    0    0 -0.00000000000E+00 -0.00000000000E+00 -0.45593999997E+02  0.45594000000E+02  0.51100000000E-03 0. -1.
         23    2    1    2    0    0  0.00000000000E+00  0.00000000000E+00  0.00000000000E+00  0.91188000000E+02  0.91188000000E+02 0.  0.
    9900012    2    3    3    0    0  0.10595551384E+02 -0.30289328423E+02  0.18057388324E+02  0.54367103779E+02  0.40000044685E+02 0.  0.
         12    1    3    3    0    0 -0.10595551384E+02  0.30289328423E+02 -0.18057388324E+02  0.36820896221E+02  0.00000000000E+00 0. -1.
         11    1    4    4    0    0  0.17822819124E+02  0.51626308978E+00  0.11160752204E+02  0.21035251344E+02  0.51100000000E-03 0. -1.
        -11    1    4    4    0    0  0.27088494205E+00 -0.15780640172E+02  0.25636731883E+01  0.15989821868E+02  0.51100000000E-03 0.  1.
         12    1    4    4    0    0 -0.74981526814E+01 -0.15024951341E+02  0.43329629317E+01  0.17342030567E+02  0.00000000000E+00 0. -1.
</event>
<event>
 8    1  0.1265908E-006  0.9118800E+02  0.7816164E-02  0.1184000E+00
        -11   -1    0    0    0    0  0.00000000000E+00  0.00000000000E+00  0.45593999997E+02  0.45594000000E+02  0.51100000000E-03 0.  1.
         11   -1    0    0    0    0 -0.00000000000E+00 -0.00000000000E+00 -0.45593999997E+02  0.45594000000E+02  0.51100000000E-03 0. -1.
         23    2    1    2    0    0  0.00000000000E+00  0.00000000000E+00 -0.17763568394E-14  0.91188000000E+02  0.91188000000E+02 0.  0.
    9900012    2    3    3    0    0 -0.12088449610E+02  0.33128327293E+02  0.10590697931E+02  0.54367087927E+02  0.40000008548E+02 0.  0.
         12    1    3    3    0    0  0.12088449610E+02 -0.33128327293E+02 -0.10590697931E+02  0.36820912073E+02  0.00000000000E+00 0. -1.
         11    1    4    4    0    0  0.16688224991E+01 -0.21513184471E+01  0.23806136984E+01  0.36166920572E+01  0.51100000000E-03 0. -1.
        -11    1    4    4    0    0 -0.16339424753E+02  0.37294269943E+02  0.14855347032E+02  0.43341904753E+02  0.51100000000E-03 0.  1.
        -12    1    4    4    0    0  0.25821526446E+01 -0.20146242031E+01 -0.66452627998E+01  0.74084911175E+01  0.00000000000E+00 0.  1.
</event>
<event>
 8    1  0.1265908E-006  0.9118800E+02  0.7816164E-02  0.1184000E+00
        -11   -1    0    0    0    0  0.00000000000E+00  0.00000000000E+00  0.45593999997E+02  0.45594000000E+02  0.51100000000E-03 0. -1.
         11   -1    0    0    0    0 -0.00000000000E+00 -0.00000000000E+00 -0.45593999997E+02  0.45594000000E+02  0.51100000000E-03 0.  1.
         23    2    1    2    0    0 -0.17763568394E-14  0.00000000000E+00  0.00000000000E+00  0.91188000000E+02  0.91188000000E+02 0.  0.
    9900012    2    3    3    0    0  0.79745194847E+01  0.23899300876E+02  0.26851683231E+02  0.54367048956E+02  0.39999919706E+02 0.  0.
        -12    1    3    3    0    0 -0.79745194847E+01 -0.23899300876E+02 -0.26851683231E+02  0.36820951044E+02  0.00000000000E+00 0.  1.
         11    1    4    4    0    0  0.20861647146E+01 -0.68878832022E+00  0.70531995164E+00  0.23073770957E+01  0.51100000000E-03 0. -1.
        -11    1    4    4    0    0  0.17967225426E+02  0.12750897583E+02  0.13869415464E+01  0.22075556296E+02  0.51100000000E-03 0.  1.
         12    1    4    4    0    0 -0.12078870656E+02  0.11837191613E+02  0.24759421733E+02  0.29984115564E+02  0.00000000000E+00 0. -1.
</event>
<event>
 8    1  0.1265908E-006  0.9118800E+02  0.7816164E-02  0.1184000E+00
        -11   -1    0    0    0    0  0.00000000000E+00  0.00000000000E+00  0.45593999997E+02  0.45594000000E+02  0.51100000000E-03 0.  1.
         11   -1    0    0    0    0 -0.00000000000E+00 -0.00000000000E+00 -0.45593999997E+02  0.45594000000E+02  0.51100000000E-03 0. -1.
         23    2    1    2    0    0  0.35527136788E-14  0.35527136788E-14  0.31086244690E-14  0.91188000000E+02  0.91188000000E+02 0.  0.
    9900012    2    3    3    0    0 -0.29085031562E+02 -0.22502569809E+02 -0.18636471366E+01  0.54367110689E+02  0.40000060438E+02 0.  0.
        -12    1    3    3    0    0  0.29085031562E+02  0.22502569809E+02  0.18636471366E+01  0.36820889311E+02  0.00000000000E+00 0.  1.
         11    1    4    4    0    0 -0.77967279840E+01 -0.11744415218E+02  0.87573587739E+01  0.16595529188E+02  0.51100000000E-03 0. -1.
        -11    1    4    4    0    0 -0.18549838184E+02  0.86350642781E+00  0.38969579308E+01  0.18974414916E+02  0.51100000000E-03 0.  1.
         12    1    4    4    0    0 -0.27384653941E+01 -0.11621661019E+02 -0.14517963841E+02  0.18797166585E+02  0.00000000000E+00 0. -1.
</event>
<event>
 8    1  0.1265908E-006  0.9118800E+02  0.7816164E-02  0.1184000E+00
        -11   -1    0    0    0    0  0.00000000000E+00  0.00000000000E+00  0.45593999997E+02  0.45594000000E+02  0.51100000000E-03 0. -1.
         11   -1    0    0    0    0 -0.00000000000E+00 -0.00000000000E+00 -0.45593999997E+02  0.45594000000E+02  0.51100000000E-03 0.  1.
         23    2    1    2    0    0  0.00000000000E+00 -0.88817841970E-15  0.00000000000E+00  0.91188000000E+02  0.91188000000E+02 0.  0.
    9900012    2    3    3    0    0 -0.34141973578E+02  0.10254451447E+01 -0.13749677591E+02  0.54367088395E+02  0.40000009613E+02 0.  0.
         12    1    3    3    0    0  0.34141973578E+02 -0.10254451447E+01  0.13749677591E+02  0.36820911605E+02  0.00000000000E+00 0. -1.
         11    1    4    4    0    0 -0.14062738955E+02  0.53227802434E+01  0.88033340928E+00  0.15062124804E+02  0.51100000000E-03 0. -1.
        -11    1    4    4    0    0 -0.78228631067E+01 -0.16990475352E+02 -0.58626547574E+01  0.19602146845E+02  0.51100000000E-03 0.  1.
        -12    1    4    4    0    0 -0.12256371517E+02  0.12693140253E+02 -0.87673562433E+01  0.19702816746E+02  0.00000000000E+00 0.  1.
</event>
<event>
 8    1  0.1265908E-006  0.9118800E+02  0.7816164E-02  0.1184000E+00
        -11   -1    0    0    0    0  0.00000000000E+00  0.00000000000E+00  0.45593999997E+02  0.45594000000E+02  0.51100000000E-03 0. -1.
         11   -1    0    0    0    0 -0.00000000000E+00 -0.00000000000E+00 -0.45593999997E+02  0.45594000000E+02  0.51100000000E-03 0.  1.
         23    2    1    2    0    0  0.35527136788E-14  0.35527136788E-14  0.35527136788E-14  0.91188000000E+02  0.91188000000E+02 0.  0.
    9900012    2    3    3    0    0  0.24924013481E+02 -0.16142930746E+02 -0.21770957847E+02  0.54367146307E+02  0.40000141637E+02 0.  0.
         12    1    3    3    0    0 -0.24924013481E+02  0.16142930746E+02  0.21770957847E+02  0.36820853693E+02  0.00000000000E+00 0. -1.
         11    1    4    4    0    0  0.11888309422E+02 -0.21164786671E+02  0.49915815768E+00  0.24280223534E+02  0.51100000000E-03 0. -1.
        -11    1    4    4    0    0  0.81587352074E+01  0.20530120251E+01 -0.22848483605E+02  0.24348162597E+02  0.51100000000E-03 0.  1.
        -12    1    4    4    0    0  0.48769688516E+01  0.29688438997E+01  0.57836759975E+00  0.57387601763E+01  0.00000000000E+00 0.  1.
</event>
<event>
 8    1  0.1265908E-006  0.9118800E+02  0.7816164E-02  0.1184000E+00
        -11   -1    0    0    0    0  0.00000000000E+00  0.00000000000E+00  0.45593999997E+02  0.45594000000E+02  0.51100000000E-03 0.  1.
         11   -1    0    0    0    0 -0.00000000000E+00 -0.00000000000E+00 -0.45593999997E+02  0.45594000000E+02  0.51100000000E-03 0. -1.
         23    2    1    2    0    0  0.00000000000E+00  0.00000000000E+00  0.00000000000E+00  0.91188000000E+02  0.91188000000E+02 0.  0.
    9900012    2    3    3    0    0 -0.23488143041E+02  0.22801960153E+02 -0.16857048687E+02  0.54367050246E+02  0.39999922646E+02 0.  0.
        -12    1    3    3    0    0  0.23488143041E+02 -0.22801960153E+02  0.16857048687E+02  0.36820949754E+02  0.00000000000E+00 0.  1.
         11    1    4    4    0    0 -0.45483514841E+01  0.14473101820E+02 -0.25440605507E+02  0.29620644597E+02  0.51100000000E-03 0. -1.
        -11    1    4    4    0    0 -0.13677391264E+01 -0.22663174493E+01  0.50810353740E+00  0.26953802264E+01  0.51100000000E-03 0.  1.
         12    1    4    4    0    0 -0.17572052431E+02  0.10595175782E+02  0.80754532824E+01  0.22051025423E+02  0.00000000000E+00 0. -1.
</event>
<event>
 8    1  0.1265908E-006  0.9118800E+02  0.7816164E-02  0.1184000E+00
        -11   -1    0    0    0    0  0.00000000000E+00  0.00000000000E+00  0.45593999997E+02  0.45594000000E+02  0.51100000000E-03 0.  1.
         11   -1    0    0    0    0 -0.00000000000E+00 -0.00000000000E+00 -0.45593999997E+02  0.45594000000E+02  0.51100000000E-03 0. -1.
         23    2    1    2    0    0  0.00000000000E+00  0.00000000000E+00 -0.17763568394E-14  0.91188000000E+02  0.91188000000E+02 0.  0.
    9900012    2    3    3    0    0 -0.19977583031E+02 -0.29308152958E+02  0.98846806247E+01  0.54367101524E+02  0.40000039544E+02 0.  0.
        -12    1    3    3    0    0  0.19977583031E+02  0.29308152958E+02 -0.98846806247E+01  0.36820898476E+02  0.00000000000E+00 0.  1.
         11    1    4    4    0    0 -0.88756039547E+01  0.28232526123E+01  0.57411092681E+01  0.10941089377E+02  0.51100000000E-03 0. -1.
        -11    1    4    4    0    0 -0.16601261041E+02 -0.33155385703E+02  0.59371165097E+01  0.37551708643E+02  0.51100000000E-03 0.  1.
         12    1    4    4    0    0  0.54992819649E+01  0.10239801332E+01 -0.17935451531E+01  0.58743035041E+01  0.00000000000E+00 0. -1.
</event>
<event>
 8    1  0.1265908E-006  0.9118800E+02  0.7816164E-02  0.1184000E+00
        -11   -1    0    0    0    0  0.00000000000E+00  0.00000000000E+00  0.45593999997E+02  0.45594000000E+02  0.51100000000E-03 0.  1.
         11   -1    0    0    0    0 -0.00000000000E+00 -0.00000000000E+00 -0.45593999997E+02  0.45594000000E+02  0.51100000000E-03 0. -1.
         23    2    1    2    0    0  0.00000000000E+00  0.88817841970E-15 -0.19984014443E-14  0.91188000000E+02  0.91188000000E+02 0.  0.
    9900012    2    3    3    0    0 -0.36446824388E+02  0.49146708805E+01  0.18042223293E+01  0.54367079099E+02  0.39999988421E+02 0.  0.
         12    1    3    3    0    0  0.36446824388E+02 -0.49146708805E+01 -0.18042223293E+01  0.36820920901E+02  0.00000000000E+00 0. -1.
         11    1    4    4    0    0 -0.58513651287E+01  0.20175776096E+01 -0.45584499546E+01  0.76869083206E+01  0.51100000000E-03 0. -1.
        -11    1    4    4    0    0 -0.21065145019E+02 -0.12061744567E+02  0.13247979876E+02  0.27653842188E+02  0.51100000000E-03 0.  1.
        -12    1    4    4    0    0 -0.95303142399E+01  0.14958837838E+02 -0.68853075924E+01  0.19026328590E+02  0.00000000000E+00 0.  1.
</event>
<event>
 8    1  0.1265908E-006  0.9118800E+02  0.7816164E-02  0.1184000E+00
        -11   -1    0    0    0    0  0.00000000000E+00  0.00000000000E+00  0.45593999997E+02  0.45594000000E+02  0.51100000000E-03 0.  1.
         11   -1    0    0    0    0 -0.00000000000E+00 -0.00000000000E+00 -0.45593999997E+02  0.45594000000E+02  0.51100000000E-03 0. -1.
         23    2    1    2    0    0  0.00000000000E+00 -0.71054273576E-14  0.44408920985E-15  0.91188000000E+02  0.91188000000E+02 0.  0.
    9900012    2    3    3    0    0 -0.10340412140E+02 -0.35302427078E+02 -0.16106811937E+01  0.54367085091E+02  0.40000002081E+02 0.  0.
        -12    1    3    3    0    0  0.10340412140E+02  0.35302427078E+02  0.16106811937E+01  0.36820914909E+02  0.00000000000E+00 0.  1.
         11    1    4    4    0    0  0.13602910221E+01 -0.11518477813E+02 -0.10535695714E+02  0.15669288664E+02  0.51100000000E-03 0. -1.
        -11    1    4    4    0    0  0.74050890908E+01 -0.12781360382E+02 -0.35776591446E+00  0.14775876094E+02  0.51100000000E-03 0.  1.
        -12    1    4    4    0    0 -0.19105792253E+02 -0.11002588884E+02  0.92827804351E+01  0.23921920332E+02  0.00000000000E+00 0.  1.
</event>
<event>
 8    1  0.1265908E-006  0.9118800E+02  0.7816164E-02  0.1184000E+00
        -11   -1    0    0    0    0  0.00000000000E+00  0.00000000000E+00  0.45593999997E+02  0.45594000000E+02  0.51100000000E-03 0. -1.
         11   -1    0    0    0    0 -0.00000000000E+00 -0.00000000000E+00 -0.45593999997E+02  0.45594000000E+02  0.51100000000E-03 0.  1.
         23    2    1    2    0    0  0.00000000000E+00  0.00000000000E+00  0.17763568394E-14  0.91188000000E+02  0.91188000000E+02 0.  0.
    9900012    2    3    3    0    0  0.34220401037E+02 -0.11849323053E+02 -0.66586204736E+01  0.54367088407E+02  0.40000009642E+02 0.  0.
        -12    1    3    3    0    0 -0.34220401037E+02  0.11849323053E+02  0.66586204736E+01  0.36820911593E+02  0.00000000000E+00 0.  1.
         11    1    4    4    0    0  0.11734756400E+02  0.67528344343E+01  0.18086751277E+01  0.13659304032E+02  0.51100000000E-03 0. -1.
        -11    1    4    4    0    0  0.18370988549E+02 -0.19867804711E+02  0.41502754569E+01  0.27376041915E+02  0.51100000000E-03 0.  1.
        -12    1    4    4    0    0  0.41146560880E+01  0.12656472237E+01 -0.12617571058E+02  0.13331742460E+02  0.00000000000E+00 0.  1.
</event>
<event>
 8    1  0.1265908E-006  0.9118800E+02  0.7816164E-02  0.1184000E+00
        -11   -1    0    0    0    0  0.00000000000E+00  0.00000000000E+00  0.45593999997E+02  0.45594000000E+02  0.51100000000E-03 0.  1.
         11   -1    0    0    0    0 -0.00000000000E+00 -0.00000000000E+00 -0.45593999997E+02  0.45594000000E+02  0.51100000000E-03 0. -1.
         23    2    1    2    0    0  0.00000000000E+00  0.35527136788E-14  0.17763568394E-14  0.91188000000E+02  0.91188000000E+02 0.  0.
    9900012    2    3    3    0    0 -0.22664553222E+02 -0.28962147860E+02 -0.18141961156E+01  0.54367091688E+02  0.40000017120E+02 0.  0.
         12    1    3    3    0    0  0.22664553222E+02  0.28962147860E+02  0.18141961156E+01  0.36820908312E+02  0.00000000000E+00 0. -1.
         11    1    4    4    0    0  0.19787838918E+01  0.36115735120E+01  0.55432821298E+01  0.69055793352E+01  0.51100000000E-03 0. -1.
        -11    1    4    4    0    0 -0.11473458132E+02 -0.28703336326E+01  0.48074921046E+01  0.12766794322E+02  0.51100000000E-03 0.  1.
        -12    1    4    4    0    0 -0.13169878982E+02 -0.29703387739E+02 -0.12164970350E+02  0.34694718030E+02  0.00000000000E+00 0.  1.
</event>
<event>
 8    1  0.1265908E-006  0.9118800E+02  0.7816164E-02  0.1184000E+00
        -11   -1    0    0    0    0  0.00000000000E+00  0.00000000000E+00  0.45593999997E+02  0.45594000000E+02  0.51100000000E-03 0.  1.
         11   -1    0    0    0    0 -0.00000000000E+00 -0.00000000000E+00 -0.45593999997E+02  0.45594000000E+02  0.51100000000E-03 0. -1.
         23    2    1    2    0    0  0.00000000000E+00  0.35527136788E-14  0.35527136788E-14  0.91188000000E+02  0.91188000000E+02 0.  0.
    9900012    2    3    3    0    0  0.12280492024E+02 -0.24051279513E+02  0.25030080792E+02  0.54367089161E+02  0.40000011361E+02 0.  0.
         12    1    3    3    0    0 -0.12280492024E+02  0.24051279513E+02 -0.25030080792E+02  0.36820910839E+02  0.00000000000E+00 0. -1.
         11    1    4    4    0    0 -0.19577896186E+01 -0.44519563362E+01  0.11262892220E+02  0.12268072254E+02  0.51100000000E-03 0. -1.
        -11    1    4    4    0    0  0.16824261859E+02 -0.11266535486E+02 -0.54714428950E+01  0.20974443892E+02  0.51100000000E-03 0.  1.
        -12    1    4    4    0    0 -0.25859802162E+01 -0.83327876906E+01  0.19238631466E+02  0.21124573015E+02  0.00000000000E+00 0.  1.
</event>
<event>
 8    1  0.1265908E-006  0.9118800E+02  0.7816164E-02  0.1184000E+00
        -11   -1    0    0    0    0  0.00000000000E+00  0.00000000000E+00  0.45593999997E+02  0.45594000000E+02  0.51100000000E-03 0. -1.
         11   -1    0    0    0    0 -0.00000000000E+00 -0.00000000000E+00 -0.45593999997E+02  0.45594000000E+02  0.51100000000E-03 0.  1.
         23    2    1    2    0    0 -0.35527136788E-14  0.00000000000E+00  0.00000000000E+00  0.91188000000E+02  0.91188000000E+02 0.  0.
    9900012    2    3    3    0    0 -0.16687272075E+02  0.28510129184E+02  0.16263071978E+02  0.54367081685E+02  0.39999994318E+02 0.  0.
        -12    1    3    3    0    0  0.16687272075E+02 -0.28510129184E+02 -0.16263071978E+02  0.36820918315E+02  0.00000000000E+00 0.  1.
         11    1    4    4    0    0 -0.74474117664E+01  0.91016352021E+01  0.16152969067E+02  0.19980543419E+02  0.51100000000E-03 0. -1.
        -11    1    4    4    0    0 -0.13765905772E+02  0.13010915579E+02  0.10276933231E+02  0.21549929068E+02  0.51100000000E-03 0.  1.
         12    1    4    4    0    0  0.45260454636E+01  0.63975784021E+01 -0.10166830320E+02  0.12836609198E+02  0.00000000000E+00 0. -1.
</event>
<event>
 8    1  0.1265908E-006  0.9118800E+02  0.7816164E-02  0.1184000E+00
        -11   -1    0    0    0    0  0.00000000000E+00  0.00000000000E+00  0.45593999997E+02  0.45594000000E+02  0.51100000000E-03 0.  1.
         11   -1    0    0    0    0 -0.00000000000E+00 -0.00000000000E+00 -0.45593999997E+02  0.45594000000E+02  0.51100000000E-03 0. -1.
         23    2    1    2    0    0  0.00000000000E+00 -0.88817841970E-15  0.00000000000E+00  0.91188000000E+02  0.91188000000E+02 0.  0.
    9900012    2    3    3    0    0  0.11339027559E+02  0.78257211481E+01  0.34146229531E+02  0.54367075939E+02  0.39999981219E+02 0.  0.
         12    1    3    3    0    0 -0.11339027559E+02 -0.78257211481E+01 -0.34146229531E+02  0.36820924061E+02  0.00000000000E+00 0. -1.
         11    1    4    4    0    0  0.25448533120E+00 -0.13458251845E+02  0.19761714751E+02  0.23910555737E+02  0.51100000000E-03 0. -1.
        -11    1    4    4    0    0  0.57322723744E+01  0.14417872754E+02  0.24864308429E+01  0.15713571839E+02  0.51100000000E-03 0.  1.
         12    1    4    4    0    0  0.53522698535E+01  0.68661002386E+01  0.11898083937E+02  0.14742948363E+02  0.00000000000E+00 0. -1.
</event>
<event>
 8    1  0.1265908E-006  0.9118800E+02  0.7816164E-02  0.1184000E+00
        -11   -1    0    0    0    0  0.00000000000E+00  0.00000000000E+00  0.45593999997E+02  0.45594000000E+02  0.51100000000E-03 0.  1.
         11   -1    0    0    0    0 -0.00000000000E+00 -0.00000000000E+00 -0.45593999997E+02  0.45594000000E+02  0.51100000000E-03 0. -1.
         23    2    1    2    0    0 -0.71054273576E-14  0.44408920985E-15 -0.88817841970E-15  0.91188000000E+02  0.91188000000E+02 0.  0.
    9900012    2    3    3    0    0 -0.36386710129E+02 -0.22649567148E+01 -0.51631273834E+01  0.54367074057E+02  0.39999976928E+02 0.  0.
         12    1    3    3    0    0  0.36386710129E+02  0.22649567148E+01  0.51631273834E+01  0.36820925943E+02  0.00000000000E+00 0. -1.
         11    1    4    4    0    0 -0.27597509144E+01  0.36740403801E+01 -0.13021269501E+02  0.13808267723E+02  0.51100000000E-03 0. -1.
        -11    1    4    4    0    0 -0.29533509869E+02 -0.11586543357E+02  0.99976205401E+01  0.33263021644E+02  0.51100000000E-03 0.  1.
         12    1    4    4    0    0 -0.40934493452E+01  0.56475462621E+01 -0.21394784222E+01  0.72957846900E+01  0.00000000000E+00 0. -1.
</event>
<event>
 8    1  0.1265908E-006  0.9118800E+02  0.7816164E-02  0.1184000E+00
        -11   -1    0    0    0    0  0.00000000000E+00  0.00000000000E+00  0.45593999997E+02  0.45594000000E+02  0.51100000000E-03 0.  1.
         11   -1    0    0    0    0 -0.00000000000E+00 -0.00000000000E+00 -0.45593999997E+02  0.45594000000E+02  0.51100000000E-03 0. -1.
         23    2    1    2    0    0  0.00000000000E+00  0.35527136788E-14  0.35527136788E-14  0.91188000000E+02  0.91188000000E+02 0.  0.
    9900012    2    3    3    0    0 -0.65810803818E+01 -0.24435388166E+02  0.26746604298E+02  0.54367086713E+02  0.40000005779E+02 0.  0.
         12    1    3    3    0    0  0.65810803818E+01  0.24435388166E+02 -0.26746604298E+02  0.36820913287E+02  0.00000000000E+00 0. -1.
         11    1    4    4    0    0 -0.94677234544E+01 -0.20328461578E+01  0.15893259557E+02  0.18610909449E+02  0.51100000000E-03 0. -1.
        -11    1    4    4    0    0 -0.85982934543E+01 -0.19156018799E+02  0.11237084596E+02  0.23815032585E+02  0.51100000000E-03 0.  1.
         12    1    4    4    0    0  0.11484936527E+02 -0.32465232098E+01 -0.38373985489E+00  0.11941144679E+02  0.00000000000E+00 0. -1.
</event>
<event>
 8    1  0.1265908E-006  0.9118800E+02  0.7816164E-02  0.1184000E+00
        -11   -1    0    0    0    0  0.00000000000E+00  0.00000000000E+00  0.45593999997E+02  0.45594000000E+02  0.51100000000E-03 0. -1.
         11   -1    0    0    0    0 -0.00000000000E+00 -0.00000000000E+00 -0.45593999997E+02  0.45594000000E+02  0.51100000000E-03 0.  1.
         23    2    1    2    0    0  0.17763568394E-14 -0.71054273576E-14  0.00000000000E+00  0.91188000000E+02  0.91188000000E+02 0.  0.
    9900012    2    3    3    0    0 -0.15783607592E+02 -0.30418143431E+02 -0.13468342702E+02  0.54367055232E+02  0.39999934013E+02 0.  0.
         12    1    3    3    0    0  0.15783607592E+02  0.30418143431E+02  0.13468342702E+02  0.36820944768E+02  0.00000000000E+00 0. -1.
         11    1    4    4    0    0  0.62567199813E+01 -0.32791541336E+01 -0.12108518291E+01  0.71669769896E+01  0.51100000000E-03 0. -1.
        -11    1    4    4    0    0  0.67388056399E+01 -0.68166777686E+01  0.81941294683E+00  0.96202928798E+01  0.51100000000E-03 0.  1.
         12    1    4    4    0    0 -0.28779133214E+02 -0.20322311529E+02 -0.13076903820E+02  0.37579785363E+02  0.00000000000E+00 0. -1.
</event>
<event>
 8    1  0.1265908E-006  0.9118800E+02  0.7816164E-02  0.1184000E+00
        -11   -1    0    0    0    0  0.00000000000E+00  0.00000000000E+00  0.45593999997E+02  0.45594000000E+02  0.51100000000E-03 0. -1.
         11   -1    0    0    0    0 -0.00000000000E+00 -0.00000000000E+00 -0.45593999997E+02  0.45594000000E+02  0.51100000000E-03 0.  1.
         23    2    1    2    0    0 -0.71054273576E-14  0.26645352591E-14  0.00000000000E+00  0.91188000000E+02  0.91188000000E+02 0.  0.
    9900012    2    3    3    0    0 -0.30302097389E+02  0.57004954947E+01  0.20126267011E+02  0.54367090467E+02  0.40000014338E+02 0.  0.
        -12    1    3    3    0    0  0.30302097389E+02 -0.57004954947E+01 -0.20126267011E+02  0.36820909533E+02  0.00000000000E+00 0.  1.
         11    1    4    4    0    0  0.39138640651E+01 -0.69581448078E+01  0.12888504621E+02  0.15160727645E+02  0.51100000000E-03 0. -1.
        -11    1    4    4    0    0 -0.12650817746E+02 -0.14599002391E+01  0.17717026259E+01  0.12857426990E+02  0.51100000000E-03 0.  1.
         12    1    4    4    0    0 -0.21565143708E+02  0.14118540542E+02  0.54660597638E+01  0.26348935832E+02  0.00000000000E+00 0. -1.
</event>
<event>
 8    1  0.1265908E-006  0.9118800E+02  0.7816164E-02  0.1184000E+00
        -11   -1    0    0    0    0  0.00000000000E+00  0.00000000000E+00  0.45593999997E+02  0.45594000000E+02  0.51100000000E-03 0. -1.
         11   -1    0    0    0    0 -0.00000000000E+00 -0.00000000000E+00 -0.45593999997E+02  0.45594000000E+02  0.51100000000E-03 0.  1.
         23    2    1    2    0    0  0.00000000000E+00  0.00000000000E+00 -0.35527136788E-14  0.91188000000E+02  0.91188000000E+02 0.  0.
    9900012    2    3    3    0    0 -0.23866372110E+02 -0.16654743194E+02  0.22556408487E+02  0.54367139712E+02  0.40000126601E+02 0.  0.
        -12    1    3    3    0    0  0.23866372110E+02  0.16654743194E+02 -0.22556408487E+02  0.36820860288E+02  0.00000000000E+00 0.  1.
         11    1    4    4    0    0 -0.11447040720E+02 -0.74333492115E+00  0.22247775540E+02  0.25030996880E+02  0.51100000000E-03 0. -1.
        -11    1    4    4    0    0 -0.10594387410E+02 -0.46391320255E+01 -0.89589361923E+01  0.14629597688E+02  0.51100000000E-03 0.  1.
        -12    1    4    4    0    0 -0.18249439794E+01 -0.11272276248E+02  0.92675691388E+01  0.14706545144E+02  0.00000000000E+00 0.  1.
</event>
<event>
 8    1  0.1265908E-006  0.9118800E+02  0.7816164E-02  0.1184000E+00
        -11   -1    0    0    0    0  0.00000000000E+00  0.00000000000E+00  0.45593999997E+02  0.45594000000E+02  0.51100000000E-03 0. -1.
         11   -1    0    0    0    0 -0.00000000000E+00 -0.00000000000E+00 -0.45593999997E+02  0.45594000000E+02  0.51100000000E-03 0.  1.
         23    2    1    2    0    0  0.44408920985E-15 -0.71054273576E-14  0.00000000000E+00  0.91188000000E+02  0.91188000000E+02 0.  0.
    9900012    2    3    3    0    0 -0.14039418312E+01  0.34592357911E+02 -0.12537275223E+02  0.54367006688E+02  0.39999823346E+02 0.  0.
         12    1    3    3    0    0  0.14039418312E+01 -0.34592357911E+02  0.12537275223E+02  0.36820993312E+02  0.00000000000E+00 0. -1.
         11    1    4    4    0    0 -0.44060657227E-01  0.52341332051E+01  0.10484483413E+02  0.11718467666E+02  0.51100000000E-03 0. -1.
        -11    1    4    4    0    0 -0.26964137297E+01  0.50131009771E+01  0.34525116366E+01  0.66574518601E+01  0.51100000000E-03 0.  1.
        -12    1    4    4    0    0  0.13365325557E+01  0.24345123728E+02 -0.26474270272E+02  0.35991087161E+02  0.00000000000E+00 0.  1.
</event>
<event>
 8    1  0.1265908E-006  0.9118800E+02  0.7816164E-02  0.1184000E+00
        -11   -1    0    0    0    0  0.00000000000E+00  0.00000000000E+00  0.45593999997E+02  0.45594000000E+02  0.51100000000E-03 0.  1.
         11   -1    0    0    0    0 -0.00000000000E+00 -0.00000000000E+00 -0.45593999997E+02  0.45594000000E+02  0.51100000000E-03 0. -1.
         23    2    1    2    0    0  0.00000000000E+00 -0.88817841970E-15  0.00000000000E+00  0.91188000000E+02  0.91188000000E+02 0.  0.
    9900012    2    3    3    0    0  0.22099696609E+02 -0.53135487140E+01 -0.28968090009E+02  0.54367073492E+02  0.39999975639E+02 0.  0.
        -12    1    3    3    0    0 -0.22099696609E+02  0.53135487140E+01  0.28968090009E+02  0.36820926508E+02  0.00000000000E+00 0.  1.
         11    1    4    4    0    0  0.16186935929E+02 -0.87206739782E+01 -0.90078304900E+01  0.20474571053E+02  0.51100000000E-03 0. -1.
        -11    1    4    4    0    0  0.12349087237E+02  0.26296101585E+01  0.29049339348E+00  0.12629298945E+02  0.51100000000E-03 0.  1.
         12    1    4    4    0    0 -0.64363265570E+01  0.77751510574E+00 -0.20250752912E+02  0.21263203494E+02  0.00000000000E+00 0. -1.
</event>
<event>
 8    1  0.1265908E-006  0.9118800E+02  0.7816164E-02  0.1184000E+00
        -11   -1    0    0    0    0  0.00000000000E+00  0.00000000000E+00  0.45593999997E+02  0.45594000000E+02  0.51100000000E-03 0.  1.
         11   -1    0    0    0    0 -0.00000000000E+00 -0.00000000000E+00 -0.45593999997E+02  0.45594000000E+02  0.51100000000E-03 0. -1.
         23    2    1    2    0    0  0.00000000000E+00  0.35527136788E-14  0.00000000000E+00  0.91188000000E+02  0.91188000000E+02 0.  0.
    9900012    2    3    3    0    0 -0.25564559506E+02  0.24343118419E+02 -0.10471177376E+02  0.54367086476E+02  0.40000005240E+02 0.  0.
        -12    1    3    3    0    0  0.25564559506E+02 -0.24343118419E+02  0.10471177376E+02  0.36820913524E+02  0.00000000000E+00 0.  1.
         11    1    4    4    0    0 -0.39405614366E+00  0.12021391605E+02 -0.81564324441E+01  0.14532602205E+02  0.51100000000E-03 0. -1.
        -11    1    4    4    0    0 -0.30307391856E+02  0.10511397408E+02 -0.67852135710E+01  0.32788208247E+02  0.51100000000E-03 0.  1.
        -12    1    4    4    0    0  0.51368884941E+01  0.18103294056E+01  0.44704686392E+01  0.70462760244E+01  0.00000000000E+00 0.  1.
</event>
<event>
 8    1  0.1265908E-006  0.9118800E+02  0.7816164E-02  0.1184000E+00
        -11   -1    0    0    0    0  0.00000000000E+00  0.00000000000E+00  0.45593999997E+02  0.45594000000E+02  0.51100000000E-03 0.  1.
         11   -1    0    0    0    0 -0.00000000000E+00 -0.00000000000E+00 -0.45593999997E+02  0.45594000000E+02  0.51100000000E-03 0. -1.
         23    2    1    2    0    0  0.00000000000E+00  0.00000000000E+00 -0.71054273576E-14  0.91188000000E+02  0.91188000000E+02 0.  0.
    9900012    2    3    3    0    0  0.11047185567E+02 -0.12350494542E+02  0.32881692861E+02  0.54367071851E+02  0.39999971898E+02 0.  0.
         12    1    3    3    0    0 -0.11047185567E+02  0.12350494542E+02 -0.32881692861E+02  0.36820928149E+02  0.00000000000E+00 0. -1.
         11    1    4    4    0    0  0.47791859254E+01 -0.38504664992E+01 -0.21567992049E+01  0.65052665927E+01  0.51100000000E-03 0. -1.
        -11    1    4    4    0    0  0.13719260213E+02 -0.14693201979E+02  0.31846738680E+02  0.37660629974E+02  0.51100000000E-03 0.  1.
         12    1    4    4    0    0 -0.74512605719E+01  0.61931739359E+01  0.31917533853E+01  0.10201175284E+02  0.00000000000E+00 0. -1.
</event>
<event>
 8    1  0.1265908E-006  0.9118800E+02  0.7816164E-02  0.1184000E+00
        -11   -1    0    0    0    0  0.00000000000E+00  0.00000000000E+00  0.45593999997E+02  0.45594000000E+02  0.51100000000E-03 0.  1.
         11   -1    0    0    0    0 -0.00000000000E+00 -0.00000000000E+00 -0.45593999997E+02  0.45594000000E+02  0.51100000000E-03 0. -1.
         23    2    1    2    0    0  0.00000000000E+00  0.35527136788E-14  0.00000000000E+00  0.91188000000E+02  0.91188000000E+02 0.  0.
    9900012    2    3    3    0    0 -0.11471546772E+02  0.19032109176E+02  0.29359200937E+02  0.54367078710E+02  0.39999987535E+02 0.  0.
         12    1    3    3    0    0  0.11471546772E+02 -0.19032109176E+02 -0.29359200937E+02  0.36820921290E+02  0.00000000000E+00 0. -1.
         11    1    4    4    0    0  0.52663977892E+01  0.64184506751E+01  0.20205061026E+02  0.21844357305E+02  0.51100000000E-03 0.  1.
        -11    1    4    4    0    0 -0.50782868568E+01 -0.65683597053E+01  0.50061224941E+01  0.96950301343E+01  0.51100000000E-03 0. -1.
         12    1    4    4    0    0 -0.11659657705E+02  0.19182018206E+02  0.41480174164E+01  0.22827691270E+02  0.00000000000E+00 0. -1.
</event>
<event>
 8    1  0.1265908E-006  0.9118800E+02  0.7816164E-02  0.1184000E+00
        -11   -1    0    0    0    0  0.00000000000E+00  0.00000000000E+00  0.45593999997E+02  0.45594000000E+02  0.51100000000E-03 0.  1.
         11   -1    0    0    0    0 -0.00000000000E+00 -0.00000000000E+00 -0.45593999997E+02  0.45594000000E+02  0.51100000000E-03 0. -1.
         23    2    1    2    0    0  0.00000000000E+00  0.35527136788E-14  0.00000000000E+00  0.91188000000E+02  0.91188000000E+02 0.  0.
    9900012    2    3    3    0    0  0.21501623547E+02  0.17432906478E+02  0.24280682422E+02  0.54367114863E+02  0.40000069953E+02 0.  0.
         12    1    3    3    0    0 -0.21501623547E+02 -0.17432906478E+02 -0.24280682422E+02  0.36820885137E+02  0.00000000000E+00 0. -1.
         11    1    4    4    0    0  0.20882680227E+02 -0.25447335092E+01  0.11723782745E+02  0.24083377757E+02  0.51100000000E-03 0. -1.
        -11    1    4    4    0    0  0.28828619390E+01  0.35299145354E+01  0.12895820762E+02  0.13677477216E+02  0.51100000000E-03 0.  1.
         12    1    4    4    0    0 -0.22639186192E+01  0.16447725451E+02 -0.33892108555E+00  0.16606259890E+02  0.00000000000E+00 0. -1.
</event>
<event>
 8    1  0.1265908E-006  0.9118800E+02  0.7816164E-02  0.1184000E+00
        -11   -1    0    0    0    0  0.00000000000E+00  0.00000000000E+00  0.45593999997E+02  0.45594000000E+02  0.51100000000E-03 0.  1.
         11   -1    0    0    0    0 -0.00000000000E+00 -0.00000000000E+00 -0.45593999997E+02  0.45594000000E+02  0.51100000000E-03 0. -1.
         23    2    1    2    0    0 -0.17763568394E-14  0.35527136788E-14  0.00000000000E+00  0.91188000000E+02  0.91188000000E+02 0.  0.
    9900012    2    3    3    0    0 -0.12764350165E+02  0.17107648543E+02  0.30003003435E+02  0.54367075393E+02  0.39999979973E+02 0.  0.
         12    1    3    3    0    0  0.12764350165E+02 -0.17107648543E+02 -0.30003003435E+02  0.36820924607E+02  0.00000000000E+00 0. -1.
         11    1    4    4    0    0 -0.20011995430E+00  0.87840866281E+00 -0.14281451277E+01  0.16885640473E+01  0.51100000000E-03 0. -1.
        -11    1    4    4    0    0 -0.23707291214E+01  0.24108497347E+02  0.31570956394E+02  0.39794035845E+02  0.51100000000E-03 0.  1.
        -12    1    4    4    0    0 -0.10193501089E+02 -0.78792574673E+01 -0.13980783118E+00  0.12884475500E+02  0.00000000000E+00 0.  1.
</event>
<event>
 8    1  0.1265908E-006  0.9118800E+02  0.7816164E-02  0.1184000E+00
        -11   -1    0    0    0    0  0.00000000000E+00  0.00000000000E+00  0.45593999997E+02  0.45594000000E+02  0.51100000000E-03 0. -1.
         11   -1    0    0    0    0 -0.00000000000E+00 -0.00000000000E+00 -0.45593999997E+02  0.45594000000E+02  0.51100000000E-03 0.  1.
         23    2    1    2    0    0  0.17763568394E-14  0.00000000000E+00  0.00000000000E+00  0.91188000000E+02  0.91188000000E+02 0.  0.
    9900012    2    3    3    0    0  0.15768422271E+02  0.11725427640E+02  0.31139220786E+02  0.54367083860E+02  0.39999999275E+02 0.  0.
        -12    1    3    3    0    0 -0.15768422271E+02 -0.11725427640E+02 -0.31139220786E+02  0.36820916140E+02  0.00000000000E+00 0.  1.
         11    1    4    4    0    0  0.19022575831E+02 -0.43872449094E+00  0.21230322945E+02  0.28509252587E+02  0.51100000000E-03 0. -1.
        -11    1    4    4    0    0  0.64032175629E+01 -0.16646000720E+01  0.73344579811E+00  0.66565780666E+01  0.51100000000E-03 0.  1.
         12    1    4    4    0    0 -0.96573711228E+01  0.13828752203E+02  0.91754520424E+01  0.19201253206E+02  0.00000000000E+00 0. -1.
</event>
<event>
 8    1  0.1265908E-006  0.9118800E+02  0.7816164E-02  0.1184000E+00
        -11   -1    0    0    0    0  0.00000000000E+00  0.00000000000E+00  0.45593999997E+02  0.45594000000E+02  0.51100000000E-03 0.  1.
         11   -1    0    0    0    0 -0.00000000000E+00 -0.00000000000E+00 -0.45593999997E+02  0.45594000000E+02  0.51100000000E-03 0. -1.
         23    2    1    2    0    0 -0.17763568394E-14  0.00000000000E+00  0.00000000000E+00  0.91188000000E+02  0.91188000000E+02 0.  0.
    9900012    2    3    3    0    0 -0.12979800227E+02  0.77907832463E+01 -0.33564988729E+02  0.54367082224E+02  0.39999995546E+02 0.  0.
        -12    1    3    3    0    0  0.12979800227E+02 -0.77907832463E+01  0.33564988729E+02  0.36820917776E+02  0.00000000000E+00 0.  1.
         11    1    4    4    0    0 -0.53976200208E+01 -0.19965518778E+00 -0.27253973347E+02  0.27784046277E+02  0.51100000000E-03 0. -1.
        -11    1    4    4    0    0  0.41738215589E+01  0.10543303514E+02 -0.87319720693E+01  0.14311861230E+02  0.51100000000E-03 0.  1.
         12    1    4    4    0    0 -0.11756001765E+02 -0.25528650800E+01  0.24209566879E+01  0.12271174716E+02  0.00000000000E+00 0. -1.
</event>
<event>
 8    1  0.1265908E-006  0.9118800E+02  0.7816164E-02  0.1184000E+00
        -11   -1    0    0    0    0  0.00000000000E+00  0.00000000000E+00  0.45593999997E+02  0.45594000000E+02  0.51100000000E-03 0.  1.
         11   -1    0    0    0    0 -0.00000000000E+00 -0.00000000000E+00 -0.45593999997E+02  0.45594000000E+02  0.51100000000E-03 0. -1.
         23    2    1    2    0    0  0.00000000000E+00  0.71054273576E-14  0.16653345369E-14  0.91188000000E+02  0.91188000000E+02 0.  0.
    9900012    2    3    3    0    0 -0.16329786605E+02  0.32997128482E+02  0.55456901202E+00  0.54367082502E+02  0.39999996180E+02 0.  0.
        -12    1    3    3    0    0  0.16329786605E+02 -0.32997128482E+02 -0.55456901202E+00  0.36820917498E+02  0.00000000000E+00 0.  1.
         11    1    4    4    0    0 -0.61735293530E+00  0.67204614069E+01  0.79194688275E+00  0.67950648485E+01  0.51100000000E-03 0. -1.
        -11    1    4    4    0    0 -0.13261463494E+01 -0.44948085726E+01 -0.10985869227E+02  0.11943671596E+02  0.51100000000E-03 0.  1.
        -12    1    4    4    0    0 -0.14386287320E+02  0.30771475647E+02  0.10748491357E+02  0.35628346058E+02  0.00000000000E+00 0.  1.
</event>
<event>
 8    1  0.1265908E-006  0.9118800E+02  0.7816164E-02  0.1184000E+00
        -11   -1    0    0    0    0  0.00000000000E+00  0.00000000000E+00  0.45593999997E+02  0.45594000000E+02  0.51100000000E-03 0. -1.
         11   -1    0    0    0    0 -0.00000000000E+00 -0.00000000000E+00 -0.45593999997E+02  0.45594000000E+02  0.51100000000E-03 0.  1.
         23    2    1    2    0    0  0.88817841970E-15 -0.22204460493E-14  0.00000000000E+00  0.91188000000E+02  0.91188000000E+02 0.  0.
    9900012    2    3    3    0    0  0.76504205295E+01  0.25565449751E+01  0.35926557921E+02  0.54367049163E+02  0.39999920177E+02 0.  0.
        -12    1    3    3    0    0 -0.76504205295E+01 -0.25565449751E+01 -0.35926557921E+02  0.36820950837E+02  0.00000000000E+00 0.  1.
         11    1    4    4    0    0  0.67196319935E+01  0.10026975775E+02  0.20551647760E+02  0.23834091618E+02  0.51100000000E-03 0. -1.
        -11    1    4    4    0    0  0.57513390008E+01 -0.13624585445E+02  0.18401139775E+01  0.14902793314E+02  0.51100000000E-03 0.  1.
        -12    1    4    4    0    0 -0.48205504648E+01  0.61541546449E+01  0.13534796183E+02  0.15630164231E+02  0.00000000000E+00 0.  1.
</event>
<event>
 8    1  0.1265908E-006  0.9118800E+02  0.7816164E-02  0.1184000E+00
        -11   -1    0    0    0    0  0.00000000000E+00  0.00000000000E+00  0.45593999997E+02  0.45594000000E+02  0.51100000000E-03 0. -1.
         11   -1    0    0    0    0 -0.00000000000E+00 -0.00000000000E+00 -0.45593999997E+02  0.45594000000E+02  0.51100000000E-03 0.  1.
         23    2    1    2    0    0  0.00000000000E+00  0.11102230246E-14  0.35527136788E-14  0.91188000000E+02  0.91188000000E+02 0.  0.
    9900012    2    3    3    0    0 -0.32229836725E+02 -0.13048229345E+01 -0.17757098229E+02  0.54367089151E+02  0.40000011338E+02 0.  0.
         12    1    3    3    0    0  0.32229836725E+02  0.13048229345E+01  0.17757098229E+02  0.36820910849E+02  0.00000000000E+00 0. -1.
         11    1    4    4    0    0 -0.20138523957E+02 -0.81627294592E+01  0.35677497089E+01  0.22020879584E+02  0.51100000000E-03 0. -1.
        -11    1    4    4    0    0 -0.12329816731E+02  0.17811982691E+01 -0.23670560038E+02  0.26748690822E+02  0.51100000000E-03 0.  1.
        -12    1    4    4    0    0  0.23850396405E+00  0.50767082556E+01  0.23457120997E+01  0.55975187456E+01  0.00000000000E+00 0.  1.
</event>
<event>
 8    1  0.1265908E-006  0.9118800E+02  0.7816164E-02  0.1184000E+00
        -11   -1    0    0    0    0  0.00000000000E+00  0.00000000000E+00  0.45593999997E+02  0.45594000000E+02  0.51100000000E-03 0.  1.
         11   -1    0    0    0    0 -0.00000000000E+00 -0.00000000000E+00 -0.45593999997E+02  0.45594000000E+02  0.51100000000E-03 0. -1.
         23    2    1    2    0    0  0.35527136788E-14  0.00000000000E+00  0.17763568394E-14  0.91188000000E+02  0.91188000000E+02 0.  0.
    9900012    2    3    3    0    0 -0.22621419974E+02 -0.25300712551E+02 -0.14280291757E+02  0.54367062616E+02  0.39999950845E+02 0.  0.
        -12    1    3    3    0    0  0.22621419974E+02  0.25300712551E+02  0.14280291757E+02  0.36820937384E+02  0.00000000000E+00 0.  1.
         11    1    4    4    0    0  0.69678910434E+01 -0.10483827652E+02  0.71195310866E+00  0.12608291927E+02  0.51100000000E-03 0. -1.
        -11    1    4    4    0    0 -0.23929752557E+01  0.25599572522E+01  0.31701662577E+01  0.47254276072E+01  0.51100000000E-03 0.  1.
         12    1    4    4    0    0 -0.27196335761E+02 -0.17376842151E+02 -0.18162411123E+02  0.37033343081E+02  0.00000000000E+00 0. -1.
</event>
<event>
 8    1  0.1265908E-006  0.9118800E+02  0.7816164E-02  0.1184000E+00
        -11   -1    0    0    0    0  0.00000000000E+00  0.00000000000E+00  0.45593999997E+02  0.45594000000E+02  0.51100000000E-03 0.  1.
         11   -1    0    0    0    0 -0.00000000000E+00 -0.00000000000E+00 -0.45593999997E+02  0.45594000000E+02  0.51100000000E-03 0. -1.
         23    2    1    2    0    0  0.00000000000E+00  0.35527136788E-14  0.17763568394E-14  0.91188000000E+02  0.91188000000E+02 0.  0.
    9900012    2    3    3    0    0  0.18946214629E+02  0.30320177257E+02  0.88037529282E+01  0.54367105616E+02  0.40000048872E+02 0.  0.
        -12    1    3    3    0    0 -0.18946214629E+02 -0.30320177257E+02 -0.88037529282E+01  0.36820894384E+02  0.00000000000E+00 0.  1.
         11    1    4    4    0    0  0.97202754962E+01  0.34064989704E+01 -0.28985893983E+01  0.10699991202E+02  0.51100000000E-03 0. -1.
        -11    1    4    4    0    0  0.59097093948E+01  0.26592346865E+02 -0.40728817032E+01  0.27543891202E+02  0.51100000000E-03 0.  1.
        -12    1    4    4    0    0  0.33162297382E+01  0.32133142156E+00  0.15775224030E+02  0.16123223212E+02  0.00000000000E+00 0.  1.
</event>
<event>
 8    1  0.1265908E-006  0.9118800E+02  0.7816164E-02  0.1184000E+00
        -11   -1    0    0    0    0  0.00000000000E+00  0.00000000000E+00  0.45593999997E+02  0.45594000000E+02  0.51100000000E-03 0.  1.
         11   -1    0    0    0    0 -0.00000000000E+00 -0.00000000000E+00 -0.45593999997E+02  0.45594000000E+02  0.51100000000E-03 0. -1.
         23    2    1    2    0    0  0.00000000000E+00 -0.35527136788E-14 -0.71054273576E-14  0.91188000000E+02  0.91188000000E+02 0.  0.
    9900012    2    3    3    0    0 -0.86409873654E+01 -0.17140656316E+02 -0.31421505659E+02  0.54367085027E+02  0.40000001935E+02 0.  0.
        -12    1    3    3    0    0  0.86409873654E+01  0.17140656316E+02  0.31421505659E+02  0.36820914973E+02  0.00000000000E+00 0.  1.
         11    1    4    4    0    0  0.10199572887E+01 -0.27418831149E+02 -0.27320070610E+02  0.38719747841E+02  0.51100000000E-03 0. -1.
        -11    1    4    4    0    0 -0.61659983588E+01  0.69027087958E+01 -0.52688030719E+01  0.10650221150E+02  0.51100000000E-03 0.  1.
        -12    1    4    4    0    0 -0.34949462954E+01  0.33754660369E+01  0.11673680230E+01  0.49971160358E+01  0.00000000000E+00 0.  1.
</event>
<event>
 8    1  0.1265908E-006  0.9118800E+02  0.7816164E-02  0.1184000E+00
        -11   -1    0    0    0    0  0.00000000000E+00  0.00000000000E+00  0.45593999997E+02  0.45594000000E+02  0.51100000000E-03 0.  1.
         11   -1    0    0    0    0 -0.00000000000E+00 -0.00000000000E+00 -0.45593999997E+02  0.45594000000E+02  0.51100000000E-03 0. -1.
         23    2    1    2    0    0  0.00000000000E+00  0.00000000000E+00  0.00000000000E+00  0.91188000000E+02  0.91188000000E+02 0.  0.
    9900012    2    3    3    0    0 -0.26341537887E+02 -0.15143084466E+02  0.20798819286E+02  0.54367075119E+02  0.39999979350E+02 0.  0.
        -12    1    3    3    0    0  0.26341537887E+02  0.15143084466E+02 -0.20798819286E+02  0.36820924881E+02  0.00000000000E+00 0.  1.
         11    1    4    4    0    0 -0.11072159474E+02  0.68098847640E+01  0.36421756040E+01  0.13499358848E+02  0.51100000000E-03 0. -1.
        -11    1    4    4    0    0 -0.34969064345E+01 -0.27344363258E+01  0.17775723303E+02  0.18321622086E+02  0.51100000000E-03 0.  1.
         12    1    4    4    0    0 -0.11772471978E+02 -0.19218532904E+02 -0.61907962120E+00  0.22546094186E+02  0.00000000000E+00 0. -1.
</event>
<event>
 8    1  0.1265908E-006  0.9118800E+02  0.7816164E-02  0.1184000E+00
        -11   -1    0    0    0    0  0.00000000000E+00  0.00000000000E+00  0.45593999997E+02  0.45594000000E+02  0.51100000000E-03 0. -1.
         11   -1    0    0    0    0 -0.00000000000E+00 -0.00000000000E+00 -0.45593999997E+02  0.45594000000E+02  0.51100000000E-03 0.  1.
         23    2    1    2    0    0 -0.71054273576E-14 -0.88817841970E-15  0.17763568394E-14  0.91188000000E+02  0.91188000000E+02 0.  0.
    9900012    2    3    3    0    0 -0.33606295518E+02 -0.73278172257E+01  0.13141517495E+02  0.54367089015E+02  0.40000011027E+02 0.  0.
        -12    1    3    3    0    0  0.33606295518E+02  0.73278172257E+01 -0.13141517495E+02  0.36820910985E+02  0.00000000000E+00 0.  1.
         11    1    4    4    0    0  0.62476867642E+01 -0.89123855240E+01  0.48049713577E+01  0.11897560911E+02  0.51100000000E-03 0. -1.
        -11    1    4    4    0    0 -0.89614853663E+01  0.19179171304E+01  0.70254079341E+01  0.11547423219E+02  0.51100000000E-03 0.  1.
        -12    1    4    4    0    0 -0.30892496916E+02 -0.33334883218E+00  0.13111382029E+01  0.30922104885E+02  0.00000000000E+00 0.  1.
</event>
<event>
 8    1  0.1265908E-006  0.9118800E+02  0.7816164E-02  0.1184000E+00
        -11   -1    0    0    0    0  0.00000000000E+00  0.00000000000E+00  0.45593999997E+02  0.45594000000E+02  0.51100000000E-03 0.  1.
         11   -1    0    0    0    0 -0.00000000000E+00 -0.00000000000E+00 -0.45593999997E+02  0.45594000000E+02  0.51100000000E-03 0. -1.
         23    2    1    2    0    0  0.35527136788E-14  0.00000000000E+00 -0.17763568394E-14  0.91188000000E+02  0.91188000000E+02 0.  0.
    9900012    2    3    3    0    0  0.26065794557E+02 -0.20983522679E+02  0.15363799551E+02  0.54367079227E+02  0.39999988715E+02 0.  0.
         12    1    3    3    0    0 -0.26065794557E+02  0.20983522679E+02 -0.15363799551E+02  0.36820920773E+02  0.00000000000E+00 0. -1.
         11    1    4    4    0    0  0.11395748841E+02 -0.13669911984E+02  0.55127929434E+01  0.18631169356E+02  0.51100000000E-03 0. -1.
        -11    1    4    4    0    0 -0.67175601735E+01 -0.32291236098E+01  0.11711889612E+02  0.13882406582E+02  0.51100000000E-03 0.  1.
         12    1    4    4    0    0  0.21387605890E+02 -0.40844870855E+01 -0.18608830044E+01  0.21853503289E+02  0.00000000000E+00 0. -1.
</event>
<event>
 8    1  0.1265908E-006  0.9118800E+02  0.7816164E-02  0.1184000E+00
        -11   -1    0    0    0    0  0.00000000000E+00  0.00000000000E+00  0.45593999997E+02  0.45594000000E+02  0.51100000000E-03 0.  1.
         11   -1    0    0    0    0 -0.00000000000E+00 -0.00000000000E+00 -0.45593999997E+02  0.45594000000E+02  0.51100000000E-03 0. -1.
         23    2    1    2    0    0  0.00000000000E+00 -0.35527136788E-14  0.00000000000E+00  0.91188000000E+02  0.91188000000E+02 0.  0.
    9900012    2    3    3    0    0 -0.17870063035E+02 -0.27828317569E+02  0.16187197348E+02  0.54367085161E+02  0.40000002242E+02 0.  0.
         12    1    3    3    0    0  0.17870063035E+02  0.27828317569E+02 -0.16187197348E+02  0.36820914839E+02  0.00000000000E+00 0. -1.
         11    1    4    4    0    0  0.50388368963E+01 -0.64988485425E+01 -0.50809882254E+01  0.96665066727E+01  0.51100000000E-03 0. -1.
        -11    1    4    4    0    0 -0.60378629984E+01 -0.19457350368E+02  0.18466224118E+02  0.27496285320E+02  0.51100000000E-03 0.  1.
         12    1    4    4    0    0 -0.16871036932E+02 -0.18721186580E+01  0.28019614551E+01  0.17204293169E+02  0.00000000000E+00 0. -1.
</event>
<event>
 8    1  0.1265908E-006  0.9118800E+02  0.7816164E-02  0.1184000E+00
        -11   -1    0    0    0    0  0.00000000000E+00  0.00000000000E+00  0.45593999997E+02  0.45594000000E+02  0.51100000000E-03 0.  1.
         11   -1    0    0    0    0 -0.00000000000E+00 -0.00000000000E+00 -0.45593999997E+02  0.45594000000E+02  0.51100000000E-03 0. -1.
         23    2    1    2    0    0 -0.22204460493E-15  0.35527136788E-14  0.00000000000E+00  0.91188000000E+02  0.91188000000E+02 0.  0.
    9900012    2    3    3    0    0  0.15780828291E+01 -0.30236362020E+02 -0.20953591526E+02  0.54367069383E+02  0.39999966273E+02 0.  0.
        -12    1    3    3    0    0 -0.15780828291E+01  0.30236362020E+02  0.20953591526E+02  0.36820930617E+02  0.00000000000E+00 0.  1.
         11    1    4    4    0    0  0.40865744300E+01 -0.16235782476E+02 -0.25755915955E+02  0.30719178540E+02  0.51100000000E-03 0. -1.
        -11    1    4    4    0    0 -0.23399722634E+01 -0.18464791263E+02  0.46174584946E+01  0.19176676193E+02  0.51100000000E-03 0.  1.
         12    1    4    4    0    0 -0.16851933754E+00  0.44642117193E+01  0.18486593489E+00  0.44712146510E+01  0.00000000000E+00 0. -1.
</event>
<event>
 8    1  0.1265908E-006  0.9118800E+02  0.7816164E-02  0.1184000E+00
        -11   -1    0    0    0    0  0.00000000000E+00  0.00000000000E+00  0.45593999997E+02  0.45594000000E+02  0.51100000000E-03 0.  1.
         11   -1    0    0    0    0 -0.00000000000E+00 -0.00000000000E+00 -0.45593999997E+02  0.45594000000E+02  0.51100000000E-03 0. -1.
         23    2    1    2    0    0  0.00000000000E+00  0.00000000000E+00  0.00000000000E+00  0.91188000000E+02  0.91188000000E+02 0.  0.
    9900012    2    3    3    0    0 -0.19045079787E+02  0.18916165990E+02 -0.25204026814E+02  0.54367090621E+02  0.40000014689E+02 0.  0.
        -12    1    3    3    0    0  0.19045079787E+02 -0.18916165990E+02  0.25204026814E+02  0.36820909379E+02  0.00000000000E+00 0.  1.
         11    1    4    4    0    0 -0.13051992086E+02 -0.33957592865E+01 -0.14604398661E+02  0.19878987375E+02  0.51100000000E-03 0. -1.
        -11    1    4    4    0    0 -0.10623725082E+02  0.48739469647E+01  0.27940927009E+01  0.12017730564E+02  0.51100000000E-03 0.  1.
         12    1    4    4    0    0  0.46306373812E+01  0.17437978311E+02 -0.13393720854E+02  0.22470372682E+02  0.00000000000E+00 0. -1.
</event>
<event>
 8    1  0.1265908E-006  0.9118800E+02  0.7816164E-02  0.1184000E+00
        -11   -1    0    0    0    0  0.00000000000E+00  0.00000000000E+00  0.45593999997E+02  0.45594000000E+02  0.51100000000E-03 0.  1.
         11   -1    0    0    0    0 -0.00000000000E+00 -0.00000000000E+00 -0.45593999997E+02  0.45594000000E+02  0.51100000000E-03 0. -1.
         23    2    1    2    0    0  0.00000000000E+00  0.71054273576E-14 -0.35527136788E-14  0.91188000000E+02  0.91188000000E+02 0.  0.
    9900012    2    3    3    0    0 -0.94267221583E+01  0.30443729321E+02 -0.18441695146E+02  0.54367083859E+02  0.39999999273E+02 0.  0.
        -12    1    3    3    0    0  0.94267221583E+01 -0.30443729321E+02  0.18441695146E+02  0.36820916141E+02  0.00000000000E+00 0.  1.
         11    1    4    4    0    0  0.99768666137E+01  0.16318154063E+02 -0.34464138902E+01  0.19434448498E+02  0.51100000000E-03 0. -1.
        -11    1    4    4    0    0 -0.15354659220E+02  0.14314937398E+02 -0.19654316783E+02  0.28757175817E+02  0.51100000000E-03 0.  1.
        -12    1    4    4    0    0 -0.40489295521E+01 -0.18936214055E+00  0.46590355274E+01  0.61754595443E+01  0.00000000000E+00 0.  1.
</event>
<event>
 8    1  0.1265908E-006  0.9118800E+02  0.7816164E-02  0.1184000E+00
        -11   -1    0    0    0    0  0.00000000000E+00  0.00000000000E+00  0.45593999997E+02  0.45594000000E+02  0.51100000000E-03 0. -1.
         11   -1    0    0    0    0 -0.00000000000E+00 -0.00000000000E+00 -0.45593999997E+02  0.45594000000E+02  0.51100000000E-03 0.  1.
         23    2    1    2    0    0  0.39968028887E-14  0.00000000000E+00  0.17763568394E-14  0.91188000000E+02  0.91188000000E+02 0.  0.
    9900012    2    3    3    0    0 -0.34916884934E+01 -0.34395333354E+02  0.12670796033E+02  0.54367083157E+02  0.39999997673E+02 0.  0.
        -12    1    3    3    0    0  0.34916884934E+01  0.34395333354E+02 -0.12670796033E+02  0.36820916843E+02  0.00000000000E+00 0.  1.
         11    1    4    4    0    0  0.14664787385E+02 -0.20511414663E+02  0.30727479151E+01  0.25401100380E+02  0.51100000000E-03 0. -1.
        -11    1    4    4    0    0 -0.76302860243E+01  0.14806249541E+01  0.64011161630E+01  0.10069151079E+02  0.51100000000E-03 0.  1.
         12    1    4    4    0    0 -0.10526189854E+02 -0.15364543645E+02  0.31969319545E+01  0.18896831697E+02  0.00000000000E+00 0. -1.
</event>
<event>
 8    1  0.1265908E-006  0.9118800E+02  0.7816164E-02  0.1184000E+00
        -11   -1    0    0    0    0  0.00000000000E+00  0.00000000000E+00  0.45593999997E+02  0.45594000000E+02  0.51100000000E-03 0.  1.
         11   -1    0    0    0    0 -0.00000000000E+00 -0.00000000000E+00 -0.45593999997E+02  0.45594000000E+02  0.51100000000E-03 0. -1.
         23    2    1    2    0    0 -0.88817841970E-15  0.00000000000E+00 -0.71054273576E-14  0.91188000000E+02  0.91188000000E+02 0.  0.
    9900012    2    3    3    0    0  0.74304147189E+01 -0.11085163461E+02  0.34317464725E+02  0.54367078000E+02  0.39999985916E+02 0.  0.
         12    1    3    3    0    0 -0.74304147189E+01  0.11085163461E+02 -0.34317464725E+02  0.36820922000E+02  0.00000000000E+00 0. -1.
         11    1    4    4    0    0 -0.64841941709E+01  0.93372399266E+00  0.21810815573E+02  0.22773411927E+02  0.51100000000E-03 0. -1.
        -11    1    4    4    0    0  0.21301818630E+01 -0.16275084349E+02  0.81709642263E+01  0.18335231168E+02  0.51100000000E-03 0.  1.
        -12    1    4    4    0    0  0.11784427027E+02  0.42561968955E+01  0.43356849248E+01  0.13258434905E+02  0.00000000000E+00 0.  1.
</event>
<event>
 8    1  0.1265908E-006  0.9118800E+02  0.7816164E-02  0.1184000E+00
        -11   -1    0    0    0    0  0.00000000000E+00  0.00000000000E+00  0.45593999997E+02  0.45594000000E+02  0.51100000000E-03 0.  1.
         11   -1    0    0    0    0 -0.00000000000E+00 -0.00000000000E+00 -0.45593999997E+02  0.45594000000E+02  0.51100000000E-03 0. -1.
         23    2    1    2    0    0  0.00000000000E+00  0.00000000000E+00  0.44408920985E-15  0.91188000000E+02  0.91188000000E+02 0.  0.
    9900012    2    3    3    0    0 -0.36496857145E+02 -0.42927304420E+01  0.23089269566E+01  0.54367092083E+02  0.40000018022E+02 0.  0.
        -12    1    3    3    0    0  0.36496857145E+02  0.42927304420E+01 -0.23089269566E+01  0.36820907917E+02  0.00000000000E+00 0.  1.
         11    1    4    4    0    0 -0.16363591063E+02 -0.79979589175E+01 -0.72606277176E+01  0.19607426513E+02  0.51100000000E-03 0. -1.
        -11    1    4    4    0    0 -0.19300757803E+02  0.95673541341E+01  0.15376208435E+02  0.26466607319E+02  0.51100000000E-03 0.  1.
        -12    1    4    4    0    0 -0.83250827893E+00 -0.58621256585E+01 -0.58066537605E+01  0.82930582516E+01  0.00000000000E+00 0.  1.
</event>
<event>
 8    1  0.1265908E-006  0.9118800E+02  0.7816164E-02  0.1184000E+00
        -11   -1    0    0    0    0  0.00000000000E+00  0.00000000000E+00  0.45593999997E+02  0.45594000000E+02  0.51100000000E-03 0.  1.
         11   -1    0    0    0    0 -0.00000000000E+00 -0.00000000000E+00 -0.45593999997E+02  0.45594000000E+02  0.51100000000E-03 0. -1.
         23    2    1    2    0    0  0.00000000000E+00 -0.27755575616E-15  0.17763568394E-14  0.91188000000E+02  0.91188000000E+02 0.  0.
    9900012    2    3    3    0    0  0.35404261513E+02 -0.43716544799E+00 -0.10105782839E+02  0.54367086192E+02  0.40000004591E+02 0.  0.
        -12    1    3    3    0    0 -0.35404261513E+02  0.43716544799E+00  0.10105782839E+02  0.36820913808E+02  0.00000000000E+00 0.  1.
         11    1    4    4    0    0  0.13232049753E+02 -0.41682430512E+01  0.81095415018E+01  0.16069413631E+02  0.51100000000E-03 0. -1.
        -11    1    4    4    0    0  0.12817680690E+02 -0.87976996967E+01 -0.18376940983E+01  0.15654698275E+02  0.51100000000E-03 0.  1.
        -12    1    4    4    0    0  0.93545310692E+01  0.12528777300E+02 -0.16377630242E+02  0.22642974286E+02  0.00000000000E+00 0.  1.
</event>
<event>
 8    1  0.1265908E-006  0.9118800E+02  0.7816164E-02  0.1184000E+00
        -11   -1    0    0    0    0  0.00000000000E+00  0.00000000000E+00  0.45593999997E+02  0.45594000000E+02  0.51100000000E-03 0.  1.
         11   -1    0    0    0    0 -0.00000000000E+00 -0.00000000000E+00 -0.45593999997E+02  0.45594000000E+02  0.51100000000E-03 0. -1.
         23    2    1    2    0    0  0.00000000000E+00  0.00000000000E+00 -0.35527136788E-14  0.91188000000E+02  0.91188000000E+02 0.  0.
    9900012    2    3    3    0    0  0.22879563362E+02 -0.19299782476E+02  0.21443449045E+02  0.54367115570E+02  0.40000071565E+02 0.  0.
         12    1    3    3    0    0 -0.22879563362E+02  0.19299782476E+02 -0.21443449045E+02  0.36820884430E+02  0.00000000000E+00 0. -1.
         11    1    4    4    0    0  0.93025617887E+00  0.44069486394E+01  0.30259965799E+01  0.54261614823E+01  0.51100000000E-03 0. -1.
        -11    1    4    4    0    0  0.30018961915E+02 -0.20603107746E+02  0.12633296660E+02  0.38538633967E+02  0.51100000000E-03 0.  1.
        -12    1    4    4    0    0 -0.80696547322E+01 -0.31036233697E+01  0.57841558048E+01  0.10402320121E+02  0.00000000000E+00 0.  1.
</event>
<event>
 8    1  0.1265908E-006  0.9118800E+02  0.7816164E-02  0.1184000E+00
        -11   -1    0    0    0    0  0.00000000000E+00  0.00000000000E+00  0.45593999997E+02  0.45594000000E+02  0.51100000000E-03 0.  1.
         11   -1    0    0    0    0 -0.00000000000E+00 -0.00000000000E+00 -0.45593999997E+02  0.45594000000E+02  0.51100000000E-03 0. -1.
         23    2    1    2    0    0  0.35527136788E-14  0.17763568394E-14  0.00000000000E+00  0.91188000000E+02  0.91188000000E+02 0.  0.
    9900012    2    3    3    0    0  0.29668153064E+02  0.14575841187E+02  0.16221132691E+02  0.54367087486E+02  0.40000007543E+02 0.  0.
         12    1    3    3    0    0 -0.29668153064E+02 -0.14575841187E+02 -0.16221132691E+02  0.36820912514E+02  0.00000000000E+00 0. -1.
         11    1    4    4    0    0 -0.37677248765E+01  0.15293104216E+02  0.24406608398E+01  0.15938369205E+02  0.51100000000E-03 0. -1.
        -11    1    4    4    0    0  0.21108536537E+02 -0.34716373639E+01  0.14391714409E+02  0.25782630289E+02  0.51100000000E-03 0.  1.
         12    1    4    4    0    0  0.12327341404E+02  0.27543743348E+01 -0.61124255745E+00  0.12646087993E+02  0.00000000000E+00 0. -1.
</event>
<event>
 8    1  0.1265908E-006  0.9118800E+02  0.7816164E-02  0.1184000E+00
        -11   -1    0    0    0    0  0.00000000000E+00  0.00000000000E+00  0.45593999997E+02  0.45594000000E+02  0.51100000000E-03 0.  1.
         11   -1    0    0    0    0 -0.00000000000E+00 -0.00000000000E+00 -0.45593999997E+02  0.45594000000E+02  0.51100000000E-03 0. -1.
         23    2    1    2    0    0  0.00000000000E+00  0.00000000000E+00  0.35527136788E-14  0.91188000000E+02  0.91188000000E+02 0.  0.
    9900012    2    3    3    0    0 -0.22158859268E+02  0.18944536558E+02 -0.22491510054E+02  0.54367101940E+02  0.40000040493E+02 0.  0.
        -12    1    3    3    0    0  0.22158859268E+02 -0.18944536558E+02  0.22491510054E+02  0.36820898060E+02  0.00000000000E+00 0.  1.
         11    1    4    4    0    0 -0.79824175723E+01  0.12067932066E+02  0.37301390407E+01  0.14942152193E+02  0.51100000000E-03 0. -1.
        -11    1    4    4    0    0 -0.15148365031E+02 -0.36309025243E+01 -0.61481664294E+01  0.16746831550E+02  0.51100000000E-03 0.  1.
         12    1    4    4    0    0  0.97192333533E+00  0.10507507016E+02 -0.20073482665E+02  0.22678118197E+02  0.00000000000E+00 0. -1.
</event>
<event>
 8    1  0.1265908E-006  0.9118800E+02  0.7816164E-02  0.1184000E+00
        -11   -1    0    0    0    0  0.00000000000E+00  0.00000000000E+00  0.45593999997E+02  0.45594000000E+02  0.51100000000E-03 0.  1.
         11   -1    0    0    0    0 -0.00000000000E+00 -0.00000000000E+00 -0.45593999997E+02  0.45594000000E+02  0.51100000000E-03 0. -1.
         23    2    1    2    0    0  0.55511151231E-15  0.00000000000E+00 -0.35527136788E-14  0.91188000000E+02  0.91188000000E+02 0.  0.
    9900012    2    3    3    0    0  0.48542312528E+00  0.32418481687E+02 -0.17452396228E+02  0.54367085772E+02  0.40000003634E+02 0.  0.
        -12    1    3    3    0    0 -0.48542312528E+00 -0.32418481687E+02  0.17452396228E+02  0.36820914228E+02  0.00000000000E+00 0.  1.
         11    1    4    4    0    0  0.71226797752E+01  0.26040048872E+02 -0.83861786169E+01  0.28269147573E+02  0.51100000000E-03 0. -1.
        -11    1    4    4    0    0 -0.14242175903E+02  0.57654203851E+01 -0.16421204351E+01  0.15452385138E+02  0.51100000000E-03 0.  1.
        -12    1    4    4    0    0  0.76049192530E+01  0.61301242959E+00 -0.74240971764E+01  0.10645553061E+02  0.00000000000E+00 0.  1.
</event>
<event>
 8    1  0.1265908E-006  0.9118800E+02  0.7816164E-02  0.1184000E+00
        -11   -1    0    0    0    0  0.00000000000E+00  0.00000000000E+00  0.45593999997E+02  0.45594000000E+02  0.51100000000E-03 0.  1.
         11   -1    0    0    0    0 -0.00000000000E+00 -0.00000000000E+00 -0.45593999997E+02  0.45594000000E+02  0.51100000000E-03 0. -1.
         23    2    1    2    0    0  0.00000000000E+00  0.00000000000E+00  0.00000000000E+00  0.91188000000E+02  0.91188000000E+02 0.  0.
    9900012    2    3    3    0    0 -0.91042996165E+01 -0.26417586147E+02 -0.23979277382E+02  0.54367043018E+02  0.39999906167E+02 0.  0.
        -12    1    3    3    0    0  0.91042996165E+01  0.26417586147E+02  0.23979277382E+02  0.36820956982E+02  0.00000000000E+00 0.  1.
         11    1    4    4    0    0 -0.59709428059E+01 -0.21195402779E+02 -0.22200623810E+02  0.31269233358E+02  0.51100000000E-03 0. -1.
        -11    1    4    4    0    0 -0.10301143545E+02  0.37821648494E+01  0.16318178551E+01  0.11094194836E+02  0.51100000000E-03 0.  1.
         12    1    4    4    0    0  0.71677867345E+01 -0.90043482172E+01 -0.34104714270E+01  0.12003614824E+02  0.00000000000E+00 0. -1.
</event>
<event>
 8    1  0.1265908E-006  0.9118800E+02  0.7816164E-02  0.1184000E+00
        -11   -1    0    0    0    0  0.00000000000E+00  0.00000000000E+00  0.45593999997E+02  0.45594000000E+02  0.51100000000E-03 0.  1.
         11   -1    0    0    0    0 -0.00000000000E+00 -0.00000000000E+00 -0.45593999997E+02  0.45594000000E+02  0.51100000000E-03 0. -1.
         23    2    1    2    0    0  0.35527136788E-14 -0.35527136788E-14  0.35527136788E-14  0.91188000000E+02  0.91188000000E+02 0.  0.
    9900012    2    3    3    0    0 -0.24775588728E+02 -0.16182660337E+02  0.21910550587E+02  0.54367074979E+02  0.39999979029E+02 0.  0.
         12    1    3    3    0    0  0.24775588728E+02  0.16182660337E+02 -0.21910550587E+02  0.36820925021E+02  0.00000000000E+00 0. -1.
         11    1    4    4    0    0 -0.59293481949E+01 -0.19794422961E+01 -0.90329225819E+01  0.10984946629E+02  0.51100000000E-03 0. -1.
        -11    1    4    4    0    0 -0.23690403830E+00  0.20213337155E+01  0.12241291575E+02  0.12409316387E+02  0.51100000000E-03 0.  1.
        -12    1    4    4    0    0 -0.18609336494E+02 -0.16224551757E+02  0.18702181594E+02  0.30972811962E+02  0.00000000000E+00 0.  1.
</event>
<event>
 8    1  0.1265908E-006  0.9118800E+02  0.7816164E-02  0.1184000E+00
        -11   -1    0    0    0    0  0.00000000000E+00  0.00000000000E+00  0.45593999997E+02  0.45594000000E+02  0.51100000000E-03 0.  1.
         11   -1    0    0    0    0 -0.00000000000E+00 -0.00000000000E+00 -0.45593999997E+02  0.45594000000E+02  0.51100000000E-03 0. -1.
         23    2    1    2    0    0  0.77715611724E-15 -0.17763568394E-14  0.00000000000E+00  0.91188000000E+02  0.91188000000E+02 0.  0.
    9900012    2    3    3    0    0  0.84890198220E+00  0.62870906430E+01  0.36270285435E+02  0.54367058284E+02  0.39999940969E+02 0.  0.
         12    1    3    3    0    0 -0.84890198220E+00 -0.62870906430E+01 -0.36270285435E+02  0.36820941716E+02  0.00000000000E+00 0. -1.
         11    1    4    4    0    0 -0.51151872983E+01 -0.84791327591E+01 -0.34447927895E+01  0.10484628323E+02  0.51100000000E-03 0. -1.
        -11    1    4    4    0    0  0.96287050561E+00  0.45988074507E+01  0.24305027680E+02  0.24755010005E+02  0.51100000000E-03 0.  1.
         12    1    4    4    0    0  0.50012187749E+01  0.10167415951E+02  0.15410050545E+02  0.19127419956E+02  0.00000000000E+00 0. -1.
</event>
<event>
 8    1  0.1265908E-006  0.9118800E+02  0.7816164E-02  0.1184000E+00
        -11   -1    0    0    0    0  0.00000000000E+00  0.00000000000E+00  0.45593999997E+02  0.45594000000E+02  0.51100000000E-03 0.  1.
         11   -1    0    0    0    0 -0.00000000000E+00 -0.00000000000E+00 -0.45593999997E+02  0.45594000000E+02  0.51100000000E-03 0. -1.
         23    2    1    2    0    0 -0.17763568394E-14  0.17763568394E-14  0.35527136788E-14  0.91188000000E+02  0.91188000000E+02 0.  0.
    9900012    2    3    3    0    0  0.11501436004E+02 -0.15269802323E+02  0.31469509113E+02  0.54367083431E+02  0.39999998298E+02 0.  0.
         12    1    3    3    0    0 -0.11501436004E+02  0.15269802323E+02 -0.31469509113E+02  0.36820916569E+02  0.00000000000E+00 0. -1.
         11    1    4    4    0    0 -0.94561594637E+00  0.18051065936E+01  0.22867648583E+02  0.22958265425E+02  0.51100000000E-03 0. -1.
        -11    1    4    4    0    0  0.16872380962E+02 -0.59112991044E+01  0.28868019235E+01  0.18109509160E+02  0.51100000000E-03 0.  1.
         12    1    4    4    0    0 -0.44253290120E+01 -0.11163609812E+02  0.57150586067E+01  0.13299308846E+02  0.00000000000E+00 0. -1.
</event>
<event>
 8    1  0.1265908E-006  0.9118800E+02  0.7816164E-02  0.1184000E+00
        -11   -1    0    0    0    0  0.00000000000E+00  0.00000000000E+00  0.45593999997E+02  0.45594000000E+02  0.51100000000E-03 0. -1.
         11   -1    0    0    0    0 -0.00000000000E+00 -0.00000000000E+00 -0.45593999997E+02  0.45594000000E+02  0.51100000000E-03 0.  1.
         23    2    1    2    0    0  0.88817841970E-15 -0.71054273576E-14  0.00000000000E+00  0.91188000000E+02  0.91188000000E+02 0.  0.
    9900012    2    3    3    0    0 -0.29608079420E+01 -0.36450806111E+02  0.42838760785E+01  0.54367092297E+02  0.40000018511E+02 0.  0.
        -12    1    3    3    0    0  0.29608079420E+01  0.36450806111E+02 -0.42838760785E+01  0.36820907703E+02  0.00000000000E+00 0.  1.
         11    1    4    4    0    0  0.13208007304E+02 -0.67606251610E+01  0.73317281650E+01  0.16550279383E+02  0.51100000000E-03 0. -1.
        -11    1    4    4    0    0 -0.11735881231E+02 -0.80320115401E+01 -0.61480656838E+01  0.15493315641E+02  0.51100000000E-03 0.  1.
        -12    1    4    4    0    0 -0.44329340158E+01 -0.21658169409E+02  0.31002135973E+01  0.22323497273E+02  0.00000000000E+00 0.  1.
</event>
<event>
 8    1  0.1265908E-006  0.9118800E+02  0.7816164E-02  0.1184000E+00
        -11   -1    0    0    0    0  0.00000000000E+00  0.00000000000E+00  0.45593999997E+02  0.45594000000E+02  0.51100000000E-03 0.  1.
         11   -1    0    0    0    0 -0.00000000000E+00 -0.00000000000E+00 -0.45593999997E+02  0.45594000000E+02  0.51100000000E-03 0. -1.
         23    2    1    2    0    0  0.00000000000E+00  0.00000000000E+00  0.00000000000E+00  0.91188000000E+02  0.91188000000E+02 0.  0.
    9900012    2    3    3    0    0 -0.13088047346E+02  0.31406016405E+02  0.14076390867E+02  0.54367087062E+02  0.40000006575E+02 0.  0.
         12    1    3    3    0    0  0.13088047346E+02 -0.31406016405E+02 -0.14076390867E+02  0.36820912938E+02  0.00000000000E+00 0. -1.
         11    1    4    4    0    0 -0.63496456850E+01  0.11310227116E+02 -0.20187663191E+01  0.13126867694E+02  0.51100000000E-03 0. -1.
        -11    1    4    4    0    0 -0.36046355275E+01  0.93241911012E+00 -0.88657445492E+01  0.96158322237E+01  0.51100000000E-03 0.  1.
        -12    1    4    4    0    0 -0.31337661334E+01  0.19163370179E+02  0.24960901736E+02  0.31624387144E+02  0.00000000000E+00 0.  1.
</event>
<event>
 8    1  0.1265908E-006  0.9118800E+02  0.7816164E-02  0.1184000E+00
        -11   -1    0    0    0    0  0.00000000000E+00  0.00000000000E+00  0.45593999997E+02  0.45594000000E+02  0.51100000000E-03 0. -1.
         11   -1    0    0    0    0 -0.00000000000E+00 -0.00000000000E+00 -0.45593999997E+02  0.45594000000E+02  0.51100000000E-03 0.  1.
         23    2    1    2    0    0  0.35527136788E-14  0.00000000000E+00  0.00000000000E+00  0.91188000000E+02  0.91188000000E+02 0.  0.
    9900012    2    3    3    0    0  0.23118001043E+02  0.13621149484E+02 -0.25215117877E+02  0.54367084000E+02  0.39999999595E+02 0.  0.
         12    1    3    3    0    0 -0.23118001043E+02 -0.13621149484E+02  0.25215117877E+02  0.36820916000E+02  0.00000000000E+00 0. -1.
         11    1    4    4    0    0  0.11668971104E+02 -0.13879698580E+01 -0.25321454858E+02  0.27915361780E+02  0.51100000000E-03 0. -1.
        -11    1    4    4    0    0  0.11185981648E+02  0.15097592768E+02 -0.64676047084E+01  0.19871925014E+02  0.51100000000E-03 0.  1.
        -12    1    4    4    0    0  0.26304829060E+00 -0.88473425998E-01  0.65739416887E+01  0.65797972064E+01  0.00000000000E+00 0.  1.
</event>
<event>
 8    1  0.1265908E-006  0.9118800E+02  0.7816164E-02  0.1184000E+00
        -11   -1    0    0    0    0  0.00000000000E+00  0.00000000000E+00  0.45593999997E+02  0.45594000000E+02  0.51100000000E-03 0.  1.
         11   -1    0    0    0    0 -0.00000000000E+00 -0.00000000000E+00 -0.45593999997E+02  0.45594000000E+02  0.51100000000E-03 0. -1.
         23    2    1    2    0    0  0.35527136788E-14  0.00000000000E+00  0.00000000000E+00  0.91188000000E+02  0.91188000000E+02 0.  0.
    9900012    2    3    3    0    0  0.20540680712E+02 -0.26803440071E+02 -0.14677857115E+02  0.54367035140E+02  0.39999888209E+02 0.  0.
        -12    1    3    3    0    0 -0.20540680711E+02  0.26803440071E+02  0.14677857115E+02  0.36820964860E+02  0.00000000000E+00 0.  1.
         11    1    4    4    0    0 -0.32458418624E+01 -0.66961021217E+01 -0.19431108682E+02  0.20807240516E+02  0.51100000000E-03 0. -1.
        -11    1    4    4    0    0  0.10749509860E+02 -0.25340591152E+01 -0.50510791134E+00  0.11055702243E+02  0.51100000000E-03 0.  1.
        -12    1    4    4    0    0  0.13037012714E+02 -0.17573278834E+02  0.52583594784E+01  0.22504092381E+02  0.00000000000E+00 0.  1.
</event>
<event>
 8    1  0.1265908E-006  0.9118800E+02  0.7816164E-02  0.1184000E+00
        -11   -1    0    0    0    0  0.00000000000E+00  0.00000000000E+00  0.45593999997E+02  0.45594000000E+02  0.51100000000E-03 0.  1.
         11   -1    0    0    0    0 -0.00000000000E+00 -0.00000000000E+00 -0.45593999997E+02  0.45594000000E+02  0.51100000000E-03 0. -1.
         23    2    1    2    0    0  0.00000000000E+00 -0.14210854715E-13 -0.66613381478E-15  0.91188000000E+02  0.91188000000E+02 0.  0.
    9900012    2    3    3    0    0  0.14074533696E+02 -0.33995872632E+02  0.14020635151E+01  0.54367114122E+02  0.40000068264E+02 0.  0.
        -12    1    3    3    0    0 -0.14074533696E+02  0.33995872632E+02 -0.14020635151E+01  0.36820885878E+02  0.00000000000E+00 0.  1.
         11    1    4    4    0    0  0.16490933689E+02 -0.15606058504E+02  0.10371059045E+02  0.24961146247E+02  0.51100000000E-03 0. -1.
        -11    1    4    4    0    0 -0.41472201031E+01  0.37382756112E+01 -0.34590705229E+00  0.55940853657E+01  0.51100000000E-03 0.  1.
        -12    1    4    4    0    0  0.17308201093E+01 -0.22128089739E+02 -0.86230884778E+01  0.23811882510E+02  0.00000000000E+00 0.  1.
</event>
<event>
 8    1  0.1265908E-006  0.9118800E+02  0.7816164E-02  0.1184000E+00
        -11   -1    0    0    0    0  0.00000000000E+00  0.00000000000E+00  0.45593999997E+02  0.45594000000E+02  0.51100000000E-03 0. -1.
         11   -1    0    0    0    0 -0.00000000000E+00 -0.00000000000E+00 -0.45593999997E+02  0.45594000000E+02  0.51100000000E-03 0.  1.
         23    2    1    2    0    0  0.72164496601E-15 -0.88817841970E-15  0.00000000000E+00  0.91188000000E+02  0.91188000000E+02 0.  0.
    9900012    2    3    3    0    0  0.41751195100E+00 -0.62353840387E+01  0.36286723637E+02  0.54367073305E+02  0.39999975214E+02 0.  0.
        -12    1    3    3    0    0 -0.41751195100E+00  0.62353840387E+01 -0.36286723637E+02  0.36820926695E+02  0.00000000000E+00 0.  1.
         11    1    4    4    0    0  0.97889643307E+01 -0.30380058477E+01  0.32753119301E+01  0.10760156630E+02  0.51100000000E-03 0. -1.
        -11    1    4    4    0    0 -0.15651279266E+02  0.47000298964E+01  0.11922825544E+02  0.20228855452E+02  0.51100000000E-03 0.  1.
        -12    1    4    4    0    0  0.62798268860E+01 -0.78974080875E+01  0.21088586163E+02  0.23378061223E+02  0.00000000000E+00 0.  1.
</event>
<event>
 8    1  0.1265908E-006  0.9118800E+02  0.7816164E-02  0.1184000E+00
        -11   -1    0    0    0    0  0.00000000000E+00  0.00000000000E+00  0.45593999997E+02  0.45594000000E+02  0.51100000000E-03 0. -1.
         11   -1    0    0    0    0 -0.00000000000E+00 -0.00000000000E+00 -0.45593999997E+02  0.45594000000E+02  0.51100000000E-03 0.  1.
         23    2    1    2    0    0  0.88817841970E-15  0.00000000000E+00  0.00000000000E+00  0.91188000000E+02  0.91188000000E+02 0.  0.
    9900012    2    3    3    0    0  0.77811138459E+01  0.12696702386E+02 -0.33675327942E+02  0.54367086158E+02  0.40000004515E+02 0.  0.
         12    1    3    3    0    0 -0.77811138459E+01 -0.12696702386E+02  0.33675327942E+02  0.36820913842E+02  0.00000000000E+00 0. -1.
         11    1    4    4    0    0  0.45254337098E+01  0.12500882849E+02 -0.10278653103E+01  0.13334471479E+02  0.51100000000E-03 0. -1.
        -11    1    4    4    0    0  0.10669166282E+02  0.22883269864E+01 -0.31383622756E+02  0.33226485325E+02  0.51100000000E-03 0.  1.
        -12    1    4    4    0    0 -0.74134861463E+01 -0.20925074489E+01 -0.12638398758E+01  0.78061293543E+01  0.00000000000E+00 0.  1.
</event>
<event>
 8    1  0.1265908E-006  0.9118800E+02  0.7816164E-02  0.1184000E+00
        -11   -1    0    0    0    0  0.00000000000E+00  0.00000000000E+00  0.45593999997E+02  0.45594000000E+02  0.51100000000E-03 0. -1.
         11   -1    0    0    0    0 -0.00000000000E+00 -0.00000000000E+00 -0.45593999997E+02  0.45594000000E+02  0.51100000000E-03 0.  1.
         23    2    1    2    0    0  0.00000000000E+00  0.00000000000E+00  0.17763568394E-14  0.91188000000E+02  0.91188000000E+02 0.  0.
    9900012    2    3    3    0    0 -0.22965700385E+02  0.25988357798E+02 -0.12367725515E+02  0.54367098740E+02  0.40000033197E+02 0.  0.
         12    1    3    3    0    0  0.22965700385E+02 -0.25988357798E+02  0.12367725515E+02  0.36820901260E+02  0.00000000000E+00 0. -1.
         11    1    4    4    0    0  0.17487192501E+01  0.31909144797E+01  0.74941200752E+01  0.83307736853E+01  0.51100000000E-03 0. -1.
        -11    1    4    4    0    0 -0.31300394060E+01  0.14231256452E+02  0.12856625611E+01  0.14628012010E+02  0.51100000000E-03 0.  1.
         12    1    4    4    0    0 -0.21584380229E+02  0.85661868661E+01 -0.21147508152E+02  0.31408313044E+02  0.00000000000E+00 0. -1.
</event>
<event>
 8    1  0.1265908E-006  0.9118800E+02  0.7816164E-02  0.1184000E+00
        -11   -1    0    0    0    0  0.00000000000E+00  0.00000000000E+00  0.45593999997E+02  0.45594000000E+02  0.51100000000E-03 0. -1.
         11   -1    0    0    0    0 -0.00000000000E+00 -0.00000000000E+00 -0.45593999997E+02  0.45594000000E+02  0.51100000000E-03 0.  1.
         23    2    1    2    0    0  0.71054273576E-14  0.00000000000E+00 -0.88817841970E-15  0.91188000000E+02  0.91188000000E+02 0.  0.
    9900012    2    3    3    0    0  0.31769673545E+02 -0.17257725053E+02 -0.69735186996E+01  0.54367201608E+02  0.40000267704E+02 0.  0.
         12    1    3    3    0    0 -0.31769673545E+02  0.17257725053E+02  0.69735186996E+01  0.36820798392E+02  0.00000000000E+00 0. -1.
         11    1    4    4    0    0  0.26243566982E+02 -0.14146140305E+02  0.11991116476E+02  0.32134482539E+02  0.51100000000E-03 0. -1.
        -11    1    4    4    0    0  0.18169843266E+01  0.24906050799E+01 -0.13227382723E+01  0.33547253994E+01  0.51100000000E-03 0.  1.
        -12    1    4    4    0    0  0.37091222371E+01 -0.56021898277E+01 -0.17641896903E+02  0.18877993669E+02  0.00000000000E+00 0.  1.
</event>
<event>
 8    1  0.1265908E-006  0.9118800E+02  0.7816164E-02  0.1184000E+00
        -11   -1    0    0    0    0  0.00000000000E+00  0.00000000000E+00  0.45593999997E+02  0.45594000000E+02  0.51100000000E-03 0.  1.
         11   -1    0    0    0    0 -0.00000000000E+00 -0.00000000000E+00 -0.45593999997E+02  0.45594000000E+02  0.51100000000E-03 0. -1.
         23    2    1    2    0    0  0.00000000000E+00  0.17763568394E-14 -0.71054273576E-14  0.91188000000E+02  0.91188000000E+02 0.  0.
    9900012    2    3    3    0    0 -0.92011248884E+01 -0.14044159056E+02  0.32770082663E+02  0.54367117060E+02  0.40000074961E+02 0.  0.
         12    1    3    3    0    0  0.92011248884E+01  0.14044159056E+02 -0.32770082663E+02  0.36820882940E+02  0.00000000000E+00 0. -1.
         11    1    4    4    0    0 -0.16567276328E+01 -0.50293958444E+01  0.87259657882E+01  0.10206960772E+02  0.51100000000E-03 0.  1.
        -11    1    4    4    0    0 -0.21353082753E+02 -0.18149950304E+01  0.12940402886E+02  0.25034024389E+02  0.51100000000E-03 0. -1.
         12    1    4    4    0    0  0.13808685498E+02 -0.71997681809E+01  0.11103713989E+02  0.19126131898E+02  0.00000000000E+00 0. -1.
</event>
<event>
 8    1  0.1265908E-006  0.9118800E+02  0.7816164E-02  0.1184000E+00
        -11   -1    0    0    0    0  0.00000000000E+00  0.00000000000E+00  0.45593999997E+02  0.45594000000E+02  0.51100000000E-03 0. -1.
         11   -1    0    0    0    0 -0.00000000000E+00 -0.00000000000E+00 -0.45593999997E+02  0.45594000000E+02  0.51100000000E-03 0.  1.
         23    2    1    2    0    0  0.35527136788E-14 -0.88817841970E-15  0.00000000000E+00  0.91188000000E+02  0.91188000000E+02 0.  0.
    9900012    2    3    3    0    0 -0.30898232012E+02  0.63867275653E+01 -0.18981213992E+02  0.54367115776E+02  0.40000072033E+02 0.  0.
         12    1    3    3    0    0  0.30898232012E+02 -0.63867275653E+01  0.18981213992E+02  0.36820884224E+02  0.00000000000E+00 0. -1.
         11    1    4    4    0    0 -0.17597532135E+02  0.14607852550E+02  0.25503522277E+01  0.23012318226E+02  0.51100000000E-03 0. -1.
        -11    1    4    4    0    0 -0.13299343686E+01  0.46329256192E+01 -0.24056850595E+01  0.53870257178E+01  0.51100000000E-03 0.  1.
        -12    1    4    4    0    0 -0.11970765508E+02 -0.12854050604E+02 -0.19125881160E+02  0.25967771832E+02  0.00000000000E+00 0.  1.
</event>
<event>
 8    1  0.1265908E-006  0.9118800E+02  0.7816164E-02  0.1184000E+00
        -11   -1    0    0    0    0  0.00000000000E+00  0.00000000000E+00  0.45593999997E+02  0.45594000000E+02  0.51100000000E-03 0. -1.
         11   -1    0    0    0    0 -0.00000000000E+00 -0.00000000000E+00 -0.45593999997E+02  0.45594000000E+02  0.51100000000E-03 0.  1.
         23    2    1    2    0    0 -0.35527136788E-14  0.88817841970E-15 -0.35527136788E-14  0.91188000000E+02  0.91188000000E+02 0.  0.
    9900012    2    3    3    0    0 -0.22238149212E+02  0.72870058195E+01 -0.28427878839E+02  0.54367081632E+02  0.39999994195E+02 0.  0.
         12    1    3    3    0    0  0.22238149212E+02 -0.72870058195E+01  0.28427878839E+02  0.36820918368E+02  0.00000000000E+00 0. -1.
         11    1    4    4    0    0  0.11072063372E+00  0.12411920677E+02 -0.47436649283E+01  0.13287979198E+02  0.51100000000E-03 0. -1.
        -11    1    4    4    0    0  0.38229739644E+01  0.15132036193E+01 -0.99928061860E+01  0.10805604604E+02  0.51100000000E-03 0.  1.
        -12    1    4    4    0    0 -0.26171843811E+02 -0.66381184768E+01 -0.13691407725E+02  0.30273497830E+02  0.00000000000E+00 0.  1.
</event>
<event>
 8    1  0.1265908E-006  0.9118800E+02  0.7816164E-02  0.1184000E+00
        -11   -1    0    0    0    0  0.00000000000E+00  0.00000000000E+00  0.45593999997E+02  0.45594000000E+02  0.51100000000E-03 0.  1.
         11   -1    0    0    0    0 -0.00000000000E+00 -0.00000000000E+00 -0.45593999997E+02  0.45594000000E+02  0.51100000000E-03 0. -1.
         23    2    1    2    0    0 -0.88817841970E-15 -0.71054273576E-14  0.00000000000E+00  0.91188000000E+02  0.91188000000E+02 0.  0.
    9900012    2    3    3    0    0 -0.60906744393E+01 -0.29831823158E+02 -0.20706179802E+02  0.54367083797E+02  0.39999999132E+02 0.  0.
        -12    1    3    3    0    0  0.60906744393E+01  0.29831823158E+02  0.20706179802E+02  0.36820916203E+02  0.00000000000E+00 0.  1.
         11    1    4    4    0    0 -0.53185390334E+01 -0.28877031688E+02 -0.24436023270E+02  0.38200642011E+02  0.51100000000E-03 0. -1.
        -11    1    4    4    0    0  0.68916956037E+01 -0.24868139475E+01 -0.37954064384E+00  0.73364680375E+01  0.51100000000E-03 0.  1.
        -12    1    4    4    0    0 -0.76638310096E+01  0.15320224781E+01  0.41093841118E+01  0.88299737483E+01  0.00000000000E+00 0.  1.
</event>
<event>
 8    1  0.1265908E-006  0.9118800E+02  0.7816164E-02  0.1184000E+00
        -11   -1    0    0    0    0  0.00000000000E+00  0.00000000000E+00  0.45593999997E+02  0.45594000000E+02  0.51100000000E-03 0. -1.
         11   -1    0    0    0    0 -0.00000000000E+00 -0.00000000000E+00 -0.45593999997E+02  0.45594000000E+02  0.51100000000E-03 0.  1.
         23    2    1    2    0    0  0.00000000000E+00  0.00000000000E+00  0.00000000000E+00  0.91188000000E+02  0.91188000000E+02 0.  0.
    9900012    2    3    3    0    0  0.12372665245E+02  0.25849595809E+02 -0.23119175411E+02  0.54367072249E+02  0.39999972806E+02 0.  0.
         12    1    3    3    0    0 -0.12372665245E+02 -0.25849595809E+02  0.23119175411E+02  0.36820927751E+02  0.00000000000E+00 0. -1.
         11    1    4    4    0    0 -0.38665375027E+01  0.17846270360E+02  0.39621306251E+01  0.18685233671E+02  0.51100000000E-03 0. -1.
        -11    1    4    4    0    0 -0.23190993596E+01  0.18481197211E+01 -0.72482021414E+01  0.78313602195E+01  0.51100000000E-03 0.  1.
         12    1    4    4    0    0  0.18558302108E+02  0.61552057280E+01 -0.19833103895E+02  0.27850478358E+02  0.00000000000E+00 0. -1.
</event>
<event>
 8    1  0.1265908E-006  0.9118800E+02  0.7816164E-02  0.1184000E+00
        -11   -1    0    0    0    0  0.00000000000E+00  0.00000000000E+00  0.45593999997E+02  0.45594000000E+02  0.51100000000E-03 0.  1.
         11   -1    0    0    0    0 -0.00000000000E+00 -0.00000000000E+00 -0.45593999997E+02  0.45594000000E+02  0.51100000000E-03 0. -1.
         23    2    1    2    0    0  0.35527136788E-14  0.17763568394E-14  0.00000000000E+00  0.91188000000E+02  0.91188000000E+02 0.  0.
    9900012    2    3    3    0    0  0.30415463878E+02  0.14298383431E+02 -0.15041114301E+02  0.54367091115E+02  0.40000015816E+02 0.  0.
        -12    1    3    3    0    0 -0.30415463878E+02 -0.14298383431E+02  0.15041114301E+02  0.36820908885E+02  0.00000000000E+00 0.  1.
         11    1    4    4    0    0  0.73090260753E+01  0.16035855120E+02 -0.13568941379E+02  0.22241553048E+02  0.51100000000E-03 0. -1.
        -11    1    4    4    0    0 -0.37053050546E+01  0.30093728557E+01 -0.10796854236E+01  0.48940097473E+01  0.51100000000E-03 0.  1.
         12    1    4    4    0    0  0.26811742858E+02 -0.47468445446E+01 -0.39248749819E+00  0.27231528320E+02  0.00000000000E+00 0. -1.
</event>
<event>
 8    1  0.1265908E-006  0.9118800E+02  0.7816164E-02  0.1184000E+00
        -11   -1    0    0    0    0  0.00000000000E+00  0.00000000000E+00  0.45593999997E+02  0.45594000000E+02  0.51100000000E-03 0. -1.
         11   -1    0    0    0    0 -0.00000000000E+00 -0.00000000000E+00 -0.45593999997E+02  0.45594000000E+02  0.51100000000E-03 0.  1.
         23    2    1    2    0    0  0.35527136788E-14  0.00000000000E+00  0.00000000000E+00  0.91188000000E+02  0.91188000000E+02 0.  0.
    9900012    2    3    3    0    0 -0.21680235547E+02 -0.28650866089E+02  0.80545508801E+01  0.54367074823E+02  0.39999978673E+02 0.  0.
        -12    1    3    3    0    0  0.21680235547E+02  0.28650866089E+02 -0.80545508801E+01  0.36820925177E+02  0.00000000000E+00 0.  1.
         11    1    4    4    0    0  0.14637821311E+01  0.77698543616E+01  0.31754353050E+01  0.85203688045E+01  0.51100000000E-03 0. -1.
        -11    1    4    4    0    0  0.66047521741E+00 -0.47930118214E+01 -0.27030573476E+01  0.55421754861E+01  0.51100000000E-03 0.  1.
         12    1    4    4    0    0 -0.23804492895E+02 -0.31627708630E+02  0.75821729227E+01  0.40304530532E+02  0.00000000000E+00 0. -1.
</event>
<event>
 8    1  0.1265908E-006  0.9118800E+02  0.7816164E-02  0.1184000E+00
        -11   -1    0    0    0    0  0.00000000000E+00  0.00000000000E+00  0.45593999997E+02  0.45594000000E+02  0.51100000000E-03 0.  1.
         11   -1    0    0    0    0 -0.00000000000E+00 -0.00000000000E+00 -0.45593999997E+02  0.45594000000E+02  0.51100000000E-03 0. -1.
         23    2    1    2    0    0  0.00000000000E+00  0.35527136788E-14 -0.17763568394E-14  0.91188000000E+02  0.91188000000E+02 0.  0.
    9900012    2    3    3    0    0  0.16255850243E+02  0.31615924158E+02 -0.95896154712E+01  0.54367081321E+02  0.39999993487E+02 0.  0.
        -12    1    3    3    0    0 -0.16255850243E+02 -0.31615924158E+02  0.95896154712E+01  0.36820918679E+02  0.00000000000E+00 0.  1.
         11    1    4    4    0    0  0.16390066177E+02  0.36452059073E+01  0.80852846914E+00  0.16809982568E+02  0.51100000000E-03 0.  1.
        -11    1    4    4    0    0 -0.17682519709E+01  0.19810774083E+02  0.45912004624E+01  0.20412560025E+02  0.51100000000E-03 0. -1.
         12    1    4    4    0    0  0.16340360368E+01  0.81599441673E+01 -0.14989344403E+02  0.17144538728E+02  0.00000000000E+00 0. -1.
</event>
<event>
 8    1  0.1265908E-006  0.9118800E+02  0.7816164E-02  0.1184000E+00
        -11   -1    0    0    0    0  0.00000000000E+00  0.00000000000E+00  0.45593999997E+02  0.45594000000E+02  0.51100000000E-03 0.  1.
         11   -1    0    0    0    0 -0.00000000000E+00 -0.00000000000E+00 -0.45593999997E+02  0.45594000000E+02  0.51100000000E-03 0. -1.
         23    2    1    2    0    0 -0.88817841970E-15  0.00000000000E+00  0.00000000000E+00  0.91188000000E+02  0.91188000000E+02 0.  0.
    9900012    2    3    3    0    0 -0.61006018392E+01  0.34419864425E+02 -0.11568737039E+02  0.54367080857E+02  0.39999992430E+02 0.  0.
        -12    1    3    3    0    0  0.61006018392E+01 -0.34419864425E+02  0.11568737039E+02  0.36820919143E+02  0.00000000000E+00 0.  1.
         11    1    4    4    0    0  0.83458857585E+01  0.19426341933E+01 -0.43892088311E+01  0.96277095473E+01  0.51100000000E-03 0.  1.
        -11    1    4    4    0    0 -0.74920054516E+01 -0.17127964853E+01 -0.61347763751E+01  0.98335801680E+01  0.51100000000E-03 0. -1.
        -12    1    4    4    0    0 -0.69544821460E+01  0.34190026717E+02 -0.10447518332E+01  0.34905791142E+02  0.00000000000E+00 0.  1.
</event>
<event>
 8    1  0.1265908E-006  0.9118800E+02  0.7816164E-02  0.1184000E+00
        -11   -1    0    0    0    0  0.00000000000E+00  0.00000000000E+00  0.45593999997E+02  0.45594000000E+02  0.51100000000E-03 0.  1.
         11   -1    0    0    0    0 -0.00000000000E+00 -0.00000000000E+00 -0.45593999997E+02  0.45594000000E+02  0.51100000000E-03 0. -1.
         23    2    1    2    0    0  0.17763568394E-14  0.35527136788E-14  0.00000000000E+00  0.91188000000E+02  0.91188000000E+02 0.  0.
    9900012    2    3    3    0    0 -0.53298911299E+01 -0.29193234517E+02  0.21797438977E+02  0.54367068086E+02  0.39999963317E+02 0.  0.
         12    1    3    3    0    0  0.53298911299E+01  0.29193234517E+02 -0.21797438977E+02  0.36820931914E+02  0.00000000000E+00 0. -1.
         11    1    4    4    0    0 -0.88739813650E+01 -0.20705014149E+02  0.34209362765E+01  0.22784818662E+02  0.51100000000E-03 0. -1.
        -11    1    4    4    0    0  0.24796181080E+01 -0.15129303802E+02  0.19455751871E+02  0.24770357701E+02  0.51100000000E-03 0.  1.
        -12    1    4    4    0    0  0.10644721271E+01  0.66410834338E+01 -0.10792491711E+01  0.68118917238E+01  0.00000000000E+00 0.  1.
</event>
<event>
 8    1  0.1265908E-006  0.9118800E+02  0.7816164E-02  0.1184000E+00
        -11   -1    0    0    0    0  0.00000000000E+00  0.00000000000E+00  0.45593999997E+02  0.45594000000E+02  0.51100000000E-03 0. -1.
         11   -1    0    0    0    0 -0.00000000000E+00 -0.00000000000E+00 -0.45593999997E+02  0.45594000000E+02  0.51100000000E-03 0.  1.
         23    2    1    2    0    0 -0.35527136788E-14 -0.17763568394E-14  0.35527136788E-14  0.91188000000E+02  0.91188000000E+02 0.  0.
    9900012    2    3    3    0    0  0.25089364478E+02 -0.13196201602E+02  0.23498205741E+02  0.54367060038E+02  0.39999944969E+02 0.  0.
        -12    1    3    3    0    0 -0.25089364478E+02  0.13196201602E+02 -0.23498205741E+02  0.36820939962E+02  0.00000000000E+00 0.  1.
         11    1    4    4    0    0 -0.67027962732E+01 -0.12584204642E+02  0.19009208366E+00  0.14259236291E+02  0.51100000000E-03 0. -1.
        -11    1    4    4    0    0  0.20955708067E+02  0.27942348167E+01  0.16899543606E+02  0.27065550487E+02  0.51100000000E-03 0.  1.
         12    1    4    4    0    0  0.10836452684E+02 -0.34062317770E+01  0.64085700510E+01  0.13042273260E+02  0.00000000000E+00 0. -1.
</event>
<event>
 8    1  0.1265908E-006  0.9118800E+02  0.7816164E-02  0.1184000E+00
        -11   -1    0    0    0    0  0.00000000000E+00  0.00000000000E+00  0.45593999997E+02  0.45594000000E+02  0.51100000000E-03 0.  1.
         11   -1    0    0    0    0 -0.00000000000E+00 -0.00000000000E+00 -0.45593999997E+02  0.45594000000E+02  0.51100000000E-03 0. -1.
         23    2    1    2    0    0  0.00000000000E+00 -0.17763568394E-14  0.71054273576E-14  0.91188000000E+02  0.91188000000E+02 0.  0.
    9900012    2    3    3    0    0 -0.17854901626E+02  0.90692578452E+01 -0.30898692902E+02  0.54367106841E+02  0.40000051666E+02 0.  0.
        -12    1    3    3    0    0  0.17854901626E+02 -0.90692578452E+01  0.30898692902E+02  0.36820893159E+02  0.00000000000E+00 0.  1.
         11    1    4    4    0    0 -0.10105231828E+02 -0.40019505608E+01 -0.19838715242E+02  0.22620918224E+02  0.51100000000E-03 0. -1.
        -11    1    4    4    0    0 -0.11493706592E+02 -0.35937021154E+01 -0.78272255373E+01  0.14362640634E+02  0.51100000000E-03 0.  1.
        -12    1    4    4    0    0  0.37440367936E+01  0.16664910521E+02 -0.32327521229E+01  0.17383547983E+02  0.00000000000E+00 0.  1.
</event>
<event>
 8    1  0.1265908E-006  0.9118800E+02  0.7816164E-02  0.1184000E+00
        -11   -1    0    0    0    0  0.00000000000E+00  0.00000000000E+00  0.45593999997E+02  0.45594000000E+02  0.51100000000E-03 0. -1.
         11   -1    0    0    0    0 -0.00000000000E+00 -0.00000000000E+00 -0.45593999997E+02  0.45594000000E+02  0.51100000000E-03 0.  1.
         23    2    1    2    0    0 -0.44408920985E-15 -0.88817841970E-15  0.00000000000E+00  0.91188000000E+02  0.91188000000E+02 0.  0.
    9900012    2    3    3    0    0  0.31785589289E+01 -0.21897709507E+01  0.36618057005E+02  0.54367076159E+02  0.39999981719E+02 0.  0.
        -12    1    3    3    0    0 -0.31785589289E+01  0.21897709507E+01 -0.36618057005E+02  0.36820923841E+02  0.00000000000E+00 0.  1.
         11    1    4    4    0    0 -0.98150309349E+00 -0.77965574176E+01  0.21261482607E+02  0.22667163448E+02  0.51100000000E-03 0. -1.
        -11    1    4    4    0    0  0.77060847158E+01  0.14884353433E+02  0.13663493307E+02  0.21624494639E+02  0.51100000000E-03 0.  1.
        -12    1    4    4    0    0 -0.35460226934E+01 -0.92775669657E+01  0.16930810914E+01  0.10075418072E+02  0.00000000000E+00 0.  1.
</event>
<event>
 8    1  0.1265908E-006  0.9118800E+02  0.7816164E-02  0.1184000E+00
        -11   -1    0    0    0    0  0.00000000000E+00  0.00000000000E+00  0.45593999997E+02  0.45594000000E+02  0.51100000000E-03 0.  1.
         11   -1    0    0    0    0 -0.00000000000E+00 -0.00000000000E+00 -0.45593999997E+02  0.45594000000E+02  0.51100000000E-03 0. -1.
         23    2    1    2    0    0  0.00000000000E+00  0.00000000000E+00 -0.88817841970E-15  0.91188000000E+02  0.91188000000E+02 0.  0.
    9900012    2    3    3    0    0 -0.21593746779E+02  0.29007652141E+02  0.69315117308E+01  0.54367086954E+02  0.40000006329E+02 0.  0.
        -12    1    3    3    0    0  0.21593746779E+02 -0.29007652141E+02 -0.69315117308E+01  0.36820913046E+02  0.00000000000E+00 0.  1.
         11    1    4    4    0    0 -0.14568364655E+02  0.28421000603E+02 -0.20340490910E+01  0.32001998062E+02  0.51100000000E-03 0. -1.
        -11    1    4    4    0    0 -0.32133909281E+01  0.14566056689E+01  0.14870315835E+02  0.15283123851E+02  0.51100000000E-03 0.  1.
         12    1    4    4    0    0 -0.38119911959E+01 -0.86995413111E+00 -0.59047550137E+01  0.70819650408E+01  0.00000000000E+00 0. -1.
</event>
<event>
 8    1  0.1265908E-006  0.9118800E+02  0.7816164E-02  0.1184000E+00
        -11   -1    0    0    0    0  0.00000000000E+00  0.00000000000E+00  0.45593999997E+02  0.45594000000E+02  0.51100000000E-03 0.  1.
         11   -1    0    0    0    0 -0.00000000000E+00 -0.00000000000E+00 -0.45593999997E+02  0.45594000000E+02  0.51100000000E-03 0. -1.
         23    2    1    2    0    0  0.19984014443E-14  0.00000000000E+00  0.00000000000E+00  0.91188000000E+02  0.91188000000E+02 0.  0.
    9900012    2    3    3    0    0  0.15251904000E+01  0.95653412640E+01  0.35524049139E+02  0.54367081673E+02  0.39999994290E+02 0.  0.
         12    1    3    3    0    0 -0.15251904000E+01 -0.95653412640E+01 -0.35524049139E+02  0.36820918327E+02  0.00000000000E+00 0. -1.
         11    1    4    4    0    0 -0.70666113453E+01 -0.52308091535E+01 -0.23504396045E+01  0.91007102416E+01  0.51100000000E-03 0. -1.
        -11    1    4    4    0    0  0.37186747505E+01  0.75590819693E+01  0.24356050047E+01  0.87692892596E+01  0.51100000000E-03 0.  1.
         12    1    4    4    0    0  0.48731269947E+01  0.72370684481E+01  0.35438883738E+02  0.36497082172E+02  0.00000000000E+00 0. -1.
</event>
<event>
 8    1  0.1265908E-006  0.9118800E+02  0.7816164E-02  0.1184000E+00
        -11   -1    0    0    0    0  0.00000000000E+00  0.00000000000E+00  0.45593999997E+02  0.45594000000E+02  0.51100000000E-03 0.  1.
         11   -1    0    0    0    0 -0.00000000000E+00 -0.00000000000E+00 -0.45593999997E+02  0.45594000000E+02  0.51100000000E-03 0. -1.
         23    2    1    2    0    0  0.35527136788E-14  0.35527136788E-14  0.35527136788E-14  0.91188000000E+02  0.91188000000E+02 0.  0.
    9900012    2    3    3    0    0 -0.24333545547E+02 -0.70996592556E+01 -0.26706796664E+02  0.54367087620E+02  0.40000007848E+02 0.  0.
        -12    1    3    3    0    0  0.24333545547E+02  0.70996592556E+01  0.26706796664E+02  0.36820912380E+02  0.00000000000E+00 0.  1.
         11    1    4    4    0    0 -0.12305570454E+02 -0.45417823567E+01 -0.11303993044E+02  0.17315747462E+02  0.51100000000E-03 0. -1.
        -11    1    4    4    0    0 -0.20457179330E+01  0.14087847324E+02 -0.75469329138E+01  0.16112374150E+02  0.51100000000E-03 0.  1.
        -12    1    4    4    0    0 -0.99822571594E+01 -0.16645724223E+02 -0.78558707064E+01  0.20938966008E+02  0.00000000000E+00 0.  1.
</event>
<event>
 8    1  0.1265908E-006  0.9118800E+02  0.7816164E-02  0.1184000E+00
        -11   -1    0    0    0    0  0.00000000000E+00  0.00000000000E+00  0.45593999997E+02  0.45594000000E+02  0.51100000000E-03 0.  1.
         11   -1    0    0    0    0 -0.00000000000E+00 -0.00000000000E+00 -0.45593999997E+02  0.45594000000E+02  0.51100000000E-03 0. -1.
         23    2    1    2    0    0  0.35527136788E-14  0.00000000000E+00  0.00000000000E+00  0.91188000000E+02  0.91188000000E+02 0.  0.
    9900012    2    3    3    0    0 -0.29081761581E+02  0.10345277624E+02  0.20075024323E+02  0.54367078945E+02  0.39999988070E+02 0.  0.
         12    1    3    3    0    0  0.29081761581E+02 -0.10345277624E+02 -0.20075024323E+02  0.36820921055E+02  0.00000000000E+00 0. -1.
         11    1    4    4    0    0 -0.75498321113E+01  0.11651831517E+02 -0.39596600146E+01  0.14437591568E+02  0.51100000000E-03 0. -1.
        -11    1    4    4    0    0 -0.16415751415E+02  0.88068580373E+01  0.79538178641E+01  0.20255884623E+02  0.51100000000E-03 0.  1.
         12    1    4    4    0    0 -0.51161780555E+01 -0.10113411930E+02  0.16080866473E+02  0.19673602753E+02  0.00000000000E+00 0. -1.
</event>
<event>
 8    1  0.1265908E-006  0.9118800E+02  0.7816164E-02  0.1184000E+00
        -11   -1    0    0    0    0  0.00000000000E+00  0.00000000000E+00  0.45593999997E+02  0.45594000000E+02  0.51100000000E-03 0.  1.
         11   -1    0    0    0    0 -0.00000000000E+00 -0.00000000000E+00 -0.45593999997E+02  0.45594000000E+02  0.51100000000E-03 0. -1.
         23    2    1    2    0    0  0.88817841970E-15  0.00000000000E+00  0.00000000000E+00  0.91188000000E+02  0.91188000000E+02 0.  0.
    9900012    2    3    3    0    0  0.79692933422E+01 -0.35543593762E+02 -0.53779272731E+01  0.54367098386E+02  0.40000032391E+02 0.  0.
         12    1    3    3    0    0 -0.79692933422E+01  0.35543593762E+02  0.53779272731E+01  0.36820901614E+02  0.00000000000E+00 0. -1.
         11    1    4    4    0    0  0.12603389796E+02 -0.35293923525E+02 -0.29613492792E+01  0.37593564103E+02  0.51100000000E-03 0.  1.
        -11    1    4    4    0    0  0.27407764995E+00 -0.58072772060E+01 -0.61576536944E+01  0.84685468876E+01  0.51100000000E-03 0. -1.
         12    1    4    4    0    0 -0.49081741041E+01  0.55576069687E+01  0.37410757005E+01  0.83049873963E+01  0.00000000000E+00 0. -1.
</event>
<event>
 8    1  0.1265908E-006  0.9118800E+02  0.7816164E-02  0.1184000E+00
        -11   -1    0    0    0    0  0.00000000000E+00  0.00000000000E+00  0.45593999997E+02  0.45594000000E+02  0.51100000000E-03 0.  1.
         11   -1    0    0    0    0 -0.00000000000E+00 -0.00000000000E+00 -0.45593999997E+02  0.45594000000E+02  0.51100000000E-03 0. -1.
         23    2    1    2    0    0  0.00000000000E+00 -0.17763568394E-14  0.00000000000E+00  0.91188000000E+02  0.91188000000E+02 0.  0.
    9900012    2    3    3    0    0 -0.93305314855E+01 -0.10757997984E+02  0.33955667689E+02  0.54367072436E+02  0.39999973233E+02 0.  0.
         12    1    3    3    0    0  0.93305314855E+01  0.10757997984E+02 -0.33955667689E+02  0.36820927564E+02  0.00000000000E+00 0. -1.
         11    1    4    4    0    0 -0.10547074245E+02 -0.18202081542E+02  0.74724220262E+01  0.22324731550E+02  0.51100000000E-03 0. -1.
        -11    1    4    4    0    0 -0.63623993742E+01  0.58924628716E+01  0.72211393025E+01  0.11284772819E+02  0.51100000000E-03 0.  1.
        -12    1    4    4    0    0  0.75789421340E+01  0.15516206860E+01  0.19262106360E+02  0.20757568067E+02  0.00000000000E+00 0.  1.
</event>
<event>
 8    1  0.1265908E-006  0.9118800E+02  0.7816164E-02  0.1184000E+00
        -11   -1    0    0    0    0  0.00000000000E+00  0.00000000000E+00  0.45593999997E+02  0.45594000000E+02  0.51100000000E-03 0.  1.
         11   -1    0    0    0    0 -0.00000000000E+00 -0.00000000000E+00 -0.45593999997E+02  0.45594000000E+02  0.51100000000E-03 0. -1.
         23    2    1    2    0    0 -0.88817841970E-15  0.17763568394E-14  0.71054273576E-14  0.91188000000E+02  0.91188000000E+02 0.  0.
    9900012    2    3    3    0    0  0.36590863521E+01 -0.11129123866E+02 -0.34907500638E+02  0.54367083230E+02  0.39999997841E+02 0.  0.
        -12    1    3    3    0    0 -0.36590863521E+01  0.11129123866E+02  0.34907500638E+02  0.36820916770E+02  0.00000000000E+00 0.  1.
         11    1    4    4    0    0 -0.11102990256E+02 -0.15162742752E+02 -0.15954149083E+02  0.24651978290E+02  0.51100000000E-03 0. -1.
        -11    1    4    4    0    0  0.91426234437E+01 -0.48842941196E+01 -0.33661212524E+01  0.10898379009E+02  0.51100000000E-03 0.  1.
        -12    1    4    4    0    0  0.56194531644E+01  0.89179130064E+01 -0.15587230303E+02  0.18816725931E+02  0.00000000000E+00 0.  1.
</event>
<event>
 8    1  0.1265908E-006  0.9118800E+02  0.7816164E-02  0.1184000E+00
        -11   -1    0    0    0    0  0.00000000000E+00  0.00000000000E+00  0.45593999997E+02  0.45594000000E+02  0.51100000000E-03 0.  1.
         11   -1    0    0    0    0 -0.00000000000E+00 -0.00000000000E+00 -0.45593999997E+02  0.45594000000E+02  0.51100000000E-03 0. -1.
         23    2    1    2    0    0  0.27755575616E-15  0.71054273576E-14 -0.88817841970E-15  0.91188000000E+02  0.91188000000E+02 0.  0.
    9900012    2    3    3    0    0  0.14948986245E+00 -0.36153878179E+02  0.69753070690E+01  0.54367079814E+02  0.39999990053E+02 0.  0.
         12    1    3    3    0    0 -0.14948986245E+00  0.36153878179E+02 -0.69753070690E+01  0.36820920186E+02  0.00000000000E+00 0. -1.
         11    1    4    4    0    0 -0.38765669061E+01  0.48535632003E+01  0.28192236974E+00  0.62180645864E+01  0.51100000000E-03 0. -1.
        -11    1    4    4    0    0  0.13303075495E+02 -0.31172202208E+02  0.24588710194E+01  0.33981230923E+02  0.51100000000E-03 0.  1.
        -12    1    4    4    0    0 -0.92770187260E+01 -0.98352391712E+01  0.42345136798E+01  0.14167784305E+02  0.00000000000E+00 0.  1.
</event>
<event>
 8    1  0.1265908E-006  0.9118800E+02  0.7816164E-02  0.1184000E+00
        -11   -1    0    0    0    0  0.00000000000E+00  0.00000000000E+00  0.45593999997E+02  0.45594000000E+02  0.51100000000E-03 0.  1.
         11   -1    0    0    0    0 -0.00000000000E+00 -0.00000000000E+00 -0.45593999997E+02  0.45594000000E+02  0.51100000000E-03 0. -1.
         23    2    1    2    0    0 -0.35527136788E-14  0.00000000000E+00  0.00000000000E+00  0.91188000000E+02  0.91188000000E+02 0.  0.
    9900012    2    3    3    0    0 -0.30875161888E+02  0.71771737624E+01 -0.18734718345E+02  0.54367121190E+02  0.40000084378E+02 0.  0.
        -12    1    3    3    0    0  0.30875161888E+02 -0.71771737624E+01  0.18734718345E+02  0.36820878810E+02  0.00000000000E+00 0.  1.
         11    1    4    4    0    0 -0.26518594905E+02 -0.36173154230E+00 -0.22005051832E+02  0.34461413666E+02  0.51100000000E-03 0. -1.
        -11    1    4    4    0    0 -0.64964715615E+01  0.49874182511E+01  0.96816187016E+01  0.12681175991E+02  0.51100000000E-03 0.  1.
        -12    1    4    4    0    0  0.21399045781E+01  0.25514870536E+01 -0.64112852144E+01  0.72245315342E+01  0.00000000000E+00 0.  1.
</event>
<event>
 8    1  0.1265908E-006  0.9118800E+02  0.7816164E-02  0.1184000E+00
        -11   -1    0    0    0    0  0.00000000000E+00  0.00000000000E+00  0.45593999997E+02  0.45594000000E+02  0.51100000000E-03 0. -1.
         11   -1    0    0    0    0 -0.00000000000E+00 -0.00000000000E+00 -0.45593999997E+02  0.45594000000E+02  0.51100000000E-03 0.  1.
         23    2    1    2    0    0  0.00000000000E+00 -0.17763568394E-14  0.00000000000E+00  0.91188000000E+02  0.91188000000E+02 0.  0.
    9900012    2    3    3    0    0 -0.89558584524E+01  0.11053837201E+02  0.33961538863E+02  0.54367070633E+02  0.39999969123E+02 0.  0.
        -12    1    3    3    0    0  0.89558584524E+01 -0.11053837201E+02 -0.33961538863E+02  0.36820929367E+02  0.00000000000E+00 0.  1.
         11    1    4    4    0    0  0.69082353305E+00 -0.62066249992E+00  0.14246231917E+01  0.17005912478E+01  0.51100000000E-03 0. -1.
        -11    1    4    4    0    0  0.11860909361E+02 -0.36394090109E+01  0.24656986183E+01  0.12649353294E+02  0.51100000000E-03 0.  1.
         12    1    4    4    0    0 -0.21507591347E+02  0.15313908712E+02  0.30071217053E+02  0.40017126091E+02  0.00000000000E+00 0. -1.
</event>
<event>
 8    1  0.1265908E-006  0.9118800E+02  0.7816164E-02  0.1184000E+00
        -11   -1    0    0    0    0  0.00000000000E+00  0.00000000000E+00  0.45593999997E+02  0.45594000000E+02  0.51100000000E-03 0.  1.
         11   -1    0    0    0    0 -0.00000000000E+00 -0.00000000000E+00 -0.45593999997E+02  0.45594000000E+02  0.51100000000E-03 0. -1.
         23    2    1    2    0    0 -0.17763568394E-14  0.71054273576E-14  0.00000000000E+00  0.91188000000E+02  0.91188000000E+02 0.  0.
    9900012    2    3    3    0    0 -0.37839993366E+01  0.27631448086E+02  0.24040879472E+02  0.54367089363E+02  0.40000011822E+02 0.  0.
         12    1    3    3    0    0  0.37839993366E+01 -0.27631448086E+02 -0.24040879472E+02  0.36820910637E+02  0.00000000000E+00 0. -1.
         11    1    4    4    0    0 -0.88229878187E+01  0.12781033552E+02 -0.53789019578E+01  0.16435708663E+02  0.51100000000E-03 0. -1.
        -11    1    4    4    0    0  0.10660503389E+02  0.52166256151E+01  0.99258285527E+01  0.15471961350E+02  0.51100000000E-03 0.  1.
         12    1    4    4    0    0 -0.56215149065E+01  0.96337889184E+01  0.19493952877E+02  0.22459419350E+02  0.00000000000E+00 0. -1.
</event>
<event>
 8    1  0.1265908E-006  0.9118800E+02  0.7816164E-02  0.1184000E+00
        -11   -1    0    0    0    0  0.00000000000E+00  0.00000000000E+00  0.45593999997E+02  0.45594000000E+02  0.51100000000E-03 0.  1.
         11   -1    0    0    0    0 -0.00000000000E+00 -0.00000000000E+00 -0.45593999997E+02  0.45594000000E+02  0.51100000000E-03 0. -1.
         23    2    1    2    0    0  0.00000000000E+00  0.00000000000E+00 -0.35527136788E-14  0.91188000000E+02  0.91188000000E+02 0.  0.
    9900012    2    3    3    0    0  0.22237603507E+02 -0.80130128122E+01 -0.28232261869E+02  0.54367082109E+02  0.39999995284E+02 0.  0.
        -12    1    3    3    0    0 -0.22237603507E+02  0.80130128122E+01  0.28232261869E+02  0.36820917891E+02  0.00000000000E+00 0.  1.
         11    1    4    4    0    0 -0.29394087492E+00  0.60460862192E+01 -0.17903567526E+01  0.63124430588E+01  0.51100000000E-03 0. -1.
        -11    1    4    4    0    0  0.17165620969E+02  0.22923631909E+01 -0.25493216129E+02  0.30819109999E+02  0.51100000000E-03 0.  1.
        -12    1    4    4    0    0  0.53659234138E+01 -0.16351462222E+02 -0.94868898730E+00  0.17235529051E+02  0.00000000000E+00 0.  1.
</event>
<event>
 8    1  0.1265908E-006  0.9118800E+02  0.7816164E-02  0.1184000E+00
        -11   -1    0    0    0    0  0.00000000000E+00  0.00000000000E+00  0.45593999997E+02  0.45594000000E+02  0.51100000000E-03 0. -1.
         11   -1    0    0    0    0 -0.00000000000E+00 -0.00000000000E+00 -0.45593999997E+02  0.45594000000E+02  0.51100000000E-03 0.  1.
         23    2    1    2    0    0  0.00000000000E+00 -0.17763568394E-14  0.00000000000E+00  0.91188000000E+02  0.91188000000E+02 0.  0.
    9900012    2    3    3    0    0  0.30338496630E+02 -0.10299008279E+02  0.18146252691E+02  0.54367076112E+02  0.39999981612E+02 0.  0.
         12    1    3    3    0    0 -0.30338496630E+02  0.10299008279E+02 -0.18146252691E+02  0.36820923888E+02  0.00000000000E+00 0. -1.
         11    1    4    4    0    0  0.24163491062E+02 -0.12818136248E+02  0.20370790375E+02  0.34104955914E+02  0.51100000000E-03 0. -1.
        -11    1    4    4    0    0  0.79224144678E+01 -0.14211515914E+01 -0.90989996406E+01  0.12148091108E+02  0.51100000000E-03 0.  1.
         12    1    4    4    0    0 -0.17474088999E+01  0.39402795601E+01  0.68744619563E+01  0.81140290894E+01  0.00000000000E+00 0. -1.
</event>
<event>
 8    1  0.1265908E-006  0.9118800E+02  0.7816164E-02  0.1184000E+00
        -11   -1    0    0    0    0  0.00000000000E+00  0.00000000000E+00  0.45593999997E+02  0.45594000000E+02  0.51100000000E-03 0.  1.
         11   -1    0    0    0    0 -0.00000000000E+00 -0.00000000000E+00 -0.45593999997E+02  0.45594000000E+02  0.51100000000E-03 0. -1.
         23    2    1    2    0    0  0.00000000000E+00  0.00000000000E+00  0.00000000000E+00  0.91188000000E+02  0.91188000000E+02 0.  0.
    9900012    2    3    3    0    0 -0.33000518232E+02  0.89331565668E+01  0.13672753392E+02  0.54367086443E+02  0.40000005164E+02 0.  0.
         12    1    3    3    0    0  0.33000518232E+02 -0.89331565668E+01 -0.13672753392E+02  0.36820913557E+02  0.00000000000E+00 0. -1.
         11    1    4    4    0    0 -0.22387124529E+02 -0.87515510787E+01  0.17524901605E+02  0.29747187556E+02  0.51100000000E-03 0. -1.
        -11    1    4    4    0    0 -0.42052814048E+01  0.10533625260E+02  0.41936169752E+01  0.12092480159E+02  0.51100000000E-03 0.  1.
         12    1    4    4    0    0 -0.64081122987E+01  0.71510823855E+01 -0.80457651880E+01  0.12527418728E+02  0.00000000000E+00 0. -1.
</event>
<event>
 8    1  0.1265908E-006  0.9118800E+02  0.7816164E-02  0.1184000E+00
        -11   -1    0    0    0    0  0.00000000000E+00  0.00000000000E+00  0.45593999997E+02  0.45594000000E+02  0.51100000000E-03 0.  1.
         11   -1    0    0    0    0 -0.00000000000E+00 -0.00000000000E+00 -0.45593999997E+02  0.45594000000E+02  0.51100000000E-03 0. -1.
         23    2    1    2    0    0  0.00000000000E+00  0.00000000000E+00  0.00000000000E+00  0.91188000000E+02  0.91188000000E+02 0.  0.
    9900012    2    3    3    0    0 -0.86587543473E+01  0.12172591119E+02  0.33654616643E+02  0.54367092586E+02  0.40000019168E+02 0.  0.
         12    1    3    3    0    0  0.86587543473E+01 -0.12172591119E+02 -0.33654616643E+02  0.36820907414E+02  0.00000000000E+00 0. -1.
         11    1    4    4    0    0  0.90172651887E+01 -0.68674977242E-01 -0.12575591681E+01  0.91047923128E+01  0.51100000000E-03 0. -1.
        -11    1    4    4    0    0 -0.15313592417E+02  0.82232958196E+01  0.10282582815E+02  0.20195549422E+02  0.51100000000E-03 0.  1.
         12    1    4    4    0    0 -0.23624271189E+01  0.40179702767E+01  0.24629592997E+02  0.25066750851E+02  0.00000000000E+00 0. -1.
</event>
<event>
 8    1  0.1265908E-006  0.9118800E+02  0.7816164E-02  0.1184000E+00
        -11   -1    0    0    0    0  0.00000000000E+00  0.00000000000E+00  0.45593999997E+02  0.45594000000E+02  0.51100000000E-03 0. -1.
         11   -1    0    0    0    0 -0.00000000000E+00 -0.00000000000E+00 -0.45593999997E+02  0.45594000000E+02  0.51100000000E-03 0.  1.
         23    2    1    2    0    0  0.00000000000E+00 -0.71054273576E-14  0.61062266354E-15  0.91188000000E+02  0.91188000000E+02 0.  0.
    9900012    2    3    3    0    0 -0.10865598639E+02 -0.35180405404E+02 -0.24241518726E+00  0.54367069494E+02  0.39999966526E+02 0.  0.
        -12    1    3    3    0    0  0.10865598639E+02  0.35180405404E+02  0.24241518726E+00  0.36820930506E+02  0.00000000000E+00 0.  1.
         11    1    4    4    0    0 -0.84687456810E+01 -0.73766248188E+01  0.68407532634E+00  0.11251764592E+02  0.51100000000E-03 0. -1.
        -11    1    4    4    0    0 -0.11297976320E+02 -0.91102343974E+01 -0.12710287531E+02  0.19292279520E+02  0.51100000000E-03 0.  1.
        -12    1    4    4    0    0  0.89011233618E+01 -0.18693546188E+02  0.11783797018E+02  0.23823025382E+02  0.00000000000E+00 0.  1.
</event>
<event>
 8    1  0.1265908E-006  0.9118800E+02  0.7816164E-02  0.1184000E+00
        -11   -1    0    0    0    0  0.00000000000E+00  0.00000000000E+00  0.45593999997E+02  0.45594000000E+02  0.51100000000E-03 0.  1.
         11   -1    0    0    0    0 -0.00000000000E+00 -0.00000000000E+00 -0.45593999997E+02  0.45594000000E+02  0.51100000000E-03 0. -1.
         23    2    1    2    0    0  0.00000000000E+00  0.00000000000E+00  0.00000000000E+00  0.91188000000E+02  0.91188000000E+02 0.  0.
    9900012    2    3    3    0    0  0.10904452173E+02 -0.26203221389E+02  0.23457698982E+02  0.54367088415E+02  0.40000009661E+02 0.  0.
        -12    1    3    3    0    0 -0.10904452173E+02  0.26203221389E+02 -0.23457698982E+02  0.36820911585E+02  0.00000000000E+00 0.  1.
         11    1    4    4    0    0 -0.28368399216E+01 -0.11041145530E+02 -0.11630073092E+01  0.11458932830E+02  0.51100000000E-03 0. -1.
        -11    1    4    4    0    0 -0.16523278969E+00  0.30042544507E+01 -0.47841173877E+01  0.56516038537E+01  0.51100000000E-03 0.  1.
        -12    1    4    4    0    0  0.13906524884E+02 -0.18166330310E+02  0.29404823679E+02  0.37256551731E+02  0.00000000000E+00 0.  1.
</event>
<event>
 8    1  0.1265908E-006  0.9118800E+02  0.7816164E-02  0.1184000E+00
        -11   -1    0    0    0    0  0.00000000000E+00  0.00000000000E+00  0.45593999997E+02  0.45594000000E+02  0.51100000000E-03 0.  1.
         11   -1    0    0    0    0 -0.00000000000E+00 -0.00000000000E+00 -0.45593999997E+02  0.45594000000E+02  0.51100000000E-03 0. -1.
         23    2    1    2    0    0  0.13322676296E-14  0.35527136788E-14 -0.35527136788E-14  0.91188000000E+02  0.91188000000E+02 0.  0.
    9900012    2    3    3    0    0  0.29651468660E+01 -0.31309281661E+02  0.19149832504E+02  0.54367091551E+02  0.40000016809E+02 0.  0.
         12    1    3    3    0    0 -0.29651468660E+01  0.31309281661E+02 -0.19149832504E+02  0.36820908449E+02  0.00000000000E+00 0. -1.
         11    1    4    4    0    0 -0.89401300640E+01 -0.10267451608E+02 -0.81967179699E+00  0.13638854431E+02  0.51100000000E-03 0. -1.
        -11    1    4    4    0    0  0.12370847813E+02 -0.24349776365E+02  0.82335978330E+01  0.28526156737E+02  0.51100000000E-03 0.  1.
         12    1    4    4    0    0 -0.46557088346E+00  0.33079463116E+01  0.11735906468E+02  0.12202080383E+02  0.00000000000E+00 0. -1.
</event>
<event>
 8    1  0.1265908E-006  0.9118800E+02  0.7816164E-02  0.1184000E+00
        -11   -1    0    0    0    0  0.00000000000E+00  0.00000000000E+00  0.45593999997E+02  0.45594000000E+02  0.51100000000E-03 0. -1.
         11   -1    0    0    0    0 -0.00000000000E+00 -0.00000000000E+00 -0.45593999997E+02  0.45594000000E+02  0.51100000000E-03 0.  1.
         23    2    1    2    0    0 -0.35527136788E-14 -0.35527136788E-14 -0.35527136788E-14  0.91188000000E+02  0.91188000000E+02 0.  0.
    9900012    2    3    3    0    0 -0.18600102359E+02 -0.21441419131E+02 -0.23453811365E+02  0.54367088419E+02  0.40000009669E+02 0.  0.
         12    1    3    3    0    0  0.18600102359E+02  0.21441419131E+02  0.23453811365E+02  0.36820911581E+02  0.00000000000E+00 0. -1.
         11    1    4    4    0    0 -0.28558895062E+01 -0.70850559049E+01 -0.24231038795E+02  0.25406640144E+02  0.51100000000E-03 0. -1.
        -11    1    4    4    0    0 -0.11865402188E+02 -0.19209750819E+02 -0.64020964579E+00  0.22587876489E+02  0.51100000000E-03 0.  1.
         12    1    4    4    0    0 -0.38788106646E+01  0.48533875929E+01  0.14174370765E+01  0.63725717858E+01  0.00000000000E+00 0. -1.
</event>
<event>
 8    1  0.1265908E-006  0.9118800E+02  0.7816164E-02  0.1184000E+00
        -11   -1    0    0    0    0  0.00000000000E+00  0.00000000000E+00  0.45593999997E+02  0.45594000000E+02  0.51100000000E-03 0. -1.
         11   -1    0    0    0    0 -0.00000000000E+00 -0.00000000000E+00 -0.45593999997E+02  0.45594000000E+02  0.51100000000E-03 0.  1.
         23    2    1    2    0    0  0.00000000000E+00  0.17763568394E-14 -0.71054273576E-14  0.91188000000E+02  0.91188000000E+02 0.  0.
    9900012    2    3    3    0    0  0.24585172900E+02  0.13498555444E+02 -0.23856616916E+02  0.54367083441E+02  0.39999998320E+02 0.  0.
         12    1    3    3    0    0 -0.24585172900E+02 -0.13498555444E+02  0.23856616916E+02  0.36820916559E+02  0.00000000000E+00 0. -1.
         11    1    4    4    0    0  0.13007245102E+02  0.15393252421E+02 -0.19173320544E+02  0.27816485511E+02  0.51100000000E-03 0. -1.
        -11    1    4    4    0    0  0.48839770898E+01  0.96104475017E+01 -0.72542715366E+01  0.12993782713E+02  0.51100000000E-03 0.  1.
        -12    1    4    4    0    0  0.66939507082E+01 -0.11505144478E+02  0.25709751644E+01  0.13556815218E+02  0.00000000000E+00 0.  1.
</event>
<event>
 8    1  0.1265908E-006  0.9118800E+02  0.7816164E-02  0.1184000E+00
        -11   -1    0    0    0    0  0.00000000000E+00  0.00000000000E+00  0.45593999997E+02  0.45594000000E+02  0.51100000000E-03 0.  1.
         11   -1    0    0    0    0 -0.00000000000E+00 -0.00000000000E+00 -0.45593999997E+02  0.45594000000E+02  0.51100000000E-03 0. -1.
         23    2    1    2    0    0  0.88817841970E-15  0.17763568394E-14  0.71054273576E-14  0.91188000000E+02  0.91188000000E+02 0.  0.
    9900012    2    3    3    0    0 -0.44945149447E+01 -0.80915787879E+01 -0.35638535277E+02  0.54367088706E+02  0.40000010323E+02 0.  0.
        -12    1    3    3    0    0  0.44945149447E+01  0.80915787879E+01  0.35638535277E+02  0.36820911294E+02  0.00000000000E+00 0.  1.
         11    1    4    4    0    0  0.18014592720E+01 -0.26380263640E+01 -0.18153835135E+02  0.18432747190E+02  0.51100000000E-03 0. -1.
        -11    1    4    4    0    0 -0.28394769908E+01  0.10463769988E+02 -0.16334704710E+02  0.19605501528E+02  0.51100000000E-03 0.  1.
        -12    1    4    4    0    0 -0.34564972259E+01 -0.15917322412E+02 -0.11499954318E+01  0.16328839988E+02  0.00000000000E+00 0.  1.
</event>
<event>
 8    1  0.1265908E-006  0.9118800E+02  0.7816164E-02  0.1184000E+00
        -11   -1    0    0    0    0  0.00000000000E+00  0.00000000000E+00  0.45593999997E+02  0.45594000000E+02  0.51100000000E-03 0. -1.
         11   -1    0    0    0    0 -0.00000000000E+00 -0.00000000000E+00 -0.45593999997E+02  0.45594000000E+02  0.51100000000E-03 0.  1.
         23    2    1    2    0    0  0.35527136788E-14  0.00000000000E+00 -0.17763568394E-14  0.91188000000E+02  0.91188000000E+02 0.  0.
    9900012    2    3    3    0    0 -0.20841537552E+02  0.28709475558E+02  0.98578090780E+01  0.54367081024E+02  0.39999992812E+02 0.  0.
        -12    1    3    3    0    0  0.20841537552E+02 -0.28709475558E+02 -0.98578090780E+01  0.36820918976E+02  0.00000000000E+00 0.  1.
         11    1    4    4    0    0 -0.98962391349E+01  0.26208632622E+02  0.13601002514E+02  0.31141856761E+02  0.51100000000E-03 0. -1.
        -11    1    4    4    0    0 -0.13367410651E+02  0.68003479501E+01  0.25656469608E+01  0.15215615148E+02  0.51100000000E-03 0.  1.
         12    1    4    4    0    0  0.24221122334E+01 -0.42995050132E+01 -0.63088403963E+01  0.80096091151E+01  0.00000000000E+00 0. -1.
</event>
<event>
 8    1  0.1265908E-006  0.9118800E+02  0.7816164E-02  0.1184000E+00
        -11   -1    0    0    0    0  0.00000000000E+00  0.00000000000E+00  0.45593999997E+02  0.45594000000E+02  0.51100000000E-03 0. -1.
         11   -1    0    0    0    0 -0.00000000000E+00 -0.00000000000E+00 -0.45593999997E+02  0.45594000000E+02  0.51100000000E-03 0.  1.
         23    2    1    2    0    0  0.00000000000E+00  0.00000000000E+00 -0.35527136788E-14  0.91188000000E+02  0.91188000000E+02 0.  0.
    9900012    2    3    3    0    0  0.22615019368E+02  0.62578681698E+01 -0.28375699775E+02  0.54367077241E+02  0.39999984187E+02 0.  0.
         12    1    3    3    0    0 -0.22615019368E+02 -0.62578681698E+01  0.28375699775E+02  0.36820922759E+02  0.00000000000E+00 0. -1.
         11    1    4    4    0    0 -0.63772111198E+01 -0.79202090303E+00  0.15911160642E+01  0.66202544792E+01  0.51100000000E-03 0. -1.
        -11    1    4    4    0    0  0.14836815818E+02  0.48030925010E+01 -0.29544768129E+02  0.33407994930E+02  0.51100000000E-03 0.  1.
        -12    1    4    4    0    0  0.14155414670E+02  0.22467965718E+01 -0.42204771052E+00  0.14338827832E+02  0.00000000000E+00 0.  1.
</event>
<event>
 8    1  0.1265908E-006  0.9118800E+02  0.7816164E-02  0.1184000E+00
        -11   -1    0    0    0    0  0.00000000000E+00  0.00000000000E+00  0.45593999997E+02  0.45594000000E+02  0.51100000000E-03 0. -1.
         11   -1    0    0    0    0 -0.00000000000E+00 -0.00000000000E+00 -0.45593999997E+02  0.45594000000E+02  0.51100000000E-03 0.  1.
         23    2    1    2    0    0  0.35527136788E-14  0.00000000000E+00  0.35527136788E-14  0.91188000000E+02  0.91188000000E+02 0.  0.
    9900012    2    3    3    0    0 -0.17882429808E+02  0.23793201190E+02 -0.21676801393E+02  0.54367062514E+02  0.39999950614E+02 0.  0.
         12    1    3    3    0    0  0.17882429808E+02 -0.23793201190E+02  0.21676801393E+02  0.36820937486E+02  0.00000000000E+00 0. -1.
         11    1    4    4    0    0 -0.15200738385E+02  0.13285207293E+02 -0.23570692202E+02  0.31034443952E+02  0.51100000000E-03 0. -1.
        -11    1    4    4    0    0 -0.92429183167E+01  0.11739353859E+02 -0.27608446637E+01  0.15194282858E+02  0.51100000000E-03 0.  1.
         12    1    4    4    0    0  0.65612268938E+01 -0.12313599629E+01  0.46547354732E+01  0.81383357042E+01  0.00000000000E+00 0. -1.
</event>
<event>
 8    1  0.1265908E-006  0.9118800E+02  0.7816164E-02  0.1184000E+00
        -11   -1    0    0    0    0  0.00000000000E+00  0.00000000000E+00  0.45593999997E+02  0.45594000000E+02  0.51100000000E-03 0. -1.
         11   -1    0    0    0    0 -0.00000000000E+00 -0.00000000000E+00 -0.45593999997E+02  0.45594000000E+02  0.51100000000E-03 0.  1.
         23    2    1    2    0    0 -0.88817841970E-15 -0.17763568394E-14 -0.71054273576E-14  0.91188000000E+02  0.91188000000E+02 0.  0.
    9900012    2    3    3    0    0 -0.72531240192E+01  0.13517470902E+02  0.33473129468E+02  0.54367078990E+02  0.39999988173E+02 0.  0.
        -12    1    3    3    0    0  0.72531240192E+01 -0.13517470902E+02 -0.33473129468E+02  0.36820921010E+02  0.00000000000E+00 0.  1.
         11    1    4    4    0    0 -0.69694294505E+01  0.10151306120E+01 -0.10134376812E+01  0.71155107490E+01  0.51100000000E-03 0. -1.
        -11    1    4    4    0    0 -0.10937714242E+02  0.24054775363E+01  0.16975849480E+01  0.11327034472E+02  0.51100000000E-03 0.  1.
         12    1    4    4    0    0  0.10654019674E+02  0.10096862754E+02  0.32788982202E+02  0.35924533769E+02  0.00000000000E+00 0. -1.
</event>
<event>
 8    1  0.1265908E-006  0.9118800E+02  0.7816164E-02  0.1184000E+00
        -11   -1    0    0    0    0  0.00000000000E+00  0.00000000000E+00  0.45593999997E+02  0.45594000000E+02  0.51100000000E-03 0.  1.
         11   -1    0    0    0    0 -0.00000000000E+00 -0.00000000000E+00 -0.45593999997E+02  0.45594000000E+02  0.51100000000E-03 0. -1.
         23    2    1    2    0    0 -0.35527136788E-14  0.00000000000E+00  0.00000000000E+00  0.91188000000E+02  0.91188000000E+02 0.  0.
    9900012    2    3    3    0    0  0.23830396203E+02  0.20765513598E+02 -0.18886137360E+02  0.54367074936E+02  0.39999978931E+02 0.  0.
         12    1    3    3    0    0 -0.23830396203E+02 -0.20765513598E+02  0.18886137360E+02  0.36820925064E+02  0.00000000000E+00 0. -1.
         11    1    4    4    0    0  0.86826230546E+01  0.73085856524E+01 -0.14795092368E+02  0.18646665272E+02  0.51100000000E-03 0. -1.
        -11    1    4    4    0    0  0.15676587560E+02  0.12336276729E+02 -0.14863479068E+02  0.24876939751E+02  0.51100000000E-03 0.  1.
        -12    1    4    4    0    0 -0.52881441179E+00  0.11206512168E+01  0.10772434076E+02  0.10843469913E+02  0.00000000000E+00 0.  1.
</event>
<event>
 8    1  0.1265908E-006  0.9118800E+02  0.7816164E-02  0.1184000E+00
        -11   -1    0    0    0    0  0.00000000000E+00  0.00000000000E+00  0.45593999997E+02  0.45594000000E+02  0.51100000000E-03 0.  1.
         11   -1    0    0    0    0 -0.00000000000E+00 -0.00000000000E+00 -0.45593999997E+02  0.45594000000E+02  0.51100000000E-03 0. -1.
         23    2    1    2    0    0  0.00000000000E+00  0.35527136788E-14  0.00000000000E+00  0.91188000000E+02  0.91188000000E+02 0.  0.
    9900012    2    3    3    0    0 -0.25879395837E+02 -0.23415435240E+02 -0.11736865653E+02  0.54367085403E+02  0.40000002794E+02 0.  0.
        -12    1    3    3    0    0  0.25879395837E+02  0.23415435240E+02  0.11736865653E+02  0.36820914597E+02  0.00000000000E+00 0.  1.
         11    1    4    4    0    0  0.17897472582E+01  0.13432530512E+01 -0.81655953736E+01  0.84666682984E+01  0.51100000000E-03 0. -1.
        -11    1    4    4    0    0 -0.13531053061E+02 -0.23898443174E+02 -0.11378520845E+02  0.29727020031E+02  0.51100000000E-03 0.  1.
        -12    1    4    4    0    0 -0.14138090035E+02 -0.86024511788E+00  0.78072505660E+01  0.16173397074E+02  0.00000000000E+00 0.  1.
</event>
<event>
 8    1  0.1265908E-006  0.9118800E+02  0.7816164E-02  0.1184000E+00
        -11   -1    0    0    0    0  0.00000000000E+00  0.00000000000E+00  0.45593999997E+02  0.45594000000E+02  0.51100000000E-03 0.  1.
         11   -1    0    0    0    0 -0.00000000000E+00 -0.00000000000E+00 -0.45593999997E+02  0.45594000000E+02  0.51100000000E-03 0. -1.
         23    2    1    2    0    0 -0.22204460493E-15  0.00000000000E+00  0.00000000000E+00  0.91188000000E+02  0.91188000000E+02 0.  0.
    9900012    2    3    3    0    0  0.11354281103E+01 -0.32709078467E+02 -0.16870347461E+02  0.54367059835E+02  0.39999944506E+02 0.  0.
         12    1    3    3    0    0 -0.11354281103E+01  0.32709078467E+02  0.16870347461E+02  0.36820940165E+02  0.00000000000E+00 0. -1.
         11    1    4    4    0    0  0.85030333483E+01 -0.80619936040E+01 -0.64682597957E+01  0.13384158623E+02  0.51100000000E-03 0. -1.
        -11    1    4    4    0    0 -0.17840948511E+01  0.70133894911E+01 -0.37585648777E+01  0.81545960533E+01  0.51100000000E-03 0.  1.
        -12    1    4    4    0    0 -0.55835103869E+01 -0.31660474355E+02 -0.66435227872E+01  0.32828305159E+02  0.00000000000E+00 0.  1.
</event>
<event>
 8    1  0.1265908E-006  0.9118800E+02  0.7816164E-02  0.1184000E+00
        -11   -1    0    0    0    0  0.00000000000E+00  0.00000000000E+00  0.45593999997E+02  0.45594000000E+02  0.51100000000E-03 0. -1.
         11   -1    0    0    0    0 -0.00000000000E+00 -0.00000000000E+00 -0.45593999997E+02  0.45594000000E+02  0.51100000000E-03 0.  1.
         23    2    1    2    0    0  0.00000000000E+00 -0.88817841970E-15  0.00000000000E+00  0.91188000000E+02  0.91188000000E+02 0.  0.
    9900012    2    3    3    0    0 -0.23243472100E+02 -0.46018651303E+01 -0.28184083944E+02  0.54367099065E+02  0.40000033938E+02 0.  0.
         12    1    3    3    0    0  0.23243472100E+02  0.46018651303E+01  0.28184083944E+02  0.36820900935E+02  0.00000000000E+00 0. -1.
         11    1    4    4    0    0 -0.27466733819E+02  0.32332483431E+01 -0.60086639150E+01  0.28301579529E+02  0.51100000000E-03 0. -1.
        -11    1    4    4    0    0 -0.32087310732E+01 -0.17342828942E+01 -0.34743931234E+01  0.50373703551E+01  0.51100000000E-03 0.  1.
         12    1    4    4    0    0  0.74319927930E+01 -0.61008305792E+01 -0.18701026905E+02  0.21028149180E+02  0.00000000000E+00 0. -1.
</event>
<event>
 8    1  0.1265908E-006  0.9118800E+02  0.7816164E-02  0.1184000E+00
        -11   -1    0    0    0    0  0.00000000000E+00  0.00000000000E+00  0.45593999997E+02  0.45594000000E+02  0.51100000000E-03 0. -1.
         11   -1    0    0    0    0 -0.00000000000E+00 -0.00000000000E+00 -0.45593999997E+02  0.45594000000E+02  0.51100000000E-03 0.  1.
         23    2    1    2    0    0  0.17763568394E-14 -0.88817841970E-15  0.00000000000E+00  0.91188000000E+02  0.91188000000E+02 0.  0.
    9900012    2    3    3    0    0  0.23575313437E+01  0.27571736628E+01 -0.36641742962E+02  0.54367118860E+02  0.40000079064E+02 0.  0.
         12    1    3    3    0    0 -0.23575313437E+01 -0.27571736628E+01  0.36641742962E+02  0.36820881140E+02  0.00000000000E+00 0. -1.
         11    1    4    4    0    0 -0.86460660117E+00 -0.88131638296E+01 -0.10112990526E+02  0.13442171658E+02  0.51100000000E-03 0. -1.
        -11    1    4    4    0    0  0.14868603343E+02  0.87608224218E+01 -0.22348187611E+02  0.28235949863E+02  0.51100000000E-03 0.  1.
         12    1    4    4    0    0 -0.11646465398E+02  0.28095150707E+01 -0.41805648254E+01  0.12688997339E+02  0.00000000000E+00 0. -1.
</event>
<event>
 8    1  0.1265908E-006  0.9118800E+02  0.7816164E-02  0.1184000E+00
        -11   -1    0    0    0    0  0.00000000000E+00  0.00000000000E+00  0.45593999997E+02  0.45594000000E+02  0.51100000000E-03 0. -1.
         11   -1    0    0    0    0 -0.00000000000E+00 -0.00000000000E+00 -0.45593999997E+02  0.45594000000E+02  0.51100000000E-03 0.  1.
         23    2    1    2    0    0 -0.71054273576E-14 -0.27755575616E-15  0.35527136788E-14  0.91188000000E+02  0.91188000000E+02 0.  0.
    9900012    2    3    3    0    0  0.34799925988E+02  0.38009501894E+00 -0.12025246426E+02  0.54367002287E+02  0.39999813312E+02 0.  0.
         12    1    3    3    0    0 -0.34799925988E+02 -0.38009501894E+00  0.12025246426E+02  0.36820997713E+02  0.00000000000E+00 0. -1.
         11    1    4    4    0    0  0.84264263973E+00 -0.16264042539E+01  0.90244665018E+01  0.92084870266E+01  0.51100000000E-03 0. -1.
        -11    1    4    4    0    0  0.14681930911E+01  0.14512523812E+01 -0.10933035617E+02  0.11126229932E+02  0.51100000000E-03 0.  1.
         12    1    4    4    0    0  0.32489090257E+02  0.55524689161E+00 -0.10116677311E+02  0.34032285328E+02  0.00000000000E+00 0. -1.
</event>
<event>
 8    1  0.1265908E-006  0.9118800E+02  0.7816164E-02  0.1184000E+00
        -11   -1    0    0    0    0  0.00000000000E+00  0.00000000000E+00  0.45593999997E+02  0.45594000000E+02  0.51100000000E-03 0.  1.
         11   -1    0    0    0    0 -0.00000000000E+00 -0.00000000000E+00 -0.45593999997E+02  0.45594000000E+02  0.51100000000E-03 0. -1.
         23    2    1    2    0    0 -0.17763568394E-14  0.00000000000E+00  0.71054273576E-14  0.91188000000E+02  0.91188000000E+02 0.  0.
    9900012    2    3    3    0    0  0.13299356277E+02 -0.64966916621E+01 -0.33715004562E+02  0.54367062850E+02  0.39999951380E+02 0.  0.
        -12    1    3    3    0    0 -0.13299356277E+02  0.64966916621E+01  0.33715004562E+02  0.36820937150E+02  0.00000000000E+00 0.  1.
         11    1    4    4    0    0  0.26750517329E+01  0.50722387317E+01 -0.27348868275E+02  0.27943587882E+02  0.51100000000E-03 0. -1.
        -11    1    4    4    0    0 -0.18545692128E+01 -0.12918962578E+02 -0.40009890807E+01  0.13650895023E+02  0.51100000000E-03 0.  1.
        -12    1    4    4    0    0  0.12478873757E+02  0.13500321839E+01 -0.23651472069E+01  0.12772579945E+02  0.00000000000E+00 0.  1.
</event>
<event>
 8    1  0.1265908E-006  0.9118800E+02  0.7816164E-02  0.1184000E+00
        -11   -1    0    0    0    0  0.00000000000E+00  0.00000000000E+00  0.45593999997E+02  0.45594000000E+02  0.51100000000E-03 0.  1.
         11   -1    0    0    0    0 -0.00000000000E+00 -0.00000000000E+00 -0.45593999997E+02  0.45594000000E+02  0.51100000000E-03 0. -1.
         23    2    1    2    0    0  0.17763568394E-14  0.00000000000E+00  0.00000000000E+00  0.91188000000E+02  0.91188000000E+02 0.  0.
    9900012    2    3    3    0    0 -0.13888590431E+02  0.19960831595E+02 -0.27648713242E+02  0.54367094442E+02  0.40000023400E+02 0.  0.
        -12    1    3    3    0    0  0.13888590431E+02 -0.19960831595E+02  0.27648713242E+02  0.36820905558E+02  0.00000000000E+00 0.  1.
         11    1    4    4    0    0 -0.21454767797E+02  0.15124298754E+02 -0.26332625227E+02  0.37181428504E+02  0.51100000000E-03 0. -1.
        -11    1    4    4    0    0  0.78252042950E+01  0.65148168718E+01  0.44959694310E+01  0.11130606566E+02  0.51100000000E-03 0.  1.
         12    1    4    4    0    0 -0.25902692979E+00 -0.16782840313E+01 -0.58120574467E+01  0.60550593725E+01  0.00000000000E+00 0. -1.
</event>
<event>
 8    1  0.1265908E-006  0.9118800E+02  0.7816164E-02  0.1184000E+00
        -11   -1    0    0    0    0  0.00000000000E+00  0.00000000000E+00  0.45593999997E+02  0.45594000000E+02  0.51100000000E-03 0.  1.
         11   -1    0    0    0    0 -0.00000000000E+00 -0.00000000000E+00 -0.45593999997E+02  0.45594000000E+02  0.51100000000E-03 0. -1.
         23    2    1    2    0    0  0.17763568394E-14  0.44408920985E-15  0.00000000000E+00  0.91188000000E+02  0.91188000000E+02 0.  0.
    9900012    2    3    3    0    0  0.15963095794E+02 -0.35938473842E+01 -0.32985475910E+02  0.54367112078E+02  0.40000063604E+02 0.  0.
        -12    1    3    3    0    0 -0.15963095794E+02  0.35938473842E+01  0.32985475910E+02  0.36820887922E+02  0.00000000000E+00 0.  1.
         11    1    4    4    0    0  0.35608030743E+01 -0.12152599889E+02 -0.40390608251E+01  0.13292065874E+02  0.51100000000E-03 0. -1.
        -11    1    4    4    0    0 -0.11376195289E+01 -0.75072548168E+01 -0.44438082549E+01  0.87977545513E+01  0.51100000000E-03 0.  1.
         12    1    4    4    0    0  0.13539912249E+02  0.16066007321E+02 -0.24502606830E+02  0.32277291653E+02  0.00000000000E+00 0. -1.
</event>
<event>
 8    1  0.1265908E-006  0.9118800E+02  0.7816164E-02  0.1184000E+00
        -11   -1    0    0    0    0  0.00000000000E+00  0.00000000000E+00  0.45593999997E+02  0.45594000000E+02  0.51100000000E-03 0.  1.
         11   -1    0    0    0    0 -0.00000000000E+00 -0.00000000000E+00 -0.45593999997E+02  0.45594000000E+02  0.51100000000E-03 0. -1.
         23    2    1    2    0    0 -0.17763568394E-14  0.00000000000E+00  0.00000000000E+00  0.91188000000E+02  0.91188000000E+02 0.  0.
    9900012    2    3    3    0    0 -0.14945107622E+02 -0.20739280571E+02 -0.26501049344E+02  0.54367087236E+02  0.40000006972E+02 0.  0.
        -12    1    3    3    0    0  0.14945107622E+02  0.20739280571E+02  0.26501049344E+02  0.36820912764E+02  0.00000000000E+00 0.  1.
         11    1    4    4    0    0 -0.16295040455E+02 -0.10189185372E+02 -0.78293368302E+01  0.20752020563E+02  0.51100000000E-03 0. -1.
        -11    1    4    4    0    0 -0.88744229063E+01 -0.11419615177E+02 -0.28243812328E+01  0.14735675157E+02  0.51100000000E-03 0.  1.
        -12    1    4    4    0    0  0.10224355740E+02  0.86951997791E+00 -0.15847331281E+02  0.18879391516E+02  0.00000000000E+00 0.  1.
</event>
<event>
 8    1  0.1265908E-006  0.9118800E+02  0.7816164E-02  0.1184000E+00
        -11   -1    0    0    0    0  0.00000000000E+00  0.00000000000E+00  0.45593999997E+02  0.45594000000E+02  0.51100000000E-03 0.  1.
         11   -1    0    0    0    0 -0.00000000000E+00 -0.00000000000E+00 -0.45593999997E+02  0.45594000000E+02  0.51100000000E-03 0. -1.
         23    2    1    2    0    0  0.35527136788E-14  0.00000000000E+00 -0.35527136788E-14  0.91188000000E+02  0.91188000000E+02 0.  0.
    9900012    2    3    3    0    0 -0.89261021602E+01  0.29576899482E+02  0.20032779607E+02  0.54367074679E+02  0.39999978346E+02 0.  0.
         12    1    3    3    0    0  0.89261021602E+01 -0.29576899482E+02 -0.20032779607E+02  0.36820925321E+02  0.00000000000E+00 0. -1.
         11    1    4    4    0    0  0.39467150982E+01  0.98372945711E+01 -0.27222791404E+01  0.10943478813E+02  0.51100000000E-03 0. -1.
        -11    1    4    4    0    0  0.89072362259E+01  0.28480903360E+01  0.46240600664E+01  0.10432277197E+02  0.51100000000E-03 0.  1.
        -12    1    4    4    0    0 -0.21780053484E+02  0.16891514574E+02  0.18130998681E+02  0.32991318670E+02  0.00000000000E+00 0.  1.
</event>
<event>
 8    1  0.1265908E-006  0.9118800E+02  0.7816164E-02  0.1184000E+00
        -11   -1    0    0    0    0  0.00000000000E+00  0.00000000000E+00  0.45593999997E+02  0.45594000000E+02  0.51100000000E-03 0.  1.
         11   -1    0    0    0    0 -0.00000000000E+00 -0.00000000000E+00 -0.45593999997E+02  0.45594000000E+02  0.51100000000E-03 0. -1.
         23    2    1    2    0    0 -0.44408920985E-15 -0.35527136788E-14  0.00000000000E+00  0.91188000000E+02  0.91188000000E+02 0.  0.
    9900012    2    3    3    0    0 -0.31096947212E+01  0.21994489825E+02 -0.29365831710E+02  0.54367083988E+02  0.39999999567E+02 0.  0.
        -12    1    3    3    0    0  0.31096947212E+01 -0.21994489825E+02  0.29365831710E+02  0.36820916012E+02  0.00000000000E+00 0.  1.
         11    1    4    4    0    0 -0.21696460545E+01  0.26542853367E+02 -0.21853753174E+02  0.34450209824E+02  0.51100000000E-03 0. -1.
        -11    1    4    4    0    0  0.42982750714E+01 -0.99948022141E+01 -0.47438201808E+01  0.11869080422E+02  0.51100000000E-03 0.  1.
        -12    1    4    4    0    0 -0.52383237381E+01  0.54464386721E+01 -0.27682583559E+01  0.80477937424E+01  0.00000000000E+00 0.  1.
</event>
<event>
 8    1  0.1265908E-006  0.9118800E+02  0.7816164E-02  0.1184000E+00
        -11   -1    0    0    0    0  0.00000000000E+00  0.00000000000E+00  0.45593999997E+02  0.45594000000E+02  0.51100000000E-03 0.  1.
         11   -1    0    0    0    0 -0.00000000000E+00 -0.00000000000E+00 -0.45593999997E+02  0.45594000000E+02  0.51100000000E-03 0. -1.
         23    2    1    2    0    0  0.00000000000E+00  0.00000000000E+00  0.00000000000E+00  0.91188000000E+02  0.91188000000E+02 0.  0.
    9900012    2    3    3    0    0 -0.28987333529E+01  0.14969610682E+02 -0.33515436825E+02  0.54367130855E+02  0.40000106410E+02 0.  0.
        -12    1    3    3    0    0  0.28987333529E+01 -0.14969610682E+02  0.33515436825E+02  0.36820869145E+02  0.00000000000E+00 0.  1.
         11    1    4    4    0    0 -0.94234413962E+01  0.10103020372E+02 -0.43788522365E+01  0.14492985047E+02  0.51100000000E-03 0. -1.
        -11    1    4    4    0    0 -0.99108759404E+01 -0.27895639673E+00 -0.12180967381E+02  0.15706025760E+02  0.51100000000E-03 0.  1.
        -12    1    4    4    0    0  0.16435583984E+02  0.51455467061E+01 -0.16955617207E+02  0.24168120048E+02  0.00000000000E+00 0.  1.
</event>
<event>
 8    1  0.1265908E-006  0.9118800E+02  0.7816164E-02  0.1184000E+00
        -11   -1    0    0    0    0  0.00000000000E+00  0.00000000000E+00  0.45593999997E+02  0.45594000000E+02  0.51100000000E-03 0.  1.
         11   -1    0    0    0    0 -0.00000000000E+00 -0.00000000000E+00 -0.45593999997E+02  0.45594000000E+02  0.51100000000E-03 0. -1.
         23    2    1    2    0    0 -0.13322676296E-14  0.00000000000E+00  0.00000000000E+00  0.91188000000E+02  0.91188000000E+02 0.  0.
    9900012    2    3    3    0    0 -0.29790443136E+01 -0.25236458340E+02 -0.26646301043E+02  0.54367097053E+02  0.40000029352E+02 0.  0.
        -12    1    3    3    0    0  0.29790443136E+01  0.25236458340E+02  0.26646301043E+02  0.36820902947E+02  0.00000000000E+00 0.  1.
         11    1    4    4    0    0 -0.67230955979E+01  0.99878465757E+00  0.12400674491E+01  0.69090775615E+01  0.51100000000E-03 0. -1.
        -11    1    4    4    0    0 -0.85656166289E+01 -0.21985667955E+01 -0.29223689906E+00  0.88481007484E+01  0.51100000000E-03 0.  1.
         12    1    4    4    0    0  0.12309667913E+02 -0.24036676202E+02 -0.27594131593E+02  0.38609918743E+02  0.00000000000E+00 0. -1.
</event>
<event>
 8    1  0.1265908E-006  0.9118800E+02  0.7816164E-02  0.1184000E+00
        -11   -1    0    0    0    0  0.00000000000E+00  0.00000000000E+00  0.45593999997E+02  0.45594000000E+02  0.51100000000E-03 0.  1.
         11   -1    0    0    0    0 -0.00000000000E+00 -0.00000000000E+00 -0.45593999997E+02  0.45594000000E+02  0.51100000000E-03 0. -1.
         23    2    1    2    0    0 -0.44408920985E-15  0.71054273576E-14  0.33306690739E-15  0.91188000000E+02  0.91188000000E+02 0.  0.
    9900012    2    3    3    0    0  0.24590220325E+01  0.36730227671E+02 -0.79032376190E+00  0.54367068103E+02  0.39999963355E+02 0.  0.
         12    1    3    3    0    0 -0.24590220325E+01 -0.36730227671E+02  0.79032376190E+00  0.36820931897E+02  0.00000000000E+00 0. -1.
         11    1    4    4    0    0 -0.13509368760E+02  0.19890501296E+01 -0.57944271512E+00  0.13667301081E+02  0.51100000000E-03 0. -1.
        -11    1    4    4    0    0  0.88651283627E+01  0.59366807066E+01 -0.24532071988E+01  0.10947735132E+02  0.51100000000E-03 0.  1.
        -12    1    4    4    0    0  0.71032624300E+01  0.28804496834E+02  0.22423261520E+01  0.29752031890E+02  0.00000000000E+00 0.  1.
</event>
<event>
 8    1  0.1265908E-006  0.9118800E+02  0.7816164E-02  0.1184000E+00
        -11   -1    0    0    0    0  0.00000000000E+00  0.00000000000E+00  0.45593999997E+02  0.45594000000E+02  0.51100000000E-03 0. -1.
         11   -1    0    0    0    0 -0.00000000000E+00 -0.00000000000E+00 -0.45593999997E+02  0.45594000000E+02  0.51100000000E-03 0.  1.
         23    2    1    2    0    0  0.00000000000E+00  0.11102230246E-15  0.00000000000E+00  0.91188000000E+02  0.91188000000E+02 0.  0.
    9900012    2    3    3    0    0  0.10155898876E+02  0.77873549307E+00  0.35384032334E+02  0.54367103009E+02  0.40000042931E+02 0.  0.
        -12    1    3    3    0    0 -0.10155898876E+02 -0.77873549307E+00 -0.35384032334E+02  0.36820896991E+02  0.00000000000E+00 0.  1.
         11    1    4    4    0    0 -0.82314714814E+01  0.57446029019E+01  0.10174445103E+02  0.14292547662E+02  0.51100000000E-03 0. -1.
        -11    1    4    4    0    0  0.20550997165E+02  0.28827902573E+01  0.10488491615E+02  0.23252148734E+02  0.51100000000E-03 0.  1.
         12    1    4    4    0    0 -0.21636268073E+01 -0.78486576661E+01  0.14721095617E+02  0.16822406614E+02  0.00000000000E+00 0. -1.
</event>
<event>
 8    1  0.1265908E-006  0.9118800E+02  0.7816164E-02  0.1184000E+00
        -11   -1    0    0    0    0  0.00000000000E+00  0.00000000000E+00  0.45593999997E+02  0.45594000000E+02  0.51100000000E-03 0. -1.
         11   -1    0    0    0    0 -0.00000000000E+00 -0.00000000000E+00 -0.45593999997E+02  0.45594000000E+02  0.51100000000E-03 0.  1.
         23    2    1    2    0    0 -0.17763568394E-14  0.00000000000E+00 -0.35527136788E-14  0.91188000000E+02  0.91188000000E+02 0.  0.
    9900012    2    3    3    0    0  0.15759273382E+02  0.30483062848E+02  0.13349404832E+02  0.54367103386E+02  0.40000043789E+02 0.  0.
        -12    1    3    3    0    0 -0.15759273382E+02 -0.30483062848E+02 -0.13349404832E+02  0.36820896614E+02  0.00000000000E+00 0.  1.
         11    1    4    4    0    0  0.92356278143E+01  0.52772854186E+01 -0.64767362887E+01  0.12453701286E+02  0.51100000000E-03 0. -1.
        -11    1    4    4    0    0  0.16702373908E+02  0.17097050508E+02  0.13356648648E+02  0.27380257369E+02  0.51100000000E-03 0.  1.
         12    1    4    4    0    0 -0.10178728340E+02  0.81087269211E+01  0.64694924724E+01  0.14533144731E+02  0.00000000000E+00 0. -1.
</event>
<event>
 8    1  0.1265908E-006  0.9118800E+02  0.7816164E-02  0.1184000E+00
        -11   -1    0    0    0    0  0.00000000000E+00  0.00000000000E+00  0.45593999997E+02  0.45594000000E+02  0.51100000000E-03 0.  1.
         11   -1    0    0    0    0 -0.00000000000E+00 -0.00000000000E+00 -0.45593999997E+02  0.45594000000E+02  0.51100000000E-03 0. -1.
         23    2    1    2    0    0  0.88817841970E-15  0.00000000000E+00  0.00000000000E+00  0.91188000000E+02  0.91188000000E+02 0.  0.
    9900012    2    3    3    0    0 -0.17654654501E+01  0.60794277056E+01  0.36272626054E+02  0.54367085965E+02  0.40000004075E+02 0.  0.
         12    1    3    3    0    0  0.17654654501E+01 -0.60794277056E+01 -0.36272626054E+02  0.36820914035E+02  0.00000000000E+00 0. -1.
         11    1    4    4    0    0  0.86473408887E+01 -0.33421385660E+01  0.14981437444E+01  0.93909972623E+01  0.51100000000E-03 0. -1.
        -11    1    4    4    0    0  0.74998493011E+01 -0.76186587516E+00  0.12780157237E+02  0.14837809758E+02  0.51100000000E-03 0.  1.
         12    1    4    4    0    0 -0.17912655640E+02  0.10183432147E+02  0.21994325072E+02  0.30138278945E+02  0.00000000000E+00 0. -1.
</event>
<event>
 8    1  0.1265908E-006  0.9118800E+02  0.7816164E-02  0.1184000E+00
        -11   -1    0    0    0    0  0.00000000000E+00  0.00000000000E+00  0.45593999997E+02  0.45594000000E+02  0.51100000000E-03 0.  1.
         11   -1    0    0    0    0 -0.00000000000E+00 -0.00000000000E+00 -0.45593999997E+02  0.45594000000E+02  0.51100000000E-03 0. -1.
         23    2    1    2    0    0  0.71054273576E-14 -0.44408920985E-15  0.17763568394E-14  0.91188000000E+02  0.91188000000E+02 0.  0.
    9900012    2    3    3    0    0  0.35866009563E+02 -0.14256057656E+01  0.82084139893E+01  0.54367067720E+02  0.39999962481E+02 0.  0.
         12    1    3    3    0    0 -0.35866009563E+02  0.14256057656E+01 -0.82084139893E+01  0.36820932280E+02  0.00000000000E+00 0. -1.
         11    1    4    4    0    0 -0.32673193476E+01  0.16691786775E+01 -0.40245335390E+01  0.54459529602E+01  0.51100000000E-03 0. -1.
        -11    1    4    4    0    0  0.27722870808E+02  0.84968389422E+01  0.74037959084E+00  0.29005206430E+02  0.51100000000E-03 0.  1.
         12    1    4    4    0    0  0.11410458103E+02 -0.11591623385E+02  0.11492567938E+02  0.19915908330E+02  0.00000000000E+00 0. -1.
</event>
<event>
 8    1  0.1265908E-006  0.9118800E+02  0.7816164E-02  0.1184000E+00
        -11   -1    0    0    0    0  0.00000000000E+00  0.00000000000E+00  0.45593999997E+02  0.45594000000E+02  0.51100000000E-03 0. -1.
         11   -1    0    0    0    0 -0.00000000000E+00 -0.00000000000E+00 -0.45593999997E+02  0.45594000000E+02  0.51100000000E-03 0.  1.
         23    2    1    2    0    0  0.00000000000E+00  0.00000000000E+00  0.00000000000E+00  0.91188000000E+02  0.91188000000E+02 0.  0.
    9900012    2    3    3    0    0  0.24313229704E+02  0.76348505378E+01  0.26577364516E+02  0.54367076791E+02  0.39999983160E+02 0.  0.
        -12    1    3    3    0    0 -0.24313229704E+02 -0.76348505378E+01 -0.26577364516E+02  0.36820923209E+02  0.00000000000E+00 0.  1.
         11    1    4    4    0    0  0.96452925971E+01  0.73822472809E+01 -0.33427382364E+00  0.12150760612E+02  0.51100000000E-03 0. -1.
        -11    1    4    4    0    0  0.22052831803E+02  0.36025708260E+01  0.25635834472E+02  0.34007380322E+02  0.51100000000E-03 0.  1.
        -12    1    4    4    0    0 -0.73848946958E+01 -0.33499675690E+01  0.12758038679E+01  0.82089358562E+01  0.00000000000E+00 0.  1.
</event>
<event>
 8    1  0.1265908E-006  0.9118800E+02  0.7816164E-02  0.1184000E+00
        -11   -1    0    0    0    0  0.00000000000E+00  0.00000000000E+00  0.45593999997E+02  0.45594000000E+02  0.51100000000E-03 0.  1.
         11   -1    0    0    0    0 -0.00000000000E+00 -0.00000000000E+00 -0.45593999997E+02  0.45594000000E+02  0.51100000000E-03 0. -1.
         23    2    1    2    0    0  0.17763568394E-14  0.00000000000E+00  0.35527136788E-14  0.91188000000E+02  0.91188000000E+02 0.  0.
    9900012    2    3    3    0    0 -0.10713933415E+02  0.15379691163E+02 -0.31693149016E+02  0.54367096100E+02  0.40000027179E+02 0.  0.
        -12    1    3    3    0    0  0.10713933415E+02 -0.15379691163E+02  0.31693149016E+02  0.36820903900E+02  0.00000000000E+00 0.  1.
         11    1    4    4    0    0 -0.98929785312E+01  0.10827705752E+02 -0.34046317351E+02  0.37071039390E+02  0.51100000000E-03 0. -1.
        -11    1    4    4    0    0 -0.55736166391E+01  0.50956870120E+01 -0.46101825023E+01  0.88478817538E+01  0.51100000000E-03 0.  1.
        -12    1    4    4    0    0  0.47526617557E+01 -0.54370160065E+00  0.69633508375E+01  0.84481749557E+01  0.00000000000E+00 0.  1.
</event>
<event>
 8    1  0.1265908E-006  0.9118800E+02  0.7816164E-02  0.1184000E+00
        -11   -1    0    0    0    0  0.00000000000E+00  0.00000000000E+00  0.45593999997E+02  0.45594000000E+02  0.51100000000E-03 0. -1.
         11   -1    0    0    0    0 -0.00000000000E+00 -0.00000000000E+00 -0.45593999997E+02  0.45594000000E+02  0.51100000000E-03 0.  1.
         23    2    1    2    0    0  0.00000000000E+00 -0.88817841970E-15 -0.35527136788E-14  0.91188000000E+02  0.91188000000E+02 0.  0.
    9900012    2    3    3    0    0  0.29119682883E+02 -0.76556310661E+01  0.21194721542E+02  0.54367070633E+02  0.39999969122E+02 0.  0.
        -12    1    3    3    0    0 -0.29119682883E+02  0.76556310661E+01 -0.21194721542E+02  0.36820929367E+02  0.00000000000E+00 0.  1.
         11    1    4    4    0    0  0.15646443202E+02 -0.18645710145E+02  0.25855542605E+02  0.35510319280E+02  0.51100000000E-03 0. -1.
        -11    1    4    4    0    0  0.18385160823E+01  0.18445410492E+01 -0.29879015007E+01  0.39635878577E+01  0.51100000000E-03 0.  1.
         12    1    4    4    0    0  0.11634723598E+02  0.91455380293E+01 -0.16729195623E+01  0.14893163496E+02  0.00000000000E+00 0. -1.
</event>
<event>
 8    1  0.1265908E-006  0.9118800E+02  0.7816164E-02  0.1184000E+00
        -11   -1    0    0    0    0  0.00000000000E+00  0.00000000000E+00  0.45593999997E+02  0.45594000000E+02  0.51100000000E-03 0.  1.
         11   -1    0    0    0    0 -0.00000000000E+00 -0.00000000000E+00 -0.45593999997E+02  0.45594000000E+02  0.51100000000E-03 0. -1.
         23    2    1    2    0    0  0.00000000000E+00  0.35527136788E-14  0.00000000000E+00  0.91188000000E+02  0.91188000000E+02 0.  0.
    9900012    2    3    3    0    0  0.11944768210E+02  0.26046594855E+02 -0.23123039651E+02  0.54367115249E+02  0.40000070834E+02 0.  0.
        -12    1    3    3    0    0 -0.11944768210E+02 -0.26046594855E+02  0.23123039651E+02  0.36820884751E+02  0.00000000000E+00 0.  1.
         11    1    4    4    0    0  0.68194003575E+01  0.17422953740E+01 -0.14719947485E+02  0.16316147481E+02  0.51100000000E-03 0. -1.
        -11    1    4    4    0    0  0.21168076119E+01  0.16486792355E+02 -0.18540434784E+02  0.24900661013E+02  0.51100000000E-03 0.  1.
        -12    1    4    4    0    0  0.30085602404E+01  0.78175071261E+01  0.10137342619E+02  0.13150306755E+02  0.00000000000E+00 0.  1.
</event>
<event>
 8    1  0.1265908E-006  0.9118800E+02  0.7816164E-02  0.1184000E+00
        -11   -1    0    0    0    0  0.00000000000E+00  0.00000000000E+00  0.45593999997E+02  0.45594000000E+02  0.51100000000E-03 0. -1.
         11   -1    0    0    0    0 -0.00000000000E+00 -0.00000000000E+00 -0.45593999997E+02  0.45594000000E+02  0.51100000000E-03 0.  1.
         23    2    1    2    0    0 -0.35527136788E-14  0.00000000000E+00  0.88817841970E-15  0.91188000000E+02  0.91188000000E+02 0.  0.
    9900012    2    3    3    0    0 -0.25738667762E+02 -0.25999383371E+02  0.41636082189E+01  0.54367046900E+02  0.39999915017E+02 0.  0.
        -12    1    3    3    0    0  0.25738667762E+02  0.25999383371E+02 -0.41636082189E+01  0.36820953100E+02  0.00000000000E+00 0.  1.
         11    1    4    4    0    0 -0.18764633964E+02 -0.15382569460E+02  0.14896998918E+02  0.28472012714E+02  0.51100000000E-03 0. -1.
        -11    1    4    4    0    0  0.70065033584E+01 -0.35226832837E+01 -0.28220588898E+01  0.83345307886E+01  0.51100000000E-03 0.  1.
         12    1    4    4    0    0 -0.13980537157E+02 -0.70941306273E+01 -0.79113318095E+01  0.17560503397E+02  0.00000000000E+00 0. -1.
</event>
<event>
 8    1  0.1265908E-006  0.9118800E+02  0.7816164E-02  0.1184000E+00
        -11   -1    0    0    0    0  0.00000000000E+00  0.00000000000E+00  0.45593999997E+02  0.45594000000E+02  0.51100000000E-03 0.  1.
         11   -1    0    0    0    0 -0.00000000000E+00 -0.00000000000E+00 -0.45593999997E+02  0.45594000000E+02  0.51100000000E-03 0. -1.
         23    2    1    2    0    0  0.71054273576E-14  0.00000000000E+00  0.35527136788E-14  0.91188000000E+02  0.91188000000E+02 0.  0.
    9900012    2    3    3    0    0 -0.32273340058E+02  0.11070646465E+02  0.13843987765E+02  0.54367031940E+02  0.39999880913E+02 0.  0.
         12    1    3    3    0    0  0.32273340058E+02 -0.11070646465E+02 -0.13843987765E+02  0.36820968060E+02  0.00000000000E+00 0. -1.
         11    1    4    4    0    0  0.56588812630E+00  0.65554197079E+01 -0.18507999424E+01  0.68351457634E+01  0.51100000000E-03 0. -1.
        -11    1    4    4    0    0 -0.37351655944E+02  0.84146971643E+01  0.16141735830E+02  0.41551281160E+02  0.51100000000E-03 0.  1.
        -12    1    4    4    0    0  0.45124277598E+01 -0.38994704072E+01 -0.44694812255E+00  0.59806050169E+01  0.00000000000E+00 0.  1.
</event>
<event>
 8    1  0.1265908E-006  0.9118800E+02  0.7816164E-02  0.1184000E+00
        -11   -1    0    0    0    0  0.00000000000E+00  0.00000000000E+00  0.45593999997E+02  0.45594000000E+02  0.51100000000E-03 0.  1.
         11   -1    0    0    0    0 -0.00000000000E+00 -0.00000000000E+00 -0.45593999997E+02  0.45594000000E+02  0.51100000000E-03 0. -1.
         23    2    1    2    0    0  0.35527136788E-14 -0.11102230246E-15  0.00000000000E+00  0.91188000000E+02  0.91188000000E+02 0.  0.
    9900012    2    3    3    0    0 -0.28527952637E+02 -0.52760065807E+00 -0.23273614406E+02  0.54367033532E+02  0.39999884543E+02 0.  0.
        -12    1    3    3    0    0  0.28527952637E+02  0.52760065807E+00  0.23273614406E+02  0.36820966468E+02  0.00000000000E+00 0.  1.
         11    1    4    4    0    0  0.13936305061E+01 -0.29777272536E+01 -0.29375261077E+01  0.44088689569E+01  0.51100000000E-03 0. -1.
        -11    1    4    4    0    0 -0.29599080875E+02 -0.96080786230E+01 -0.21523160321E+02  0.37837378265E+02  0.51100000000E-03 0.  1.
        -12    1    4    4    0    0 -0.32250226803E+00  0.12058205218E+02  0.11870720229E+01  0.12120786311E+02  0.00000000000E+00 0.  1.
</event>
<event>
 8    1  0.1265908E-006  0.9118800E+02  0.7816164E-02  0.1184000E+00
        -11   -1    0    0    0    0  0.00000000000E+00  0.00000000000E+00  0.45593999997E+02  0.45594000000E+02  0.51100000000E-03 0.  1.
         11   -1    0    0    0    0 -0.00000000000E+00 -0.00000000000E+00 -0.45593999997E+02  0.45594000000E+02  0.51100000000E-03 0. -1.
         23    2    1    2    0    0  0.00000000000E+00 -0.35527136788E-14  0.00000000000E+00  0.91188000000E+02  0.91188000000E+02 0.  0.
    9900012    2    3    3    0    0 -0.31725176204E+02  0.16640702440E+02  0.85074894319E+01  0.54367120606E+02  0.40000083046E+02 0.  0.
         12    1    3    3    0    0  0.31725176204E+02 -0.16640702440E+02 -0.85074894319E+01  0.36820879394E+02  0.00000000000E+00 0. -1.
         11    1    4    4    0    0 -0.14397386520E+02 -0.16706345675E+01  0.11037436441E+02  0.18218143756E+02  0.51100000000E-03 0. -1.
        -11    1    4    4    0    0 -0.14421700601E+02 -0.25636120176E+01 -0.34648056914E+01  0.15051991016E+02  0.51100000000E-03 0.  1.
        -12    1    4    4    0    0 -0.29060890833E+01  0.20874949025E+02  0.93485868253E+00  0.21096985835E+02  0.00000000000E+00 0.  1.
</event>
<event>
 8    1  0.1265908E-006  0.9118800E+02  0.7816164E-02  0.1184000E+00
        -11   -1    0    0    0    0  0.00000000000E+00  0.00000000000E+00  0.45593999997E+02  0.45594000000E+02  0.51100000000E-03 0. -1.
         11   -1    0    0    0    0 -0.00000000000E+00 -0.00000000000E+00 -0.45593999997E+02  0.45594000000E+02  0.51100000000E-03 0.  1.
         23    2    1    2    0    0  0.35527136788E-14  0.00000000000E+00  0.00000000000E+00  0.91188000000E+02  0.91188000000E+02 0.  0.
    9900012    2    3    3    0    0  0.22654828392E+02  0.20361392217E+02 -0.20686939121E+02  0.54367122869E+02  0.40000088204E+02 0.  0.
        -12    1    3    3    0    0 -0.22654828392E+02 -0.20361392217E+02  0.20686939121E+02  0.36820877131E+02  0.00000000000E+00 0.  1.
         11    1    4    4    0    0  0.23544667421E+02  0.11676328455E+02 -0.63860503584E+01  0.27045695583E+02  0.51100000000E-03 0.  1.
        -11    1    4    4    0    0 -0.51977553112E+01  0.60378837053E+01  0.35836673437E+01  0.87358669750E+01  0.51100000000E-03 0. -1.
        -12    1    4    4    0    0  0.43079162830E+01  0.26471800573E+01 -0.17884556106E+02  0.18585560311E+02  0.00000000000E+00 0.  1.
</event>
<event>
 8    1  0.1265908E-006  0.9118800E+02  0.7816164E-02  0.1184000E+00
        -11   -1    0    0    0    0  0.00000000000E+00  0.00000000000E+00  0.45593999997E+02  0.45594000000E+02  0.51100000000E-03 0. -1.
         11   -1    0    0    0    0 -0.00000000000E+00 -0.00000000000E+00 -0.45593999997E+02  0.45594000000E+02  0.51100000000E-03 0.  1.
         23    2    1    2    0    0 -0.35527136788E-14 -0.44408920985E-15  0.00000000000E+00  0.91188000000E+02  0.91188000000E+02 0.  0.
    9900012    2    3    3    0    0 -0.26873949849E+02  0.30813323029E+01 -0.24981525355E+02  0.54367076624E+02  0.39999982779E+02 0.  0.
         12    1    3    3    0    0  0.26873949849E+02 -0.30813323029E+01  0.24981525355E+02  0.36820923376E+02  0.00000000000E+00 0. -1.
         11    1    4    4    0    0  0.30224033091E+01  0.68543537262E+00 -0.21286437739E+02  0.21510861798E+02  0.51100000000E-03 0. -1.
        -11    1    4    4    0    0 -0.29222286856E+02  0.48200568940E+01 -0.49769054314E+01  0.30032392270E+02  0.51100000000E-03 0.  1.
         12    1    4    4    0    0 -0.67406630227E+00 -0.24241599637E+01  0.12818178159E+01  0.28238225551E+01  0.00000000000E+00 0. -1.
</event>
<event>
 8    1  0.1265908E-006  0.9118800E+02  0.7816164E-02  0.1184000E+00
        -11   -1    0    0    0    0  0.00000000000E+00  0.00000000000E+00  0.45593999997E+02  0.45594000000E+02  0.51100000000E-03 0.  1.
         11   -1    0    0    0    0 -0.00000000000E+00 -0.00000000000E+00 -0.45593999997E+02  0.45594000000E+02  0.51100000000E-03 0. -1.
         23    2    1    2    0    0 -0.44408920985E-15 -0.88817841970E-15  0.00000000000E+00  0.91188000000E+02  0.91188000000E+02 0.  0.
    9900012    2    3    3    0    0  0.15773697071E+01 -0.75621724466E+01 -0.36001458109E+02  0.54367088369E+02  0.40000009556E+02 0.  0.
        -12    1    3    3    0    0 -0.15773697071E+01  0.75621724466E+01  0.36001458109E+02  0.36820911631E+02  0.00000000000E+00 0.  1.
         11    1    4    4    0    0  0.30818485914E+01 -0.79934863657E+01 -0.16352727040E+02  0.18460912679E+02  0.51100000000E-03 0. -1.
        -11    1    4    4    0    0  0.12762303658E+02  0.66243068879E+01 -0.78343835626E+01  0.16374840533E+02  0.51100000000E-03 0.  1.
         12    1    4    4    0    0 -0.14266782543E+02 -0.61929929687E+01 -0.11814347507E+02  0.19531335158E+02  0.00000000000E+00 0. -1.
</event>
<event>
 8    1  0.1265908E-006  0.9118800E+02  0.7816164E-02  0.1184000E+00
        -11   -1    0    0    0    0  0.00000000000E+00  0.00000000000E+00  0.45593999997E+02  0.45594000000E+02  0.51100000000E-03 0.  1.
         11   -1    0    0    0    0 -0.00000000000E+00 -0.00000000000E+00 -0.45593999997E+02  0.45594000000E+02  0.51100000000E-03 0. -1.
         23    2    1    2    0    0 -0.35527136788E-14  0.35527136788E-14 -0.88817841970E-15  0.91188000000E+02  0.91188000000E+02 0.  0.
    9900012    2    3    3    0    0  0.23186579895E+02 -0.28229103363E+02 -0.46129597647E+01  0.54367093416E+02  0.40000021059E+02 0.  0.
        -12    1    3    3    0    0 -0.23186579895E+02  0.28229103363E+02  0.46129597647E+01  0.36820906584E+02  0.00000000000E+00 0.  1.
         11    1    4    4    0    0  0.11523656980E+02 -0.17560487176E+02  0.84169001617E+00  0.21020795000E+02  0.51100000000E-03 0. -1.
        -11    1    4    4    0    0  0.12451648717E+02 -0.15935697092E+02 -0.13050952133E+02  0.24069012224E+02  0.51100000000E-03 0.  1.
        -12    1    4    4    0    0 -0.78872580209E+00  0.52670809060E+01  0.75963023522E+01  0.92772861920E+01  0.00000000000E+00 0.  1.
</event>
<event>
 8    1  0.1265908E-006  0.9118800E+02  0.7816164E-02  0.1184000E+00
        -11   -1    0    0    0    0  0.00000000000E+00  0.00000000000E+00  0.45593999997E+02  0.45594000000E+02  0.51100000000E-03 0.  1.
         11   -1    0    0    0    0 -0.00000000000E+00 -0.00000000000E+00 -0.45593999997E+02  0.45594000000E+02  0.51100000000E-03 0. -1.
         23    2    1    2    0    0 -0.35527136788E-14  0.00000000000E+00  0.00000000000E+00  0.91188000000E+02  0.91188000000E+02 0.  0.
    9900012    2    3    3    0    0 -0.25129082558E+02  0.19436992706E+02 -0.18614892840E+02  0.54367058797E+02  0.39999942139E+02 0.  0.
        -12    1    3    3    0    0  0.25129082558E+02 -0.19436992706E+02  0.18614892840E+02  0.36820941203E+02  0.00000000000E+00 0.  1.
         11    1    4    4    0    0 -0.17130037484E+02 -0.25965765735E+00 -0.57146935814E+01  0.18059992505E+02  0.51100000000E-03 0. -1.
        -11    1    4    4    0    0 -0.14860353771E+02  0.20787919233E+02 -0.54650134750E+01  0.26131093984E+02  0.51100000000E-03 0.  1.
        -12    1    4    4    0    0  0.68613086965E+01 -0.10912688699E+01 -0.74351857831E+01  0.10175972308E+02  0.00000000000E+00 0.  1.
</event>
<event>
 8    1  0.1265908E-006  0.9118800E+02  0.7816164E-02  0.1184000E+00
        -11   -1    0    0    0    0  0.00000000000E+00  0.00000000000E+00  0.45593999997E+02  0.45594000000E+02  0.51100000000E-03 0. -1.
         11   -1    0    0    0    0 -0.00000000000E+00 -0.00000000000E+00 -0.45593999997E+02  0.45594000000E+02  0.51100000000E-03 0.  1.
         23    2    1    2    0    0  0.00000000000E+00  0.22204460493E-15  0.00000000000E+00  0.91188000000E+02  0.91188000000E+02 0.  0.
    9900012    2    3    3    0    0 -0.35910382671E+02 -0.15169998906E+01 -0.79952129550E+01  0.54367077925E+02  0.39999985747E+02 0.  0.
        -12    1    3    3    0    0  0.35910382671E+02  0.15169998906E+01  0.79952129550E+01  0.36820922075E+02  0.00000000000E+00 0.  1.
         11    1    4    4    0    0 -0.11564392091E+02 -0.35123763292E+01  0.98886125704E+01  0.15615908899E+02  0.51100000000E-03 0. -1.
        -11    1    4    4    0    0 -0.71038960872E+01 -0.10396953298E+02 -0.10077622015E+02  0.16128249850E+02  0.51100000000E-03 0.  1.
        -12    1    4    4    0    0 -0.17242094493E+02  0.12392329737E+02 -0.78062035106E+01  0.22622919176E+02  0.00000000000E+00 0.  1.
</event>
<event>
 8    1  0.1265908E-006  0.9118800E+02  0.7816164E-02  0.1184000E+00
        -11   -1    0    0    0    0  0.00000000000E+00  0.00000000000E+00  0.45593999997E+02  0.45594000000E+02  0.51100000000E-03 0.  1.
         11   -1    0    0    0    0 -0.00000000000E+00 -0.00000000000E+00 -0.45593999997E+02  0.45594000000E+02  0.51100000000E-03 0. -1.
         23    2    1    2    0    0  0.17763568394E-14  0.00000000000E+00  0.00000000000E+00  0.91188000000E+02  0.91188000000E+02 0.  0.
    9900012    2    3    3    0    0 -0.11890456285E+02  0.16531502384E+02  0.30677370698E+02  0.54367155432E+02  0.40000162439E+02 0.  0.
         12    1    3    3    0    0  0.11890456285E+02 -0.16531502384E+02 -0.30677370698E+02  0.36820844568E+02  0.00000000000E+00 0. -1.
         11    1    4    4    0    0 -0.11417805071E+01  0.95470695043E+01 -0.22243304649E+01  0.98690346602E+01  0.51100000000E-03 0. -1.
        -11    1    4    4    0    0  0.23696014501E+01  0.14588396799E+02  0.15492052738E+02  0.21411212729E+02  0.51100000000E-03 0.  1.
        -12    1    4    4    0    0 -0.13118277228E+02 -0.76039639199E+01  0.17409648425E+02  0.23086908043E+02  0.00000000000E+00 0.  1.
</event>
<event>
 8    1  0.1265908E-006  0.9118800E+02  0.7816164E-02  0.1184000E+00
        -11   -1    0    0    0    0  0.00000000000E+00  0.00000000000E+00  0.45593999997E+02  0.45594000000E+02  0.51100000000E-03 0.  1.
         11   -1    0    0    0    0 -0.00000000000E+00 -0.00000000000E+00 -0.45593999997E+02  0.45594000000E+02  0.51100000000E-03 0. -1.
         23    2    1    2    0    0  0.00000000000E+00 -0.71054273576E-14  0.88817841970E-15  0.91188000000E+02  0.91188000000E+02 0.  0.
    9900012    2    3    3    0    0  0.48080451031E+01  0.35782515686E+02 -0.72301615441E+01  0.54367068963E+02  0.39999965314E+02 0.  0.
         12    1    3    3    0    0 -0.48080451031E+01 -0.35782515686E+02  0.72301615441E+01  0.36820931037E+02  0.00000000000E+00 0. -1.
         11    1    4    4    0    0  0.25085194127E+01  0.98842439563E+01  0.87382773977E+01  0.13429387193E+02  0.51100000000E-03 0. -1.
        -11    1    4    4    0    0  0.50985685419E+01  0.86135323277E+01  0.68840731326E+01  0.12148201657E+02  0.51100000000E-03 0.  1.
         12    1    4    4    0    0 -0.27990428515E+01  0.17284739402E+02 -0.22852512074E+02  0.28789480113E+02  0.00000000000E+00 0. -1.
</event>
<event>
 8    1  0.1265908E-006  0.9118800E+02  0.7816164E-02  0.1184000E+00
        -11   -1    0    0    0    0  0.00000000000E+00  0.00000000000E+00  0.45593999997E+02  0.45594000000E+02  0.51100000000E-03 0.  1.
         11   -1    0    0    0    0 -0.00000000000E+00 -0.00000000000E+00 -0.45593999997E+02  0.45594000000E+02  0.51100000000E-03 0. -1.
         23    2    1    2    0    0  0.00000000000E+00  0.00000000000E+00  0.00000000000E+00  0.91188000000E+02  0.91188000000E+02 0.  0.
    9900012    2    3    3    0    0 -0.19543677652E+02  0.28945093986E+02  0.11662214684E+02  0.54367067728E+02  0.39999962499E+02 0.  0.
         12    1    3    3    0    0  0.19543677652E+02 -0.28945093986E+02 -0.11662214684E+02  0.36820932272E+02  0.00000000000E+00 0. -1.
         11    1    4    4    0    0 -0.23036656432E+02  0.13578965614E+02  0.91228782915E+01  0.28254251986E+02  0.51100000000E-03 0. -1.
        -11    1    4    4    0    0 -0.47115913525E+01  0.90791195031E+01  0.92484105110E+01  0.13789945659E+02  0.51100000000E-03 0.  1.
         12    1    4    4    0    0  0.82045701317E+01  0.62870088692E+01 -0.67090741182E+01  0.12322870083E+02  0.00000000000E+00 0. -1.
</event>
<event>
 8    1  0.1265908E-006  0.9118800E+02  0.7816164E-02  0.1184000E+00
        -11   -1    0    0    0    0  0.00000000000E+00  0.00000000000E+00  0.45593999997E+02  0.45594000000E+02  0.51100000000E-03 0. -1.
         11   -1    0    0    0    0 -0.00000000000E+00 -0.00000000000E+00 -0.45593999997E+02  0.45594000000E+02  0.51100000000E-03 0.  1.
         23    2    1    2    0    0  0.00000000000E+00 -0.35527136788E-14  0.00000000000E+00  0.91188000000E+02  0.91188000000E+02 0.  0.
    9900012    2    3    3    0    0  0.19514338626E+02 -0.29695807527E+02 -0.96496328239E+01  0.54367274718E+02  0.40000434372E+02 0.  0.
         12    1    3    3    0    0 -0.19514338626E+02  0.29695807527E+02  0.96496328239E+01  0.36820725282E+02  0.00000000000E+00 0. -1.
         11    1    4    4    0    0  0.18845361411E+02 -0.24335837352E+02 -0.51777090769E+01  0.31212005669E+02  0.51100000000E-03 0. -1.
        -11    1    4    4    0    0  0.81785914119E+01 -0.27753368833E+01 -0.10198392139E+02  0.13364095734E+02  0.51100000000E-03 0.  1.
         12    1    4    4    0    0 -0.75096141970E+01 -0.25846332917E+01  0.57264683923E+01  0.97911733152E+01  0.00000000000E+00 0. -1.
</event>
<event>
 8    1  0.1265908E-006  0.9118800E+02  0.7816164E-02  0.1184000E+00
        -11   -1    0    0    0    0  0.00000000000E+00  0.00000000000E+00  0.45593999997E+02  0.45594000000E+02  0.51100000000E-03 0. -1.
         11   -1    0    0    0    0 -0.00000000000E+00 -0.00000000000E+00 -0.45593999997E+02  0.45594000000E+02  0.51100000000E-03 0.  1.
         23    2    1    2    0    0 -0.88817841970E-15  0.00000000000E+00  0.00000000000E+00  0.91188000000E+02  0.91188000000E+02 0.  0.
    9900012    2    3    3    0    0  0.68638401301E+01  0.21133782313E+02  0.29360343088E+02  0.54367098295E+02  0.40000032182E+02 0.  0.
        -12    1    3    3    0    0 -0.68638401301E+01 -0.21133782313E+02 -0.29360343088E+02  0.36820901705E+02  0.00000000000E+00 0.  1.
         11    1    4    4    0    0 -0.91681556339E+01 -0.33684611514E+01  0.35501784054E+01  0.10392563458E+02  0.51100000000E-03 0. -1.
        -11    1    4    4    0    0 -0.18917979406E+01  0.42706698109E+01 -0.21002175759E+01  0.51213703449E+01  0.51100000000E-03 0.  1.
         12    1    4    4    0    0  0.17923793705E+02  0.20231573653E+02  0.27910382258E+02  0.38853164492E+02  0.00000000000E+00 0. -1.
</event>
<event>
 8    1  0.1265908E-006  0.9118800E+02  0.7816164E-02  0.1184000E+00
        -11   -1    0    0    0    0  0.00000000000E+00  0.00000000000E+00  0.45593999997E+02  0.45594000000E+02  0.51100000000E-03 0. -1.
         11   -1    0    0    0    0 -0.00000000000E+00 -0.00000000000E+00 -0.45593999997E+02  0.45594000000E+02  0.51100000000E-03 0.  1.
         23    2    1    2    0    0  0.35527136788E-14  0.35527136788E-14  0.35527136788E-14  0.91188000000E+02  0.91188000000E+02 0.  0.
    9900012    2    3    3    0    0 -0.28073243335E+02 -0.22952040829E+02  0.63935442800E+01  0.54367074183E+02  0.39999977215E+02 0.  0.
         12    1    3    3    0    0  0.28073243335E+02  0.22952040829E+02 -0.63935442800E+01  0.36820925817E+02  0.00000000000E+00 0. -1.
         11    1    4    4    0    0 -0.12543865475E+01  0.10879857678E+01 -0.39061374834E+01  0.42444209195E+01  0.51100000000E-03 0. -1.
        -11    1    4    4    0    0 -0.22644282354E+01 -0.59257418338E+01  0.17634144445E+02  0.18740466966E+02  0.51100000000E-03 0.  1.
        -12    1    4    4    0    0 -0.24554428552E+02 -0.18114284763E+02 -0.73344626820E+01  0.31382186298E+02  0.00000000000E+00 0.  1.
</event>
<event>
 8    1  0.1265908E-006  0.9118800E+02  0.7816164E-02  0.1184000E+00
        -11   -1    0    0    0    0  0.00000000000E+00  0.00000000000E+00  0.45593999997E+02  0.45594000000E+02  0.51100000000E-03 0.  1.
         11   -1    0    0    0    0 -0.00000000000E+00 -0.00000000000E+00 -0.45593999997E+02  0.45594000000E+02  0.51100000000E-03 0. -1.
         23    2    1    2    0    0  0.00000000000E+00 -0.35527136788E-14  0.00000000000E+00  0.91188000000E+02  0.91188000000E+02 0.  0.
    9900012    2    3    3    0    0  0.22033985290E+01 -0.25788465773E+02  0.26189298769E+02  0.54367091510E+02  0.40000016715E+02 0.  0.
         12    1    3    3    0    0 -0.22033985290E+01  0.25788465773E+02 -0.26189298769E+02  0.36820908490E+02  0.00000000000E+00 0. -1.
         11    1    4    4    0    0  0.14834281264E+01 -0.16899181822E+02 -0.11188226957E+01  0.17001019668E+02  0.51100000000E-03 0. -1.
        -11    1    4    4    0    0 -0.69321061550E+01 -0.13131437247E+02  0.97933873796E+01  0.17787613008E+02  0.51100000000E-03 0.  1.
         12    1    4    4    0    0  0.76520765577E+01  0.42421532955E+01  0.17514734085E+02  0.19578458834E+02  0.00000000000E+00 0. -1.
</event>
<event>
 8    1  0.1265908E-006  0.9118800E+02  0.7816164E-02  0.1184000E+00
        -11   -1    0    0    0    0  0.00000000000E+00  0.00000000000E+00  0.45593999997E+02  0.45594000000E+02  0.51100000000E-03 0. -1.
         11   -1    0    0    0    0 -0.00000000000E+00 -0.00000000000E+00 -0.45593999997E+02  0.45594000000E+02  0.51100000000E-03 0.  1.
         23    2    1    2    0    0  0.35527136788E-14 -0.35527136788E-14  0.35527136788E-14  0.91188000000E+02  0.91188000000E+02 0.  0.
    9900012    2    3    3    0    0 -0.18205683649E+02  0.22588283128E+02 -0.22673779562E+02  0.54367112838E+02  0.40000065336E+02 0.  0.
         12    1    3    3    0    0  0.18205683649E+02 -0.22588283128E+02  0.22673779562E+02  0.36820887162E+02  0.00000000000E+00 0. -1.
         11    1    4    4    0    0 -0.10788486895E+02 -0.20920939444E+01  0.67984335808E+01  0.12922345220E+02  0.51100000000E-03 0. -1.
        -11    1    4    4    0    0 -0.20755754577E+01 -0.35573698372E+00  0.35790976575E+00  0.21360388442E+01  0.51100000000E-03 0.  1.
        -12    1    4    4    0    0 -0.53416212958E+01  0.25036114056E+02 -0.29830122908E+02  0.39308728774E+02  0.00000000000E+00 0.  1.
</event>
<event>
 8    1  0.1265908E-006  0.9118800E+02  0.7816164E-02  0.1184000E+00
        -11   -1    0    0    0    0  0.00000000000E+00  0.00000000000E+00  0.45593999997E+02  0.45594000000E+02  0.51100000000E-03 0.  1.
         11   -1    0    0    0    0 -0.00000000000E+00 -0.00000000000E+00 -0.45593999997E+02  0.45594000000E+02  0.51100000000E-03 0. -1.
         23    2    1    2    0    0  0.88817841970E-15  0.71054273576E-14  0.17763568394E-14  0.91188000000E+02  0.91188000000E+02 0.  0.
    9900012    2    3    3    0    0  0.72969019622E+01 -0.33011117863E+02 -0.14587752767E+02  0.54367065579E+02  0.39999957601E+02 0.  0.
        -12    1    3    3    0    0 -0.72969019622E+01  0.33011117863E+02  0.14587752767E+02  0.36820934421E+02  0.00000000000E+00 0.  1.
         11    1    4    4    0    0  0.10979630261E+02 -0.34617902445E+01 -0.10268356608E+02  0.15426451960E+02  0.51100000000E-03 0. -1.
        -11    1    4    4    0    0  0.84634169185E+01 -0.29634413362E+01  0.16247894478E+01  0.91132514231E+01  0.51100000000E-03 0.  1.
        -12    1    4    4    0    0 -0.12146145218E+02 -0.26585886282E+02 -0.59441856074E+01  0.29827362197E+02  0.00000000000E+00 0.  1.
</event>
<event>
 8    1  0.1265908E-006  0.9118800E+02  0.7816164E-02  0.1184000E+00
        -11   -1    0    0    0    0  0.00000000000E+00  0.00000000000E+00  0.45593999997E+02  0.45594000000E+02  0.51100000000E-03 0. -1.
         11   -1    0    0    0    0 -0.00000000000E+00 -0.00000000000E+00 -0.45593999997E+02  0.45594000000E+02  0.51100000000E-03 0.  1.
         23    2    1    2    0    0 -0.17763568394E-14 -0.35527136788E-14  0.35527136788E-14  0.91188000000E+02  0.91188000000E+02 0.  0.
    9900012    2    3    3    0    0 -0.93263159664E+01 -0.18760763155E+02  0.30279240776E+02  0.54367097979E+02  0.40000031464E+02 0.  0.
        -12    1    3    3    0    0  0.93263159664E+01  0.18760763155E+02 -0.30279240776E+02  0.36820902021E+02  0.00000000000E+00 0.  1.
         11    1    4    4    0    0 -0.94900462034E+00 -0.77612317848E+01  0.25075290922E+01  0.82112746268E+01  0.51100000000E-03 0. -1.
        -11    1    4    4    0    0 -0.18223939749E+01 -0.18619459280E+02  0.23951431490E+01  0.18861126548E+02  0.51100000000E-03 0.  1.
         12    1    4    4    0    0 -0.65549173712E+01  0.76199279100E+01  0.25376568534E+02  0.27294696805E+02  0.00000000000E+00 0. -1.
</event>
<event>
 8    1  0.1265908E-006  0.9118800E+02  0.7816164E-02  0.1184000E+00
        -11   -1    0    0    0    0  0.00000000000E+00  0.00000000000E+00  0.45593999997E+02  0.45594000000E+02  0.51100000000E-03 0. -1.
         11   -1    0    0    0    0 -0.00000000000E+00 -0.00000000000E+00 -0.45593999997E+02  0.45594000000E+02  0.51100000000E-03 0.  1.
         23    2    1    2    0    0  0.88817841970E-15 -0.35527136788E-14 -0.35527136788E-14  0.91188000000E+02  0.91188000000E+02 0.  0.
    9900012    2    3    3    0    0  0.51606566822E+01 -0.23956792598E+02 -0.27481232999E+02  0.54367102997E+02  0.40000042902E+02 0.  0.
        -12    1    3    3    0    0 -0.51606566822E+01  0.23956792598E+02  0.27481232999E+02  0.36820897003E+02  0.00000000000E+00 0.  1.
         11    1    4    4    0    0  0.69448611327E+01 -0.91569207143E+01  0.84420264219E+01  0.14260017654E+02  0.51100000000E-03 0. -1.
        -11    1    4    4    0    0  0.12573454307E-01  0.12790124034E+01 -0.10186508663E+01  0.16351393422E+01  0.51100000000E-03 0.  1.
        -12    1    4    4    0    0 -0.17967779048E+01 -0.16078884287E+02 -0.34904608554E+02  0.38471946001E+02  0.00000000000E+00 0.  1.
</event>
<event>
 8    1  0.1265908E-006  0.9118800E+02  0.7816164E-02  0.1184000E+00
        -11   -1    0    0    0    0  0.00000000000E+00  0.00000000000E+00  0.45593999997E+02  0.45594000000E+02  0.51100000000E-03 0.  1.
         11   -1    0    0    0    0 -0.00000000000E+00 -0.00000000000E+00 -0.45593999997E+02  0.45594000000E+02  0.51100000000E-03 0. -1.
         23    2    1    2    0    0  0.00000000000E+00  0.00000000000E+00 -0.35527136788E-14  0.91188000000E+02  0.91188000000E+02 0.  0.
    9900012    2    3    3    0    0  0.93050316664E+01  0.34038938877E+02 -0.10514141598E+02  0.54367080026E+02  0.39999990536E+02 0.  0.
        -12    1    3    3    0    0 -0.93050316664E+01 -0.34038938877E+02  0.10514141598E+02  0.36820919974E+02  0.00000000000E+00 0.  1.
         11    1    4    4    0    0  0.18140344576E+01  0.17463114193E+02  0.37153965120E+01  0.17945897856E+02  0.51100000000E-03 0. -1.
        -11    1    4    4    0    0  0.58621811253E+01  0.18892132591E+02  0.20596657664E+01  0.19887686259E+02  0.51100000000E-03 0.  1.
        -12    1    4    4    0    0  0.16288160835E+01 -0.23163079078E+01 -0.16289203876E+02  0.16533495912E+02  0.00000000000E+00 0.  1.
</event>
<event>
 8    1  0.1265908E-006  0.9118800E+02  0.7816164E-02  0.1184000E+00
        -11   -1    0    0    0    0  0.00000000000E+00  0.00000000000E+00  0.45593999997E+02  0.45594000000E+02  0.51100000000E-03 0. -1.
         11   -1    0    0    0    0 -0.00000000000E+00 -0.00000000000E+00 -0.45593999997E+02  0.45594000000E+02  0.51100000000E-03 0.  1.
         23    2    1    2    0    0  0.35527136788E-14  0.00000000000E+00  0.00000000000E+00  0.91188000000E+02  0.91188000000E+02 0.  0.
    9900012    2    3    3    0    0 -0.14607468988E+02 -0.87892539069E+01  0.32636651835E+02  0.54367079622E+02  0.39999989615E+02 0.  0.
        -12    1    3    3    0    0  0.14607468988E+02  0.87892539069E+01 -0.32636651835E+02  0.36820920378E+02  0.00000000000E+00 0.  1.
         11    1    4    4    0    0  0.11486603826E+01  0.24063377058E+01  0.48529495798E+00  0.27102386032E+01  0.51100000000E-03 0. -1.
        -11    1    4    4    0    0 -0.12284425382E+01 -0.55360572147E+01 -0.72957247751E+01  0.92403788239E+01  0.51100000000E-03 0.  1.
         12    1    4    4    0    0 -0.14527686832E+02 -0.56595343980E+01  0.39447081652E+02  0.42416462195E+02  0.00000000000E+00 0. -1.
</event>
<event>
 8    1  0.1265908E-006  0.9118800E+02  0.7816164E-02  0.1184000E+00
        -11   -1    0    0    0    0  0.00000000000E+00  0.00000000000E+00  0.45593999997E+02  0.45594000000E+02  0.51100000000E-03 0.  1.
         11   -1    0    0    0    0 -0.00000000000E+00 -0.00000000000E+00 -0.45593999997E+02  0.45594000000E+02  0.51100000000E-03 0. -1.
         23    2    1    2    0    0  0.35527136788E-14  0.17763568394E-14 -0.71054273576E-14  0.91188000000E+02  0.91188000000E+02 0.  0.
    9900012    2    3    3    0    0  0.30115534875E+02  0.12423536591E+02 -0.17160712411E+02  0.54367085391E+02  0.40000002765E+02 0.  0.
        -12    1    3    3    0    0 -0.30115534875E+02 -0.12423536591E+02  0.17160712411E+02  0.36820914609E+02  0.00000000000E+00 0.  1.
         11    1    4    4    0    0 -0.67849683350E+00 -0.52582629148E+01 -0.84110606969E+00  0.53681604406E+01  0.51100000000E-03 0. -1.
        -11    1    4    4    0    0  0.47553304558E+01 -0.26102729099E+01  0.67982878581E+01  0.86973220287E+01  0.51100000000E-03 0.  1.
         12    1    4    4    0    0  0.26038701252E+02  0.20292072415E+02 -0.23117894199E+02  0.40301602921E+02  0.00000000000E+00 0. -1.
</event>
<event>
 8    1  0.1265908E-006  0.9118800E+02  0.7816164E-02  0.1184000E+00
        -11   -1    0    0    0    0  0.00000000000E+00  0.00000000000E+00  0.45593999997E+02  0.45594000000E+02  0.51100000000E-03 0. -1.
         11   -1    0    0    0    0 -0.00000000000E+00 -0.00000000000E+00 -0.45593999997E+02  0.45594000000E+02  0.51100000000E-03 0.  1.
         23    2    1    2    0    0  0.00000000000E+00 -0.17763568394E-14 -0.35527136788E-14  0.91188000000E+02  0.91188000000E+02 0.  0.
    9900012    2    3    3    0    0 -0.22004897631E+02  0.12478388345E+02 -0.26755446892E+02  0.54367087004E+02  0.40000006443E+02 0.  0.
         12    1    3    3    0    0  0.22004897631E+02 -0.12478388345E+02  0.26755446892E+02  0.36820912996E+02  0.00000000000E+00 0. -1.
         11    1    4    4    0    0 -0.24475435272E+02  0.16879523146E+02 -0.18076257229E+02  0.34795348958E+02  0.51100000000E-03 0. -1.
        -11    1    4    4    0    0  0.84729534592E+01 -0.30687244514E+01 -0.98092147541E+01  0.13320236651E+02  0.51100000000E-03 0.  1.
         12    1    4    4    0    0 -0.60024158180E+01 -0.13324103495E+01  0.11300250915E+01  0.62515013955E+01  0.00000000000E+00 0. -1.
</event>
<event>
 8    1  0.1265908E-006  0.9118800E+02  0.7816164E-02  0.1184000E+00
        -11   -1    0    0    0    0  0.00000000000E+00  0.00000000000E+00  0.45593999997E+02  0.45594000000E+02  0.51100000000E-03 0.  1.
         11   -1    0    0    0    0 -0.00000000000E+00 -0.00000000000E+00 -0.45593999997E+02  0.45594000000E+02  0.51100000000E-03 0. -1.
         23    2    1    2    0    0 -0.17763568394E-14 -0.71054273576E-14  0.00000000000E+00  0.91188000000E+02  0.91188000000E+02 0.  0.
    9900012    2    3    3    0    0 -0.15338783304E+02  0.29234763159E+02 -0.16304281675E+02  0.54367092201E+02  0.40000018291E+02 0.  0.
        -12    1    3    3    0    0  0.15338783304E+02 -0.29234763159E+02  0.16304281675E+02  0.36820907799E+02  0.00000000000E+00 0.  1.
         11    1    4    4    0    0 -0.14208798640E+02  0.36264882994E+02 -0.11470428490E+02  0.40602985449E+02  0.51100000000E-03 0. -1.
        -11    1    4    4    0    0 -0.46496180488E+01 -0.41974525043E+01  0.10441528537E+01  0.63504181728E+01  0.51100000000E-03 0.  1.
        -12    1    4    4    0    0  0.35196333852E+01 -0.28326673304E+01 -0.58780060383E+01  0.74136885797E+01  0.00000000000E+00 0.  1.
</event>
<event>
 8    1  0.1265908E-006  0.9118800E+02  0.7816164E-02  0.1184000E+00
        -11   -1    0    0    0    0  0.00000000000E+00  0.00000000000E+00  0.45593999997E+02  0.45594000000E+02  0.51100000000E-03 0. -1.
         11   -1    0    0    0    0 -0.00000000000E+00 -0.00000000000E+00 -0.45593999997E+02  0.45594000000E+02  0.51100000000E-03 0.  1.
         23    2    1    2    0    0 -0.44408920985E-15  0.71054273576E-14  0.00000000000E+00  0.91188000000E+02  0.91188000000E+02 0.  0.
    9900012    2    3    3    0    0  0.18948753944E+01 -0.34943018216E+02 -0.11453216604E+02  0.54367065121E+02  0.39999956556E+02 0.  0.
         12    1    3    3    0    0 -0.18948753944E+01  0.34943018216E+02  0.11453216604E+02  0.36820934879E+02  0.00000000000E+00 0. -1.
         11    1    4    4    0    0 -0.28409966129E+01 -0.47200694746E+00 -0.10351134175E+02  0.10744302270E+02  0.51100000000E-03 0. -1.
        -11    1    4    4    0    0  0.10410942946E+02 -0.35762721370E+02 -0.33184719635E+01  0.37394815539E+02  0.51100000000E-03 0.  1.
         12    1    4    4    0    0 -0.56750709383E+01  0.12917101013E+01  0.22163895344E+01  0.62279473110E+01  0.00000000000E+00 0. -1.
</event>
<event>
 8    1  0.1265908E-006  0.9118800E+02  0.7816164E-02  0.1184000E+00
        -11   -1    0    0    0    0  0.00000000000E+00  0.00000000000E+00  0.45593999997E+02  0.45594000000E+02  0.51100000000E-03 0.  1.
         11   -1    0    0    0    0 -0.00000000000E+00 -0.00000000000E+00 -0.45593999997E+02  0.45594000000E+02  0.51100000000E-03 0. -1.
         23    2    1    2    0    0 -0.35527136788E-14  0.00000000000E+00  0.00000000000E+00  0.91188000000E+02  0.91188000000E+02 0.  0.
    9900012    2    3    3    0    0  0.29415318782E+02 -0.89646523245E+01  0.20252181186E+02  0.54367125308E+02  0.40000093764E+02 0.  0.
         12    1    3    3    0    0 -0.29415318782E+02  0.89646523245E+01 -0.20252181186E+02  0.36820874692E+02  0.00000000000E+00 0. -1.
         11    1    4    4    0    0  0.32459833601E+01 -0.96928921429E+01  0.17598452542E+02  0.20351759093E+02  0.51100000000E-03 0.  1.
        -11    1    4    4    0    0  0.79685799526E+01  0.14095777193E+00 -0.92881255837E+01  0.12238766795E+02  0.51100000000E-03 0. -1.
         12    1    4    4    0    0  0.18200755469E+02  0.58728204646E+00  0.11941854227E+02  0.21776599419E+02  0.00000000000E+00 0. -1.
</event>
<event>
 8    1  0.1265908E-006  0.9118800E+02  0.7816164E-02  0.1184000E+00
        -11   -1    0    0    0    0  0.00000000000E+00  0.00000000000E+00  0.45593999997E+02  0.45594000000E+02  0.51100000000E-03 0.  1.
         11   -1    0    0    0    0 -0.00000000000E+00 -0.00000000000E+00 -0.45593999997E+02  0.45594000000E+02  0.51100000000E-03 0. -1.
         23    2    1    2    0    0  0.00000000000E+00  0.00000000000E+00  0.00000000000E+00  0.91188000000E+02  0.91188000000E+02 0.  0.
    9900012    2    3    3    0    0 -0.83942849240E+01 -0.34852134823E+02  0.84049292107E+01  0.54367107070E+02  0.40000052188E+02 0.  0.
        -12    1    3    3    0    0  0.83942849240E+01  0.34852134823E+02 -0.84049292107E+01  0.36820892930E+02  0.00000000000E+00 0.  1.
         11    1    4    4    0    0 -0.95094801996E+01 -0.19518073480E+02 -0.27310655468E+01  0.21882507290E+02  0.51100000000E-03 0. -1.
        -11    1    4    4    0    0  0.34492539095E+01 -0.13555229925E+02 -0.59124111066E+01  0.15185460685E+02  0.51100000000E-03 0.  1.
         12    1    4    4    0    0 -0.23340586339E+01 -0.17788314181E+01  0.17048405864E+02  0.17299139095E+02  0.00000000000E+00 0. -1.
</event>
<event>
 8    1  0.1265908E-006  0.9118800E+02  0.7816164E-02  0.1184000E+00
        -11   -1    0    0    0    0  0.00000000000E+00  0.00000000000E+00  0.45593999997E+02  0.45594000000E+02  0.51100000000E-03 0.  1.
         11   -1    0    0    0    0 -0.00000000000E+00 -0.00000000000E+00 -0.45593999997E+02  0.45594000000E+02  0.51100000000E-03 0. -1.
         23    2    1    2    0    0  0.17763568394E-14 -0.71054273576E-14 -0.17763568394E-14  0.91188000000E+02  0.91188000000E+02 0.  0.
    9900012    2    3    3    0    0 -0.97550822087E+01  0.35254047864E+02  0.42155446069E+01  0.54367077469E+02  0.39999984707E+02 0.  0.
        -12    1    3    3    0    0  0.97550822087E+01 -0.35254047864E+02 -0.42155446069E+01  0.36820922531E+02  0.00000000000E+00 0.  1.
         11    1    4    4    0    0 -0.23368204276E+01  0.96475561192E+01 -0.10155455331E+02  0.14201033132E+02  0.51100000000E-03 0. -1.
        -11    1    4    4    0    0  0.74163695215E+01  0.44465662921E+01  0.11170853209E+02  0.14126657437E+02  0.51100000000E-03 0.  1.
        -12    1    4    4    0    0 -0.14834631303E+02  0.21159925452E+02  0.32001467289E+01  0.26039386900E+02  0.00000000000E+00 0.  1.
</event>
<event>
 8    1  0.1265908E-006  0.9118800E+02  0.7816164E-02  0.1184000E+00
        -11   -1    0    0    0    0  0.00000000000E+00  0.00000000000E+00  0.45593999997E+02  0.45594000000E+02  0.51100000000E-03 0.  1.
         11   -1    0    0    0    0 -0.00000000000E+00 -0.00000000000E+00 -0.45593999997E+02  0.45594000000E+02  0.51100000000E-03 0. -1.
         23    2    1    2    0    0  0.00000000000E+00  0.00000000000E+00  0.35527136788E-14  0.91188000000E+02  0.91188000000E+02 0.  0.
    9900012    2    3    3    0    0  0.24428249476E+02 -0.85281728936E+01 -0.26197526512E+02  0.54367088812E+02  0.40000010564E+02 0.  0.
        -12    1    3    3    0    0 -0.24428249476E+02  0.85281728936E+01  0.26197526512E+02  0.36820911188E+02  0.00000000000E+00 0.  1.
         11    1    4    4    0    0 -0.64137144824E+01  0.21935037797E+00 -0.59159339116E+01  0.87282370705E+01  0.51100000000E-03 0.  1.
        -11    1    4    4    0    0  0.30479430212E+02 -0.75853812213E+01 -0.68438817352E+01  0.32146110056E+02  0.51100000000E-03 0. -1.
         12    1    4    4    0    0  0.36253374725E+00 -0.11621420502E+01 -0.13437710866E+02  0.13492741685E+02  0.00000000000E+00 0. -1.
</event>
<event>
 8    1  0.1265908E-006  0.9118800E+02  0.7816164E-02  0.1184000E+00
        -11   -1    0    0    0    0  0.00000000000E+00  0.00000000000E+00  0.45593999997E+02  0.45594000000E+02  0.51100000000E-03 0.  1.
         11   -1    0    0    0    0 -0.00000000000E+00 -0.00000000000E+00 -0.45593999997E+02  0.45594000000E+02  0.51100000000E-03 0. -1.
         23    2    1    2    0    0  0.44408920985E-15 -0.35527136788E-14  0.00000000000E+00  0.91188000000E+02  0.91188000000E+02 0.  0.
    9900012    2    3    3    0    0  0.39579976942E+01 -0.14649847629E+02 -0.33548417462E+02  0.54367080735E+02  0.39999992151E+02 0.  0.
        -12    1    3    3    0    0 -0.39579976942E+01  0.14649847629E+02  0.33548417462E+02  0.36820919265E+02  0.00000000000E+00 0.  1.
         11    1    4    4    0    0 -0.52662509614E+01 -0.20577998994E+00 -0.25545498598E+01  0.58567456698E+01  0.51100000000E-03 0. -1.
        -11    1    4    4    0    0 -0.27940106115E+01  0.52624367163E+01  0.35714462616E+01  0.69465793129E+01  0.51100000000E-03 0.  1.
        -12    1    4    4    0    0  0.12018259267E+02 -0.19706504356E+02 -0.34565313864E+02  0.41563755752E+02  0.00000000000E+00 0.  1.
</event>
<event>
 8    1  0.1265908E-006  0.9118800E+02  0.7816164E-02  0.1184000E+00
        -11   -1    0    0    0    0  0.00000000000E+00  0.00000000000E+00  0.45593999997E+02  0.45594000000E+02  0.51100000000E-03 0.  1.
         11   -1    0    0    0    0 -0.00000000000E+00 -0.00000000000E+00 -0.45593999997E+02  0.45594000000E+02  0.51100000000E-03 0. -1.
         23    2    1    2    0    0  0.17763568394E-14  0.00000000000E+00 -0.88817841970E-15  0.91188000000E+02  0.91188000000E+02 0.  0.
    9900012    2    3    3    0    0  0.15203817541E+02  0.32841350132E+02 -0.67874605516E+01  0.54367082480E+02  0.39999996129E+02 0.  0.
        -12    1    3    3    0    0 -0.15203817541E+02 -0.32841350132E+02  0.67874605516E+01  0.36820917520E+02  0.00000000000E+00 0.  1.
         11    1    4    4    0    0  0.15224467207E+02  0.24218716887E+02 -0.47702317206E+01  0.29001478589E+02  0.51100000000E-03 0. -1.
        -11    1    4    4    0    0  0.72998001967E+00 -0.42851689906E+01  0.79361193572E+01  0.90486206032E+01  0.51100000000E-03 0.  1.
         12    1    4    4    0    0 -0.75062968565E+00  0.12907802235E+02 -0.99533481883E+01  0.16316983288E+02  0.00000000000E+00 0. -1.
</event>
<event>
 8    1  0.1265908E-006  0.9118800E+02  0.7816164E-02  0.1184000E+00
        -11   -1    0    0    0    0  0.00000000000E+00  0.00000000000E+00  0.45593999997E+02  0.45594000000E+02  0.51100000000E-03 0.  1.
         11   -1    0    0    0    0 -0.00000000000E+00 -0.00000000000E+00 -0.45593999997E+02  0.45594000000E+02  0.51100000000E-03 0. -1.
         23    2    1    2    0    0  0.00000000000E+00 -0.35527136788E-14 -0.35527136788E-14  0.91188000000E+02  0.91188000000E+02 0.  0.
    9900012    2    3    3    0    0 -0.11772916427E+02  0.16955778460E+02 -0.30490484764E+02  0.54367222638E+02  0.40000315647E+02 0.  0.
        -12    1    3    3    0    0  0.11772916427E+02 -0.16955778460E+02  0.30490484764E+02  0.36820777362E+02  0.00000000000E+00 0.  1.
         11    1    4    4    0    0 -0.47235053783E+01  0.13333554363E+02 -0.12102017404E+02  0.18615960907E+02  0.51100000000E-03 0. -1.
        -11    1    4    4    0    0 -0.99290755508E+01  0.15500163937E+02 -0.10272792792E+02  0.21080130345E+02  0.51100000000E-03 0.  1.
        -12    1    4    4    0    0  0.28796645018E+01 -0.11877939839E+02 -0.81156745676E+01  0.14671131386E+02  0.00000000000E+00 0.  1.
</event>
<event>
 8    1  0.1265908E-006  0.9118800E+02  0.7816164E-02  0.1184000E+00
        -11   -1    0    0    0    0  0.00000000000E+00  0.00000000000E+00  0.45593999997E+02  0.45594000000E+02  0.51100000000E-03 0.  1.
         11   -1    0    0    0    0 -0.00000000000E+00 -0.00000000000E+00 -0.45593999997E+02  0.45594000000E+02  0.51100000000E-03 0. -1.
         23    2    1    2    0    0  0.17763568394E-14  0.00000000000E+00  0.35527136788E-14  0.91188000000E+02  0.91188000000E+02 0.  0.
    9900012    2    3    3    0    0 -0.98951619608E+01 -0.17099001259E+02  0.31072332870E+02  0.54367082789E+02  0.39999996834E+02 0.  0.
         12    1    3    3    0    0  0.98951619608E+01  0.17099001259E+02 -0.31072332870E+02  0.36820917211E+02  0.00000000000E+00 0. -1.
         11    1    4    4    0    0  0.31364746739E+01 -0.14295280327E+01 -0.39710845416E-01  0.34471148790E+01  0.51100000000E-03 0. -1.
        -11    1    4    4    0    0 -0.41171823767E+01 -0.12906049587E+02  0.37325542317E+02  0.39707850813E+02  0.51100000000E-03 0.  1.
         12    1    4    4    0    0 -0.89144542580E+01 -0.27634236387E+01 -0.62134986016E+01  0.11212117097E+02  0.00000000000E+00 0. -1.
</event>
<event>
 8    1  0.1265908E-006  0.9118800E+02  0.7816164E-02  0.1184000E+00
        -11   -1    0    0    0    0  0.00000000000E+00  0.00000000000E+00  0.45593999997E+02  0.45594000000E+02  0.51100000000E-03 0. -1.
         11   -1    0    0    0    0 -0.00000000000E+00 -0.00000000000E+00 -0.45593999997E+02  0.45594000000E+02  0.51100000000E-03 0.  1.
         23    2    1    2    0    0  0.00000000000E+00  0.17763568394E-14 -0.71054273576E-14  0.91188000000E+02  0.91188000000E+02 0.  0.
    9900012    2    3    3    0    0 -0.75353542845E+01  0.15225535497E+02 -0.32667724741E+02  0.54367099208E+02  0.40000034264E+02 0.  0.
         12    1    3    3    0    0  0.75353542845E+01 -0.15225535497E+02  0.32667724741E+02  0.36820900792E+02  0.00000000000E+00 0. -1.
         11    1    4    4    0    0  0.31031873818E+01  0.74683717477E+01 -0.48402839283E+00  0.81018906580E+01  0.51100000000E-03 0. -1.
        -11    1    4    4    0    0 -0.64125497443E+01  0.15455014317E+02 -0.33441507347E+02  0.37394019250E+02  0.51100000000E-03 0.  1.
        -12    1    4    4    0    0 -0.42259919220E+01 -0.76978505679E+01  0.12578109981E+01  0.88711893000E+01  0.00000000000E+00 0.  1.
</event>
<event>
 8    1  0.1265908E-006  0.9118800E+02  0.7816164E-02  0.1184000E+00
        -11   -1    0    0    0    0  0.00000000000E+00  0.00000000000E+00  0.45593999997E+02  0.45594000000E+02  0.51100000000E-03 0.  1.
         11   -1    0    0    0    0 -0.00000000000E+00 -0.00000000000E+00 -0.45593999997E+02  0.45594000000E+02  0.51100000000E-03 0. -1.
         23    2    1    2    0    0  0.66613381478E-15 -0.35527136788E-14  0.00000000000E+00  0.91188000000E+02  0.91188000000E+02 0.  0.
    9900012    2    3    3    0    0  0.63580871129E+00 -0.17724963215E+02 -0.32267650301E+02  0.54367084346E+02  0.40000000383E+02 0.  0.
        -12    1    3    3    0    0 -0.63580871129E+00  0.17724963215E+02  0.32267650301E+02  0.36820915654E+02  0.00000000000E+00 0.  1.
         11    1    4    4    0    0 -0.20132261236E+01 -0.37559057317E+01 -0.28659792669E+02  0.28974879178E+02  0.51100000000E-03 0. -1.
        -11    1    4    4    0    0  0.31704104894E+01 -0.17241501765E+02 -0.85006625716E+01  0.19482868121E+02  0.51100000000E-03 0.  1.
        -12    1    4    4    0    0 -0.52137565453E+00  0.32724442821E+01  0.48928049401E+01  0.59093370469E+01  0.00000000000E+00 0.  1.
</event>
<event>
 8    1  0.1265908E-006  0.9118800E+02  0.7816164E-02  0.1184000E+00
        -11   -1    0    0    0    0  0.00000000000E+00  0.00000000000E+00  0.45593999997E+02  0.45594000000E+02  0.51100000000E-03 0. -1.
         11   -1    0    0    0    0 -0.00000000000E+00 -0.00000000000E+00 -0.45593999997E+02  0.45594000000E+02  0.51100000000E-03 0.  1.
         23    2    1    2    0    0  0.00000000000E+00  0.35527136788E-14 -0.35527136788E-14  0.91188000000E+02  0.91188000000E+02 0.  0.
    9900012    2    3    3    0    0  0.23119242459E+02 -0.21398382627E+02  0.19062765453E+02  0.54367093199E+02  0.40000020566E+02 0.  0.
         12    1    3    3    0    0 -0.23119242459E+02  0.21398382627E+02 -0.19062765453E+02  0.36820906801E+02  0.00000000000E+00 0. -1.
         11    1    4    4    0    0  0.16465916819E+02  0.30667299983E+01 -0.50205972026E+00  0.16756590160E+02  0.51100000000E-03 0. -1.
        -11    1    4    4    0    0  0.93263168352E+01 -0.39301555660E+01  0.17022928617E+01  0.10262753516E+02  0.51100000000E-03 0.  1.
         12    1    4    4    0    0 -0.26729911957E+01 -0.20534957060E+02  0.17862532312E+02  0.27347749523E+02  0.00000000000E+00 0. -1.
</event>
<event>
 8    1  0.1265908E-006  0.9118800E+02  0.7816164E-02  0.1184000E+00
        -11   -1    0    0    0    0  0.00000000000E+00  0.00000000000E+00  0.45593999997E+02  0.45594000000E+02  0.51100000000E-03 0.  1.
         11   -1    0    0    0    0 -0.00000000000E+00 -0.00000000000E+00 -0.45593999997E+02  0.45594000000E+02  0.51100000000E-03 0. -1.
         23    2    1    2    0    0  0.15543122345E-14  0.35527136788E-14  0.35527136788E-14  0.91188000000E+02  0.91188000000E+02 0.  0.
    9900012    2    3    3    0    0 -0.10036201789E+01 -0.27931726048E+02 -0.23970636221E+02  0.54367082381E+02  0.39999995904E+02 0.  0.
        -12    1    3    3    0    0  0.10036201789E+01  0.27931726048E+02  0.23970636221E+02  0.36820917619E+02  0.00000000000E+00 0.  1.
         11    1    4    4    0    0 -0.12872989513E+02 -0.85115503169E+01 -0.78102671799E+01  0.17296260332E+02  0.51100000000E-03 0. -1.
        -11    1    4    4    0    0 -0.37970533658E+01  0.20850003882E+01  0.20868451947E+01  0.48083015723E+01  0.51100000000E-03 0.  1.
         12    1    4    4    0    0  0.15666422700E+02 -0.21505176119E+02 -0.18247214236E+02  0.32262520476E+02  0.00000000000E+00 0. -1.
</event>
<event>
 8    1  0.1265908E-006  0.9118800E+02  0.7816164E-02  0.1184000E+00
        -11   -1    0    0    0    0  0.00000000000E+00  0.00000000000E+00  0.45593999997E+02  0.45594000000E+02  0.51100000000E-03 0. -1.
         11   -1    0    0    0    0 -0.00000000000E+00 -0.00000000000E+00 -0.45593999997E+02  0.45594000000E+02  0.51100000000E-03 0.  1.
         23    2    1    2    0    0 -0.20400348077E-14  0.00000000000E+00  0.35527136788E-14  0.91188000000E+02  0.91188000000E+02 0.  0.
    9900012    2    3    3    0    0  0.12247079841E+00  0.22845367844E+02 -0.28876529887E+02  0.54367084621E+02  0.40000001011E+02 0.  0.
         12    1    3    3    0    0 -0.12247079841E+00 -0.22845367844E+02  0.28876529887E+02  0.36820915379E+02  0.00000000000E+00 0. -1.
         11    1    4    4    0    0 -0.10935141785E+02  0.14301416626E+02 -0.10283795327E+02  0.20733168835E+02  0.51100000000E-03 0.  1.
        -11    1    4    4    0    0 -0.69986305126E+01  0.25228292764E+00 -0.95931018361E+00  0.70685749636E+01  0.51100000000E-03 0. -1.
        -12    1    4    4    0    0  0.18056243096E+02  0.82916682902E+01 -0.17633424376E+02  0.26565340822E+02  0.00000000000E+00 0.  1.
</event>
<event>
 8    1  0.1265908E-006  0.9118800E+02  0.7816164E-02  0.1184000E+00
        -11   -1    0    0    0    0  0.00000000000E+00  0.00000000000E+00  0.45593999997E+02  0.45594000000E+02  0.51100000000E-03 0. -1.
         11   -1    0    0    0    0 -0.00000000000E+00 -0.00000000000E+00 -0.45593999997E+02  0.45594000000E+02  0.51100000000E-03 0.  1.
         23    2    1    2    0    0  0.00000000000E+00 -0.35527136788E-14  0.14210854715E-13  0.91188000000E+02  0.91188000000E+02 0.  0.
    9900012    2    3    3    0    0 -0.46246134568E+01 -0.10412895674E+02  0.35013745397E+02  0.54367111735E+02  0.40000062821E+02 0.  0.
        -12    1    3    3    0    0  0.46246134568E+01  0.10412895674E+02 -0.35013745397E+02  0.36820888265E+02  0.00000000000E+00 0.  1.
         11    1    4    4    0    0 -0.87721218612E+01 -0.14958512707E+02  0.83328892111E+01  0.19239133744E+02  0.51100000000E-03 0. -1.
        -11    1    4    4    0    0  0.73620432815E+01  0.58483802243E+01  0.12772231743E+01  0.94886527929E+01  0.51100000000E-03 0.  1.
        -12    1    4    4    0    0 -0.32145348771E+01 -0.13027631911E+01  0.25403633012E+02  0.25639325198E+02  0.00000000000E+00 0.  1.
</event>
<event>
 8    1  0.1265908E-006  0.9118800E+02  0.7816164E-02  0.1184000E+00
        -11   -1    0    0    0    0  0.00000000000E+00  0.00000000000E+00  0.45593999997E+02  0.45594000000E+02  0.51100000000E-03 0. -1.
         11   -1    0    0    0    0 -0.00000000000E+00 -0.00000000000E+00 -0.45593999997E+02  0.45594000000E+02  0.51100000000E-03 0.  1.
         23    2    1    2    0    0  0.55511151231E-15  0.71054273576E-14  0.17763568394E-14  0.91188000000E+02  0.91188000000E+02 0.  0.
    9900012    2    3    3    0    0  0.75845579418E+00  0.34208516826E+02  0.13600977485E+02  0.54367021372E+02  0.39999856821E+02 0.  0.
        -12    1    3    3    0    0 -0.75845579418E+00 -0.34208516826E+02 -0.13600977485E+02  0.36820978628E+02  0.00000000000E+00 0.  1.
         11    1    4    4    0    0  0.98646954326E+01  0.25035596586E+01 -0.54618992450E+01  0.11550427289E+02  0.51100000000E-03 0. -1.
        -11    1    4    4    0    0 -0.12762394973E+02  0.29267987324E+02  0.11250977081E+02  0.33853778120E+02  0.51100000000E-03 0.  1.
        -12    1    4    4    0    0  0.36561553350E+01  0.24369698430E+01  0.78118996489E+01  0.89628159623E+01  0.00000000000E+00 0.  1.
</event>
<event>
 8    1  0.1265908E-006  0.9118800E+02  0.7816164E-02  0.1184000E+00
        -11   -1    0    0    0    0  0.00000000000E+00  0.00000000000E+00  0.45593999997E+02  0.45594000000E+02  0.51100000000E-03 0. -1.
         11   -1    0    0    0    0 -0.00000000000E+00 -0.00000000000E+00 -0.45593999997E+02  0.45594000000E+02  0.51100000000E-03 0.  1.
         23    2    1    2    0    0  0.00000000000E+00  0.00000000000E+00  0.35527136788E-14  0.91188000000E+02  0.91188000000E+02 0.  0.
    9900012    2    3    3    0    0 -0.20831320642E+02  0.21926271905E+02 -0.21001803321E+02  0.54367067610E+02  0.39999962230E+02 0.  0.
         12    1    3    3    0    0  0.20831320642E+02 -0.21926271905E+02  0.21001803321E+02  0.36820932390E+02  0.00000000000E+00 0. -1.
         11    1    4    4    0    0  0.26920576230E+01  0.36620508479E+01 -0.17113206782E+02  0.17706485741E+02  0.51100000000E-03 0. -1.
        -11    1    4    4    0    0 -0.95225072496E+01  0.19469705827E+02 -0.59057609730E+01  0.22463873269E+02  0.51100000000E-03 0.  1.
         12    1    4    4    0    0 -0.14000871015E+02 -0.12054847699E+01  0.20171644342E+01  0.14196708600E+02  0.00000000000E+00 0. -1.
</event>
<event>
 8    1  0.1265908E-006  0.9118800E+02  0.7816164E-02  0.1184000E+00
        -11   -1    0    0    0    0  0.00000000000E+00  0.00000000000E+00  0.45593999997E+02  0.45594000000E+02  0.51100000000E-03 0. -1.
         11   -1    0    0    0    0 -0.00000000000E+00 -0.00000000000E+00 -0.45593999997E+02  0.45594000000E+02  0.51100000000E-03 0.  1.
         23    2    1    2    0    0  0.17763568394E-14 -0.35527136788E-14 -0.35527136788E-14  0.91188000000E+02  0.91188000000E+02 0.  0.
    9900012    2    3    3    0    0  0.88537850632E+01 -0.24389069991E+02 -0.26125936058E+02  0.54367071442E+02  0.39999970967E+02 0.  0.
        -12    1    3    3    0    0 -0.88537850632E+01  0.24389069991E+02  0.26125936058E+02  0.36820928558E+02  0.00000000000E+00 0.  1.
         11    1    4    4    0    0  0.50987353859E+00 -0.44024328306E+01 -0.16362782835E+02  0.16952346393E+02  0.51100000000E-03 0. -1.
        -11    1    4    4    0    0 -0.39687499501E+01  0.13222034760E+01  0.66335791340E+01  0.78424212196E+01  0.51100000000E-03 0.  1.
         12    1    4    4    0    0  0.12312661475E+02 -0.21308840636E+02 -0.16396732357E+02  0.29572303830E+02  0.00000000000E+00 0. -1.
</event>
<event>
 8    1  0.1265908E-006  0.9118800E+02  0.7816164E-02  0.1184000E+00
        -11   -1    0    0    0    0  0.00000000000E+00  0.00000000000E+00  0.45593999997E+02  0.45594000000E+02  0.51100000000E-03 0. -1.
         11   -1    0    0    0    0 -0.00000000000E+00 -0.00000000000E+00 -0.45593999997E+02  0.45594000000E+02  0.51100000000E-03 0.  1.
         23    2    1    2    0    0 -0.44408920985E-15 -0.35527136788E-14  0.00000000000E+00  0.91188000000E+02  0.91188000000E+02 0.  0.
    9900012    2    3    3    0    0 -0.21784175040E+01  0.21301635919E+02  0.29954546286E+02  0.54367081505E+02  0.39999993906E+02 0.  0.
        -12    1    3    3    0    0  0.21784175040E+01 -0.21301635919E+02 -0.29954546286E+02  0.36820918495E+02  0.00000000000E+00 0.  1.
         11    1    4    4    0    0 -0.11248881775E+01 -0.29584980208E+01  0.13791668697E+02  0.14150201753E+02  0.51100000000E-03 0. -1.
        -11    1    4    4    0    0 -0.45242477987E+01 -0.27122256471E+01 -0.37833447608E+01  0.64914315790E+01  0.51100000000E-03 0.  1.
        -12    1    4    4    0    0  0.34707184721E+01  0.26972359587E+02  0.19946222350E+02  0.33725448172E+02  0.00000000000E+00 0.  1.
</event>
<event>
 8    1  0.1265908E-006  0.9118800E+02  0.7816164E-02  0.1184000E+00
        -11   -1    0    0    0    0  0.00000000000E+00  0.00000000000E+00  0.45593999997E+02  0.45594000000E+02  0.51100000000E-03 0.  1.
         11   -1    0    0    0    0 -0.00000000000E+00 -0.00000000000E+00 -0.45593999997E+02  0.45594000000E+02  0.51100000000E-03 0. -1.
         23    2    1    2    0    0  0.00000000000E+00 -0.44408920985E-14  0.00000000000E+00  0.91188000000E+02  0.91188000000E+02 0.  0.
    9900012    2    3    3    0    0 -0.70740135696E+01  0.50150593838E+01 -0.35785298969E+02  0.54367080526E+02  0.39999991674E+02 0.  0.
        -12    1    3    3    0    0  0.70740135696E+01 -0.50150593838E+01  0.35785298969E+02  0.36820919474E+02  0.00000000000E+00 0.  1.
         11    1    4    4    0    0 -0.18778829245E+01 -0.12931662113E+02 -0.21282051766E+02  0.24973587185E+02  0.51100000000E-03 0. -1.
        -11    1    4    4    0    0 -0.86019362774E+00  0.53495949463E+01  0.38987375855E+01  0.66751969400E+01  0.51100000000E-03 0.  1.
         12    1    4    4    0    0 -0.43359370173E+01  0.12597126551E+02 -0.18401984789E+02  0.22718296400E+02  0.00000000000E+00 0. -1.
</event>
<event>
 8    1  0.1265908E-006  0.9118800E+02  0.7816164E-02  0.1184000E+00
        -11   -1    0    0    0    0  0.00000000000E+00  0.00000000000E+00  0.45593999997E+02  0.45594000000E+02  0.51100000000E-03 0. -1.
         11   -1    0    0    0    0 -0.00000000000E+00 -0.00000000000E+00 -0.45593999997E+02  0.45594000000E+02  0.51100000000E-03 0.  1.
         23    2    1    2    0    0  0.35527136788E-14 -0.35527136788E-14  0.00000000000E+00  0.91188000000E+02  0.91188000000E+02 0.  0.
    9900012    2    3    3    0    0  0.26683418865E+02 -0.18225863031E+02 -0.17651960761E+02  0.54367100442E+02  0.40000037077E+02 0.  0.
         12    1    3    3    0    0 -0.26683418865E+02  0.18225863031E+02  0.17651960761E+02  0.36820899558E+02  0.00000000000E+00 0. -1.
         11    1    4    4    0    0  0.32954068786E+01  0.62628387858E+01 -0.44624962327E+01  0.83664047858E+01  0.51100000000E-03 0. -1.
        -11    1    4    4    0    0  0.54513240070E+00 -0.13109576637E+02 -0.15579761950E+02  0.20368778845E+02  0.51100000000E-03 0.  1.
        -12    1    4    4    0    0  0.22842879586E+02 -0.11379125179E+02  0.23902974220E+01  0.25631916811E+02  0.00000000000E+00 0.  1.
</event>
<event>
 8    1  0.1265908E-006  0.9118800E+02  0.7816164E-02  0.1184000E+00
        -11   -1    0    0    0    0  0.00000000000E+00  0.00000000000E+00  0.45593999997E+02  0.45594000000E+02  0.51100000000E-03 0.  1.
         11   -1    0    0    0    0 -0.00000000000E+00 -0.00000000000E+00 -0.45593999997E+02  0.45594000000E+02  0.51100000000E-03 0. -1.
         23    2    1    2    0    0  0.00000000000E+00  0.11102230246E-14  0.00000000000E+00  0.91188000000E+02  0.91188000000E+02 0.  0.
    9900012    2    3    3    0    0  0.33076495738E+02  0.16253758016E+01  0.16096052423E+02  0.54367091260E+02  0.40000016146E+02 0.  0.
        -12    1    3    3    0    0 -0.33076495738E+02 -0.16253758016E+01 -0.16096052423E+02  0.36820908740E+02  0.00000000000E+00 0.  1.
         11    1    4    4    0    0  0.23500437586E+02 -0.61086240604E+01 -0.26889935186E+01  0.24429828919E+02  0.51100000000E-03 0. -1.
        -11    1    4    4    0    0  0.32496910752E+01 -0.51379627177E+01  0.13223640736E+02  0.14554168734E+02  0.51100000000E-03 0.  1.
        -12    1    4    4    0    0  0.63263670771E+01  0.12871962580E+02  0.55614052062E+01  0.15383093607E+02  0.00000000000E+00 0.  1.
</event>
<event>
 8    1  0.1265908E-006  0.9118800E+02  0.7816164E-02  0.1184000E+00
        -11   -1    0    0    0    0  0.00000000000E+00  0.00000000000E+00  0.45593999997E+02  0.45594000000E+02  0.51100000000E-03 0.  1.
         11   -1    0    0    0    0 -0.00000000000E+00 -0.00000000000E+00 -0.45593999997E+02  0.45594000000E+02  0.51100000000E-03 0. -1.
         23    2    1    2    0    0 -0.66613381478E-15 -0.17763568394E-14  0.71054273576E-14  0.91188000000E+02  0.91188000000E+02 0.  0.
    9900012    2    3    3    0    0  0.14636105659E+01 -0.13431604806E+02 -0.34252466129E+02  0.54367060313E+02  0.39999945595E+02 0.  0.
        -12    1    3    3    0    0 -0.14636105659E+01  0.13431604806E+02  0.34252466129E+02  0.36820939687E+02  0.00000000000E+00 0.  1.
         11    1    4    4    0    0 -0.31919965117E+01  0.51251007626E+01 -0.10064319619E+02  0.11736525432E+02  0.51100000000E-03 0. -1.
        -11    1    4    4    0    0  0.14293545021E+02 -0.27471093558E+01 -0.17911756017E+02  0.23079927274E+02  0.51100000000E-03 0.  1.
         12    1    4    4    0    0 -0.96379379431E+01 -0.15809596213E+02 -0.62763904927E+01  0.19550607608E+02  0.00000000000E+00 0. -1.
</event>
<event>
 8    1  0.1265908E-006  0.9118800E+02  0.7816164E-02  0.1184000E+00
        -11   -1    0    0    0    0  0.00000000000E+00  0.00000000000E+00  0.45593999997E+02  0.45594000000E+02  0.51100000000E-03 0.  1.
         11   -1    0    0    0    0 -0.00000000000E+00 -0.00000000000E+00 -0.45593999997E+02  0.45594000000E+02  0.51100000000E-03 0. -1.
         23    2    1    2    0    0  0.00000000000E+00  0.00000000000E+00  0.00000000000E+00  0.91188000000E+02  0.91188000000E+02 0.  0.
    9900012    2    3    3    0    0 -0.13581528522E+02  0.32000608141E+02  0.12135943610E+02  0.54367109656E+02  0.40000058083E+02 0.  0.
         12    1    3    3    0    0  0.13581528522E+02 -0.32000608141E+02 -0.12135943610E+02  0.36820890344E+02  0.00000000000E+00 0. -1.
         11    1    4    4    0    0 -0.13302703216E+02 -0.15230798507E+01  0.39203387830E+01  0.13951728979E+02  0.51100000000E-03 0. -1.
        -11    1    4    4    0    0  0.58604932775E+01  0.22330090759E+02  0.13334635074E+02  0.26660660674E+02  0.51100000000E-03 0.  1.
        -12    1    4    4    0    0 -0.61393185837E+01  0.11193597233E+02 -0.51190302472E+01  0.13754720003E+02  0.00000000000E+00 0.  1.
</event>
<event>
 8    1  0.1265908E-006  0.9118800E+02  0.7816164E-02  0.1184000E+00
        -11   -1    0    0    0    0  0.00000000000E+00  0.00000000000E+00  0.45593999997E+02  0.45594000000E+02  0.51100000000E-03 0. -1.
         11   -1    0    0    0    0 -0.00000000000E+00 -0.00000000000E+00 -0.45593999997E+02  0.45594000000E+02  0.51100000000E-03 0.  1.
         23    2    1    2    0    0 -0.17763568394E-14  0.17763568394E-14  0.00000000000E+00  0.91188000000E+02  0.91188000000E+02 0.  0.
    9900012    2    3    3    0    0 -0.93997575309E+01 -0.13152372609E+02  0.33082319955E+02  0.54367078766E+02  0.39999987663E+02 0.  0.
        -12    1    3    3    0    0  0.93997575309E+01  0.13152372609E+02 -0.33082319955E+02  0.36820921234E+02  0.00000000000E+00 0.  1.
         11    1    4    4    0    0 -0.75459587171E+01 -0.25043484431E+02  0.33056092260E+02  0.42152376459E+02  0.51100000000E-03 0. -1.
        -11    1    4    4    0    0 -0.22371786372E+01  0.88237133617E+01  0.32747964615E+00  0.91087940433E+01  0.51100000000E-03 0.  1.
         12    1    4    4    0    0  0.38337982338E+00  0.30673984605E+01 -0.30125195059E+00  0.31059082636E+01  0.00000000000E+00 0. -1.
</event>
<event>
 8    1  0.1265908E-006  0.9118800E+02  0.7816164E-02  0.1184000E+00
        -11   -1    0    0    0    0  0.00000000000E+00  0.00000000000E+00  0.45593999997E+02  0.45594000000E+02  0.51100000000E-03 0.  1.
         11   -1    0    0    0    0 -0.00000000000E+00 -0.00000000000E+00 -0.45593999997E+02  0.45594000000E+02  0.51100000000E-03 0. -1.
         23    2    1    2    0    0  0.00000000000E+00  0.00000000000E+00  0.00000000000E+00  0.91188000000E+02  0.91188000000E+02 0.  0.
    9900012    2    3    3    0    0  0.19652165579E+02 -0.27259393593E+02 -0.15049819527E+02  0.54367092640E+02  0.40000019292E+02 0.  0.
        -12    1    3    3    0    0 -0.19652165579E+02  0.27259393593E+02  0.15049819527E+02  0.36820907360E+02  0.00000000000E+00 0.  1.
         11    1    4    4    0    0  0.22483319293E+02 -0.12744682066E+02 -0.66499606762E+01  0.26686111456E+02  0.51100000000E-03 0. -1.
        -11    1    4    4    0    0  0.81431618778E+01 -0.26634555662E+01  0.15550129948E+01  0.87076487410E+01  0.51100000000E-03 0.  1.
        -12    1    4    4    0    0 -0.10974315591E+02 -0.11851255961E+02 -0.99548718452E+01  0.18973332443E+02  0.00000000000E+00 0.  1.
</event>
<event>
 8    1  0.1265908E-006  0.9118800E+02  0.7816164E-02  0.1184000E+00
        -11   -1    0    0    0    0  0.00000000000E+00  0.00000000000E+00  0.45593999997E+02  0.45594000000E+02  0.51100000000E-03 0. -1.
         11   -1    0    0    0    0 -0.00000000000E+00 -0.00000000000E+00 -0.45593999997E+02  0.45594000000E+02  0.51100000000E-03 0.  1.
         23    2    1    2    0    0 -0.22204460493E-15  0.00000000000E+00  0.00000000000E+00  0.91188000000E+02  0.91188000000E+02 0.  0.
    9900012    2    3    3    0    0 -0.12908142299E+01  0.30626826475E+02  0.20398908098E+02  0.54367025639E+02  0.39999866549E+02 0.  0.
        -12    1    3    3    0    0  0.12908142299E+01 -0.30626826475E+02 -0.20398908098E+02  0.36820974361E+02  0.00000000000E+00 0.  1.
         11    1    4    4    0    0 -0.10330701731E+01  0.38374329470E+02  0.23417941170E+02  0.44967281052E+02  0.51100000000E-03 0. -1.
        -11    1    4    4    0    0 -0.19959423465E+01 -0.17498207997E+01 -0.79161293013E+00  0.27698934951E+01  0.51100000000E-03 0.  1.
         12    1    4    4    0    0  0.17381982897E+01 -0.59976821960E+01 -0.22274201419E+01  0.66298510923E+01  0.00000000000E+00 0. -1.
</event>
<event>
 8    1  0.1265908E-006  0.9118800E+02  0.7816164E-02  0.1184000E+00
        -11   -1    0    0    0    0  0.00000000000E+00  0.00000000000E+00  0.45593999997E+02  0.45594000000E+02  0.51100000000E-03 0. -1.
         11   -1    0    0    0    0 -0.00000000000E+00 -0.00000000000E+00 -0.45593999997E+02  0.45594000000E+02  0.51100000000E-03 0.  1.
         23    2    1    2    0    0  0.35527136788E-14  0.00000000000E+00 -0.35527136788E-14  0.91188000000E+02  0.91188000000E+02 0.  0.
    9900012    2    3    3    0    0  0.11413164834E+02 -0.18501811251E+02 -0.29718781070E+02  0.54367037230E+02  0.39999892972E+02 0.  0.
         12    1    3    3    0    0 -0.11413164834E+02  0.18501811251E+02  0.29718781070E+02  0.36820962770E+02  0.00000000000E+00 0. -1.
         11    1    4    4    0    0 -0.14394765478E+01 -0.59985041258E+01  0.57834078038E+01  0.84558826012E+01  0.51100000000E-03 0. -1.
        -11    1    4    4    0    0 -0.53235350136E+01 -0.24254307613E+01 -0.17375054981E+02  0.18333446901E+02  0.51100000000E-03 0.  1.
        -12    1    4    4    0    0  0.18176176395E+02 -0.10077876363E+02 -0.18127133892E+02  0.27577707727E+02  0.00000000000E+00 0.  1.
</event>
<event>
 8    1  0.1265908E-006  0.9118800E+02  0.7816164E-02  0.1184000E+00
        -11   -1    0    0    0    0  0.00000000000E+00  0.00000000000E+00  0.45593999997E+02  0.45594000000E+02  0.51100000000E-03 0.  1.
         11   -1    0    0    0    0 -0.00000000000E+00 -0.00000000000E+00 -0.45593999997E+02  0.45594000000E+02  0.51100000000E-03 0. -1.
         23    2    1    2    0    0 -0.17763568394E-14  0.00000000000E+00  0.00000000000E+00  0.91188000000E+02  0.91188000000E+02 0.  0.
    9900012    2    3    3    0    0  0.15124078513E+02 -0.21822407799E+02  0.25511283432E+02  0.54367070960E+02  0.39999969868E+02 0.  0.
         12    1    3    3    0    0 -0.15124078513E+02  0.21822407799E+02 -0.25511283432E+02  0.36820929040E+02  0.00000000000E+00 0. -1.
         11    1    4    4    0    0  0.10631181110E+02  0.36300522572E+01  0.23427359063E+02  0.25981540450E+02  0.51100000000E-03 0. -1.
        -11    1    4    4    0    0  0.18376152508E+01 -0.16829595771E+01  0.36471896499E+01  0.44171456113E+01  0.51100000000E-03 0.  1.
         12    1    4    4    0    0  0.26552821516E+01 -0.23769500479E+02 -0.15632652810E+01  0.23968384899E+02  0.00000000000E+00 0. -1.
</event>
<event>
 8    1  0.1265908E-006  0.9118800E+02  0.7816164E-02  0.1184000E+00
        -11   -1    0    0    0    0  0.00000000000E+00  0.00000000000E+00  0.45593999997E+02  0.45594000000E+02  0.51100000000E-03 0.  1.
         11   -1    0    0    0    0 -0.00000000000E+00 -0.00000000000E+00 -0.45593999997E+02  0.45594000000E+02  0.51100000000E-03 0. -1.
         23    2    1    2    0    0 -0.17763568394E-14  0.00000000000E+00 -0.35527136788E-14  0.91188000000E+02  0.91188000000E+02 0.  0.
    9900012    2    3    3    0    0 -0.79813100814E+01 -0.19760518905E+02 -0.30026665439E+02  0.54367081280E+02  0.39999993393E+02 0.  0.
        -12    1    3    3    0    0  0.79813100814E+01  0.19760518905E+02  0.30026665439E+02  0.36820918720E+02  0.00000000000E+00 0.  1.
         11    1    4    4    0    0 -0.17508144138E+02 -0.11856829880E+02 -0.94447121971E+01  0.23158629379E+02  0.51100000000E-03 0. -1.
        -11    1    4    4    0    0  0.84712177955E+00  0.55171142484E+01 -0.58998684172E+00  0.56128646584E+01  0.51100000000E-03 0.  1.
         12    1    4    4    0    0  0.86797122770E+01 -0.13420803273E+02 -0.19991966400E+02  0.25595587242E+02  0.00000000000E+00 0. -1.
</event>
<event>
 8    1  0.1265908E-006  0.9118800E+02  0.7816164E-02  0.1184000E+00
        -11   -1    0    0    0    0  0.00000000000E+00  0.00000000000E+00  0.45593999997E+02  0.45594000000E+02  0.51100000000E-03 0.  1.
         11   -1    0    0    0    0 -0.00000000000E+00 -0.00000000000E+00 -0.45593999997E+02  0.45594000000E+02  0.51100000000E-03 0. -1.
         23    2    1    2    0    0  0.00000000000E+00  0.00000000000E+00  0.00000000000E+00  0.91188000000E+02  0.91188000000E+02 0.  0.
    9900012    2    3    3    0    0 -0.33988592711E+02  0.13583895791E+02  0.40044756205E+01  0.54367048297E+02  0.39999918203E+02 0.  0.
        -12    1    3    3    0    0  0.33988592711E+02 -0.13583895791E+02 -0.40044756205E+01  0.36820951703E+02  0.00000000000E+00 0.  1.
         11    1    4    4    0    0 -0.77469759673E+01  0.10865530394E+02 -0.68257419737E+01  0.14988867240E+02  0.51100000000E-03 0. -1.
        -11    1    4    4    0    0 -0.24549035995E+02  0.41105327434E+00 -0.34682095793E+01  0.24796221708E+02  0.51100000000E-03 0.  1.
         12    1    4    4    0    0 -0.16925807486E+01  0.23073121223E+01  0.14298427173E+02  0.14581959349E+02  0.00000000000E+00 0. -1.
</event>
<event>
 8    1  0.1265908E-006  0.9118800E+02  0.7816164E-02  0.1184000E+00
        -11   -1    0    0    0    0  0.00000000000E+00  0.00000000000E+00  0.45593999997E+02  0.45594000000E+02  0.51100000000E-03 0. -1.
         11   -1    0    0    0    0 -0.00000000000E+00 -0.00000000000E+00 -0.45593999997E+02  0.45594000000E+02  0.51100000000E-03 0.  1.
         23    2    1    2    0    0  0.00000000000E+00 -0.17763568394E-14  0.35527136788E-14  0.91188000000E+02  0.91188000000E+02 0.  0.
    9900012    2    3    3    0    0 -0.24585925901E+02 -0.10434184296E+02 -0.25346392063E+02  0.54367088211E+02  0.40000009195E+02 0.  0.
         12    1    3    3    0    0  0.24585925901E+02  0.10434184296E+02  0.25346392063E+02  0.36820911789E+02  0.00000000000E+00 0. -1.
         11    1    4    4    0    0 -0.15126712800E+02 -0.19802163097E+02 -0.12312386660E+02  0.27794567257E+02  0.51100000000E-03 0. -1.
        -11    1    4    4    0    0 -0.71314379346E+01 -0.45781424165E+01 -0.21873124682E+01  0.87522072128E+01  0.51100000000E-03 0.  1.
         12    1    4    4    0    0 -0.23277751662E+01  0.13946121218E+02 -0.10846692935E+02  0.17820313742E+02  0.00000000000E+00 0. -1.
</event>
<event>
 8    1  0.1265908E-006  0.9118800E+02  0.7816164E-02  0.1184000E+00
        -11   -1    0    0    0    0  0.00000000000E+00  0.00000000000E+00  0.45593999997E+02  0.45594000000E+02  0.51100000000E-03 0. -1.
         11   -1    0    0    0    0 -0.00000000000E+00 -0.00000000000E+00 -0.45593999997E+02  0.45594000000E+02  0.51100000000E-03 0.  1.
         23    2    1    2    0    0  0.00000000000E+00 -0.88817841970E-15  0.35527136788E-14  0.91188000000E+02  0.91188000000E+02 0.  0.
    9900012    2    3    3    0    0  0.20438239269E+02  0.71131136184E+01 -0.29790291433E+02  0.54367089183E+02  0.40000011410E+02 0.  0.
         12    1    3    3    0    0 -0.20438239269E+02 -0.71131136184E+01  0.29790291433E+02  0.36820910817E+02  0.00000000000E+00 0. -1.
         11    1    4    4    0    0  0.13104579329E+01 -0.47486044444E+01  0.57558442743E+01  0.75760337733E+01  0.51100000000E-03 0. -1.
        -11    1    4    4    0    0  0.55098808010E+01  0.38292654120E+01 -0.28851959740E+02  0.29621911504E+02  0.51100000000E-03 0.  1.
        -12    1    4    4    0    0  0.13617900535E+02  0.80324526509E+01 -0.66941759669E+01  0.17169143905E+02  0.00000000000E+00 0.  1.
</event>
<event>
 8    1  0.1265908E-006  0.9118800E+02  0.7816164E-02  0.1184000E+00
        -11   -1    0    0    0    0  0.00000000000E+00  0.00000000000E+00  0.45593999997E+02  0.45594000000E+02  0.51100000000E-03 0.  1.
         11   -1    0    0    0    0 -0.00000000000E+00 -0.00000000000E+00 -0.45593999997E+02  0.45594000000E+02  0.51100000000E-03 0. -1.
         23    2    1    2    0    0  0.00000000000E+00 -0.17763568394E-14  0.88817841970E-15  0.91188000000E+02  0.91188000000E+02 0.  0.
    9900012    2    3    3    0    0 -0.35972652233E+02  0.55687689786E+01 -0.55441185099E+01  0.54367080041E+02  0.39999990569E+02 0.  0.
        -12    1    3    3    0    0  0.35972652233E+02 -0.55687689786E+01  0.55441185099E+01  0.36820919959E+02  0.00000000000E+00 0.  1.
         11    1    4    4    0    0 -0.39163111117E+02  0.17683117083E+01  0.43715969300E+01  0.39446001808E+02  0.51100000000E-03 0. -1.
        -11    1    4    4    0    0 -0.76597643398E+00 -0.18468751535E+01  0.82055839569E+00  0.21612459536E+01  0.51100000000E-03 0.  1.
        -12    1    4    4    0    0  0.39564353180E+01  0.56473324239E+01 -0.10736273836E+02  0.12759832280E+02  0.00000000000E+00 0.  1.
</event>
<event>
 8    1  0.1265908E-006  0.9118800E+02  0.7816164E-02  0.1184000E+00
        -11   -1    0    0    0    0  0.00000000000E+00  0.00000000000E+00  0.45593999997E+02  0.45594000000E+02  0.51100000000E-03 0.  1.
         11   -1    0    0    0    0 -0.00000000000E+00 -0.00000000000E+00 -0.45593999997E+02  0.45594000000E+02  0.51100000000E-03 0. -1.
         23    2    1    2    0    0  0.00000000000E+00 -0.88817841970E-15  0.00000000000E+00  0.91188000000E+02  0.91188000000E+02 0.  0.
    9900012    2    3    3    0    0  0.10097011720E+02 -0.60887046307E+01  0.34882062431E+02  0.54367078648E+02  0.39999987393E+02 0.  0.
         12    1    3    3    0    0 -0.10097011720E+02  0.60887046307E+01 -0.34882062431E+02  0.36820921352E+02  0.00000000000E+00 0. -1.
         11    1    4    4    0    0  0.49099120272E+01  0.16116539042E+02  0.11800878401E+02  0.20569657219E+02  0.51100000000E-03 0. -1.
        -11    1    4    4    0    0 -0.88044293687E+00 -0.15459853553E+02  0.16200044690E+02  0.22410348053E+02  0.51100000000E-03 0.  1.
        -12    1    4    4    0    0  0.60675426299E+01 -0.67453901200E+01  0.68811393396E+01  0.11387073375E+02  0.00000000000E+00 0.  1.
</event>
<event>
 8    1  0.1265908E-006  0.9118800E+02  0.7816164E-02  0.1184000E+00
        -11   -1    0    0    0    0  0.00000000000E+00  0.00000000000E+00  0.45593999997E+02  0.45594000000E+02  0.51100000000E-03 0.  1.
         11   -1    0    0    0    0 -0.00000000000E+00 -0.00000000000E+00 -0.45593999997E+02  0.45594000000E+02  0.51100000000E-03 0. -1.
         23    2    1    2    0    0  0.17763568394E-14  0.00000000000E+00  0.00000000000E+00  0.91188000000E+02  0.91188000000E+02 0.  0.
    9900012    2    3    3    0    0 -0.84866536203E+01 -0.17475825564E+02 -0.31278569804E+02  0.54367126874E+02  0.40000097334E+02 0.  0.
        -12    1    3    3    0    0  0.84866536203E+01  0.17475825564E+02  0.31278569804E+02  0.36820873126E+02  0.00000000000E+00 0.  1.
         11    1    4    4    0    0 -0.10459048274E+02 -0.90592207450E-01 -0.23437502068E+02  0.25665470992E+02  0.51100000000E-03 0. -1.
        -11    1    4    4    0    0 -0.57748982930E+01 -0.17652168423E+01  0.43364287018E+01  0.74343832927E+01  0.51100000000E-03 0.  1.
         12    1    4    4    0    0  0.77472929470E+01 -0.15620016514E+02 -0.12177496438E+02  0.21267272589E+02  0.00000000000E+00 0. -1.
</event>
<event>
 8    1  0.1265908E-006  0.9118800E+02  0.7816164E-02  0.1184000E+00
        -11   -1    0    0    0    0  0.00000000000E+00  0.00000000000E+00  0.45593999997E+02  0.45594000000E+02  0.51100000000E-03 0.  1.
         11   -1    0    0    0    0 -0.00000000000E+00 -0.00000000000E+00 -0.45593999997E+02  0.45594000000E+02  0.51100000000E-03 0. -1.
         23    2    1    2    0    0  0.35527136788E-14 -0.88817841970E-15  0.35527136788E-14  0.91188000000E+02  0.91188000000E+02 0.  0.
    9900012    2    3    3    0    0  0.25496373380E+02 -0.60540661681E+01  0.25865883753E+02  0.54367343908E+02  0.40000592103E+02 0.  0.
         12    1    3    3    0    0 -0.25496373380E+02  0.60540661681E+01 -0.25865883753E+02  0.36820656092E+02  0.00000000000E+00 0. -1.
         11    1    4    4    0    0  0.96044644943E+01 -0.82559714895E+01 -0.82992947048E+01  0.15142162868E+02  0.51100000000E-03 0. -1.
        -11    1    4    4    0    0  0.10855171762E+02  0.26286359256E+00  0.11064791495E+02  0.15502692100E+02  0.51100000000E-03 0.  1.
         12    1    4    4    0    0  0.50367371231E+01  0.19390417289E+01  0.23100386963E+02  0.23722488940E+02  0.00000000000E+00 0. -1.
</event>
<event>
 8    1  0.1265908E-006  0.9118800E+02  0.7816164E-02  0.1184000E+00
        -11   -1    0    0    0    0  0.00000000000E+00  0.00000000000E+00  0.45593999997E+02  0.45594000000E+02  0.51100000000E-03 0. -1.
         11   -1    0    0    0    0 -0.00000000000E+00 -0.00000000000E+00 -0.45593999997E+02  0.45594000000E+02  0.51100000000E-03 0.  1.
         23    2    1    2    0    0  0.00000000000E+00 -0.35527136788E-14  0.00000000000E+00  0.91188000000E+02  0.91188000000E+02 0.  0.
    9900012    2    3    3    0    0  0.20881583821E+02 -0.25064601728E+02 -0.17073514161E+02  0.54367086262E+02  0.40000004752E+02 0.  0.
         12    1    3    3    0    0 -0.20881583821E+02  0.25064601728E+02  0.17073514161E+02  0.36820913738E+02  0.00000000000E+00 0. -1.
         11    1    4    4    0    0  0.27471539373E+02 -0.19990718804E+02 -0.16466539402E+02  0.37755280875E+02  0.51100000000E-03 0. -1.
        -11    1    4    4    0    0 -0.18284121854E+01 -0.19476100735E+01  0.67779208919E+01  0.72853612125E+01  0.51100000000E-03 0.  1.
        -12    1    4    4    0    0 -0.47615433660E+01 -0.31262728506E+01 -0.73848956515E+01  0.93264441748E+01  0.00000000000E+00 0.  1.
</event>
<event>
 8    1  0.1265908E-006  0.9118800E+02  0.7816164E-02  0.1184000E+00
        -11   -1    0    0    0    0  0.00000000000E+00  0.00000000000E+00  0.45593999997E+02  0.45594000000E+02  0.51100000000E-03 0. -1.
         11   -1    0    0    0    0 -0.00000000000E+00 -0.00000000000E+00 -0.45593999997E+02  0.45594000000E+02  0.51100000000E-03 0.  1.
         23    2    1    2    0    0 -0.17763568394E-14 -0.35527136788E-14 -0.71054273576E-14  0.91188000000E+02  0.91188000000E+02 0.  0.
    9900012    2    3    3    0    0 -0.15823096440E+02 -0.18596879983E+02 -0.27560189857E+02  0.54367103880E+02  0.40000044916E+02 0.  0.
         12    1    3    3    0    0  0.15823096440E+02  0.18596879983E+02  0.27560189857E+02  0.36820896120E+02  0.00000000000E+00 0. -1.
         11    1    4    4    0    0  0.53142603637E+01 -0.12949627984E+01 -0.87973334168E+01  0.10359120009E+02  0.51100000000E-03 0. -1.
        -11    1    4    4    0    0 -0.13627729550E+02  0.54419152023E+01 -0.12435863851E+02  0.19234868435E+02  0.51100000000E-03 0.  1.
         12    1    4    4    0    0 -0.75096272547E+01 -0.22743832387E+02 -0.63269925901E+01  0.24773115436E+02  0.00000000000E+00 0. -1.
</event>
<event>
 8    1  0.1265908E-006  0.9118800E+02  0.7816164E-02  0.1184000E+00
        -11   -1    0    0    0    0  0.00000000000E+00  0.00000000000E+00  0.45593999997E+02  0.45594000000E+02  0.51100000000E-03 0. -1.
         11   -1    0    0    0    0 -0.00000000000E+00 -0.00000000000E+00 -0.45593999997E+02  0.45594000000E+02  0.51100000000E-03 0.  1.
         23    2    1    2    0    0  0.35527136788E-14  0.00000000000E+00  0.00000000000E+00  0.91188000000E+02  0.91188000000E+02 0.  0.
    9900012    2    3    3    0    0 -0.27535140837E+02  0.24381218551E+02  0.17751584079E+01  0.54367095797E+02  0.40000026489E+02 0.  0.
         12    1    3    3    0    0  0.27535140837E+02 -0.24381218551E+02 -0.17751584079E+01  0.36820904203E+02  0.00000000000E+00 0. -1.
         11    1    4    4    0    0 -0.98221712799E+01  0.20419366744E+02 -0.11455817587E+02  0.25390182034E+02  0.51100000000E-03 0. -1.
        -11    1    4    4    0    0 -0.94310114887E+01  0.89052678020E+01  0.46815311095E+00  0.12979481497E+02  0.51100000000E-03 0.  1.
         12    1    4    4    0    0 -0.82819580687E+01 -0.49434159954E+01  0.12762822884E+02  0.15997432266E+02  0.00000000000E+00 0. -1.
</event>
<event>
 8    1  0.1265908E-006  0.9118800E+02  0.7816164E-02  0.1184000E+00
        -11   -1    0    0    0    0  0.00000000000E+00  0.00000000000E+00  0.45593999997E+02  0.45594000000E+02  0.51100000000E-03 0.  1.
         11   -1    0    0    0    0 -0.00000000000E+00 -0.00000000000E+00 -0.45593999997E+02  0.45594000000E+02  0.51100000000E-03 0. -1.
         23    2    1    2    0    0  0.00000000000E+00  0.00000000000E+00  0.35527136788E-14  0.91188000000E+02  0.91188000000E+02 0.  0.
    9900012    2    3    3    0    0 -0.21789929042E+02 -0.56658862219E+01  0.29135527331E+02  0.54367051788E+02  0.39999926161E+02 0.  0.
         12    1    3    3    0    0  0.21789929042E+02  0.56658862219E+01 -0.29135527331E+02  0.36820948212E+02  0.00000000000E+00 0. -1.
         11    1    4    4    0    0  0.10800210667E+01 -0.11999719229E+02  0.19649265457E+01  0.12207401184E+02  0.51100000000E-03 0. -1.
        -11    1    4    4    0    0 -0.11100972343E+02  0.60188302185E+01  0.27628570048E+02  0.30377554005E+02  0.51100000000E-03 0.  1.
         12    1    4    4    0    0 -0.11768977766E+02  0.31500278876E+00 -0.45796926252E+00  0.11782096599E+02  0.00000000000E+00 0. -1.
</event>
<event>
 8    1  0.1265908E-006  0.9118800E+02  0.7816164E-02  0.1184000E+00
        -11   -1    0    0    0    0  0.00000000000E+00  0.00000000000E+00  0.45593999997E+02  0.45594000000E+02  0.51100000000E-03 0.  1.
         11   -1    0    0    0    0 -0.00000000000E+00 -0.00000000000E+00 -0.45593999997E+02  0.45594000000E+02  0.51100000000E-03 0. -1.
         23    2    1    2    0    0  0.17763568394E-14 -0.35527136788E-14  0.35527136788E-14  0.91188000000E+02  0.91188000000E+02 0.  0.
    9900012    2    3    3    0    0 -0.12958193395E+02 -0.30219575905E+02  0.16572308117E+02  0.54367096422E+02  0.40000027913E+02 0.  0.
         12    1    3    3    0    0  0.12958193395E+02  0.30219575905E+02 -0.16572308117E+02  0.36820903578E+02  0.00000000000E+00 0. -1.
         11    1    4    4    0    0  0.17608408069E+01 -0.18923310737E+02  0.88821398625E+01  0.20978194831E+02  0.51100000000E-03 0. -1.
        -11    1    4    4    0    0  0.68215188528E+01 -0.74845177120E+01  0.51666534320E+01  0.11368616133E+02  0.51100000000E-03 0.  1.
         12    1    4    4    0    0 -0.21540553054E+02 -0.38117474567E+01  0.25235148230E+01  0.22020285457E+02  0.00000000000E+00 0. -1.
</event>
<event>
 8    1  0.1265908E-006  0.9118800E+02  0.7816164E-02  0.1184000E+00
        -11   -1    0    0    0    0  0.00000000000E+00  0.00000000000E+00  0.45593999997E+02  0.45594000000E+02  0.51100000000E-03 0. -1.
         11   -1    0    0    0    0 -0.00000000000E+00 -0.00000000000E+00 -0.45593999997E+02  0.45594000000E+02  0.51100000000E-03 0.  1.
         23    2    1    2    0    0  0.53290705182E-14  0.00000000000E+00  0.00000000000E+00  0.91188000000E+02  0.91188000000E+02 0.  0.
    9900012    2    3    3    0    0 -0.14197775129E+02  0.80010604145E+01 -0.33017958282E+02  0.54367090784E+02  0.40000015060E+02 0.  0.
         12    1    3    3    0    0  0.14197775129E+02 -0.80010604145E+01  0.33017958282E+02  0.36820909216E+02  0.00000000000E+00 0. -1.
         11    1    4    4    0    0 -0.19669325326E+02  0.11046205073E+02 -0.10937700699E+02  0.25070586393E+02  0.51100000000E-03 0. -1.
        -11    1    4    4    0    0  0.37548667680E+01  0.75032075803E+01 -0.11704839432E+02  0.14401403225E+02  0.51100000000E-03 0.  1.
        -12    1    4    4    0    0  0.17166834288E+01 -0.10548352238E+02 -0.10375418151E+02  0.14895101166E+02  0.00000000000E+00 0.  1.
</event>
<event>
 8    1  0.1265908E-006  0.9118800E+02  0.7816164E-02  0.1184000E+00
        -11   -1    0    0    0    0  0.00000000000E+00  0.00000000000E+00  0.45593999997E+02  0.45594000000E+02  0.51100000000E-03 0. -1.
         11   -1    0    0    0    0 -0.00000000000E+00 -0.00000000000E+00 -0.45593999997E+02  0.45594000000E+02  0.51100000000E-03 0.  1.
         23    2    1    2    0    0 -0.35527136788E-14 -0.17763568394E-14  0.17763568394E-14  0.91188000000E+02  0.91188000000E+02 0.  0.
    9900012    2    3    3    0    0 -0.31635348272E+02 -0.10735640648E+02  0.15483244598E+02  0.54367080624E+02  0.39999991899E+02 0.  0.
         12    1    3    3    0    0  0.31635348272E+02  0.10735640648E+02 -0.15483244598E+02  0.36820919376E+02  0.00000000000E+00 0. -1.
         11    1    4    4    0    0  0.96152529089E-03 -0.60501350264E+00  0.15629626960E+01  0.16759758092E+01  0.51100000000E-03 0. -1.
        -11    1    4    4    0    0 -0.12382328134E+02 -0.21663397913E+02 -0.22131483222E+01  0.25050406881E+02  0.51100000000E-03 0.  1.
         12    1    4    4    0    0 -0.19253981663E+02  0.11532770768E+02  0.16133430224E+02  0.27640697934E+02  0.00000000000E+00 0. -1.
</event>
<event>
 8    1  0.1265908E-006  0.9118800E+02  0.7816164E-02  0.1184000E+00
        -11   -1    0    0    0    0  0.00000000000E+00  0.00000000000E+00  0.45593999997E+02  0.45594000000E+02  0.51100000000E-03 0. -1.
         11   -1    0    0    0    0 -0.00000000000E+00 -0.00000000000E+00 -0.45593999997E+02  0.45594000000E+02  0.51100000000E-03 0.  1.
         23    2    1    2    0    0 -0.26645352591E-14  0.35527136788E-14  0.00000000000E+00  0.91188000000E+02  0.91188000000E+02 0.  0.
    9900012    2    3    3    0    0 -0.24402727846E+01 -0.23950896116E+02 -0.27860004319E+02  0.54367079362E+02  0.39999989021E+02 0.  0.
         12    1    3    3    0    0  0.24402727846E+01  0.23950896116E+02  0.27860004319E+02  0.36820920638E+02  0.00000000000E+00 0. -1.
         11    1    4    4    0    0 -0.11886109634E+02  0.30204635901E+01 -0.16885862860E+02  0.20869479326E+02  0.51100000000E-03 0. -1.
        -11    1    4    4    0    0 -0.48597353331E+00 -0.44567904160E+01 -0.73710312730E+01  0.86273549467E+01  0.51100000000E-03 0.  1.
         12    1    4    4    0    0  0.99318103827E+01 -0.22514569290E+02 -0.36031101858E+01  0.24870245089E+02  0.00000000000E+00 0. -1.
</event>
<event>
 8    1  0.1265908E-006  0.9118800E+02  0.7816164E-02  0.1184000E+00
        -11   -1    0    0    0    0  0.00000000000E+00  0.00000000000E+00  0.45593999997E+02  0.45594000000E+02  0.51100000000E-03 0. -1.
         11   -1    0    0    0    0 -0.00000000000E+00 -0.00000000000E+00 -0.45593999997E+02  0.45594000000E+02  0.51100000000E-03 0.  1.
         23    2    1    2    0    0  0.17763568394E-14  0.33306690739E-15  0.00000000000E+00  0.91188000000E+02  0.91188000000E+02 0.  0.
    9900012    2    3    3    0    0 -0.12054279276E+02  0.50181555598E+00  0.34788236762E+02  0.54367097177E+02  0.40000029634E+02 0.  0.
        -12    1    3    3    0    0  0.12054279276E+02 -0.50181555598E+00 -0.34788236762E+02  0.36820902823E+02  0.00000000000E+00 0.  1.
         11    1    4    4    0    0 -0.14731697038E+02 -0.10436994567E+02  0.19458123384E+02  0.26543781175E+02  0.51100000000E-03 0. -1.
        -11    1    4    4    0    0 -0.86272961278E+01  0.53379601928E+01  0.41321385759E+01  0.10954388480E+02  0.51100000000E-03 0.  1.
         12    1    4    4    0    0  0.11304713890E+02  0.56008499301E+01  0.11197974802E+02  0.16868927522E+02  0.00000000000E+00 0. -1.
</event>
<event>
 8    1  0.1265908E-006  0.9118800E+02  0.7816164E-02  0.1184000E+00
        -11   -1    0    0    0    0  0.00000000000E+00  0.00000000000E+00  0.45593999997E+02  0.45594000000E+02  0.51100000000E-03 0.  1.
         11   -1    0    0    0    0 -0.00000000000E+00 -0.00000000000E+00 -0.45593999997E+02  0.45594000000E+02  0.51100000000E-03 0. -1.
         23    2    1    2    0    0  0.71054273576E-14 -0.17763568394E-14  0.44408920985E-15  0.91188000000E+02  0.91188000000E+02 0.  0.
    9900012    2    3    3    0    0  0.34985833930E+02 -0.10802788205E+02  0.38812062728E+01  0.54367182914E+02  0.40000225088E+02 0.  0.
         12    1    3    3    0    0 -0.34985833930E+02  0.10802788205E+02 -0.38812062728E+01  0.36820817086E+02  0.00000000000E+00 0. -1.
         11    1    4    4    0    0  0.28545197306E+02 -0.22089344280E+02 -0.16692577481E+00  0.36094255560E+02  0.51100000000E-03 0. -1.
        -11    1    4    4    0    0 -0.32933420735E+01  0.95344061294E+00 -0.25805589145E+00  0.34382763297E+01  0.51100000000E-03 0.  1.
        -12    1    4    4    0    0  0.97339786976E+01  0.10333115462E+02  0.43061879391E+01  0.14834651024E+02  0.00000000000E+00 0.  1.
</event>
<event>
 8    1  0.1265908E-006  0.9118800E+02  0.7816164E-02  0.1184000E+00
        -11   -1    0    0    0    0  0.00000000000E+00  0.00000000000E+00  0.45593999997E+02  0.45594000000E+02  0.51100000000E-03 0.  1.
         11   -1    0    0    0    0 -0.00000000000E+00 -0.00000000000E+00 -0.45593999997E+02  0.45594000000E+02  0.51100000000E-03 0. -1.
         23    2    1    2    0    0  0.00000000000E+00  0.88817841970E-15  0.00000000000E+00  0.91188000000E+02  0.91188000000E+02 0.  0.
    9900012    2    3    3    0    0  0.23058902052E+02  0.70323523134E+01  0.27831861306E+02  0.54367089546E+02  0.40000012239E+02 0.  0.
         12    1    3    3    0    0 -0.23058902052E+02 -0.70323523134E+01 -0.27831861306E+02  0.36820910454E+02  0.00000000000E+00 0. -1.
         11    1    4    4    0    0  0.90706620367E+00  0.25848106419E+01 -0.33406653948E+01  0.43201922056E+01  0.51100000000E-03 0. -1.
        -11    1    4    4    0    0  0.17671295521E+02 -0.14865200010E+01 -0.27138584870E+00  0.17735785228E+02  0.51100000000E-03 0.  1.
         12    1    4    4    0    0  0.44805403264E+01  0.59340616725E+01  0.31443912549E+02  0.32311112113E+02  0.00000000000E+00 0. -1.
</event>
<event>
 8    1  0.1265908E-006  0.9118800E+02  0.7816164E-02  0.1184000E+00
        -11   -1    0    0    0    0  0.00000000000E+00  0.00000000000E+00  0.45593999997E+02  0.45594000000E+02  0.51100000000E-03 0.  1.
         11   -1    0    0    0    0 -0.00000000000E+00 -0.00000000000E+00 -0.45593999997E+02  0.45594000000E+02  0.51100000000E-03 0. -1.
         23    2    1    2    0    0  0.00000000000E+00 -0.88817841970E-15 -0.35527136788E-14  0.91188000000E+02  0.91188000000E+02 0.  0.
    9900012    2    3    3    0    0 -0.32642082905E+02  0.23860073670E+01 -0.16869552364E+02  0.54367076540E+02  0.39999982587E+02 0.  0.
        -12    1    3    3    0    0  0.32642082905E+02 -0.23860073670E+01  0.16869552364E+02  0.36820923460E+02  0.00000000000E+00 0.  1.
         11    1    4    4    0    0 -0.22765141974E+02  0.44795342817E+01 -0.12127135891E+01  0.23233350834E+02  0.51100000000E-03 0.  1.
        -11    1    4    4    0    0 -0.12363459780E+02  0.74710164714E+01 -0.24705316597E+01  0.14655195386E+02  0.51100000000E-03 0. -1.
        -12    1    4    4    0    0  0.24865188491E+01 -0.95645433860E+01 -0.13186307115E+02  0.16478530320E+02  0.00000000000E+00 0.  1.
</event>
<event>
 8    1  0.1265908E-006  0.9118800E+02  0.7816164E-02  0.1184000E+00
        -11   -1    0    0    0    0  0.00000000000E+00  0.00000000000E+00  0.45593999997E+02  0.45594000000E+02  0.51100000000E-03 0.  1.
         11   -1    0    0    0    0 -0.00000000000E+00 -0.00000000000E+00 -0.45593999997E+02  0.45594000000E+02  0.51100000000E-03 0. -1.
         23    2    1    2    0    0  0.00000000000E+00  0.00000000000E+00 -0.35527136788E-14  0.91188000000E+02  0.91188000000E+02 0.  0.
    9900012    2    3    3    0    0 -0.29324625149E+02  0.57639535376E+01  0.21508676601E+02  0.54367082444E+02  0.39999996048E+02 0.  0.
         12    1    3    3    0    0  0.29324625149E+02 -0.57639535376E+01 -0.21508676601E+02  0.36820917556E+02  0.00000000000E+00 0. -1.
         11    1    4    4    0    0 -0.33593412624E+00  0.36731669482E+00  0.19185805696E+00  0.53346327578E+00  0.51100000000E-03 0.  1.
        -11    1    4    4    0    0 -0.22286643791E+02 -0.15214207802E+02  0.70637017346E+01  0.27893771581E+02  0.51100000000E-03 0. -1.
        -12    1    4    4    0    0 -0.67020472319E+01  0.20610844645E+02  0.14253116809E+02  0.25939847588E+02  0.00000000000E+00 0.  1.
</event>
<event>
 8    1  0.1265908E-006  0.9118800E+02  0.7816164E-02  0.1184000E+00
        -11   -1    0    0    0    0  0.00000000000E+00  0.00000000000E+00  0.45593999997E+02  0.45594000000E+02  0.51100000000E-03 0.  1.
         11   -1    0    0    0    0 -0.00000000000E+00 -0.00000000000E+00 -0.45593999997E+02  0.45594000000E+02  0.51100000000E-03 0. -1.
         23    2    1    2    0    0 -0.17763568394E-14  0.00000000000E+00  0.00000000000E+00  0.91188000000E+02  0.91188000000E+02 0.  0.
    9900012    2    3    3    0    0 -0.12779173544E+02 -0.36841790807E+01 -0.34335183329E+02  0.54367010521E+02  0.39999832086E+02 0.  0.
        -12    1    3    3    0    0  0.12779173544E+02  0.36841790807E+01  0.34335183329E+02  0.36820989479E+02  0.00000000000E+00 0.  1.
         11    1    4    4    0    0 -0.54174056602E+01 -0.34787815767E+00 -0.26119907459E+02  0.26678059697E+02  0.51100000000E-03 0. -1.
        -11    1    4    4    0    0 -0.31678005821E+01 -0.12482834369E+02 -0.11332806858E+02  0.17154842639E+02  0.51100000000E-03 0.  1.
        -12    1    4    4    0    0 -0.41939673019E+01  0.91465334463E+01  0.31175309876E+01  0.10534108186E+02  0.00000000000E+00 0.  1.
</event>
<event>
 8    1  0.1265908E-006  0.9118800E+02  0.7816164E-02  0.1184000E+00
        -11   -1    0    0    0    0  0.00000000000E+00  0.00000000000E+00  0.45593999997E+02  0.45594000000E+02  0.51100000000E-03 0.  1.
         11   -1    0    0    0    0 -0.00000000000E+00 -0.00000000000E+00 -0.45593999997E+02  0.45594000000E+02  0.51100000000E-03 0. -1.
         23    2    1    2    0    0  0.88817841970E-15  0.00000000000E+00  0.00000000000E+00  0.91188000000E+02  0.91188000000E+02 0.  0.
    9900012    2    3    3    0    0  0.43785486526E+01 -0.35598412629E+02  0.83283350868E+01  0.54367084268E+02  0.40000000206E+02 0.  0.
         12    1    3    3    0    0 -0.43785486526E+01  0.35598412629E+02 -0.83283350868E+01  0.36820915732E+02  0.00000000000E+00 0. -1.
         11    1    4    4    0    0  0.82582305029E+01 -0.94473409222E+01 -0.10528097574E+02  0.16379605011E+02  0.51100000000E-03 0. -1.
        -11    1    4    4    0    0 -0.24670463179E+00 -0.27002085096E+02  0.10751520783E+02  0.29064904303E+02  0.51100000000E-03 0.  1.
         12    1    4    4    0    0 -0.36329772185E+01  0.85101338945E+00  0.81049118782E+01  0.89225749542E+01  0.00000000000E+00 0. -1.
</event>
<event>
 8    1  0.1265908E-006  0.9118800E+02  0.7816164E-02  0.1184000E+00
        -11   -1    0    0    0    0  0.00000000000E+00  0.00000000000E+00  0.45593999997E+02  0.45594000000E+02  0.51100000000E-03 0. -1.
         11   -1    0    0    0    0 -0.00000000000E+00 -0.00000000000E+00 -0.45593999997E+02  0.45594000000E+02  0.51100000000E-03 0.  1.
         23    2    1    2    0    0  0.00000000000E+00  0.17763568394E-14  0.00000000000E+00  0.91188000000E+02  0.91188000000E+02 0.  0.
    9900012    2    3    3    0    0  0.24034581937E+02 -0.14807982912E+02  0.23639844394E+02  0.54367085702E+02  0.40000003475E+02 0.  0.
        -12    1    3    3    0    0 -0.24034581937E+02  0.14807982912E+02 -0.23639844394E+02  0.36820914298E+02  0.00000000000E+00 0.  1.
         11    1    4    4    0    0 -0.50163181688E+01 -0.37937778164E+00 -0.44103970614E+01  0.66902150916E+01  0.51100000000E-03 0. -1.
        -11    1    4    4    0    0  0.51868709925E+00 -0.75511388117E+01  0.12102747342E+02  0.14274635798E+02  0.51100000000E-03 0.  1.
         12    1    4    4    0    0  0.28532213006E+02 -0.68774663182E+01  0.15947494113E+02  0.33402234813E+02  0.00000000000E+00 0. -1.
</event>
<event>
 8    1  0.1265908E-006  0.9118800E+02  0.7816164E-02  0.1184000E+00
        -11   -1    0    0    0    0  0.00000000000E+00  0.00000000000E+00  0.45593999997E+02  0.45594000000E+02  0.51100000000E-03 0.  1.
         11   -1    0    0    0    0 -0.00000000000E+00 -0.00000000000E+00 -0.45593999997E+02  0.45594000000E+02  0.51100000000E-03 0. -1.
         23    2    1    2    0    0 -0.17763568394E-14  0.00000000000E+00 -0.71054273576E-14  0.91188000000E+02  0.91188000000E+02 0.  0.
    9900012    2    3    3    0    0 -0.13312593843E+02 -0.14065985303E+02 -0.31316174304E+02  0.54367083792E+02  0.39999999121E+02 0.  0.
        -12    1    3    3    0    0  0.13312593843E+02  0.14065985303E+02  0.31316174304E+02  0.36820916208E+02  0.00000000000E+00 0.  1.
         11    1    4    4    0    0 -0.13324659187E+02 -0.19320440422E+01 -0.75894935601E+01  0.15455735162E+02  0.51100000000E-03 0. -1.
        -11    1    4    4    0    0 -0.48507535794E+00  0.45150092660E+01  0.43354463139E+01  0.62782721968E+01  0.51100000000E-03 0.  1.
         12    1    4    4    0    0  0.49714070207E+00 -0.16648950527E+02 -0.28062127057E+02  0.32633076434E+02  0.00000000000E+00 0. -1.
</event>
<event>
 8    1  0.1265908E-006  0.9118800E+02  0.7816164E-02  0.1184000E+00
        -11   -1    0    0    0    0  0.00000000000E+00  0.00000000000E+00  0.45593999997E+02  0.45594000000E+02  0.51100000000E-03 0.  1.
         11   -1    0    0    0    0 -0.00000000000E+00 -0.00000000000E+00 -0.45593999997E+02  0.45594000000E+02  0.51100000000E-03 0. -1.
         23    2    1    2    0    0  0.17763568394E-14  0.88817841970E-15  0.00000000000E+00  0.91188000000E+02  0.91188000000E+02 0.  0.
    9900012    2    3    3    0    0 -0.76815348389E+01  0.62602479018E+01 -0.35462406598E+02  0.54367096114E+02  0.40000027211E+02 0.  0.
        -12    1    3    3    0    0  0.76815348389E+01 -0.62602479018E+01  0.35462406598E+02  0.36820903886E+02  0.00000000000E+00 0.  1.
         11    1    4    4    0    0 -0.13404750714E+02  0.20240140844E+01  0.27089177363E+01  0.13824695666E+02  0.51100000000E-03 0. -1.
        -11    1    4    4    0    0  0.50210416709E+00  0.74825806955E+01 -0.21884850462E+02  0.23134126361E+02  0.51100000000E-03 0.  1.
         12    1    4    4    0    0  0.52211117075E+01 -0.32463468781E+01 -0.16286473872E+02  0.17408274087E+02  0.00000000000E+00 0. -1.
</event>
<event>
 8    1  0.1265908E-006  0.9118800E+02  0.7816164E-02  0.1184000E+00
        -11   -1    0    0    0    0  0.00000000000E+00  0.00000000000E+00  0.45593999997E+02  0.45594000000E+02  0.51100000000E-03 0. -1.
         11   -1    0    0    0    0 -0.00000000000E+00 -0.00000000000E+00 -0.45593999997E+02  0.45594000000E+02  0.51100000000E-03 0.  1.
         23    2    1    2    0    0  0.00000000000E+00 -0.17763568394E-14  0.00000000000E+00  0.91188000000E+02  0.91188000000E+02 0.  0.
    9900012    2    3    3    0    0 -0.24266441146E+02 -0.12546551693E+02 -0.24688118172E+02  0.54367091481E+02  0.40000016649E+02 0.  0.
         12    1    3    3    0    0  0.24266441146E+02  0.12546551693E+02  0.24688118172E+02  0.36820908519E+02  0.00000000000E+00 0. -1.
         11    1    4    4    0    0 -0.87408025775E+01  0.12636675046E+00 -0.68766755889E+01  0.11122331845E+02  0.51100000000E-03 0. -1.
        -11    1    4    4    0    0 -0.26239918158E+02 -0.66675849195E+01 -0.13254319925E+02  0.30144103744E+02  0.51100000000E-03 0.  1.
        -12    1    4    4    0    0  0.10714279590E+02 -0.60053335245E+01 -0.45571226583E+01  0.13100655891E+02  0.00000000000E+00 0.  1.
</event>
<event>
 8    1  0.1265908E-006  0.9118800E+02  0.7816164E-02  0.1184000E+00
        -11   -1    0    0    0    0  0.00000000000E+00  0.00000000000E+00  0.45593999997E+02  0.45594000000E+02  0.51100000000E-03 0.  1.
         11   -1    0    0    0    0 -0.00000000000E+00 -0.00000000000E+00 -0.45593999997E+02  0.45594000000E+02  0.51100000000E-03 0. -1.
         23    2    1    2    0    0  0.35527136788E-14  0.26090241079E-14 -0.35527136788E-14  0.91188000000E+02  0.91188000000E+02 0.  0.
    9900012    2    3    3    0    0 -0.19505195153E+02  0.28269108232E+00  0.31228946312E+02  0.54367086921E+02  0.40000006255E+02 0.  0.
         12    1    3    3    0    0  0.19505195153E+02 -0.28269108232E+00 -0.31228946312E+02  0.36820913079E+02  0.00000000000E+00 0. -1.
         11    1    4    4    0    0  0.53669730789E+01  0.13132484743E+02  0.93949977409E+01  0.17015655684E+02  0.51100000000E-03 0. -1.
        -11    1    4    4    0    0 -0.14792119157E+02 -0.22996625120E+01  0.69376611279E+01  0.16499284197E+02  0.51100000000E-03 0.  1.
         12    1    4    4    0    0 -0.10080049076E+02 -0.10550131149E+02  0.14896287443E+02  0.20852147040E+02  0.00000000000E+00 0. -1.
</event>
<event>
 8    1  0.1265908E-006  0.9118800E+02  0.7816164E-02  0.1184000E+00
        -11   -1    0    0    0    0  0.00000000000E+00  0.00000000000E+00  0.45593999997E+02  0.45594000000E+02  0.51100000000E-03 0.  1.
         11   -1    0    0    0    0 -0.00000000000E+00 -0.00000000000E+00 -0.45593999997E+02  0.45594000000E+02  0.51100000000E-03 0. -1.
         23    2    1    2    0    0 -0.88817841970E-15  0.00000000000E+00  0.00000000000E+00  0.91188000000E+02  0.91188000000E+02 0.  0.
    9900012    2    3    3    0    0 -0.50040405966E+00 -0.23940819669E+02  0.27970866647E+02  0.54367046296E+02  0.39999913641E+02 0.  0.
         12    1    3    3    0    0  0.50040405966E+00  0.23940819669E+02 -0.27970866647E+02  0.36820953704E+02  0.00000000000E+00 0. -1.
         11    1    4    4    0    0  0.29625963164E+01 -0.33421447379E+01 -0.58447592384E+01  0.73558221294E+01  0.51100000000E-03 0. -1.
        -11    1    4    4    0    0  0.93736156162E+01 -0.80349792505E+01  0.55842252015E+01  0.13550244745E+02  0.51100000000E-03 0.  1.
        -12    1    4    4    0    0 -0.12836615992E+02 -0.12563695681E+02  0.28231400684E+02  0.33460979422E+02  0.00000000000E+00 0.  1.
</event>
<event>
 8    1  0.1265908E-006  0.9118800E+02  0.7816164E-02  0.1184000E+00
        -11   -1    0    0    0    0  0.00000000000E+00  0.00000000000E+00  0.45593999997E+02  0.45594000000E+02  0.51100000000E-03 0.  1.
         11   -1    0    0    0    0 -0.00000000000E+00 -0.00000000000E+00 -0.45593999997E+02  0.45594000000E+02  0.51100000000E-03 0. -1.
         23    2    1    2    0    0  0.88817841970E-15  0.00000000000E+00  0.00000000000E+00  0.91188000000E+02  0.91188000000E+02 0.  0.
    9900012    2    3    3    0    0 -0.42782837424E+01 -0.10664859659E+02 -0.34981950501E+02  0.54367084691E+02  0.40000001170E+02 0.  0.
        -12    1    3    3    0    0  0.42782837424E+01  0.10664859659E+02  0.34981950501E+02  0.36820915309E+02  0.00000000000E+00 0.  1.
         11    1    4    4    0    0  0.73208142003E+01  0.26508738362E+01 -0.23192694643E+02  0.24464720266E+02  0.51100000000E-03 0. -1.
        -11    1    4    4    0    0 -0.13775703752E+02 -0.15554574250E+01 -0.11379223181E+02  0.17935333343E+02  0.51100000000E-03 0.  1.
        -12    1    4    4    0    0  0.21766058098E+01 -0.11760276071E+02 -0.41003267778E+00  0.11967031082E+02  0.00000000000E+00 0.  1.
</event>
<event>
 8    1  0.1265908E-006  0.9118800E+02  0.7816164E-02  0.1184000E+00
        -11   -1    0    0    0    0  0.00000000000E+00  0.00000000000E+00  0.45593999997E+02  0.45594000000E+02  0.51100000000E-03 0. -1.
         11   -1    0    0    0    0 -0.00000000000E+00 -0.00000000000E+00 -0.45593999997E+02  0.45594000000E+02  0.51100000000E-03 0.  1.
         23    2    1    2    0    0 -0.35527136788E-14 -0.35527136788E-14  0.00000000000E+00  0.91188000000E+02  0.91188000000E+02 0.  0.
    9900012    2    3    3    0    0  0.20279738181E+02 -0.22910818464E+02  0.20484302229E+02  0.54367081744E+02  0.39999994452E+02 0.  0.
        -12    1    3    3    0    0 -0.20279738181E+02  0.22910818464E+02 -0.20484302229E+02  0.36820918256E+02  0.00000000000E+00 0.  1.
         11    1    4    4    0    0  0.11500220716E+01 -0.19256992240E+02 -0.21170961574E+01  0.19407122334E+02  0.51100000000E-03 0. -1.
        -11    1    4    4    0    0  0.52243668468E-01  0.14958718476E+01  0.12827601719E+02  0.12914632325E+02  0.51100000000E-03 0.  1.
         12    1    4    4    0    0  0.19077472441E+02 -0.51496980715E+01  0.97737966680E+01  0.22045327085E+02  0.00000000000E+00 0. -1.
</event>
<event>
 8    1  0.1265908E-006  0.9118800E+02  0.7816164E-02  0.1184000E+00
        -11   -1    0    0    0    0  0.00000000000E+00  0.00000000000E+00  0.45593999997E+02  0.45594000000E+02  0.51100000000E-03 0. -1.
         11   -1    0    0    0    0 -0.00000000000E+00 -0.00000000000E+00 -0.45593999997E+02  0.45594000000E+02  0.51100000000E-03 0.  1.
         23    2    1    2    0    0  0.35527136788E-14  0.35527136788E-14 -0.71054273576E-14  0.91188000000E+02  0.91188000000E+02 0.  0.
    9900012    2    3    3    0    0 -0.21185567980E+02 -0.16162225618E+02  0.25411306685E+02  0.54367077483E+02  0.39999984737E+02 0.  0.
        -12    1    3    3    0    0  0.21185567980E+02  0.16162225618E+02 -0.25411306685E+02  0.36820922517E+02  0.00000000000E+00 0.  1.
         11    1    4    4    0    0 -0.57919898983E+01  0.86929119291E+01  0.19529937725E+02  0.22147964525E+02  0.51100000000E-03 0. -1.
        -11    1    4    4    0    0 -0.14628068193E+02 -0.20160203567E+02  0.33250993906E+00  0.24910334202E+02  0.51100000000E-03 0.  1.
        -12    1    4    4    0    0 -0.76550988856E+00 -0.46949339807E+01  0.55488590212E+01  0.73087787564E+01  0.00000000000E+00 0.  1.
</event>
<event>
 8    1  0.1265908E-006  0.9118800E+02  0.7816164E-02  0.1184000E+00
        -11   -1    0    0    0    0  0.00000000000E+00  0.00000000000E+00  0.45593999997E+02  0.45594000000E+02  0.51100000000E-03 0. -1.
         11   -1    0    0    0    0 -0.00000000000E+00 -0.00000000000E+00 -0.45593999997E+02  0.45594000000E+02  0.51100000000E-03 0.  1.
         23    2    1    2    0    0 -0.88817841970E-15  0.00000000000E+00  0.00000000000E+00  0.91188000000E+02  0.91188000000E+02 0.  0.
    9900012    2    3    3    0    0  0.66848029847E+01  0.17796871795E+02  0.31533573667E+02  0.54367061598E+02  0.39999948524E+02 0.  0.
        -12    1    3    3    0    0 -0.66848029847E+01 -0.17796871795E+02 -0.31533573667E+02  0.36820938402E+02  0.00000000000E+00 0.  1.
         11    1    4    4    0    0  0.53008633069E+00 -0.61638902145E+01 -0.29234655926E+01  0.68426007794E+01  0.51100000000E-03 0. -1.
        -11    1    4    4    0    0 -0.19175873657E+01  0.21674598085E+02  0.15268074408E+02  0.26581562028E+02  0.51100000000E-03 0.  1.
         12    1    4    4    0    0  0.80723040197E+01  0.22861639240E+01  0.19188964852E+02  0.20942898791E+02  0.00000000000E+00 0. -1.
</event>
<event>
 8    1  0.1265908E-006  0.9118800E+02  0.7816164E-02  0.1184000E+00
        -11   -1    0    0    0    0  0.00000000000E+00  0.00000000000E+00  0.45593999997E+02  0.45594000000E+02  0.51100000000E-03 0.  1.
         11   -1    0    0    0    0 -0.00000000000E+00 -0.00000000000E+00 -0.45593999997E+02  0.45594000000E+02  0.51100000000E-03 0. -1.
         23    2    1    2    0    0 -0.35527136788E-14  0.17763568394E-14  0.00000000000E+00  0.91188000000E+02  0.91188000000E+02 0.  0.
    9900012    2    3    3    0    0 -0.17435826734E+02  0.12331076482E+02  0.29995261291E+02  0.54367092882E+02  0.40000019842E+02 0.  0.
         12    1    3    3    0    0  0.17435826734E+02 -0.12331076482E+02 -0.29995261291E+02  0.36820907118E+02  0.00000000000E+00 0. -1.
         11    1    4    4    0    0 -0.21478497003E+01  0.72233916866E+01  0.10796307952E+01  0.76129001509E+01  0.51100000000E-03 0. -1.
        -11    1    4    4    0    0 -0.19689528855E+02  0.15326765504E+02  0.23892553067E+02  0.34546220917E+02  0.51100000000E-03 0.  1.
         12    1    4    4    0    0  0.44015518207E+01 -0.10219080708E+02  0.50230774284E+01  0.12207971814E+02  0.00000000000E+00 0. -1.
</event>
<event>
 8    1  0.1265908E-006  0.9118800E+02  0.7816164E-02  0.1184000E+00
        -11   -1    0    0    0    0  0.00000000000E+00  0.00000000000E+00  0.45593999997E+02  0.45594000000E+02  0.51100000000E-03 0.  1.
         11   -1    0    0    0    0 -0.00000000000E+00 -0.00000000000E+00 -0.45593999997E+02  0.45594000000E+02  0.51100000000E-03 0. -1.
         23    2    1    2    0    0 -0.54817261841E-15 -0.17763568394E-14  0.71054273576E-14  0.91188000000E+02  0.91188000000E+02 0.  0.
    9900012    2    3    3    0    0 -0.54311990031E-01 -0.11089501117E+02  0.35111244036E+02  0.54367089602E+02  0.40000012366E+02 0.  0.
         12    1    3    3    0    0  0.54311990031E-01  0.11089501117E+02 -0.35111244036E+02  0.36820910398E+02  0.00000000000E+00 0. -1.
         11    1    4    4    0    0 -0.54278898716E+01  0.13322062222E+02  0.59161506902E+01  0.15554426044E+02  0.51100000000E-03 0. -1.
        -11    1    4    4    0    0  0.19753158385E+01 -0.18541876618E+02  0.19499405069E+02  0.26980175305E+02  0.51100000000E-03 0.  1.
         12    1    4    4    0    0  0.33982620430E+01 -0.58696867202E+01  0.96956882764E+01  0.11832488253E+02  0.00000000000E+00 0. -1.
</event>
<event>
 8    1  0.1265908E-006  0.9118800E+02  0.7816164E-02  0.1184000E+00
        -11   -1    0    0    0    0  0.00000000000E+00  0.00000000000E+00  0.45593999997E+02  0.45594000000E+02  0.51100000000E-03 0.  1.
         11   -1    0    0    0    0 -0.00000000000E+00 -0.00000000000E+00 -0.45593999997E+02  0.45594000000E+02  0.51100000000E-03 0. -1.
         23    2    1    2    0    0 -0.31086244690E-14  0.00000000000E+00  0.00000000000E+00  0.91188000000E+02  0.91188000000E+02 0.  0.
    9900012    2    3    3    0    0  0.29831993959E+01 -0.87504924826E+01  0.35641388767E+02  0.54367093024E+02  0.40000020167E+02 0.  0.
         12    1    3    3    0    0 -0.29831993959E+01  0.87504924826E+01 -0.35641388767E+02  0.36820906976E+02  0.00000000000E+00 0. -1.
         11    1    4    4    0    0 -0.14668297638E+02 -0.73389633420E+01  0.13532766992E+02  0.21263939457E+02  0.51100000000E-03 0. -1.
        -11    1    4    4    0    0  0.76316303380E+01 -0.56804388292E+01  0.19804063862E+02  0.21970664820E+02  0.51100000000E-03 0.  1.
         12    1    4    4    0    0  0.10019866695E+02  0.42689096886E+01  0.23045579120E+01  0.11132488747E+02  0.00000000000E+00 0. -1.
</event>
<event>
 8    1  0.1265908E-006  0.9118800E+02  0.7816164E-02  0.1184000E+00
        -11   -1    0    0    0    0  0.00000000000E+00  0.00000000000E+00  0.45593999997E+02  0.45594000000E+02  0.51100000000E-03 0.  1.
         11   -1    0    0    0    0 -0.00000000000E+00 -0.00000000000E+00 -0.45593999997E+02  0.45594000000E+02  0.51100000000E-03 0. -1.
         23    2    1    2    0    0  0.00000000000E+00  0.00000000000E+00 -0.35527136788E-14  0.91188000000E+02  0.91188000000E+02 0.  0.
    9900012    2    3    3    0    0 -0.18214785021E+02 -0.17947747448E+02 -0.26492902849E+02  0.54367164415E+02  0.40000182917E+02 0.  0.
        -12    1    3    3    0    0  0.18214785021E+02  0.17947747448E+02  0.26492902849E+02  0.36820835585E+02  0.00000000000E+00 0.  1.
         11    1    4    4    0    0 -0.12926572994E+02 -0.37061869120E+01 -0.67889876209E+01  0.15063945830E+02  0.51100000000E-03 0. -1.
        -11    1    4    4    0    0 -0.12320602082E+02  0.44872084237E+01 -0.35346865954E+01  0.13580363938E+02  0.51100000000E-03 0.  1.
         12    1    4    4    0    0  0.70323900553E+01 -0.18728768959E+02 -0.16169228633E+02  0.25722854647E+02  0.00000000000E+00 0. -1.
</event>
<event>
 8    1  0.1265908E-006  0.9118800E+02  0.7816164E-02  0.1184000E+00
        -11   -1    0    0    0    0  0.00000000000E+00  0.00000000000E+00  0.45593999997E+02  0.45594000000E+02  0.51100000000E-03 0.  1.
         11   -1    0    0    0    0 -0.00000000000E+00 -0.00000000000E+00 -0.45593999997E+02  0.45594000000E+02  0.51100000000E-03 0. -1.
         23    2    1    2    0    0  0.00000000000E+00  0.00000000000E+00  0.00000000000E+00  0.91188000000E+02  0.91188000000E+02 0.  0.
    9900012    2    3    3    0    0 -0.26581080903E+02  0.17648957034E+02 -0.18377590002E+02  0.54367145031E+02  0.40000138726E+02 0.  0.
        -12    1    3    3    0    0  0.26581080903E+02 -0.17648957034E+02  0.18377590002E+02  0.36820854969E+02  0.00000000000E+00 0.  1.
         11    1    4    4    0    0 -0.18943382722E+02  0.56964341259E+01 -0.10922061534E+02  0.22596294809E+02  0.51100000000E-03 0. -1.
        -11    1    4    4    0    0  0.81125078574E+01  0.12745700489E+02 -0.33605293670E+01  0.15477687895E+02  0.51100000000E-03 0.  1.
        -12    1    4    4    0    0 -0.15750206039E+02 -0.79317758117E+00 -0.40949991015E+01  0.16293162326E+02  0.00000000000E+00 0.  1.
</event>
<event>
 8    1  0.1265908E-006  0.9118800E+02  0.7816164E-02  0.1184000E+00
        -11   -1    0    0    0    0  0.00000000000E+00  0.00000000000E+00  0.45593999997E+02  0.45594000000E+02  0.51100000000E-03 0. -1.
         11   -1    0    0    0    0 -0.00000000000E+00 -0.00000000000E+00 -0.45593999997E+02  0.45594000000E+02  0.51100000000E-03 0.  1.
         23    2    1    2    0    0  0.35527136788E-14 -0.16653345369E-14  0.00000000000E+00  0.91188000000E+02  0.91188000000E+02 0.  0.
    9900012    2    3    3    0    0 -0.18789435215E+02  0.33429114698E+00 -0.31664264268E+02  0.54367078530E+02  0.39999987125E+02 0.  0.
         12    1    3    3    0    0  0.18789435215E+02 -0.33429114698E+00  0.31664264268E+02  0.36820921470E+02  0.00000000000E+00 0. -1.
         11    1    4    4    0    0 -0.10446959274E+02  0.10058918671E+02  0.21763712744E+01  0.14664835324E+02  0.51100000000E-03 0. -1.
        -11    1    4    4    0    0 -0.84652579625E+01  0.21916946481E+01 -0.16281288949E+02  0.18480922269E+02  0.51100000000E-03 0.  1.
         12    1    4    4    0    0  0.12278202137E+00 -0.11916322172E+02 -0.17559346593E+02  0.21221320937E+02  0.00000000000E+00 0. -1.
</event>
<event>
 8    1  0.1265908E-006  0.9118800E+02  0.7816164E-02  0.1184000E+00
        -11   -1    0    0    0    0  0.00000000000E+00  0.00000000000E+00  0.45593999997E+02  0.45594000000E+02  0.51100000000E-03 0. -1.
         11   -1    0    0    0    0 -0.00000000000E+00 -0.00000000000E+00 -0.45593999997E+02  0.45594000000E+02  0.51100000000E-03 0.  1.
         23    2    1    2    0    0  0.00000000000E+00  0.17763568394E-14  0.00000000000E+00  0.91188000000E+02  0.91188000000E+02 0.  0.
    9900012    2    3    3    0    0  0.27897175175E+02  0.13954219534E+02  0.19565484851E+02  0.54367070857E+02  0.39999969632E+02 0.  0.
        -12    1    3    3    0    0 -0.27897175175E+02 -0.13954219534E+02 -0.19565484851E+02  0.36820929143E+02  0.00000000000E+00 0.  1.
         11    1    4    4    0    0  0.28642365303E+02  0.61941125417E+00  0.18152339486E+02  0.33915721864E+02  0.51100000000E-03 0. -1.
        -11    1    4    4    0    0 -0.80379941551E+01  0.63741464820E+01  0.15117961332E+01  0.10369407949E+02  0.51100000000E-03 0.  1.
         12    1    4    4    0    0  0.72928040264E+01  0.69606617973E+01 -0.98650767744E-01  0.10081941043E+02  0.00000000000E+00 0. -1.
</event>
<event>
 8    1  0.1265908E-006  0.9118800E+02  0.7816164E-02  0.1184000E+00
        -11   -1    0    0    0    0  0.00000000000E+00  0.00000000000E+00  0.45593999997E+02  0.45594000000E+02  0.51100000000E-03 0. -1.
         11   -1    0    0    0    0 -0.00000000000E+00 -0.00000000000E+00 -0.45593999997E+02  0.45594000000E+02  0.51100000000E-03 0.  1.
         23    2    1    2    0    0  0.00000000000E+00  0.44408920985E-15  0.17763568394E-14  0.91188000000E+02  0.91188000000E+02 0.  0.
    9900012    2    3    3    0    0 -0.33068794780E+02  0.27733788176E+01  0.15954368473E+02  0.54367099799E+02  0.40000035612E+02 0.  0.
        -12    1    3    3    0    0  0.33068794780E+02 -0.27733788176E+01 -0.15954368473E+02  0.36820900201E+02  0.00000000000E+00 0.  1.
         11    1    4    4    0    0 -0.17293778419E+02  0.48782357376E+01  0.83726167311E+01  0.19823538209E+02  0.51100000000E-03 0. -1.
        -11    1    4    4    0    0  0.31936826785E+01 -0.59479180497E+01 -0.74381201805E+01  0.10045047051E+02  0.51100000000E-03 0.  1.
         12    1    4    4    0    0 -0.18968699039E+02  0.38430611297E+01  0.15019871922E+02  0.24498514539E+02  0.00000000000E+00 0. -1.
</event>
<event>
 8    1  0.1265908E-006  0.9118800E+02  0.7816164E-02  0.1184000E+00
        -11   -1    0    0    0    0  0.00000000000E+00  0.00000000000E+00  0.45593999997E+02  0.45594000000E+02  0.51100000000E-03 0.  1.
         11   -1    0    0    0    0 -0.00000000000E+00 -0.00000000000E+00 -0.45593999997E+02  0.45594000000E+02  0.51100000000E-03 0. -1.
         23    2    1    2    0    0  0.00000000000E+00  0.35527136788E-14 -0.35527136788E-14  0.91188000000E+02  0.91188000000E+02 0.  0.
    9900012    2    3    3    0    0  0.32038636327E+02 -0.19851332552E+01  0.18037863982E+02  0.54367088703E+02  0.40000010316E+02 0.  0.
         12    1    3    3    0    0 -0.32038636327E+02  0.19851332552E+01 -0.18037863982E+02  0.36820911297E+02  0.00000000000E+00 0. -1.
         11    1    4    4    0    0  0.71979541421E+01  0.83781734457E+01 -0.38699897163E+01  0.11703894855E+02  0.51100000000E-03 0. -1.
        -11    1    4    4    0    0  0.26361667928E+02 -0.15865601299E+02  0.17104279950E+02  0.35202432209E+02  0.51100000000E-03 0.  1.
        -12    1    4    4    0    0 -0.15209857431E+01  0.55022945983E+01  0.48035737482E+01  0.74607616388E+01  0.00000000000E+00 0.  1.
</event>
<event>
 8    1  0.1265908E-006  0.9118800E+02  0.7816164E-02  0.1184000E+00
        -11   -1    0    0    0    0  0.00000000000E+00  0.00000000000E+00  0.45593999997E+02  0.45594000000E+02  0.51100000000E-03 0.  1.
         11   -1    0    0    0    0 -0.00000000000E+00 -0.00000000000E+00 -0.45593999997E+02  0.45594000000E+02  0.51100000000E-03 0. -1.
         23    2    1    2    0    0  0.17763568394E-14  0.35527136788E-14  0.00000000000E+00  0.91188000000E+02  0.91188000000E+02 0.  0.
    9900012    2    3    3    0    0 -0.15778439249E+02 -0.25999582316E+02 -0.20756796304E+02  0.54367054622E+02  0.39999932621E+02 0.  0.
        -12    1    3    3    0    0  0.15778439249E+02  0.25999582316E+02  0.20756796304E+02  0.36820945378E+02  0.00000000000E+00 0.  1.
         11    1    4    4    0    0  0.25657018702E+01 -0.14722330661E+02 -0.13316372863E+02  0.20016384106E+02  0.51100000000E-03 0. -1.
        -11    1    4    4    0    0 -0.50383653741E+01  0.56707737474E+01  0.53598653051E+01  0.92882160229E+01  0.51100000000E-03 0.  1.
         12    1    4    4    0    0 -0.13305775745E+02 -0.16948025402E+02 -0.12800288746E+02  0.25062454493E+02  0.00000000000E+00 0. -1.
</event>
<event>
 8    1  0.1265908E-006  0.9118800E+02  0.7816164E-02  0.1184000E+00
        -11   -1    0    0    0    0  0.00000000000E+00  0.00000000000E+00  0.45593999997E+02  0.45594000000E+02  0.51100000000E-03 0.  1.
         11   -1    0    0    0    0 -0.00000000000E+00 -0.00000000000E+00 -0.45593999997E+02  0.45594000000E+02  0.51100000000E-03 0. -1.
         23    2    1    2    0    0  0.00000000000E+00  0.00000000000E+00  0.17763568394E-14  0.91188000000E+02  0.91188000000E+02 0.  0.
    9900012    2    3    3    0    0 -0.23505277935E+02  0.25571911324E+02 -0.12221259238E+02  0.54367083160E+02  0.39999997680E+02 0.  0.
         12    1    3    3    0    0  0.23505277935E+02 -0.25571911324E+02  0.12221259238E+02  0.36820916840E+02  0.00000000000E+00 0. -1.
         11    1    4    4    0    0 -0.99757323114E+01  0.18599558725E+02  0.31619522951E+01  0.21341433000E+02  0.51100000000E-03 0. -1.
        -11    1    4    4    0    0 -0.20223195346E+02  0.15576966851E+01 -0.84553528373E+01  0.21974918448E+02  0.51100000000E-03 0.  1.
         12    1    4    4    0    0  0.66936497216E+01  0.54146559141E+01 -0.69278586957E+01  0.11050731712E+02  0.00000000000E+00 0. -1.
</event>
<event>
 8    1  0.1265908E-006  0.9118800E+02  0.7816164E-02  0.1184000E+00
        -11   -1    0    0    0    0  0.00000000000E+00  0.00000000000E+00  0.45593999997E+02  0.45594000000E+02  0.51100000000E-03 0. -1.
         11   -1    0    0    0    0 -0.00000000000E+00 -0.00000000000E+00 -0.45593999997E+02  0.45594000000E+02  0.51100000000E-03 0.  1.
         23    2    1    2    0    0 -0.11102230246E-14  0.17763568394E-14  0.00000000000E+00  0.91188000000E+02  0.91188000000E+02 0.  0.
    9900012    2    3    3    0    0 -0.63662673475E+00 -0.78868174775E+01 -0.35960721863E+02  0.54367072520E+02  0.39999973425E+02 0.  0.
         12    1    3    3    0    0  0.63662673475E+00  0.78868174775E+01  0.35960721863E+02  0.36820927480E+02  0.00000000000E+00 0. -1.
         11    1    4    4    0    0 -0.32719662397E+01  0.78812940864E+01 -0.26893947513E+02  0.28215332227E+02  0.51100000000E-03 0. -1.
        -11    1    4    4    0    0  0.10309370498E+02 -0.55509444651E+01 -0.35651074765E+01  0.12239530060E+02  0.51100000000E-03 0.  1.
         12    1    4    4    0    0 -0.76740309927E+01 -0.10217167099E+02 -0.55016668736E+01  0.13912210234E+02  0.00000000000E+00 0. -1.
</event>
<event>
 8    1  0.1265908E-006  0.9118800E+02  0.7816164E-02  0.1184000E+00
        -11   -1    0    0    0    0  0.00000000000E+00  0.00000000000E+00  0.45593999997E+02  0.45594000000E+02  0.51100000000E-03 0. -1.
         11   -1    0    0    0    0 -0.00000000000E+00 -0.00000000000E+00 -0.45593999997E+02  0.45594000000E+02  0.51100000000E-03 0.  1.
         23    2    1    2    0    0  0.00000000000E+00  0.88817841970E-15  0.44408920985E-15  0.91188000000E+02  0.91188000000E+02 0.  0.
    9900012    2    3    3    0    0  0.36209632885E+02  0.56565398521E+01  0.35561199613E+01  0.54367082766E+02  0.39999996781E+02 0.  0.
         12    1    3    3    0    0 -0.36209632885E+02 -0.56565398521E+01 -0.35561199613E+01  0.36820917234E+02  0.00000000000E+00 0. -1.
         11    1    4    4    0    0  0.15371412976E+01  0.14658223288E+02 -0.45239337289E+01  0.15417272456E+02  0.51100000000E-03 0. -1.
        -11    1    4    4    0    0  0.32280026622E+02 -0.67304168583E+01  0.32958507648E+01  0.33138516297E+02  0.51100000000E-03 0.  1.
         12    1    4    4    0    0  0.23924649653E+01 -0.22712665778E+01  0.47842029254E+01  0.58112940133E+01  0.00000000000E+00 0. -1.
</event>
<event>
 8    1  0.1265908E-006  0.9118800E+02  0.7816164E-02  0.1184000E+00
        -11   -1    0    0    0    0  0.00000000000E+00  0.00000000000E+00  0.45593999997E+02  0.45594000000E+02  0.51100000000E-03 0. -1.
         11   -1    0    0    0    0 -0.00000000000E+00 -0.00000000000E+00 -0.45593999997E+02  0.45594000000E+02  0.51100000000E-03 0.  1.
         23    2    1    2    0    0  0.00000000000E+00  0.71054273576E-14  0.00000000000E+00  0.91188000000E+02  0.91188000000E+02 0.  0.
    9900012    2    3    3    0    0  0.76737453222E+00  0.36554754856E+02  0.43520648112E+01  0.54367089712E+02  0.40000012617E+02 0.  0.
        -12    1    3    3    0    0 -0.76737453222E+00 -0.36554754856E+02 -0.43520648112E+01  0.36820910288E+02  0.00000000000E+00 0.  1.
         11    1    4    4    0    0  0.82558100018E+01  0.13510416569E+02  0.62687619604E+01  0.17029008527E+02  0.51100000000E-03 0. -1.
        -11    1    4    4    0    0  0.46709977556E+01  0.23791545306E+02 -0.50348467166E+01  0.24762987094E+02  0.51100000000E-03 0.  1.
         12    1    4    4    0    0 -0.12159433225E+02 -0.74720701828E+00  0.31181495674E+01  0.12575094091E+02  0.00000000000E+00 0. -1.
</event>
<event>
 8    1  0.1265908E-006  0.9118800E+02  0.7816164E-02  0.1184000E+00
        -11   -1    0    0    0    0  0.00000000000E+00  0.00000000000E+00  0.45593999997E+02  0.45594000000E+02  0.51100000000E-03 0.  1.
         11   -1    0    0    0    0 -0.00000000000E+00 -0.00000000000E+00 -0.45593999997E+02  0.45594000000E+02  0.51100000000E-03 0. -1.
         23    2    1    2    0    0  0.00000000000E+00  0.00000000000E+00  0.00000000000E+00  0.91188000000E+02  0.91188000000E+02 0.  0.
    9900012    2    3    3    0    0  0.58595210811E+01  0.12475316144E+02  0.34143998376E+02  0.54367080331E+02  0.39999991230E+02 0.  0.
         12    1    3    3    0    0 -0.58595210811E+01 -0.12475316144E+02 -0.34143998376E+02  0.36820919669E+02  0.00000000000E+00 0. -1.
         11    1    4    4    0    0 -0.56937225056E+01  0.19295720267E+02  0.24536822064E+02  0.31730095081E+02  0.51100000000E-03 0. -1.
        -11    1    4    4    0    0  0.57311284240E+01 -0.78512999427E+01  0.12677046321E+02  0.15974862988E+02  0.51100000000E-03 0.  1.
         12    1    4    4    0    0  0.58221151627E+01  0.10308958203E+01 -0.30698700092E+01  0.66621222620E+01  0.00000000000E+00 0. -1.
</event>
<event>
 8    1  0.1265908E-006  0.9118800E+02  0.7816164E-02  0.1184000E+00
        -11   -1    0    0    0    0  0.00000000000E+00  0.00000000000E+00  0.45593999997E+02  0.45594000000E+02  0.51100000000E-03 0. -1.
         11   -1    0    0    0    0 -0.00000000000E+00 -0.00000000000E+00 -0.45593999997E+02  0.45594000000E+02  0.51100000000E-03 0.  1.
         23    2    1    2    0    0  0.00000000000E+00 -0.35527136788E-14  0.35527136788E-14  0.91188000000E+02  0.91188000000E+02 0.  0.
    9900012    2    3    3    0    0  0.27122806481E+02 -0.20409829018E+02 -0.14267892642E+02  0.54367075075E+02  0.39999979248E+02 0.  0.
         12    1    3    3    0    0 -0.27122806481E+02  0.20409829018E+02  0.14267892642E+02  0.36820924925E+02  0.00000000000E+00 0. -1.
         11    1    4    4    0    0  0.23443479443E+01  0.17167422563E+01 -0.87142822206E+00  0.30335719319E+01  0.51100000000E-03 0. -1.
        -11    1    4    4    0    0  0.31391212376E+02 -0.13023111614E+02 -0.18813910783E+02  0.38845500251E+02  0.51100000000E-03 0.  1.
         12    1    4    4    0    0 -0.66127538397E+01 -0.91034596603E+01  0.54174463630E+01  0.12488002892E+02  0.00000000000E+00 0. -1.
</event>
<event>
 8    1  0.1265908E-006  0.9118800E+02  0.7816164E-02  0.1184000E+00
        -11   -1    0    0    0    0  0.00000000000E+00  0.00000000000E+00  0.45593999997E+02  0.45594000000E+02  0.51100000000E-03 0. -1.
         11   -1    0    0    0    0 -0.00000000000E+00 -0.00000000000E+00 -0.45593999997E+02  0.45594000000E+02  0.51100000000E-03 0.  1.
         23    2    1    2    0    0 -0.71054273576E-14  0.00000000000E+00  0.00000000000E+00  0.91188000000E+02  0.91188000000E+02 0.  0.
    9900012    2    3    3    0    0 -0.35069930462E+02  0.11122818161E+02  0.14707922558E+01  0.54367077465E+02  0.39999984697E+02 0.  0.
        -12    1    3    3    0    0  0.35069930462E+02 -0.11122818161E+02 -0.14707922558E+01  0.36820922535E+02  0.00000000000E+00 0.  1.
         11    1    4    4    0    0 -0.20870340392E+02  0.12712636152E+02 -0.12297733204E+01  0.24468235914E+02  0.51100000000E-03 0. -1.
        -11    1    4    4    0    0 -0.17859500578E+02  0.31169210205E+01 -0.62221109811E+01  0.19167462609E+02  0.51100000000E-03 0.  1.
         12    1    4    4    0    0  0.36599105086E+01 -0.47067390114E+01  0.89226765574E+01  0.10731378942E+02  0.00000000000E+00 0. -1.
</event>
<event>
 8    1  0.1265908E-006  0.9118800E+02  0.7816164E-02  0.1184000E+00
        -11   -1    0    0    0    0  0.00000000000E+00  0.00000000000E+00  0.45593999997E+02  0.45594000000E+02  0.51100000000E-03 0. -1.
         11   -1    0    0    0    0 -0.00000000000E+00 -0.00000000000E+00 -0.45593999997E+02  0.45594000000E+02  0.51100000000E-03 0.  1.
         23    2    1    2    0    0  0.35527136788E-14 -0.88817841970E-15 -0.35527136788E-14  0.91188000000E+02  0.91188000000E+02 0.  0.
    9900012    2    3    3    0    0 -0.22495815611E+02 -0.62944786823E+01 -0.28462218198E+02  0.54367081399E+02  0.39999993666E+02 0.  0.
         12    1    3    3    0    0  0.22495815611E+02  0.62944786823E+01  0.28462218198E+02  0.36820918601E+02  0.00000000000E+00 0. -1.
         11    1    4    4    0    0 -0.18371222367E+02  0.13649528443E+02 -0.15417350427E+02  0.27595400566E+02  0.51100000000E-03 0. -1.
        -11    1    4    4    0    0  0.77411778619E+00 -0.17890926430E+02 -0.11326865351E+02  0.21189204464E+02  0.51100000000E-03 0.  1.
        -12    1    4    4    0    0 -0.48987110300E+01 -0.20530806955E+01 -0.17180024191E+01  0.55824763689E+01  0.00000000000E+00 0.  1.
</event>
<event>
 8    1  0.1265908E-006  0.9118800E+02  0.7816164E-02  0.1184000E+00
        -11   -1    0    0    0    0  0.00000000000E+00  0.00000000000E+00  0.45593999997E+02  0.45594000000E+02  0.51100000000E-03 0. -1.
         11   -1    0    0    0    0 -0.00000000000E+00 -0.00000000000E+00 -0.45593999997E+02  0.45594000000E+02  0.51100000000E-03 0.  1.
         23    2    1    2    0    0 -0.55511151231E-16  0.00000000000E+00  0.88817841970E-15  0.91188000000E+02  0.91188000000E+02 0.  0.
    9900012    2    3    3    0    0  0.35795247933E+00 -0.36009395775E+02  0.76795182303E+01  0.54367085911E+02  0.40000003952E+02 0.  0.
         12    1    3    3    0    0 -0.35795247933E+00  0.36009395775E+02 -0.76795182303E+01  0.36820914089E+02  0.00000000000E+00 0. -1.
         11    1    4    4    0    0  0.64139090606E+01 -0.41394174380E+00  0.15189146722E+02  0.16493021421E+02  0.51100000000E-03 0. -1.
        -11    1    4    4    0    0 -0.44465847419E+01 -0.15971697092E+02 -0.74702507540E+01  0.18184385347E+02  0.51100000000E-03 0.  1.
         12    1    4    4    0    0 -0.16093718394E+01 -0.19623756940E+02 -0.39377737475E-01  0.19689679143E+02  0.00000000000E+00 0. -1.
</event>
<event>
 8    1  0.1265908E-006  0.9118800E+02  0.7816164E-02  0.1184000E+00
        -11   -1    0    0    0    0  0.00000000000E+00  0.00000000000E+00  0.45593999997E+02  0.45594000000E+02  0.51100000000E-03 0. -1.
         11   -1    0    0    0    0 -0.00000000000E+00 -0.00000000000E+00 -0.45593999997E+02  0.45594000000E+02  0.51100000000E-03 0.  1.
         23    2    1    2    0    0  0.00000000000E+00 -0.71054273576E-14  0.00000000000E+00  0.91188000000E+02  0.91188000000E+02 0.  0.
    9900012    2    3    3    0    0 -0.20193807181E+02  0.29010380229E+02  0.10314443208E+02  0.54367085451E+02  0.40000002903E+02 0.  0.
        -12    1    3    3    0    0  0.20193807181E+02 -0.29010380229E+02 -0.10314443208E+02  0.36820914549E+02  0.00000000000E+00 0.  1.
         11    1    4    4    0    0 -0.81375861293E+01  0.12087381057E+00 -0.51180805725E+01  0.96140349229E+01  0.51100000000E-03 0. -1.
        -11    1    4    4    0    0 -0.67303838416E+01  0.31232171485E+02  0.43604451437E+01  0.32245311046E+02  0.51100000000E-03 0.  1.
         12    1    4    4    0    0 -0.53258372103E+01 -0.23426650668E+01  0.11072078637E+02  0.12507739482E+02  0.00000000000E+00 0. -1.
</event>
<event>
 8    1  0.1265908E-006  0.9118800E+02  0.7816164E-02  0.1184000E+00
        -11   -1    0    0    0    0  0.00000000000E+00  0.00000000000E+00  0.45593999997E+02  0.45594000000E+02  0.51100000000E-03 0. -1.
         11   -1    0    0    0    0 -0.00000000000E+00 -0.00000000000E+00 -0.45593999997E+02  0.45594000000E+02  0.51100000000E-03 0.  1.
         23    2    1    2    0    0  0.17763568394E-14  0.00000000000E+00  0.00000000000E+00  0.91188000000E+02  0.91188000000E+02 0.  0.
    9900012    2    3    3    0    0  0.10778892776E+02  0.16101135372E+02  0.31310513717E+02  0.54367090737E+02  0.40000014954E+02 0.  0.
         12    1    3    3    0    0 -0.10778892776E+02 -0.16101135372E+02 -0.31310513717E+02  0.36820909263E+02  0.00000000000E+00 0. -1.
         11    1    4    4    0    0  0.77086248547E+01  0.18578955232E+02  0.63754651649E+01  0.21100877493E+02  0.51100000000E-03 0.  1.
        -11    1    4    4    0    0 -0.35710225925E+01  0.73586653166E+01  0.37828943056E+01  0.90117948926E+01  0.51100000000E-03 0. -1.
         12    1    4    4    0    0  0.66412905134E+01 -0.98364851765E+01  0.21152154246E+02  0.24254418351E+02  0.00000000000E+00 0. -1.
</event>
<event>
 8    1  0.1265908E-006  0.9118800E+02  0.7816164E-02  0.1184000E+00
        -11   -1    0    0    0    0  0.00000000000E+00  0.00000000000E+00  0.45593999997E+02  0.45594000000E+02  0.51100000000E-03 0.  1.
         11   -1    0    0    0    0 -0.00000000000E+00 -0.00000000000E+00 -0.45593999997E+02  0.45594000000E+02  0.51100000000E-03 0. -1.
         23    2    1    2    0    0  0.00000000000E+00  0.00000000000E+00  0.71054273576E-14  0.91188000000E+02  0.91188000000E+02 0.  0.
    9900012    2    3    3    0    0  0.23599219206E+02  0.46397009508E+01  0.27880838068E+02  0.54366931256E+02  0.39999651384E+02 0.  0.
         12    1    3    3    0    0 -0.23599219206E+02 -0.46397009508E+01 -0.27880838068E+02  0.36821068744E+02  0.00000000000E+00 0. -1.
         11    1    4    4    0    0  0.29784628336E+01  0.62455602148E+01 -0.75249154754E+01  0.10222652123E+02  0.51100000000E-03 0. -1.
        -11    1    4    4    0    0  0.91791752106E+01 -0.70974120048E+01  0.84611576156E+01  0.14360421413E+02  0.51100000000E-03 0.  1.
         12    1    4    4    0    0  0.11441581162E+02  0.54915527408E+01  0.26944595928E+02  0.29783857720E+02  0.00000000000E+00 0. -1.
</event>
<event>
 8    1  0.1265908E-006  0.9118800E+02  0.7816164E-02  0.1184000E+00
        -11   -1    0    0    0    0  0.00000000000E+00  0.00000000000E+00  0.45593999997E+02  0.45594000000E+02  0.51100000000E-03 0. -1.
         11   -1    0    0    0    0 -0.00000000000E+00 -0.00000000000E+00 -0.45593999997E+02  0.45594000000E+02  0.51100000000E-03 0.  1.
         23    2    1    2    0    0 -0.35527136788E-14 -0.35527136788E-14  0.88817841970E-15  0.91188000000E+02  0.91188000000E+02 0.  0.
    9900012    2    3    3    0    0  0.30944802155E+02  0.18801702931E+02 -0.66853368509E+01  0.54367101826E+02  0.40000040234E+02 0.  0.
         12    1    3    3    0    0 -0.30944802155E+02 -0.18801702931E+02  0.66853368509E+01  0.36820898174E+02  0.00000000000E+00 0. -1.
         11    1    4    4    0    0  0.26823448062E+01 -0.69141928934E+00  0.53175792919E+01  0.59958055405E+01  0.51100000000E-03 0. -1.
        -11    1    4    4    0    0  0.15450059850E+02  0.22737514277E+02 -0.18999575329E+02  0.33416803675E+02  0.51100000000E-03 0.  1.
        -12    1    4    4    0    0  0.12812397499E+02 -0.32443920571E+01  0.69966591865E+01  0.14954492611E+02  0.00000000000E+00 0.  1.
</event>
<event>
 8    1  0.1265908E-006  0.9118800E+02  0.7816164E-02  0.1184000E+00
        -11   -1    0    0    0    0  0.00000000000E+00  0.00000000000E+00  0.45593999997E+02  0.45594000000E+02  0.51100000000E-03 0.  1.
         11   -1    0    0    0    0 -0.00000000000E+00 -0.00000000000E+00 -0.45593999997E+02  0.45594000000E+02  0.51100000000E-03 0. -1.
         23    2    1    2    0    0 -0.44408920985E-15  0.00000000000E+00  0.00000000000E+00  0.91188000000E+02  0.91188000000E+02 0.  0.
    9900012    2    3    3    0    0 -0.36452306519E+01 -0.10753487141E+02  0.35026482515E+02  0.54367086519E+02  0.40000005338E+02 0.  0.
         12    1    3    3    0    0  0.36452306519E+01  0.10753487141E+02 -0.35026482515E+02  0.36820913481E+02  0.00000000000E+00 0. -1.
         11    1    4    4    0    0 -0.90123785129E+01 -0.47986237385E+01  0.14355664161E+02  0.17616323397E+02  0.51100000000E-03 0.  1.
        -11    1    4    4    0    0 -0.75988282733E+01  0.44389584765E+01  0.17841584221E+02  0.19893935540E+02  0.51100000000E-03 0. -1.
        -12    1    4    4    0    0  0.12965976134E+02 -0.10393821879E+02  0.28292341323E+01  0.16856827582E+02  0.00000000000E+00 0.  1.
</event>
<event>
 8    1  0.1265908E-006  0.9118800E+02  0.7816164E-02  0.1184000E+00
        -11   -1    0    0    0    0  0.00000000000E+00  0.00000000000E+00  0.45593999997E+02  0.45594000000E+02  0.51100000000E-03 0.  1.
         11   -1    0    0    0    0 -0.00000000000E+00 -0.00000000000E+00 -0.45593999997E+02  0.45594000000E+02  0.51100000000E-03 0. -1.
         23    2    1    2    0    0  0.00000000000E+00  0.00000000000E+00  0.35527136788E-14  0.91188000000E+02  0.91188000000E+02 0.  0.
    9900012    2    3    3    0    0 -0.15763440919E+02 -0.15224925216E+02 -0.29588719970E+02  0.54367125935E+02  0.40000095194E+02 0.  0.
        -12    1    3    3    0    0  0.15763440919E+02  0.15224925216E+02  0.29588719970E+02  0.36820874065E+02  0.00000000000E+00 0.  1.
         11    1    4    4    0    0 -0.84169199940E+01 -0.60569419297E+01 -0.29073660201E+01  0.10769580547E+02  0.51100000000E-03 0. -1.
        -11    1    4    4    0    0 -0.20246397356E+02 -0.67349896051E+01 -0.17144374807E+02  0.27371632737E+02  0.51100000000E-03 0.  1.
        -12    1    4    4    0    0  0.12899876431E+02 -0.24329936812E+01 -0.95369791423E+01  0.16225912651E+02  0.00000000000E+00 0.  1.
</event>
<event>
 8    1  0.1265908E-006  0.9118800E+02  0.7816164E-02  0.1184000E+00
        -11   -1    0    0    0    0  0.00000000000E+00  0.00000000000E+00  0.45593999997E+02  0.45594000000E+02  0.51100000000E-03 0.  1.
         11   -1    0    0    0    0 -0.00000000000E+00 -0.00000000000E+00 -0.45593999997E+02  0.45594000000E+02  0.51100000000E-03 0. -1.
         23    2    1    2    0    0  0.00000000000E+00  0.13322676296E-14 -0.17763568394E-14  0.91188000000E+02  0.91188000000E+02 0.  0.
    9900012    2    3    3    0    0 -0.35846686142E+02 -0.15442784056E+01 -0.82710335070E+01  0.54367086127E+02  0.40000004444E+02 0.  0.
        -12    1    3    3    0    0  0.35846686142E+02  0.15442784056E+01  0.82710335070E+01  0.36820913873E+02  0.00000000000E+00 0.  1.
         11    1    4    4    0    0 -0.15799407167E+02 -0.61514033433E+01 -0.15530575735E+02  0.22992603438E+02  0.51100000000E-03 0. -1.
        -11    1    4    4    0    0 -0.23077510780E+02  0.56151138448E+01  0.11235950152E+02  0.26274466376E+02  0.51100000000E-03 0.  1.
         12    1    4    4    0    0  0.30302318045E+01 -0.10079889071E+01 -0.39764079232E+01  0.51000163134E+01  0.00000000000E+00 0. -1.
</event>
<event>
 8    1  0.1265908E-006  0.9118800E+02  0.7816164E-02  0.1184000E+00
        -11   -1    0    0    0    0  0.00000000000E+00  0.00000000000E+00  0.45593999997E+02  0.45594000000E+02  0.51100000000E-03 0. -1.
         11   -1    0    0    0    0 -0.00000000000E+00 -0.00000000000E+00 -0.45593999997E+02  0.45594000000E+02  0.51100000000E-03 0.  1.
         23    2    1    2    0    0  0.00000000000E+00  0.00000000000E+00 -0.35527136788E-14  0.91188000000E+02  0.91188000000E+02 0.  0.
    9900012    2    3    3    0    0 -0.30330814791E+02 -0.29869524344E+01  0.20661542666E+02  0.54367088061E+02  0.40000008852E+02 0.  0.
        -12    1    3    3    0    0  0.30330814791E+02  0.29869524344E+01 -0.20661542666E+02  0.36820911939E+02  0.00000000000E+00 0.  1.
         11    1    4    4    0    0 -0.20848759039E+02 -0.12343681725E+02  0.23998470989E+02  0.34102255674E+02  0.51100000000E-03 0. -1.
        -11    1    4    4    0    0 -0.71990512096E+01 -0.24803244730E+01 -0.30606678165E+01  0.82064630356E+01  0.51100000000E-03 0.  1.
        -12    1    4    4    0    0 -0.22830045422E+01  0.11837053763E+02 -0.27626050682E+00  0.12058369351E+02  0.00000000000E+00 0.  1.
</event>
<event>
 8    1  0.1265908E-006  0.9118800E+02  0.7816164E-02  0.1184000E+00
        -11   -1    0    0    0    0  0.00000000000E+00  0.00000000000E+00  0.45593999997E+02  0.45594000000E+02  0.51100000000E-03 0. -1.
         11   -1    0    0    0    0 -0.00000000000E+00 -0.00000000000E+00 -0.45593999997E+02  0.45594000000E+02  0.51100000000E-03 0.  1.
         23    2    1    2    0    0  0.00000000000E+00  0.26645352591E-14  0.00000000000E+00  0.91188000000E+02  0.91188000000E+02 0.  0.
    9900012    2    3    3    0    0  0.94810623467E+01  0.46550191775E+01  0.35273644143E+02  0.54366950071E+02  0.39999694275E+02 0.  0.
        -12    1    3    3    0    0 -0.94810623467E+01 -0.46550191775E+01 -0.35273644143E+02  0.36821049929E+02  0.00000000000E+00 0.  1.
         11    1    4    4    0    0  0.78528219497E+00 -0.50744375946E+01  0.28090509456E+01  0.58529780884E+01  0.51100000000E-03 0. -1.
        -11    1    4    4    0    0  0.87746306703E+01  0.22048895687E+02  0.21275146103E+02  0.31871300356E+02  0.51100000000E-03 0.  1.
        -12    1    4    4    0    0 -0.78850518620E-01 -0.12319438915E+02  0.11189447094E+02  0.16642671626E+02  0.00000000000E+00 0.  1.
</event>
<event>
 8    1  0.1265908E-006  0.9118800E+02  0.7816164E-02  0.1184000E+00
        -11   -1    0    0    0    0  0.00000000000E+00  0.00000000000E+00  0.45593999997E+02  0.45594000000E+02  0.51100000000E-03 0.  1.
         11   -1    0    0    0    0 -0.00000000000E+00 -0.00000000000E+00 -0.45593999997E+02  0.45594000000E+02  0.51100000000E-03 0. -1.
         23    2    1    2    0    0  0.71054273576E-14  0.26645352591E-14  0.00000000000E+00  0.91188000000E+02  0.91188000000E+02 0.  0.
    9900012    2    3    3    0    0 -0.35368002767E+02 -0.33379464415E+01  0.96820469525E+01  0.54367088287E+02  0.40000009368E+02 0.  0.
         12    1    3    3    0    0  0.35368002767E+02  0.33379464415E+01 -0.96820469525E+01  0.36820911713E+02  0.00000000000E+00 0. -1.
         11    1    4    4    0    0 -0.12308493819E+02  0.72809359222E+01  0.31516078782E+01  0.14643895673E+02  0.51100000000E-03 0. -1.
        -11    1    4    4    0    0 -0.24362841087E+02  0.31859870543E+01  0.78511822593E+01  0.25794177686E+02  0.51100000000E-03 0.  1.
         12    1    4    4    0    0  0.13033321392E+01 -0.13804869418E+02 -0.13207431850E+01  0.13929014928E+02  0.00000000000E+00 0. -1.
</event>
<event>
 8    1  0.1265908E-006  0.9118800E+02  0.7816164E-02  0.1184000E+00
        -11   -1    0    0    0    0  0.00000000000E+00  0.00000000000E+00  0.45593999997E+02  0.45594000000E+02  0.51100000000E-03 0.  1.
         11   -1    0    0    0    0 -0.00000000000E+00 -0.00000000000E+00 -0.45593999997E+02  0.45594000000E+02  0.51100000000E-03 0. -1.
         23    2    1    2    0    0 -0.88817841970E-15  0.00000000000E+00 -0.71054273576E-14  0.91188000000E+02  0.91188000000E+02 0.  0.
    9900012    2    3    3    0    0  0.56926578191E+01 -0.23010909169E+01  0.36305352485E+02  0.54367082147E+02  0.39999995372E+02 0.  0.
         12    1    3    3    0    0 -0.56926578191E+01  0.23010909169E+01 -0.36305352485E+02  0.36820917853E+02  0.00000000000E+00 0. -1.
         11    1    4    4    0    0 -0.85333407093E+01 -0.11911415767E+02  0.11249050992E+02  0.18472706291E+02  0.51100000000E-03 0. -1.
        -11    1    4    4    0    0 -0.33790545228E+01  0.30844025253E+01  0.12489860363E+02  0.13301434530E+02  0.51100000000E-03 0.  1.
         12    1    4    4    0    0  0.17605053051E+02  0.65259223245E+01  0.12566441130E+02  0.22592941327E+02  0.00000000000E+00 0. -1.
</event>
<event>
 8    1  0.1265908E-006  0.9118800E+02  0.7816164E-02  0.1184000E+00
        -11   -1    0    0    0    0  0.00000000000E+00  0.00000000000E+00  0.45593999997E+02  0.45594000000E+02  0.51100000000E-03 0.  1.
         11   -1    0    0    0    0 -0.00000000000E+00 -0.00000000000E+00 -0.45593999997E+02  0.45594000000E+02  0.51100000000E-03 0. -1.
         23    2    1    2    0    0  0.71054273576E-14  0.35527136788E-14  0.00000000000E+00  0.91188000000E+02  0.91188000000E+02 0.  0.
    9900012    2    3    3    0    0  0.33557363093E+02  0.10674555773E+02  0.10758134012E+02  0.54367079233E+02  0.39999988728E+02 0.  0.
         12    1    3    3    0    0 -0.33557363093E+02 -0.10674555773E+02 -0.10758134012E+02  0.36820920767E+02  0.00000000000E+00 0. -1.
         11    1    4    4    0    0 -0.66111919106E+01  0.22371858123E-01  0.63176991546E+00  0.66413471876E+01  0.51100000000E-03 0. -1.
        -11    1    4    4    0    0 -0.21836284185E+01 -0.13331335877E+01 -0.92123680446E-02  0.25584298625E+01  0.51100000000E-03 0.  1.
        -12    1    4    4    0    0  0.42352183422E+02  0.11985317502E+02  0.10135576465E+02  0.45167302183E+02  0.00000000000E+00 0.  1.
</event>
<event>
 8    1  0.1265908E-006  0.9118800E+02  0.7816164E-02  0.1184000E+00
        -11   -1    0    0    0    0  0.00000000000E+00  0.00000000000E+00  0.45593999997E+02  0.45594000000E+02  0.51100000000E-03 0. -1.
         11   -1    0    0    0    0 -0.00000000000E+00 -0.00000000000E+00 -0.45593999997E+02  0.45594000000E+02  0.51100000000E-03 0.  1.
         23    2    1    2    0    0  0.00000000000E+00  0.35527136788E-14  0.00000000000E+00  0.91188000000E+02  0.91188000000E+02 0.  0.
    9900012    2    3    3    0    0 -0.13634056786E+02 -0.18939377022E+02 -0.28481440921E+02  0.54367082258E+02  0.39999995623E+02 0.  0.
        -12    1    3    3    0    0  0.13634056786E+02  0.18939377022E+02  0.28481440921E+02  0.36820917742E+02  0.00000000000E+00 0.  1.
         11    1    4    4    0    0 -0.70051637318E+01 -0.78961172426E+01 -0.12462191256E+02  0.16331784887E+02  0.51100000000E-03 0. -1.
        -11    1    4    4    0    0 -0.16428801499E+02 -0.33467701293E+01 -0.18880267464E+02  0.25250166113E+02  0.51100000000E-03 0.  1.
        -12    1    4    4    0    0  0.97999084440E+01 -0.76964896497E+01  0.28610177988E+01  0.12785131258E+02  0.00000000000E+00 0.  1.
</event>
<event>
 8    1  0.1265908E-006  0.9118800E+02  0.7816164E-02  0.1184000E+00
        -11   -1    0    0    0    0  0.00000000000E+00  0.00000000000E+00  0.45593999997E+02  0.45594000000E+02  0.51100000000E-03 0.  1.
         11   -1    0    0    0    0 -0.00000000000E+00 -0.00000000000E+00 -0.45593999997E+02  0.45594000000E+02  0.51100000000E-03 0. -1.
         23    2    1    2    0    0 -0.35527136788E-14 -0.17763568394E-14  0.35527136788E-14  0.91188000000E+02  0.91188000000E+02 0.  0.
    9900012    2    3    3    0    0 -0.31147070670E+02 -0.10752756261E+02  0.16432236094E+02  0.54367079838E+02  0.39999990107E+02 0.  0.
         12    1    3    3    0    0  0.31147070670E+02  0.10752756261E+02 -0.16432236094E+02  0.36820920162E+02  0.00000000000E+00 0. -1.
         11    1    4    4    0    0 -0.31046768594E+02 -0.89013553999E+01  0.79206809802E+00  0.32307326417E+02  0.51100000000E-03 0. -1.
        -11    1    4    4    0    0  0.37910429665E+01 -0.68130418156E+01  0.38641448542E+01  0.87017906933E+01  0.51100000000E-03 0.  1.
        -12    1    4    4    0    0 -0.38913450427E+01  0.49616409546E+01  0.11776023141E+02  0.13357962728E+02  0.00000000000E+00 0.  1.
</event>
<event>
 8    1  0.1265908E-006  0.9118800E+02  0.7816164E-02  0.1184000E+00
        -11   -1    0    0    0    0  0.00000000000E+00  0.00000000000E+00  0.45593999997E+02  0.45594000000E+02  0.51100000000E-03 0.  1.
         11   -1    0    0    0    0 -0.00000000000E+00 -0.00000000000E+00 -0.45593999997E+02  0.45594000000E+02  0.51100000000E-03 0. -1.
         23    2    1    2    0    0  0.00000000000E+00  0.00000000000E+00  0.00000000000E+00  0.91188000000E+02  0.91188000000E+02 0.  0.
    9900012    2    3    3    0    0  0.19456171304E+02  0.71324810675E+01 -0.30436266272E+02  0.54367065838E+02  0.39999958191E+02 0.  0.
        -12    1    3    3    0    0 -0.19456171304E+02 -0.71324810675E+01  0.30436266272E+02  0.36820934162E+02  0.00000000000E+00 0.  1.
         11    1    4    4    0    0  0.47435247951E+01  0.79267837184E+01  0.12777082694E+01  0.93256348997E+01  0.51100000000E-03 0. -1.
        -11    1    4    4    0    0  0.12323802694E+02  0.12869990087E+02 -0.14776752298E+02  0.23148761661E+02  0.51100000000E-03 0.  1.
         12    1    4    4    0    0  0.23888438152E+01 -0.13664292738E+02 -0.16937222243E+02  0.21892669278E+02  0.00000000000E+00 0. -1.
</event>
<event>
 8    1  0.1265908E-006  0.9118800E+02  0.7816164E-02  0.1184000E+00
        -11   -1    0    0    0    0  0.00000000000E+00  0.00000000000E+00  0.45593999997E+02  0.45594000000E+02  0.51100000000E-03 0.  1.
         11   -1    0    0    0    0 -0.00000000000E+00 -0.00000000000E+00 -0.45593999997E+02  0.45594000000E+02  0.51100000000E-03 0. -1.
         23    2    1    2    0    0 -0.35527136788E-14 -0.17763568394E-14  0.00000000000E+00  0.91188000000E+02  0.91188000000E+02 0.  0.
    9900012    2    3    3    0    0 -0.12334096399E+02 -0.12837848121E+02  0.32231038920E+02  0.54367080019E+02  0.39999990520E+02 0.  0.
         12    1    3    3    0    0  0.12334096399E+02  0.12837848121E+02 -0.32231038920E+02  0.36820919981E+02  0.00000000000E+00 0. -1.
         11    1    4    4    0    0 -0.41269004160E+01 -0.23329378869E+01  0.14053933478E+02  0.14831957143E+02  0.51100000000E-03 0. -1.
        -11    1    4    4    0    0 -0.10702647797E+02  0.54035491952E+01  0.20011272004E+02  0.23328009372E+02  0.51100000000E-03 0.  1.
         12    1    4    4    0    0  0.24954518140E+01 -0.15908459429E+02 -0.18341665616E+01  0.16207113504E+02  0.00000000000E+00 0. -1.
</event>
<event>
 8    1  0.1265908E-006  0.9118800E+02  0.7816164E-02  0.1184000E+00
        -11   -1    0    0    0    0  0.00000000000E+00  0.00000000000E+00  0.45593999997E+02  0.45594000000E+02  0.51100000000E-03 0.  1.
         11   -1    0    0    0    0 -0.00000000000E+00 -0.00000000000E+00 -0.45593999997E+02  0.45594000000E+02  0.51100000000E-03 0. -1.
         23    2    1    2    0    0  0.00000000000E+00  0.00000000000E+00  0.17763568394E-14  0.91188000000E+02  0.91188000000E+02 0.  0.
    9900012    2    3    3    0    0 -0.59037730679E+01  0.34200683355E+02  0.12297960528E+02  0.54367066938E+02  0.39999960698E+02 0.  0.
         12    1    3    3    0    0  0.59037730679E+01 -0.34200683355E+02 -0.12297960528E+02  0.36820933062E+02  0.00000000000E+00 0. -1.
         11    1    4    4    0    0  0.26199820834E+01 -0.18077684783E+01  0.15356635359E+02  0.15683066754E+02  0.51100000000E-03 0. -1.
        -11    1    4    4    0    0 -0.74969419781E+01  0.35441146891E+02 -0.91102877780E+00  0.36236845967E+02  0.51100000000E-03 0.  1.
        -12    1    4    4    0    0 -0.10268131732E+01  0.56730494292E+00 -0.21476460535E+01  0.24471542170E+01  0.00000000000E+00 0.  1.
</event>
<event>
 8    1  0.1265908E-006  0.9118800E+02  0.7816164E-02  0.1184000E+00
        -11   -1    0    0    0    0  0.00000000000E+00  0.00000000000E+00  0.45593999997E+02  0.45594000000E+02  0.51100000000E-03 0.  1.
         11   -1    0    0    0    0 -0.00000000000E+00 -0.00000000000E+00 -0.45593999997E+02  0.45594000000E+02  0.51100000000E-03 0. -1.
         23    2    1    2    0    0  0.00000000000E+00  0.00000000000E+00  0.00000000000E+00  0.91188000000E+02  0.91188000000E+02 0.  0.
    9900012    2    3    3    0    0 -0.68326355603E+01  0.40267354806E+01 -0.35956650435E+02  0.54367079074E+02  0.39999988365E+02 0.  0.
        -12    1    3    3    0    0  0.68326355603E+01 -0.40267354806E+01  0.35956650435E+02  0.36820920926E+02  0.00000000000E+00 0.  1.
         11    1    4    4    0    0 -0.13141653056E+02  0.14795502249E+02 -0.36585956254E+02  0.41594977187E+02  0.51100000000E-03 0. -1.
        -11    1    4    4    0    0  0.59977306648E+01 -0.81860826534E+01  0.32925564202E+00  0.10153478807E+02  0.51100000000E-03 0.  1.
         12    1    4    4    0    0  0.31128683122E+00 -0.25826841154E+01  0.30005017736E+00  0.26186230810E+01  0.00000000000E+00 0. -1.
</event>
<event>
 8    1  0.1265908E-006  0.9118800E+02  0.7816164E-02  0.1184000E+00
        -11   -1    0    0    0    0  0.00000000000E+00  0.00000000000E+00  0.45593999997E+02  0.45594000000E+02  0.51100000000E-03 0.  1.
         11   -1    0    0    0    0 -0.00000000000E+00 -0.00000000000E+00 -0.45593999997E+02  0.45594000000E+02  0.51100000000E-03 0. -1.
         23    2    1    2    0    0  0.00000000000E+00  0.44408920985E-15  0.35527136788E-14  0.91188000000E+02  0.91188000000E+02 0.  0.
    9900012    2    3    3    0    0 -0.27714526525E+02  0.33040146321E+01 -0.24015954658E+02  0.54367115012E+02  0.40000070293E+02 0.  0.
         12    1    3    3    0    0  0.27714526525E+02 -0.33040146321E+01  0.24015954658E+02  0.36820884988E+02  0.00000000000E+00 0. -1.
         11    1    4    4    0    0 -0.31392891750E+01 -0.54970690312E+01 -0.63297895712E+01  0.89520467344E+01  0.51100000000E-03 0. -1.
        -11    1    4    4    0    0 -0.23769485634E+02 -0.77118491695E+01 -0.13311234812E+02  0.28313425038E+02  0.51100000000E-03 0.  1.
         12    1    4    4    0    0 -0.80575171549E+00  0.16512932833E+02 -0.43749302747E+01  0.17101643239E+02  0.00000000000E+00 0. -1.
</event>
<event>
 8    1  0.1265908E-006  0.9118800E+02  0.7816164E-02  0.1184000E+00
        -11   -1    0    0    0    0  0.00000000000E+00  0.00000000000E+00  0.45593999997E+02  0.45594000000E+02  0.51100000000E-03 0.  1.
         11   -1    0    0    0    0 -0.00000000000E+00 -0.00000000000E+00 -0.45593999997E+02  0.45594000000E+02  0.51100000000E-03 0. -1.
         23    2    1    2    0    0  0.17763568394E-14  0.71054273576E-14  0.00000000000E+00  0.91188000000E+02  0.91188000000E+02 0.  0.
    9900012    2    3    3    0    0  0.80783373186E+01  0.26822910593E+02  0.23896699862E+02  0.54367077540E+02  0.39999984868E+02 0.  0.
         12    1    3    3    0    0 -0.80783373186E+01 -0.26822910593E+02 -0.23896699862E+02  0.36820922460E+02  0.00000000000E+00 0. -1.
         11    1    4    4    0    0  0.92972830653E+01  0.12018013990E+02  0.12610326543E+01  0.15246715590E+02  0.51100000000E-03 0. -1.
        -11    1    4    4    0    0 -0.65719239880E+01  0.21805622952E+02  0.18703035126E+02  0.29469966075E+02  0.51100000000E-03 0.  1.
        -12    1    4    4    0    0  0.53529782413E+01 -0.70007263494E+01  0.39326320809E+01  0.96503958755E+01  0.00000000000E+00 0.  1.
</event>
<event>
 8    1  0.1265908E-006  0.9118800E+02  0.7816164E-02  0.1184000E+00
        -11   -1    0    0    0    0  0.00000000000E+00  0.00000000000E+00  0.45593999997E+02  0.45594000000E+02  0.51100000000E-03 0. -1.
         11   -1    0    0    0    0 -0.00000000000E+00 -0.00000000000E+00 -0.45593999997E+02  0.45594000000E+02  0.51100000000E-03 0.  1.
         23    2    1    2    0    0  0.00000000000E+00  0.00000000000E+00  0.00000000000E+00  0.91188000000E+02  0.91188000000E+02 0.  0.
    9900012    2    3    3    0    0  0.28419334850E+01  0.20051941912E+02  0.30751030027E+02  0.54367043900E+02  0.39999908179E+02 0.  0.
         12    1    3    3    0    0 -0.28419334850E+01 -0.20051941912E+02 -0.30751030027E+02  0.36820956100E+02  0.00000000000E+00 0. -1.
         11    1    4    4    0    0 -0.80111152114E+01  0.10173318031E+02  0.16466032414E+02  0.20947663125E+02  0.51100000000E-03 0. -1.
        -11    1    4    4    0    0  0.10022420920E+02  0.12123363615E+02  0.21030245167E+02  0.26262065389E+02  0.51100000000E-03 0.  1.
        -12    1    4    4    0    0  0.83062777664E+00 -0.22447397336E+01 -0.67452475540E+01  0.71573153864E+01  0.00000000000E+00 0.  1.
</event>
<event>
 8    1  0.1265908E-006  0.9118800E+02  0.7816164E-02  0.1184000E+00
        -11   -1    0    0    0    0  0.00000000000E+00  0.00000000000E+00  0.45593999997E+02  0.45594000000E+02  0.51100000000E-03 0.  1.
         11   -1    0    0    0    0 -0.00000000000E+00 -0.00000000000E+00 -0.45593999997E+02  0.45594000000E+02  0.51100000000E-03 0. -1.
         23    2    1    2    0    0  0.17763568394E-14 -0.17763568394E-14 -0.71054273576E-14  0.91188000000E+02  0.91188000000E+02 0.  0.
    9900012    2    3    3    0    0  0.14024809214E+02 -0.11161194600E+02 -0.32163885628E+02  0.54367040248E+02  0.39999899852E+02 0.  0.
        -12    1    3    3    0    0 -0.14024809214E+02  0.11161194600E+02  0.32163885628E+02  0.36820959752E+02  0.00000000000E+00 0.  1.
         11    1    4    4    0    0  0.85314148479E+01 -0.81203523625E+01 -0.32661341719E+02  0.34720144081E+02  0.51100000000E-03 0. -1.
        -11    1    4    4    0    0  0.21875184159E+01  0.59384736463E+01 -0.54743415931E+01  0.83677429577E+01  0.51100000000E-03 0.  1.
         12    1    4    4    0    0  0.33058759502E+01 -0.89793158836E+01  0.59717976842E+01  0.11279153209E+02  0.00000000000E+00 0. -1.
</event>
<event>
 8    1  0.1265908E-006  0.9118800E+02  0.7816164E-02  0.1184000E+00
        -11   -1    0    0    0    0  0.00000000000E+00  0.00000000000E+00  0.45593999997E+02  0.45594000000E+02  0.51100000000E-03 0.  1.
         11   -1    0    0    0    0 -0.00000000000E+00 -0.00000000000E+00 -0.45593999997E+02  0.45594000000E+02  0.51100000000E-03 0. -1.
         23    2    1    2    0    0  0.00000000000E+00  0.35527136788E-14  0.35527136788E-14  0.91188000000E+02  0.91188000000E+02 0.  0.
    9900012    2    3    3    0    0  0.17966130002E+02  0.20555226966E+02  0.24707902697E+02  0.54367086941E+02  0.40000006299E+02 0.  0.
         12    1    3    3    0    0 -0.17966130002E+02 -0.20555226966E+02 -0.24707902697E+02  0.36820913059E+02  0.00000000000E+00 0. -1.
         11    1    4    4    0    0 -0.26585606950E+00  0.94714342233E+01  0.97881598612E+01  0.13623025340E+02  0.51100000000E-03 0. -1.
        -11    1    4    4    0    0 -0.62404488167E+01 -0.22224481094E+01 -0.33580324905E+01  0.74269010698E+01  0.51100000000E-03 0.  1.
        -12    1    4    4    0    0  0.24472434888E+02  0.13306240852E+02  0.18277775326E+02  0.33317160530E+02  0.00000000000E+00 0.  1.
</event>
<event>
 8    1  0.1265908E-006  0.9118800E+02  0.7816164E-02  0.1184000E+00
        -11   -1    0    0    0    0  0.00000000000E+00  0.00000000000E+00  0.45593999997E+02  0.45594000000E+02  0.51100000000E-03 0.  1.
         11   -1    0    0    0    0 -0.00000000000E+00 -0.00000000000E+00 -0.45593999997E+02  0.45594000000E+02  0.51100000000E-03 0. -1.
         23    2    1    2    0    0  0.88817841970E-15 -0.71054273576E-14  0.00000000000E+00  0.91188000000E+02  0.91188000000E+02 0.  0.
    9900012    2    3    3    0    0 -0.54204902958E+01 -0.35314986882E+02 -0.89022713392E+01  0.54367075942E+02  0.39999981225E+02 0.  0.
        -12    1    3    3    0    0  0.54204902958E+01  0.35314986882E+02  0.89022713392E+01  0.36820924058E+02  0.00000000000E+00 0.  1.
         11    1    4    4    0    0 -0.14693234888E+02 -0.33358282043E+02 -0.12321494139E+02  0.38477075648E+02  0.51100000000E-03 0. -1.
        -11    1    4    4    0    0 -0.50585129674E+00  0.38570377920E+01  0.21457793282E+01  0.44426338190E+01  0.51100000000E-03 0.  1.
        -12    1    4    4    0    0  0.97785958892E+01 -0.58137426305E+01  0.12734434715E+01  0.11447366475E+02  0.00000000000E+00 0.  1.
</event>
<event>
 8    1  0.1265908E-006  0.9118800E+02  0.7816164E-02  0.1184000E+00
        -11   -1    0    0    0    0  0.00000000000E+00  0.00000000000E+00  0.45593999997E+02  0.45594000000E+02  0.51100000000E-03 0. -1.
         11   -1    0    0    0    0 -0.00000000000E+00 -0.00000000000E+00 -0.45593999997E+02  0.45594000000E+02  0.51100000000E-03 0.  1.
         23    2    1    2    0    0  0.00000000000E+00  0.00000000000E+00  0.00000000000E+00  0.91188000000E+02  0.91188000000E+02 0.  0.
    9900012    2    3    3    0    0 -0.27295369159E+02  0.10422333464E+02  0.22407959496E+02  0.54367097497E+02  0.40000030365E+02 0.  0.
        -12    1    3    3    0    0  0.27295369159E+02 -0.10422333464E+02 -0.22407959496E+02  0.36820902503E+02  0.00000000000E+00 0.  1.
         11    1    4    4    0    0  0.47829664455E+01  0.12086760547E+02  0.17237638948E+02  0.21589412806E+02  0.51100000000E-03 0. -1.
        -11    1    4    4    0    0 -0.60134067800E+01  0.12384068090E+01  0.11110745626E+01  0.62393268444E+01  0.51100000000E-03 0.  1.
         12    1    4    4    0    0 -0.26064928825E+02 -0.29028338922E+01  0.40592459845E+01  0.26538357847E+02  0.00000000000E+00 0. -1.
</event>
<event>
 8    1  0.1265908E-006  0.9118800E+02  0.7816164E-02  0.1184000E+00
        -11   -1    0    0    0    0  0.00000000000E+00  0.00000000000E+00  0.45593999997E+02  0.45594000000E+02  0.51100000000E-03 0.  1.
         11   -1    0    0    0    0 -0.00000000000E+00 -0.00000000000E+00 -0.45593999997E+02  0.45594000000E+02  0.51100000000E-03 0. -1.
         23    2    1    2    0    0 -0.33306690739E-15 -0.88817841970E-15  0.00000000000E+00  0.91188000000E+02  0.91188000000E+02 0.  0.
    9900012    2    3    3    0    0  0.72047595985E+00  0.68221683567E+01 -0.36176007144E+02  0.54367291702E+02  0.40000473090E+02 0.  0.
        -12    1    3    3    0    0 -0.72047595985E+00 -0.68221683567E+01  0.36176007144E+02  0.36820708298E+02  0.00000000000E+00 0.  1.
         11    1    4    4    0    0  0.23284254936E+01 -0.38389273948E+01 -0.13963902440E+00  0.44920405319E+01  0.51100000000E-03 0. -1.
        -11    1    4    4    0    0 -0.46533828683E+01 -0.70720413514E+00  0.51873182217E+01  0.70044543258E+01  0.51100000000E-03 0.  1.
         12    1    4    4    0    0  0.30454333346E+01  0.11368299887E+02 -0.41223686341E+02  0.42870796844E+02  0.00000000000E+00 0. -1.
</event>
<event>
 8    1  0.1265908E-006  0.9118800E+02  0.7816164E-02  0.1184000E+00
        -11   -1    0    0    0    0  0.00000000000E+00  0.00000000000E+00  0.45593999997E+02  0.45594000000E+02  0.51100000000E-03 0.  1.
         11   -1    0    0    0    0 -0.00000000000E+00 -0.00000000000E+00 -0.45593999997E+02  0.45594000000E+02  0.51100000000E-03 0. -1.
         23    2    1    2    0    0 -0.35527136788E-14 -0.11102230246E-15  0.35527136788E-14  0.91188000000E+02  0.91188000000E+02 0.  0.
    9900012    2    3    3    0    0  0.25637240918E+02  0.44509949181E+00 -0.26425616643E+02  0.54367089495E+02  0.40000012122E+02 0.  0.
        -12    1    3    3    0    0 -0.25637240918E+02 -0.44509949181E+00  0.26425616643E+02  0.36820910505E+02  0.00000000000E+00 0.  1.
         11    1    4    4    0    0 -0.48085352201E+00 -0.14285625184E+01  0.26940014515E+01  0.30870139391E+01  0.51100000000E-03 0.  1.
        -11    1    4    4    0    0  0.49679675099E+01  0.15008634812E+00  0.74758473821E+01  0.89772780636E+01  0.51100000000E-03 0. -1.
         12    1    4    4    0    0  0.21150126930E+02  0.17235756621E+01 -0.36595465477E+02  0.42302797492E+02  0.00000000000E+00 0. -1.
</event>
<event>
 8    1  0.1265908E-006  0.9118800E+02  0.7816164E-02  0.1184000E+00
        -11   -1    0    0    0    0  0.00000000000E+00  0.00000000000E+00  0.45593999997E+02  0.45594000000E+02  0.51100000000E-03 0. -1.
         11   -1    0    0    0    0 -0.00000000000E+00 -0.00000000000E+00 -0.45593999997E+02  0.45594000000E+02  0.51100000000E-03 0.  1.
         23    2    1    2    0    0  0.00000000000E+00 -0.44408920985E-14  0.35527136788E-14  0.91188000000E+02  0.91188000000E+02 0.  0.
    9900012    2    3    3    0    0  0.31452260526E+02  0.52688281140E+01 -0.18405572014E+02  0.54367213438E+02  0.40000294673E+02 0.  0.
         12    1    3    3    0    0 -0.31452260526E+02 -0.52688281140E+01  0.18405572014E+02  0.36820786562E+02  0.00000000000E+00 0. -1.
         11    1    4    4    0    0  0.11728028347E+02 -0.13654114278E+02 -0.81318821211E-01  0.17999669403E+02  0.51100000000E-03 0. -1.
        -11    1    4    4    0    0  0.11588738107E+02  0.17235124613E+01 -0.10711231675E+02  0.15874502524E+02  0.51100000000E-03 0.  1.
         12    1    4    4    0    0  0.81354940721E+01  0.17199429930E+02 -0.76130215175E+01  0.20493041511E+02  0.00000000000E+00 0. -1.
</event>
<event>
 8    1  0.1265908E-006  0.9118800E+02  0.7816164E-02  0.1184000E+00
        -11   -1    0    0    0    0  0.00000000000E+00  0.00000000000E+00  0.45593999997E+02  0.45594000000E+02  0.51100000000E-03 0. -1.
         11   -1    0    0    0    0 -0.00000000000E+00 -0.00000000000E+00 -0.45593999997E+02  0.45594000000E+02  0.51100000000E-03 0.  1.
         23    2    1    2    0    0  0.17763568394E-14  0.00000000000E+00  0.00000000000E+00  0.91188000000E+02  0.91188000000E+02 0.  0.
    9900012    2    3    3    0    0  0.14796213580E+02  0.18943934944E+02  0.27892274868E+02  0.54367087399E+02  0.40000007343E+02 0.  0.
        -12    1    3    3    0    0 -0.14796213580E+02 -0.18943934944E+02 -0.27892274868E+02  0.36820912601E+02  0.00000000000E+00 0.  1.
         11    1    4    4    0    0  0.48262481790E+01  0.48926295814E+01  0.68174175413E+01  0.96802726150E+01  0.51100000000E-03 0. -1.
        -11    1    4    4    0    0  0.15682904272E+02  0.15608233541E+02 -0.68384878649E+00  0.22136803972E+02  0.51100000000E-03 0.  1.
        -12    1    4    4    0    0 -0.57129388713E+01 -0.15569281780E+01  0.21758706113E+02  0.22550010812E+02  0.00000000000E+00 0.  1.
</event>
<event>
 8    1  0.1265908E-006  0.9118800E+02  0.7816164E-02  0.1184000E+00
        -11   -1    0    0    0    0  0.00000000000E+00  0.00000000000E+00  0.45593999997E+02  0.45594000000E+02  0.51100000000E-03 0. -1.
         11   -1    0    0    0    0 -0.00000000000E+00 -0.00000000000E+00 -0.45593999997E+02  0.45594000000E+02  0.51100000000E-03 0.  1.
         23    2    1    2    0    0 -0.17763568394E-14  0.71054273576E-14  0.00000000000E+00  0.91188000000E+02  0.91188000000E+02 0.  0.
    9900012    2    3    3    0    0 -0.75441545733E+01  0.34809081992E+02  0.93377176444E+01  0.54367089797E+02  0.40000012810E+02 0.  0.
        -12    1    3    3    0    0  0.75441545733E+01 -0.34809081992E+02 -0.93377176444E+01  0.36820910203E+02  0.00000000000E+00 0.  1.
         11    1    4    4    0    0 -0.77766647877E+00  0.22078237352E+02  0.16235298674E+02  0.27416021830E+02  0.51100000000E-03 0. -1.
        -11    1    4    4    0    0  0.32286699426E+01  0.14153227353E+02  0.35342787986E+00  0.14521124806E+02  0.51100000000E-03 0.  1.
        -12    1    4    4    0    0 -0.99951580371E+01 -0.14223827129E+01 -0.72510089091E+01  0.12429943160E+02  0.00000000000E+00 0.  1.
</event>
<event>
 8    1  0.1265908E-006  0.9118800E+02  0.7816164E-02  0.1184000E+00
        -11   -1    0    0    0    0  0.00000000000E+00  0.00000000000E+00  0.45593999997E+02  0.45594000000E+02  0.51100000000E-03 0.  1.
         11   -1    0    0    0    0 -0.00000000000E+00 -0.00000000000E+00 -0.45593999997E+02  0.45594000000E+02  0.51100000000E-03 0. -1.
         23    2    1    2    0    0 -0.35527136788E-14  0.88817841970E-15 -0.35527136788E-14  0.91188000000E+02  0.91188000000E+02 0.  0.
    9900012    2    3    3    0    0  0.25936779348E+02  0.77819778561E+01 -0.24950036826E+02  0.54367081490E+02  0.39999993872E+02 0.  0.
        -12    1    3    3    0    0 -0.25936779348E+02 -0.77819778561E+01  0.24950036826E+02  0.36820918510E+02  0.00000000000E+00 0.  1.
         11    1    4    4    0    0  0.43408988327E+01  0.53047673988E+01 -0.30286721155E+02  0.31052688103E+02  0.51100000000E-03 0. -1.
        -11    1    4    4    0    0  0.89832789075E+01  0.13648851027E+00  0.54076907496E+01  0.10486231380E+02  0.51100000000E-03 0.  1.
         12    1    4    4    0    0  0.12612601608E+02  0.23407219470E+01 -0.71006420048E-01  0.12828162007E+02  0.00000000000E+00 0. -1.
</event>
<event>
 8    1  0.1265908E-006  0.9118800E+02  0.7816164E-02  0.1184000E+00
        -11   -1    0    0    0    0  0.00000000000E+00  0.00000000000E+00  0.45593999997E+02  0.45594000000E+02  0.51100000000E-03 0. -1.
         11   -1    0    0    0    0 -0.00000000000E+00 -0.00000000000E+00 -0.45593999997E+02  0.45594000000E+02  0.51100000000E-03 0.  1.
         23    2    1    2    0    0 -0.35527136788E-14 -0.35527136788E-14 -0.66613381478E-15  0.91188000000E+02  0.91188000000E+02 0.  0.
    9900012    2    3    3    0    0 -0.25931064243E+02  0.26105212839E+02  0.13709327845E+01  0.54367059126E+02  0.39999942889E+02 0.  0.
        -12    1    3    3    0    0  0.25931064243E+02 -0.26105212839E+02 -0.13709327845E+01  0.36820940874E+02  0.00000000000E+00 0.  1.
         11    1    4    4    0    0 -0.56732230282E+01  0.28421507182E+00 -0.79297894160E+01  0.97543732847E+01  0.51100000000E-03 0. -1.
        -11    1    4    4    0    0 -0.36420196410E+01  0.23629026426E+00  0.13348596895E+02  0.13838539644E+02  0.51100000000E-03 0.  1.
         12    1    4    4    0    0 -0.16615821574E+02  0.25584707503E+02 -0.40478746943E+01  0.30774146197E+02  0.00000000000E+00 0. -1.
</event>
<event>
 8    1  0.1265908E-006  0.9118800E+02  0.7816164E-02  0.1184000E+00
        -11   -1    0    0    0    0  0.00000000000E+00  0.00000000000E+00  0.45593999997E+02  0.45594000000E+02  0.51100000000E-03 0.  1.
         11   -1    0    0    0    0 -0.00000000000E+00 -0.00000000000E+00 -0.45593999997E+02  0.45594000000E+02  0.51100000000E-03 0. -1.
         23    2    1    2    0    0 -0.44408920985E-15  0.00000000000E+00  0.00000000000E+00  0.91188000000E+02  0.91188000000E+02 0.  0.
    9900012    2    3    3    0    0  0.33717041162E+01 -0.34978367485E+02 -0.10996582577E+02  0.54367090058E+02  0.40000013405E+02 0.  0.
         12    1    3    3    0    0 -0.33717041162E+01  0.34978367485E+02  0.10996582577E+02  0.36820909942E+02  0.00000000000E+00 0. -1.
         11    1    4    4    0    0  0.93055935253E+01 -0.32293479776E+01 -0.85323711597E+01  0.13031658263E+02  0.51100000000E-03 0. -1.
        -11    1    4    4    0    0 -0.86225458746E+01 -0.35233632959E+02 -0.43769295010E+01  0.36536484518E+02  0.51100000000E-03 0.  1.
         12    1    4    4    0    0  0.26886564656E+01  0.34846134511E+01  0.19127180834E+01  0.47989472762E+01  0.00000000000E+00 0. -1.
</event>
<event>
 8    1  0.1265908E-006  0.9118800E+02  0.7816164E-02  0.1184000E+00
        -11   -1    0    0    0    0  0.00000000000E+00  0.00000000000E+00  0.45593999997E+02  0.45594000000E+02  0.51100000000E-03 0.  1.
         11   -1    0    0    0    0 -0.00000000000E+00 -0.00000000000E+00 -0.45593999997E+02  0.45594000000E+02  0.51100000000E-03 0. -1.
         23    2    1    2    0    0  0.00000000000E+00  0.17763568394E-14  0.35527136788E-14  0.91188000000E+02  0.91188000000E+02 0.  0.
    9900012    2    3    3    0    0  0.30110398461E+02  0.13151840182E+02  0.16618443732E+02  0.54367086544E+02  0.40000005394E+02 0.  0.
        -12    1    3    3    0    0 -0.30110398461E+02 -0.13151840182E+02 -0.16618443732E+02  0.36820913456E+02  0.00000000000E+00 0.  1.
         11    1    4    4    0    0  0.33907020245E+02 -0.34087297357E+00  0.59877139204E+01  0.34433340450E+02  0.51100000000E-03 0. -1.
        -11    1    4    4    0    0 -0.21843804596E+01  0.98121945608E+01  0.17734291534E+01  0.10207631033E+02  0.51100000000E-03 0.  1.
        -12    1    4    4    0    0 -0.16122413246E+01  0.36805185951E+01  0.88573006585E+01  0.97261150606E+01  0.00000000000E+00 0.  1.
</event>
<event>
 8    1  0.1265908E-006  0.9118800E+02  0.7816164E-02  0.1184000E+00
        -11   -1    0    0    0    0  0.00000000000E+00  0.00000000000E+00  0.45593999997E+02  0.45594000000E+02  0.51100000000E-03 0. -1.
         11   -1    0    0    0    0 -0.00000000000E+00 -0.00000000000E+00 -0.45593999997E+02  0.45594000000E+02  0.51100000000E-03 0.  1.
         23    2    1    2    0    0  0.35527136788E-14 -0.35527136788E-14 -0.44408920985E-15  0.91188000000E+02  0.91188000000E+02 0.  0.
    9900012    2    3    3    0    0 -0.24763912934E+02  0.27234053513E+02  0.91318188500E+00  0.54367096213E+02  0.40000027437E+02 0.  0.
        -12    1    3    3    0    0  0.24763912934E+02 -0.27234053513E+02 -0.91318188500E+00  0.36820903787E+02  0.00000000000E+00 0.  1.
         11    1    4    4    0    0 -0.24357626176E+01  0.14462971459E+02  0.12668235380E+02  0.19380264984E+02  0.51100000000E-03 0. -1.
        -11    1    4    4    0    0  0.30935360690E+01  0.54262985384E+01 -0.39813870694E+01  0.74071671033E+01  0.51100000000E-03 0.  1.
        -12    1    4    4    0    0 -0.25421686386E+02  0.73447835152E+01 -0.77736664257E+01  0.27579664125E+02  0.00000000000E+00 0.  1.
</event>
<event>
 8    1  0.1265908E-006  0.9118800E+02  0.7816164E-02  0.1184000E+00
        -11   -1    0    0    0    0  0.00000000000E+00  0.00000000000E+00  0.45593999997E+02  0.45594000000E+02  0.51100000000E-03 0.  1.
         11   -1    0    0    0    0 -0.00000000000E+00 -0.00000000000E+00 -0.45593999997E+02  0.45594000000E+02  0.51100000000E-03 0. -1.
         23    2    1    2    0    0  0.00000000000E+00  0.00000000000E+00  0.00000000000E+00  0.91188000000E+02  0.91188000000E+02 0.  0.
    9900012    2    3    3    0    0  0.16315550067E+02 -0.32711477174E+02 -0.44205320231E+01  0.54367095391E+02  0.40000025563E+02 0.  0.
        -12    1    3    3    0    0 -0.16315550067E+02  0.32711477174E+02  0.44205320231E+01  0.36820904609E+02  0.00000000000E+00 0.  1.
         11    1    4    4    0    0  0.24623557306E+02 -0.24429798856E+02 -0.61801294252E+01  0.35232494185E+02  0.51100000000E-03 0. -1.
        -11    1    4    4    0    0 -0.88761299700E+01 -0.10408182304E+02 -0.28984071164E+01  0.13982728853E+02  0.51100000000E-03 0.  1.
         12    1    4    4    0    0  0.56812273052E+00  0.21265039861E+01  0.46580045185E+01  0.51518723523E+01  0.00000000000E+00 0. -1.
</event>
<event>
 8    1  0.1265908E-006  0.9118800E+02  0.7816164E-02  0.1184000E+00
        -11   -1    0    0    0    0  0.00000000000E+00  0.00000000000E+00  0.45593999997E+02  0.45594000000E+02  0.51100000000E-03 0.  1.
         11   -1    0    0    0    0 -0.00000000000E+00 -0.00000000000E+00 -0.45593999997E+02  0.45594000000E+02  0.51100000000E-03 0. -1.
         23    2    1    2    0    0  0.00000000000E+00  0.35527136788E-14  0.17763568394E-14  0.91188000000E+02  0.91188000000E+02 0.  0.
    9900012    2    3    3    0    0  0.18926723163E+02  0.27533370906E+02  0.15474893059E+02  0.54367086401E+02  0.40000005068E+02 0.  0.
         12    1    3    3    0    0 -0.18926723163E+02 -0.27533370906E+02 -0.15474893059E+02  0.36820913599E+02  0.00000000000E+00 0. -1.
         11    1    4    4    0    0 -0.25455842203E+01  0.12060693356E+02  0.11347136982E+01  0.12378525707E+02  0.51100000000E-03 0. -1.
        -11    1    4    4    0    0 -0.20236812013E+01  0.52811934197E+01  0.15348792687E+02  0.16357619838E+02  0.51100000000E-03 0.  1.
        -12    1    4    4    0    0  0.23495988584E+02  0.10191484130E+02 -0.10086133266E+01  0.25630940856E+02  0.00000000000E+00 0.  1.
</event>
<event>
 8    1  0.1265908E-006  0.9118800E+02  0.7816164E-02  0.1184000E+00
        -11   -1    0    0    0    0  0.00000000000E+00  0.00000000000E+00  0.45593999997E+02  0.45594000000E+02  0.51100000000E-03 0. -1.
         11   -1    0    0    0    0 -0.00000000000E+00 -0.00000000000E+00 -0.45593999997E+02  0.45594000000E+02  0.51100000000E-03 0.  1.
         23    2    1    2    0    0  0.00000000000E+00  0.00000000000E+00  0.00000000000E+00  0.91188000000E+02  0.91188000000E+02 0.  0.
    9900012    2    3    3    0    0 -0.23083773639E+02 -0.27347056035E+02  0.86636372141E+01  0.54367072677E+02  0.39999973781E+02 0.  0.
        -12    1    3    3    0    0  0.23083773639E+02  0.27347056035E+02 -0.86636372141E+01  0.36820927323E+02  0.00000000000E+00 0.  1.
         11    1    4    4    0    0 -0.42025636687E+01  0.61098093753E+01  0.30317613702E+01  0.80114224242E+01  0.51100000000E-03 0.  1.
        -11    1    4    4    0    0 -0.89813014042E+01 -0.34663873655E+02  0.63067128401E+01  0.36359627869E+02  0.51100000000E-03 0. -1.
         12    1    4    4    0    0 -0.98999085659E+01  0.12070082450E+01 -0.67483699622E+00  0.99960223833E+01  0.00000000000E+00 0. -1.
</event>
<event>
 8    1  0.1265908E-006  0.9118800E+02  0.7816164E-02  0.1184000E+00
        -11   -1    0    0    0    0  0.00000000000E+00  0.00000000000E+00  0.45593999997E+02  0.45594000000E+02  0.51100000000E-03 0.  1.
         11   -1    0    0    0    0 -0.00000000000E+00 -0.00000000000E+00 -0.45593999997E+02  0.45594000000E+02  0.51100000000E-03 0. -1.
         23    2    1    2    0    0 -0.44408920985E-15  0.35527136788E-14  0.00000000000E+00  0.91188000000E+02  0.91188000000E+02 0.  0.
    9900012    2    3    3    0    0  0.29436339435E+01  0.24843309282E+02  0.27017110002E+02  0.54367092491E+02  0.40000018953E+02 0.  0.
         12    1    3    3    0    0 -0.29436339435E+01 -0.24843309282E+02 -0.27017110002E+02  0.36820907509E+02  0.00000000000E+00 0. -1.
         11    1    4    4    0    0 -0.36162420106E+01 -0.95005513486E+00 -0.54588573282E+01  0.66165651685E+01  0.51100000000E-03 0. -1.
        -11    1    4    4    0    0 -0.59338045450E+01  0.92870134212E+01  0.24665492415E+01  0.11293472455E+02  0.51100000000E-03 0.  1.
         12    1    4    4    0    0  0.12493680499E+02  0.16506350996E+02  0.30009418089E+02  0.36457054868E+02  0.00000000000E+00 0. -1.
</event>
<event>
 8    1  0.1265908E-006  0.9118800E+02  0.7816164E-02  0.1184000E+00
        -11   -1    0    0    0    0  0.00000000000E+00  0.00000000000E+00  0.45593999997E+02  0.45594000000E+02  0.51100000000E-03 0.  1.
         11   -1    0    0    0    0 -0.00000000000E+00 -0.00000000000E+00 -0.45593999997E+02  0.45594000000E+02  0.51100000000E-03 0. -1.
         23    2    1    2    0    0  0.00000000000E+00  0.00000000000E+00  0.17763568394E-14  0.91188000000E+02  0.91188000000E+02 0.  0.
    9900012    2    3    3    0    0 -0.34874387458E+02  0.27021016796E+01 -0.11500065593E+02  0.54367139571E+02  0.40000126281E+02 0.  0.
         12    1    3    3    0    0  0.34874387458E+02 -0.27021016796E+01  0.11500065593E+02  0.36820860429E+02  0.00000000000E+00 0. -1.
         11    1    4    4    0    0 -0.31668025970E+02  0.13508629782E+01 -0.17205865224E+02  0.36065641517E+02  0.51100000000E-03 0. -1.
        -11    1    4    4    0    0 -0.49983129356E+01  0.60017241391E+01  0.93090076421E+01  0.12151602709E+02  0.51100000000E-03 0.  1.
         12    1    4    4    0    0  0.17919514480E+01 -0.46504854377E+01 -0.36032080108E+01  0.61498953461E+01  0.00000000000E+00 0. -1.
</event>
<event>
 8    1  0.1265908E-006  0.9118800E+02  0.7816164E-02  0.1184000E+00
        -11   -1    0    0    0    0  0.00000000000E+00  0.00000000000E+00  0.45593999997E+02  0.45594000000E+02  0.51100000000E-03 0.  1.
         11   -1    0    0    0    0 -0.00000000000E+00 -0.00000000000E+00 -0.45593999997E+02  0.45594000000E+02  0.51100000000E-03 0. -1.
         23    2    1    2    0    0  0.00000000000E+00  0.00000000000E+00  0.00000000000E+00  0.91188000000E+02  0.91188000000E+02 0.  0.
    9900012    2    3    3    0    0 -0.42146502949E+01  0.20450485930E+02 -0.30328117433E+02  0.54367077158E+02  0.39999983997E+02 0.  0.
        -12    1    3    3    0    0  0.42146502949E+01 -0.20450485930E+02  0.30328117433E+02  0.36820922842E+02  0.00000000000E+00 0.  1.
         11    1    4    4    0    0  0.59327583790E+01  0.10426373848E+01  0.64789303690E+01  0.88465390796E+01  0.51100000000E-03 0.  1.
        -11    1    4    4    0    0  0.24287262032E+01  0.11879904017E+02 -0.16477260550E+02  0.20458028886E+02  0.51100000000E-03 0. -1.
        -12    1    4    4    0    0 -0.12576134877E+02  0.75279445284E+01 -0.20329787253E+02  0.25062509192E+02  0.00000000000E+00 0.  1.
</event>
<event>
 8    1  0.1265908E-006  0.9118800E+02  0.7816164E-02  0.1184000E+00
        -11   -1    0    0    0    0  0.00000000000E+00  0.00000000000E+00  0.45593999997E+02  0.45594000000E+02  0.51100000000E-03 0.  1.
         11   -1    0    0    0    0 -0.00000000000E+00 -0.00000000000E+00 -0.45593999997E+02  0.45594000000E+02  0.51100000000E-03 0. -1.
         23    2    1    2    0    0  0.00000000000E+00  0.44408920985E-15  0.00000000000E+00  0.91188000000E+02  0.91188000000E+02 0.  0.
    9900012    2    3    3    0    0  0.36391130315E+02 -0.25714626593E+01 -0.49854472782E+01  0.54367062066E+02  0.39999949591E+02 0.  0.
         12    1    3    3    0    0 -0.36391130315E+02  0.25714626593E+01  0.49854472782E+01  0.36820937934E+02  0.00000000000E+00 0. -1.
         11    1    4    4    0    0 -0.48971251304E+01  0.46349859044E+01 -0.71563067390E+01  0.98324796099E+01  0.51100000000E-03 0. -1.
        -11    1    4    4    0    0  0.31506691346E+02  0.61032704602E+00  0.43942064422E+01  0.31817497531E+02  0.51100000000E-03 0.  1.
         12    1    4    4    0    0  0.97815640997E+01 -0.78167756096E+01 -0.22233469814E+01  0.12717084924E+02  0.00000000000E+00 0. -1.
</event>
<event>
 8    1  0.1265908E-006  0.9118800E+02  0.7816164E-02  0.1184000E+00
        -11   -1    0    0    0    0  0.00000000000E+00  0.00000000000E+00  0.45593999997E+02  0.45594000000E+02  0.51100000000E-03 0.  1.
         11   -1    0    0    0    0 -0.00000000000E+00 -0.00000000000E+00 -0.45593999997E+02  0.45594000000E+02  0.51100000000E-03 0. -1.
         23    2    1    2    0    0 -0.17763568394E-14 -0.71054273576E-14 -0.35527136788E-14  0.91188000000E+02  0.91188000000E+02 0.  0.
    9900012    2    3    3    0    0  0.15370632627E+02  0.17737531090E+02  0.28370821797E+02  0.54367083581E+02  0.39999998639E+02 0.  0.
         12    1    3    3    0    0 -0.15370632627E+02 -0.17737531090E+02 -0.28370821797E+02  0.36820916419E+02  0.00000000000E+00 0. -1.
         11    1    4    4    0    0  0.15471771464E+02  0.12564053394E+02  0.13985256036E+02  0.24347865134E+02  0.51100000000E-03 0. -1.
        -11    1    4    4    0    0  0.81461210954E+01 -0.71034333454E+01  0.96510832288E+01  0.14490046996E+02  0.51100000000E-03 0.  1.
        -12    1    4    4    0    0 -0.82472599327E+01  0.12276911041E+02  0.47344825323E+01  0.15529171451E+02  0.00000000000E+00 0.  1.
</event>
<event>
 8    1  0.1265908E-006  0.9118800E+02  0.7816164E-02  0.1184000E+00
        -11   -1    0    0    0    0  0.00000000000E+00  0.00000000000E+00  0.45593999997E+02  0.45594000000E+02  0.51100000000E-03 0.  1.
         11   -1    0    0    0    0 -0.00000000000E+00 -0.00000000000E+00 -0.45593999997E+02  0.45594000000E+02  0.51100000000E-03 0. -1.
         23    2    1    2    0    0  0.35527136788E-14  0.71054273576E-14  0.00000000000E+00  0.91188000000E+02  0.91188000000E+02 0.  0.
    9900012    2    3    3    0    0 -0.26519426156E+02 -0.25474781279E+02  0.18811388065E+01  0.54367039556E+02  0.39999898275E+02 0.  0.
        -12    1    3    3    0    0  0.26519426156E+02  0.25474781279E+02 -0.18811388065E+01  0.36820960444E+02  0.00000000000E+00 0.  1.
         11    1    4    4    0    0 -0.94327377082E+01  0.10392516438E+02  0.31331137958E+01  0.14380449955E+02  0.51100000000E-03 0. -1.
        -11    1    4    4    0    0 -0.81111622850E+01 -0.14746448068E+02 -0.24453548667E+01  0.17006717641E+02  0.51100000000E-03 0.  1.
         12    1    4    4    0    0 -0.89755261625E+01 -0.21120849649E+02  0.11933798773E+01  0.22979871960E+02  0.00000000000E+00 0. -1.
</event>
<event>
 8    1  0.1265908E-006  0.9118800E+02  0.7816164E-02  0.1184000E+00
        -11   -1    0    0    0    0  0.00000000000E+00  0.00000000000E+00  0.45593999997E+02  0.45594000000E+02  0.51100000000E-03 0.  1.
         11   -1    0    0    0    0 -0.00000000000E+00 -0.00000000000E+00 -0.45593999997E+02  0.45594000000E+02  0.51100000000E-03 0. -1.
         23    2    1    2    0    0  0.00000000000E+00  0.00000000000E+00  0.00000000000E+00  0.91188000000E+02  0.91188000000E+02 0.  0.
    9900012    2    3    3    0    0  0.12543767028E+02  0.17582141104E+02 -0.29821147825E+02  0.54367100572E+02  0.40000037375E+02 0.  0.
        -12    1    3    3    0    0 -0.12543767028E+02 -0.17582141104E+02  0.29821147825E+02  0.36820899428E+02  0.00000000000E+00 0.  1.
         11    1    4    4    0    0 -0.99733397495E+01  0.59354088477E+01 -0.50352196364E+01  0.12651087740E+02  0.51100000000E-03 0. -1.
        -11    1    4    4    0    0  0.12604868921E+02 -0.54265068919E+01 -0.11667974233E+02  0.18013087479E+02  0.51100000000E-03 0.  1.
        -12    1    4    4    0    0  0.99122378562E+01  0.17073239148E+02 -0.13117953955E+02  0.23702925353E+02  0.00000000000E+00 0.  1.
</event>
<event>
 8    1  0.1265908E-006  0.9118800E+02  0.7816164E-02  0.1184000E+00
        -11   -1    0    0    0    0  0.00000000000E+00  0.00000000000E+00  0.45593999997E+02  0.45594000000E+02  0.51100000000E-03 0.  1.
         11   -1    0    0    0    0 -0.00000000000E+00 -0.00000000000E+00 -0.45593999997E+02  0.45594000000E+02  0.51100000000E-03 0. -1.
         23    2    1    2    0    0  0.00000000000E+00  0.00000000000E+00 -0.88817841970E-15  0.91188000000E+02  0.91188000000E+02 0.  0.
    9900012    2    3    3    0    0 -0.35971352922E+02  0.55943871252E+01 -0.55267122730E+01  0.54367082753E+02  0.39999996753E+02 0.  0.
         12    1    3    3    0    0  0.35971352922E+02 -0.55943871252E+01  0.55267122730E+01  0.36820917247E+02  0.00000000000E+00 0. -1.
         11    1    4    4    0    0 -0.76882440020E+01  0.36887858504E+01 -0.48479947158E+01  0.98091431792E+01  0.51100000000E-03 0. -1.
        -11    1    4    4    0    0 -0.30816159085E+02  0.12758279154E+02  0.45628608187E+00  0.33355922187E+02  0.51100000000E-03 0.  1.
         12    1    4    4    0    0  0.25330501652E+01 -0.10852677879E+02 -0.11350036391E+01  0.11202017387E+02  0.00000000000E+00 0. -1.
</event>
<event>
 8    1  0.1265908E-006  0.9118800E+02  0.7816164E-02  0.1184000E+00
        -11   -1    0    0    0    0  0.00000000000E+00  0.00000000000E+00  0.45593999997E+02  0.45594000000E+02  0.51100000000E-03 0.  1.
         11   -1    0    0    0    0 -0.00000000000E+00 -0.00000000000E+00 -0.45593999997E+02  0.45594000000E+02  0.51100000000E-03 0. -1.
         23    2    1    2    0    0 -0.88817841970E-15  0.35527136788E-14 -0.35527136788E-14  0.91188000000E+02  0.91188000000E+02 0.  0.
    9900012    2    3    3    0    0  0.49359090719E+01 -0.21171618485E+02  0.29718331046E+02  0.54367084370E+02  0.40000000439E+02 0.  0.
         12    1    3    3    0    0 -0.49359090719E+01  0.21171618485E+02 -0.29718331046E+02  0.36820915630E+02  0.00000000000E+00 0. -1.
         11    1    4    4    0    0  0.28249454133E+01  0.14988235649E+01 -0.98289925221E+00  0.33455761638E+01  0.51100000000E-03 0. -1.
        -11    1    4    4    0    0 -0.20230409070E+01 -0.10818128908E+02  0.35814558195E+02  0.37467414997E+02  0.51100000000E-03 0.  1.
         12    1    4    4    0    0  0.41340045656E+01 -0.11852313142E+02 -0.51133278967E+01  0.13554093210E+02  0.00000000000E+00 0. -1.
</event>
<event>
 8    1  0.1265908E-006  0.9118800E+02  0.7816164E-02  0.1184000E+00
        -11   -1    0    0    0    0  0.00000000000E+00  0.00000000000E+00  0.45593999997E+02  0.45594000000E+02  0.51100000000E-03 0. -1.
         11   -1    0    0    0    0 -0.00000000000E+00 -0.00000000000E+00 -0.45593999997E+02  0.45594000000E+02  0.51100000000E-03 0.  1.
         23    2    1    2    0    0 -0.88817841970E-15  0.00000000000E+00  0.00000000000E+00  0.91188000000E+02  0.91188000000E+02 0.  0.
    9900012    2    3    3    0    0 -0.49591621681E+01  0.11450745780E+02  0.34641982235E+02  0.54367084728E+02  0.40000001254E+02 0.  0.
        -12    1    3    3    0    0  0.49591621681E+01 -0.11450745780E+02 -0.34641982235E+02  0.36820915272E+02  0.00000000000E+00 0.  1.
         11    1    4    4    0    0 -0.11877461406E+02 -0.13669278859E+01  0.20120793693E+01  0.12123986347E+02  0.51100000000E-03 0. -1.
        -11    1    4    4    0    0  0.27889255344E+01 -0.39969449744E+01 -0.46168314984E+00  0.48955925439E+01  0.51100000000E-03 0.  1.
         12    1    4    4    0    0  0.41293737034E+01  0.16814618640E+02  0.33091586016E+02  0.37347505837E+02  0.00000000000E+00 0. -1.
</event>
<event>
 8    1  0.1265908E-006  0.9118800E+02  0.7816164E-02  0.1184000E+00
        -11   -1    0    0    0    0  0.00000000000E+00  0.00000000000E+00  0.45593999997E+02  0.45594000000E+02  0.51100000000E-03 0. -1.
         11   -1    0    0    0    0 -0.00000000000E+00 -0.00000000000E+00 -0.45593999997E+02  0.45594000000E+02  0.51100000000E-03 0.  1.
         23    2    1    2    0    0 -0.88817841970E-15  0.00000000000E+00  0.00000000000E+00  0.91188000000E+02  0.91188000000E+02 0.  0.
    9900012    2    3    3    0    0 -0.18234544437E+01 -0.29113533860E+02  0.22469021506E+02  0.54367085192E+02  0.40000002311E+02 0.  0.
        -12    1    3    3    0    0  0.18234544437E+01  0.29113533860E+02 -0.22469021506E+02  0.36820914808E+02  0.00000000000E+00 0.  1.
         11    1    4    4    0    0 -0.22505746697E+01 -0.12890643260E+02  0.23212637198E+02  0.26646956598E+02  0.51100000000E-03 0. -1.
        -11    1    4    4    0    0 -0.86857991970E+01 -0.86902258997E+01 -0.72082268752E+01  0.14245057698E+02  0.51100000000E-03 0.  1.
         12    1    4    4    0    0  0.91129194229E+01 -0.75326647001E+01  0.64646111832E+01  0.13475070896E+02  0.00000000000E+00 0. -1.
</event>
<event>
 8    1  0.1265908E-006  0.9118800E+02  0.7816164E-02  0.1184000E+00
        -11   -1    0    0    0    0  0.00000000000E+00  0.00000000000E+00  0.45593999997E+02  0.45594000000E+02  0.51100000000E-03 0.  1.
         11   -1    0    0    0    0 -0.00000000000E+00 -0.00000000000E+00 -0.45593999997E+02  0.45594000000E+02  0.51100000000E-03 0. -1.
         23    2    1    2    0    0 -0.17763568394E-14  0.00000000000E+00  0.35527136788E-14  0.91188000000E+02  0.91188000000E+02 0.  0.
    9900012    2    3    3    0    0  0.10644859232E+02 -0.24783385141E+02  0.25064930562E+02  0.54367082695E+02  0.39999996619E+02 0.  0.
         12    1    3    3    0    0 -0.10644859232E+02  0.24783385141E+02 -0.25064930562E+02  0.36820917305E+02  0.00000000000E+00 0. -1.
         11    1    4    4    0    0  0.76430449613E+01 -0.21357145191E+01 -0.22263917824E+01  0.82422226018E+01  0.51100000000E-03 0. -1.
        -11    1    4    4    0    0  0.10122167504E+02 -0.10309810023E+01 -0.52035045627E+00  0.10187834002E+02  0.51100000000E-03 0.  1.
         12    1    4    4    0    0 -0.71203532327E+01 -0.21616689620E+02  0.27811672800E+02  0.35937026091E+02  0.00000000000E+00 0. -1.
</event>
<event>
 8    1  0.1265908E-006  0.9118800E+02  0.7816164E-02  0.1184000E+00
        -11   -1    0    0    0    0  0.00000000000E+00  0.00000000000E+00  0.45593999997E+02  0.45594000000E+02  0.51100000000E-03 0.  1.
         11   -1    0    0    0    0 -0.00000000000E+00 -0.00000000000E+00 -0.45593999997E+02  0.45594000000E+02  0.51100000000E-03 0. -1.
         23    2    1    2    0    0  0.00000000000E+00 -0.17763568394E-14  0.00000000000E+00  0.91188000000E+02  0.91188000000E+02 0.  0.
    9900012    2    3    3    0    0 -0.10612123319E+02  0.78548966278E+01  0.34372430877E+02  0.54367074336E+02  0.39999977564E+02 0.  0.
         12    1    3    3    0    0  0.10612123319E+02 -0.78548966278E+01 -0.34372430877E+02  0.36820925664E+02  0.00000000000E+00 0. -1.
         11    1    4    4    0    0 -0.54345643270E+00 -0.13411515800E+02  0.14311433769E+02  0.19620938757E+02  0.51100000000E-03 0.  1.
        -11    1    4    4    0    0  0.20762543145E+00  0.73406282445E+00 -0.24653563594E+01  0.25806857208E+01  0.51100000000E-03 0. -1.
         12    1    4    4    0    0 -0.10276292317E+02  0.20532349603E+02  0.22526353468E+02  0.32165449858E+02  0.00000000000E+00 0. -1.
</event>
<event>
 8    1  0.1265908E-006  0.9118800E+02  0.7816164E-02  0.1184000E+00
        -11   -1    0    0    0    0  0.00000000000E+00  0.00000000000E+00  0.45593999997E+02  0.45594000000E+02  0.51100000000E-03 0. -1.
         11   -1    0    0    0    0 -0.00000000000E+00 -0.00000000000E+00 -0.45593999997E+02  0.45594000000E+02  0.51100000000E-03 0.  1.
         23    2    1    2    0    0  0.35527136788E-14  0.35527136788E-14 -0.88817841970E-15  0.91188000000E+02  0.91188000000E+02 0.  0.
    9900012    2    3    3    0    0  0.30385101122E+02  0.19779278322E+02 -0.64269001665E+01  0.54367091987E+02  0.40000017803E+02 0.  0.
        -12    1    3    3    0    0 -0.30385101122E+02 -0.19779278322E+02  0.64269001665E+01  0.36820908013E+02  0.00000000000E+00 0.  1.
         11    1    4    4    0    0  0.42184244292E+01 -0.20920985928E+00  0.91035947750E+01  0.10035652023E+02  0.51100000000E-03 0. -1.
        -11    1    4    4    0    0 -0.28505798358E+01  0.51601315909E+01 -0.95166848386E+01  0.11194643988E+02  0.51100000000E-03 0.  1.
         12    1    4    4    0    0  0.29017256529E+02  0.14828356591E+02 -0.60138101029E+01  0.33136795977E+02  0.00000000000E+00 0. -1.
</event>
<event>
 8    1  0.1265908E-006  0.9118800E+02  0.7816164E-02  0.1184000E+00
        -11   -1    0    0    0    0  0.00000000000E+00  0.00000000000E+00  0.45593999997E+02  0.45594000000E+02  0.51100000000E-03 0.  1.
         11   -1    0    0    0    0 -0.00000000000E+00 -0.00000000000E+00 -0.45593999997E+02  0.45594000000E+02  0.51100000000E-03 0. -1.
         23    2    1    2    0    0  0.00000000000E+00 -0.17763568394E-14  0.00000000000E+00  0.91188000000E+02  0.91188000000E+02 0.  0.
    9900012    2    3    3    0    0 -0.28443278138E+02 -0.75691052345E+01 -0.22123972104E+02  0.54367060754E+02  0.39999946601E+02 0.  0.
        -12    1    3    3    0    0  0.28443278138E+02  0.75691052345E+01  0.22123972104E+02  0.36820939246E+02  0.00000000000E+00 0.  1.
         11    1    4    4    0    0 -0.63254150138E+01  0.36307016893E+01 -0.24168194898E+01  0.76833512585E+01  0.51100000000E-03 0. -1.
        -11    1    4    4    0    0  0.29677860394E+01 -0.82938717147E+01  0.59918361246E+01  0.10653551633E+02  0.51100000000E-03 0.  1.
        -12    1    4    4    0    0 -0.25085649164E+02 -0.29059352091E+01 -0.25698988739E+02  0.36030157862E+02  0.00000000000E+00 0.  1.
</event>
<event>
 8    1  0.1265908E-006  0.9118800E+02  0.7816164E-02  0.1184000E+00
        -11   -1    0    0    0    0  0.00000000000E+00  0.00000000000E+00  0.45593999997E+02  0.45594000000E+02  0.51100000000E-03 0. -1.
         11   -1    0    0    0    0 -0.00000000000E+00 -0.00000000000E+00 -0.45593999997E+02  0.45594000000E+02  0.51100000000E-03 0.  1.
         23    2    1    2    0    0  0.00000000000E+00  0.17763568394E-14  0.17763568394E-14  0.91188000000E+02  0.91188000000E+02 0.  0.
    9900012    2    3    3    0    0 -0.32322139813E+02  0.95414839328E+01  0.14833057212E+02  0.54367078990E+02  0.39999988173E+02 0.  0.
         12    1    3    3    0    0  0.32322139813E+02 -0.95414839328E+01 -0.14833057212E+02  0.36820921010E+02  0.00000000000E+00 0. -1.
         11    1    4    4    0    0 -0.39167167642E+01 -0.65320574429E+01  0.60647992390E+01  0.97360276663E+01  0.51100000000E-03 0. -1.
        -11    1    4    4    0    0  0.52402581767E+01 -0.10045348702E+01  0.38507705672E+01  0.65801086835E+01  0.51100000000E-03 0.  1.
        -12    1    4    4    0    0 -0.33645681226E+02  0.17078076246E+02  0.49174874061E+01  0.38050942640E+02  0.00000000000E+00 0.  1.
</event>
<event>
 8    1  0.1265908E-006  0.9118800E+02  0.7816164E-02  0.1184000E+00
        -11   -1    0    0    0    0  0.00000000000E+00  0.00000000000E+00  0.45593999997E+02  0.45594000000E+02  0.51100000000E-03 0.  1.
         11   -1    0    0    0    0 -0.00000000000E+00 -0.00000000000E+00 -0.45593999997E+02  0.45594000000E+02  0.51100000000E-03 0. -1.
         23    2    1    2    0    0  0.00000000000E+00 -0.12212453271E-14  0.00000000000E+00  0.91188000000E+02  0.91188000000E+02 0.  0.
    9900012    2    3    3    0    0  0.34155853725E+02  0.50040507088E+00 -0.13744378496E+02  0.54367072673E+02  0.39999973774E+02 0.  0.
        -12    1    3    3    0    0 -0.34155853725E+02 -0.50040507088E+00  0.13744378496E+02  0.36820927327E+02  0.00000000000E+00 0.  1.
         11    1    4    4    0    0  0.19790175578E+02  0.11530348186E+02  0.48715721597E+01  0.23416494065E+02  0.51100000000E-03 0. -1.
        -11    1    4    4    0    0 -0.37173558518E-01  0.21065249220E+01  0.17645737734E+01  0.27481903106E+01  0.51100000000E-03 0.  1.
         12    1    4    4    0    0  0.14402851706E+02 -0.13136468037E+02 -0.20380524429E+02  0.28202388298E+02  0.00000000000E+00 0. -1.
</event>
<event>
 8    1  0.1265908E-006  0.9118800E+02  0.7816164E-02  0.1184000E+00
        -11   -1    0    0    0    0  0.00000000000E+00  0.00000000000E+00  0.45593999997E+02  0.45594000000E+02  0.51100000000E-03 0.  1.
         11   -1    0    0    0    0 -0.00000000000E+00 -0.00000000000E+00 -0.45593999997E+02  0.45594000000E+02  0.51100000000E-03 0. -1.
         23    2    1    2    0    0  0.17763568394E-14  0.00000000000E+00  0.00000000000E+00  0.91188000000E+02  0.91188000000E+02 0.  0.
    9900012    2    3    3    0    0 -0.12863014585E+02 -0.12220853769E+02  0.32264152125E+02  0.54367055914E+02  0.39999935567E+02 0.  0.
         12    1    3    3    0    0  0.12863014585E+02  0.12220853769E+02 -0.32264152125E+02  0.36820944086E+02  0.00000000000E+00 0. -1.
         11    1    4    4    0    0 -0.25151568518E+01 -0.57420487296E+01  0.26647701147E+02  0.27375118525E+02  0.51100000000E-03 0.  1.
        -11    1    4    4    0    0 -0.56008359999E+01 -0.13150975634E+02 -0.35220303692E+01  0.14721488451E+02  0.51100000000E-03 0. -1.
         12    1    4    4    0    0 -0.47470217328E+01  0.66721705953E+01  0.91384813476E+01  0.12270448937E+02  0.00000000000E+00 0. -1.
</event>
<event>
 8    1  0.1265908E-006  0.9118800E+02  0.7816164E-02  0.1184000E+00
        -11   -1    0    0    0    0  0.00000000000E+00  0.00000000000E+00  0.45593999997E+02  0.45594000000E+02  0.51100000000E-03 0. -1.
         11   -1    0    0    0    0 -0.00000000000E+00 -0.00000000000E+00 -0.45593999997E+02  0.45594000000E+02  0.51100000000E-03 0.  1.
         23    2    1    2    0    0  0.00000000000E+00 -0.35527136788E-14  0.00000000000E+00  0.91188000000E+02  0.91188000000E+02 0.  0.
    9900012    2    3    3    0    0  0.90473261275E+01 -0.26362377866E+02 -0.24061370159E+02  0.54367100897E+02  0.40000038115E+02 0.  0.
         12    1    3    3    0    0 -0.90473261275E+01  0.26362377866E+02  0.24061370159E+02  0.36820899103E+02  0.00000000000E+00 0. -1.
         11    1    4    4    0    0 -0.26489211239E+01 -0.95088819357E+01 -0.29969611419E+00  0.98754967880E+01  0.51100000000E-03 0. -1.
        -11    1    4    4    0    0  0.56062361993E+01 -0.18717431390E+02  0.36101351153E+00  0.19542324662E+02  0.51100000000E-03 0.  1.
         12    1    4    4    0    0  0.60900110521E+01  0.18639354596E+01 -0.24122687556E+02  0.24949279447E+02  0.00000000000E+00 0. -1.
</event>
<event>
 8    1  0.1265908E-006  0.9118800E+02  0.7816164E-02  0.1184000E+00
        -11   -1    0    0    0    0  0.00000000000E+00  0.00000000000E+00  0.45593999997E+02  0.45594000000E+02  0.51100000000E-03 0.  1.
         11   -1    0    0    0    0 -0.00000000000E+00 -0.00000000000E+00 -0.45593999997E+02  0.45594000000E+02  0.51100000000E-03 0. -1.
         23    2    1    2    0    0  0.00000000000E+00  0.17763568394E-14  0.71054273576E-14  0.91188000000E+02  0.91188000000E+02 0.  0.
    9900012    2    3    3    0    0  0.77247956657E+01  0.15498779771E+02  0.32494540734E+02  0.54367084477E+02  0.40000000681E+02 0.  0.
         12    1    3    3    0    0 -0.77247956657E+01 -0.15498779771E+02 -0.32494540734E+02  0.36820915523E+02  0.00000000000E+00 0. -1.
         11    1    4    4    0    0  0.67434628182E+01  0.72366174572E+01 -0.48015712099E+01  0.10995363084E+02  0.51100000000E-03 0. -1.
        -11    1    4    4    0    0  0.43525677029E+01  0.44302077965E+01  0.50809871105E+00  0.62313522842E+01  0.51100000000E-03 0.  1.
         12    1    4    4    0    0 -0.33712348555E+01  0.38319545170E+01  0.36788013233E+02  0.37140369108E+02  0.00000000000E+00 0. -1.
</event>
<event>
 8    1  0.1265908E-006  0.9118800E+02  0.7816164E-02  0.1184000E+00
        -11   -1    0    0    0    0  0.00000000000E+00  0.00000000000E+00  0.45593999997E+02  0.45594000000E+02  0.51100000000E-03 0.  1.
         11   -1    0    0    0    0 -0.00000000000E+00 -0.00000000000E+00 -0.45593999997E+02  0.45594000000E+02  0.51100000000E-03 0. -1.
         23    2    1    2    0    0  0.00000000000E+00  0.00000000000E+00  0.00000000000E+00  0.91188000000E+02  0.91188000000E+02 0.  0.
    9900012    2    3    3    0    0  0.49396501154E+01 -0.70839982258E+01  0.35793803162E+02  0.54367088565E+02  0.40000010001E+02 0.  0.
         12    1    3    3    0    0 -0.49396501154E+01  0.70839982258E+01 -0.35793803162E+02  0.36820911435E+02  0.00000000000E+00 0. -1.
         11    1    4    4    0    0  0.25989019069E+01  0.11377163688E+01 -0.34325718323E+01  0.44532279644E+01  0.51100000000E-03 0. -1.
        -11    1    4    4    0    0  0.63837184951E+01 -0.20045946825E+01  0.41594208804E+02  0.42128950473E+02  0.51100000000E-03 0.  1.
        -12    1    4    4    0    0 -0.40429702866E+01 -0.62171199120E+01 -0.23678338096E+01  0.77849101272E+01  0.00000000000E+00 0.  1.
</event>
<event>
 8    1  0.1265908E-006  0.9118800E+02  0.7816164E-02  0.1184000E+00
        -11   -1    0    0    0    0  0.00000000000E+00  0.00000000000E+00  0.45593999997E+02  0.45594000000E+02  0.51100000000E-03 0.  1.
         11   -1    0    0    0    0 -0.00000000000E+00 -0.00000000000E+00 -0.45593999997E+02  0.45594000000E+02  0.51100000000E-03 0. -1.
         23    2    1    2    0    0 -0.13322676296E-14  0.35527136788E-14 -0.35527136788E-14  0.91188000000E+02  0.91188000000E+02 0.  0.
    9900012    2    3    3    0    0 -0.26716198333E+01  0.27328813937E+02 -0.24531142195E+02  0.54367101571E+02  0.40000039651E+02 0.  0.
        -12    1    3    3    0    0  0.26716198333E+01 -0.27328813937E+02  0.24531142195E+02  0.36820898429E+02  0.00000000000E+00 0.  1.
         11    1    4    4    0    0  0.95076644079E+01  0.13497544556E+02  0.22928756779E+01  0.16668433360E+02  0.51100000000E-03 0. -1.
        -11    1    4    4    0    0 -0.82769839639E+01  0.15189221747E+02 -0.91912315039E+01  0.19588253052E+02  0.51100000000E-03 0.  1.
         12    1    4    4    0    0 -0.39023002773E+01 -0.13579523663E+01 -0.17632786369E+02  0.18110415159E+02  0.00000000000E+00 0. -1.
</event>
<event>
 8    1  0.1265908E-006  0.9118800E+02  0.7816164E-02  0.1184000E+00
        -11   -1    0    0    0    0  0.00000000000E+00  0.00000000000E+00  0.45593999997E+02  0.45594000000E+02  0.51100000000E-03 0. -1.
         11   -1    0    0    0    0 -0.00000000000E+00 -0.00000000000E+00 -0.45593999997E+02  0.45594000000E+02  0.51100000000E-03 0.  1.
         23    2    1    2    0    0  0.35527136788E-14  0.00000000000E+00  0.00000000000E+00  0.91188000000E+02  0.91188000000E+02 0.  0.
    9900012    2    3    3    0    0 -0.25863444740E+02  0.18411712362E+02  0.18651303269E+02  0.54367081495E+02  0.39999993883E+02 0.  0.
        -12    1    3    3    0    0  0.25863444740E+02 -0.18411712362E+02 -0.18651303269E+02  0.36820918505E+02  0.00000000000E+00 0.  1.
         11    1    4    4    0    0 -0.21706922838E+02 -0.43696046013E+00  0.16251311444E+02  0.27119855410E+02  0.51100000000E-03 0. -1.
        -11    1    4    4    0    0  0.13687380028E+01  0.26368631548E+01  0.85481126046E+01  0.90496806783E+01  0.51100000000E-03 0.  1.
        -12    1    4    4    0    0 -0.55252599049E+01  0.16211809668E+02 -0.61481207790E+01  0.18197545407E+02  0.00000000000E+00 0.  1.
</event>
<event>
 8    1  0.1265908E-006  0.9118800E+02  0.7816164E-02  0.1184000E+00
        -11   -1    0    0    0    0  0.00000000000E+00  0.00000000000E+00  0.45593999997E+02  0.45594000000E+02  0.51100000000E-03 0.  1.
         11   -1    0    0    0    0 -0.00000000000E+00 -0.00000000000E+00 -0.45593999997E+02  0.45594000000E+02  0.51100000000E-03 0. -1.
         23    2    1    2    0    0 -0.35527136788E-14  0.00000000000E+00  0.35527136788E-14  0.91188000000E+02  0.91188000000E+02 0.  0.
    9900012    2    3    3    0    0  0.25955456534E+02 -0.58354229896E+01 -0.25456666349E+02  0.54367085468E+02  0.40000002942E+02 0.  0.
        -12    1    3    3    0    0 -0.25955456534E+02  0.58354229896E+01  0.25456666349E+02  0.36820914532E+02  0.00000000000E+00 0.  1.
         11    1    4    4    0    0 -0.78887017349E+01  0.34333298028E+01 -0.78446480982E+01  0.11642932304E+02  0.51100000000E-03 0. -1.
        -11    1    4    4    0    0  0.16698043261E+02  0.49909017778E+00 -0.67504602418E+00  0.16719133564E+02  0.51100000000E-03 0.  1.
         12    1    4    4    0    0  0.17146115008E+02 -0.97678429702E+01 -0.16936972227E+02  0.26005019599E+02  0.00000000000E+00 0. -1.
</event>
<event>
 8    1  0.1265908E-006  0.9118800E+02  0.7816164E-02  0.1184000E+00
        -11   -1    0    0    0    0  0.00000000000E+00  0.00000000000E+00  0.45593999997E+02  0.45594000000E+02  0.51100000000E-03 0.  1.
         11   -1    0    0    0    0 -0.00000000000E+00 -0.00000000000E+00 -0.45593999997E+02  0.45594000000E+02  0.51100000000E-03 0. -1.
         23    2    1    2    0    0  0.00000000000E+00  0.35527136788E-14  0.00000000000E+00  0.91188000000E+02  0.91188000000E+02 0.  0.
    9900012    2    3    3    0    0  0.62213162763E+01 -0.27533548224E+02  0.23642732096E+02  0.54367084273E+02  0.40000000218E+02 0.  0.
         12    1    3    3    0    0 -0.62213162763E+01  0.27533548224E+02 -0.23642732096E+02  0.36820915727E+02  0.00000000000E+00 0. -1.
         11    1    4    4    0    0  0.74419018722E+01 -0.78874543900E+00  0.12708632623E+01  0.75907256923E+01  0.51100000000E-03 0. -1.
        -11    1    4    4    0    0  0.36005552149E+01 -0.32957783009E+02  0.17053717106E+02  0.37282820791E+02  0.51100000000E-03 0.  1.
        -12    1    4    4    0    0 -0.48211408109E+01  0.62129802242E+01  0.53181517274E+01  0.94935377905E+01  0.00000000000E+00 0.  1.
</event>
<event>
 8    1  0.1265908E-006  0.9118800E+02  0.7816164E-02  0.1184000E+00
        -11   -1    0    0    0    0  0.00000000000E+00  0.00000000000E+00  0.45593999997E+02  0.45594000000E+02  0.51100000000E-03 0.  1.
         11   -1    0    0    0    0 -0.00000000000E+00 -0.00000000000E+00 -0.45593999997E+02  0.45594000000E+02  0.51100000000E-03 0. -1.
         23    2    1    2    0    0 -0.17763568394E-14 -0.35527136788E-14  0.35527136788E-14  0.91188000000E+02  0.91188000000E+02 0.  0.
    9900012    2    3    3    0    0  0.97344668374E+01 -0.26316308925E+02 -0.23842650099E+02  0.54367083067E+02  0.39999997468E+02 0.  0.
        -12    1    3    3    0    0 -0.97344668374E+01  0.26316308925E+02  0.23842650099E+02  0.36820916933E+02  0.00000000000E+00 0.  1.
         11    1    4    4    0    0  0.12172208029E+02 -0.92330706928E+01  0.10736879599E+01  0.15315516603E+02  0.51100000000E-03 0. -1.
        -11    1    4    4    0    0 -0.59970070219E+01  0.19737386646E+01  0.12999359789E+01  0.64458956978E+01  0.51100000000E-03 0.  1.
        -12    1    4    4    0    0  0.35592658303E+01 -0.19056976897E+02 -0.26216274038E+02  0.32605670766E+02  0.00000000000E+00 0.  1.
</event>
<event>
 8    1  0.1265908E-006  0.9118800E+02  0.7816164E-02  0.1184000E+00
        -11   -1    0    0    0    0  0.00000000000E+00  0.00000000000E+00  0.45593999997E+02  0.45594000000E+02  0.51100000000E-03 0. -1.
         11   -1    0    0    0    0 -0.00000000000E+00 -0.00000000000E+00 -0.45593999997E+02  0.45594000000E+02  0.51100000000E-03 0.  1.
         23    2    1    2    0    0  0.00000000000E+00  0.17763568394E-14  0.00000000000E+00  0.91188000000E+02  0.91188000000E+02 0.  0.
    9900012    2    3    3    0    0 -0.19991388624E+02  0.15870253042E+02  0.26537891634E+02  0.54367078731E+02  0.39999987583E+02 0.  0.
        -12    1    3    3    0    0  0.19991388624E+02 -0.15870253042E+02 -0.26537891634E+02  0.36820921269E+02  0.00000000000E+00 0.  1.
         11    1    4    4    0    0  0.22655418395E+00  0.19765845502E+02  0.26552351042E+02  0.33102376370E+02  0.51100000000E-03 0. -1.
        -11    1    4    4    0    0 -0.85745017350E+01 -0.18751952092E+01 -0.26271519130E+01  0.91618974296E+01  0.51100000000E-03 0.  1.
         12    1    4    4    0    0 -0.11643441073E+02 -0.20203972513E+01  0.26126925051E+01  0.12102804931E+02  0.00000000000E+00 0. -1.
</event>
<event>
 8    1  0.1265908E-006  0.9118800E+02  0.7816164E-02  0.1184000E+00
        -11   -1    0    0    0    0  0.00000000000E+00  0.00000000000E+00  0.45593999997E+02  0.45594000000E+02  0.51100000000E-03 0. -1.
         11   -1    0    0    0    0 -0.00000000000E+00 -0.00000000000E+00 -0.45593999997E+02  0.45594000000E+02  0.51100000000E-03 0.  1.
         23    2    1    2    0    0  0.00000000000E+00  0.00000000000E+00  0.00000000000E+00  0.91188000000E+02  0.91188000000E+02 0.  0.
    9900012    2    3    3    0    0 -0.17676856062E+02 -0.20966346968E+02  0.24570741289E+02  0.54367078326E+02  0.39999986660E+02 0.  0.
        -12    1    3    3    0    0  0.17676856062E+02  0.20966346968E+02 -0.24570741289E+02  0.36820921674E+02  0.00000000000E+00 0.  1.
         11    1    4    4    0    0 -0.82612927850E+01 -0.10678433486E+02  0.16059504401E+02  0.20980600136E+02  0.51100000000E-03 0. -1.
        -11    1    4    4    0    0 -0.84837314866E+01  0.47615840399E+01  0.14248949248E+02  0.17253374668E+02  0.51100000000E-03 0.  1.
        -12    1    4    4    0    0 -0.93183179014E+00 -0.15049497522E+02 -0.57377123592E+01  0.16133103522E+02  0.00000000000E+00 0.  1.
</event>
<event>
 8    1  0.1265908E-006  0.9118800E+02  0.7816164E-02  0.1184000E+00
        -11   -1    0    0    0    0  0.00000000000E+00  0.00000000000E+00  0.45593999997E+02  0.45594000000E+02  0.51100000000E-03 0. -1.
         11   -1    0    0    0    0 -0.00000000000E+00 -0.00000000000E+00 -0.45593999997E+02  0.45594000000E+02  0.51100000000E-03 0.  1.
         23    2    1    2    0    0  0.35527136788E-14  0.00000000000E+00 -0.44408920985E-15  0.91188000000E+02  0.91188000000E+02 0.  0.
    9900012    2    3    3    0    0  0.22290199933E+02 -0.29291406239E+02  0.97060211210E+00  0.54367060836E+02  0.39999946787E+02 0.  0.
         12    1    3    3    0    0 -0.22290199933E+02  0.29291406239E+02 -0.97060211210E+00  0.36820939164E+02  0.00000000000E+00 0. -1.
         11    1    4    4    0    0  0.14991609505E+01  0.30949588773E+01 -0.32105197972E+01  0.47046457505E+01  0.51100000000E-03 0. -1.
        -11    1    4    4    0    0  0.12242173430E+02 -0.28001759001E+02  0.15947631805E+02  0.34471673558E+02  0.51100000000E-03 0.  1.
         12    1    4    4    0    0  0.85488655530E+01 -0.43846061147E+01 -0.11766509896E+02  0.15190741527E+02  0.00000000000E+00 0. -1.
</event>
<event>
 8    1  0.1265908E-006  0.9118800E+02  0.7816164E-02  0.1184000E+00
        -11   -1    0    0    0    0  0.00000000000E+00  0.00000000000E+00  0.45593999997E+02  0.45594000000E+02  0.51100000000E-03 0. -1.
         11   -1    0    0    0    0 -0.00000000000E+00 -0.00000000000E+00 -0.45593999997E+02  0.45594000000E+02  0.51100000000E-03 0.  1.
         23    2    1    2    0    0  0.35527136788E-14 -0.33653635434E-15  0.00000000000E+00  0.91188000000E+02  0.91188000000E+02 0.  0.
    9900012    2    3    3    0    0 -0.17264563331E+02  0.26512415440E-01 -0.32522755833E+02  0.54366871597E+02  0.39999515376E+02 0.  0.
         12    1    3    3    0    0  0.17264563331E+02 -0.26512415440E-01  0.32522755833E+02  0.36821128403E+02  0.00000000000E+00 0. -1.
         11    1    4    4    0    0 -0.10549638640E+02  0.55360682868E+01  0.18166394261E+01  0.12051684803E+02  0.51100000000E-03 0. -1.
        -11    1    4    4    0    0  0.72250135561E+01 -0.56087626098E+00 -0.33649908904E+01  0.79899040682E+01  0.51100000000E-03 0.  1.
        -12    1    4    4    0    0 -0.13939938246E+02 -0.49486796104E+01 -0.30974404369E+02  0.34325282726E+02  0.00000000000E+00 0.  1.
</event>
<event>
 8    1  0.1265908E-006  0.9118800E+02  0.7816164E-02  0.1184000E+00
        -11   -1    0    0    0    0  0.00000000000E+00  0.00000000000E+00  0.45593999997E+02  0.45594000000E+02  0.51100000000E-03 0. -1.
         11   -1    0    0    0    0 -0.00000000000E+00 -0.00000000000E+00 -0.45593999997E+02  0.45594000000E+02  0.51100000000E-03 0.  1.
         23    2    1    2    0    0  0.00000000000E+00  0.71054273576E-14  0.00000000000E+00  0.91188000000E+02  0.91188000000E+02 0.  0.
    9900012    2    3    3    0    0  0.11007513476E+02 -0.33805907778E+02  0.95799540408E+01  0.54367078325E+02  0.39999986657E+02 0.  0.
         12    1    3    3    0    0 -0.11007513476E+02  0.33805907778E+02 -0.95799540408E+01  0.36820921675E+02  0.00000000000E+00 0. -1.
         11    1    4    4    0    0 -0.13169510868E+01 -0.31761553548E+01 -0.50759554382E+01  0.61308765176E+01  0.51100000000E-03 0. -1.
        -11    1    4    4    0    0 -0.81082991167E+01 -0.20845152102E+02  0.24440625524E+01  0.22499740504E+02  0.51100000000E-03 0.  1.
         12    1    4    4    0    0  0.20432763680E+02 -0.97846003206E+01  0.12211846927E+02  0.25736461303E+02  0.00000000000E+00 0. -1.
</event>
<event>
 8    1  0.1265908E-006  0.9118800E+02  0.7816164E-02  0.1184000E+00
        -11   -1    0    0    0    0  0.00000000000E+00  0.00000000000E+00  0.45593999997E+02  0.45594000000E+02  0.51100000000E-03 0.  1.
         11   -1    0    0    0    0 -0.00000000000E+00 -0.00000000000E+00 -0.45593999997E+02  0.45594000000E+02  0.51100000000E-03 0. -1.
         23    2    1    2    0    0  0.00000000000E+00  0.00000000000E+00 -0.35527136788E-14  0.91188000000E+02  0.91188000000E+02 0.  0.
    9900012    2    3    3    0    0  0.14885452698E+02  0.23560814394E+02 -0.24064304439E+02  0.54367089839E+02  0.40000012907E+02 0.  0.
        -12    1    3    3    0    0 -0.14885452698E+02 -0.23560814394E+02  0.24064304439E+02  0.36820910161E+02  0.00000000000E+00 0.  1.
         11    1    4    4    0    0  0.92587075867E+01  0.24134231384E+02 -0.89221186937E+01  0.27345730799E+02  0.51100000000E-03 0. -1.
        -11    1    4    4    0    0  0.24377702337E+00 -0.72504507860E+01  0.22784232101E+01  0.76039250669E+01  0.51100000000E-03 0.  1.
         12    1    4    4    0    0  0.53829680879E+01  0.66770337955E+01 -0.17420608955E+02  0.19417433974E+02  0.00000000000E+00 0. -1.
</event>
<event>
 8    1  0.1265908E-006  0.9118800E+02  0.7816164E-02  0.1184000E+00
        -11   -1    0    0    0    0  0.00000000000E+00  0.00000000000E+00  0.45593999997E+02  0.45594000000E+02  0.51100000000E-03 0. -1.
         11   -1    0    0    0    0 -0.00000000000E+00 -0.00000000000E+00 -0.45593999997E+02  0.45594000000E+02  0.51100000000E-03 0.  1.
         23    2    1    2    0    0  0.00000000000E+00 -0.17763568394E-14  0.00000000000E+00  0.91188000000E+02  0.91188000000E+02 0.  0.
    9900012    2    3    3    0    0 -0.26330723510E+02  0.15730555093E+02 -0.20372037259E+02  0.54367119156E+02  0.40000079739E+02 0.  0.
        -12    1    3    3    0    0  0.26330723510E+02 -0.15730555093E+02  0.20372037259E+02  0.36820880844E+02  0.00000000000E+00 0.  1.
         11    1    4    4    0    0 -0.95241214136E+01 -0.64609696302E+01 -0.49187276563E+01  0.12515865902E+02  0.51100000000E-03 0. -1.
        -11    1    4    4    0    0 -0.87570346324E+01  0.24267801843E-01 -0.16024083675E+02  0.18260818776E+02  0.51100000000E-03 0.  1.
         12    1    4    4    0    0 -0.80495674636E+01  0.22167256922E+02  0.57077407268E+00  0.23590434477E+02  0.00000000000E+00 0. -1.
</event>
<event>
 8    1  0.1265908E-006  0.9118800E+02  0.7816164E-02  0.1184000E+00
        -11   -1    0    0    0    0  0.00000000000E+00  0.00000000000E+00  0.45593999997E+02  0.45594000000E+02  0.51100000000E-03 0.  1.
         11   -1    0    0    0    0 -0.00000000000E+00 -0.00000000000E+00 -0.45593999997E+02  0.45594000000E+02  0.51100000000E-03 0. -1.
         23    2    1    2    0    0  0.00000000000E+00  0.00000000000E+00  0.00000000000E+00  0.91188000000E+02  0.91188000000E+02 0.  0.
    9900012    2    3    3    0    0 -0.35255507170E+02 -0.51389859635E+01  0.92963821994E+01  0.54367045578E+02  0.39999912003E+02 0.  0.
        -12    1    3    3    0    0  0.35255507170E+02  0.51389859635E+01 -0.92963821994E+01  0.36820954422E+02  0.00000000000E+00 0.  1.
         11    1    4    4    0    0 -0.19902710091E+02  0.10759514443E+02 -0.55924885018E+01  0.23305813608E+02  0.51100000000E-03 0. -1.
        -11    1    4    4    0    0 -0.85318585907E+01 -0.58617066664E+01  0.15803245113E+02  0.18891658805E+02  0.51100000000E-03 0.  1.
         12    1    4    4    0    0 -0.68209384883E+01 -0.10036793740E+02 -0.91437441200E+00  0.12169573164E+02  0.00000000000E+00 0. -1.
</event>
<event>
 8    1  0.1265908E-006  0.9118800E+02  0.7816164E-02  0.1184000E+00
        -11   -1    0    0    0    0  0.00000000000E+00  0.00000000000E+00  0.45593999997E+02  0.45594000000E+02  0.51100000000E-03 0.  1.
         11   -1    0    0    0    0 -0.00000000000E+00 -0.00000000000E+00 -0.45593999997E+02  0.45594000000E+02  0.51100000000E-03 0. -1.
         23    2    1    2    0    0  0.00000000000E+00  0.17763568394E-14  0.35527136788E-14  0.91188000000E+02  0.91188000000E+02 0.  0.
    9900012    2    3    3    0    0 -0.27108331275E+02 -0.15158425490E+02 -0.19777275952E+02  0.54367080241E+02  0.39999991024E+02 0.  0.
         12    1    3    3    0    0  0.27108331275E+02  0.15158425490E+02  0.19777275952E+02  0.36820919759E+02  0.00000000000E+00 0. -1.
         11    1    4    4    0    0  0.16620981758E+01  0.71458528434E+01 -0.10271280631E+02  0.12622400297E+02  0.51100000000E-03 0. -1.
        -11    1    4    4    0    0 -0.83436694824E+01 -0.20742865907E+01  0.45677413355E+01  0.97356944519E+01  0.51100000000E-03 0.  1.
         12    1    4    4    0    0 -0.20426759969E+02 -0.20229991743E+02 -0.14073736657E+02  0.32008985492E+02  0.00000000000E+00 0. -1.
</event>
<event>
 8    1  0.1265908E-006  0.9118800E+02  0.7816164E-02  0.1184000E+00
        -11   -1    0    0    0    0  0.00000000000E+00  0.00000000000E+00  0.45593999997E+02  0.45594000000E+02  0.51100000000E-03 0.  1.
         11   -1    0    0    0    0 -0.00000000000E+00 -0.00000000000E+00 -0.45593999997E+02  0.45594000000E+02  0.51100000000E-03 0. -1.
         23    2    1    2    0    0  0.00000000000E+00  0.71054273576E-14  0.00000000000E+00  0.91188000000E+02  0.91188000000E+02 0.  0.
    9900012    2    3    3    0    0  0.12747060137E+02 -0.32094108112E+02  0.12777264060E+02  0.54367111981E+02  0.40000063383E+02 0.  0.
        -12    1    3    3    0    0 -0.12747060137E+02  0.32094108112E+02 -0.12777264060E+02  0.36820888019E+02  0.00000000000E+00 0.  1.
         11    1    4    4    0    0 -0.11079597250E+01 -0.18492159886E+02 -0.90754474152E+01  0.20628894736E+02  0.51100000000E-03 0. -1.
        -11    1    4    4    0    0  0.11763776008E+01 -0.59286206865E+01 -0.13626175688E+01  0.61958965779E+01  0.51100000000E-03 0.  1.
        -12    1    4    4    0    0  0.12678642261E+02 -0.76733275401E+01  0.23215329044E+02  0.27542320667E+02  0.00000000000E+00 0.  1.
</event>
<event>
 8    1  0.1265908E-006  0.9118800E+02  0.7816164E-02  0.1184000E+00
        -11   -1    0    0    0    0  0.00000000000E+00  0.00000000000E+00  0.45593999997E+02  0.45594000000E+02  0.51100000000E-03 0. -1.
         11   -1    0    0    0    0 -0.00000000000E+00 -0.00000000000E+00 -0.45593999997E+02  0.45594000000E+02  0.51100000000E-03 0.  1.
         23    2    1    2    0    0  0.00000000000E+00 -0.88817841970E-15  0.00000000000E+00  0.91188000000E+02  0.91188000000E+02 0.  0.
    9900012    2    3    3    0    0 -0.27807958606E+02  0.54642992895E+01 -0.23508317891E+02  0.54367052991E+02  0.39999928904E+02 0.  0.
         12    1    3    3    0    0  0.27807958606E+02 -0.54642992895E+01  0.23508317891E+02  0.36820947009E+02  0.00000000000E+00 0. -1.
         11    1    4    4    0    0 -0.82527513886E+01 -0.12655725245E+02 -0.86343557870E+01  0.17401936303E+02  0.51100000000E-03 0. -1.
        -11    1    4    4    0    0 -0.96948632831E+01 -0.18277182040E+01  0.56515218294E+00  0.98818179077E+01  0.51100000000E-03 0.  1.
        -12    1    4    4    0    0 -0.98603439347E+01  0.19947742739E+02 -0.15439114287E+02  0.27083298781E+02  0.00000000000E+00 0.  1.
</event>
<event>
 8    1  0.1265908E-006  0.9118800E+02  0.7816164E-02  0.1184000E+00
        -11   -1    0    0    0    0  0.00000000000E+00  0.00000000000E+00  0.45593999997E+02  0.45594000000E+02  0.51100000000E-03 0.  1.
         11   -1    0    0    0    0 -0.00000000000E+00 -0.00000000000E+00 -0.45593999997E+02  0.45594000000E+02  0.51100000000E-03 0. -1.
         23    2    1    2    0    0  0.00000000000E+00  0.00000000000E+00  0.00000000000E+00  0.91188000000E+02  0.91188000000E+02 0.  0.
    9900012    2    3    3    0    0  0.28772881556E+02  0.19586996527E+02 -0.12010662211E+02  0.54367012063E+02  0.39999835599E+02 0.  0.
        -12    1    3    3    0    0 -0.28772881556E+02 -0.19586996527E+02  0.12010662211E+02  0.36820987937E+02  0.00000000000E+00 0.  1.
         11    1    4    4    0    0 -0.87521077137E+00  0.14759088167E+02  0.70652600148E+01  0.16386414396E+02  0.51100000000E-03 0. -1.
        -11    1    4    4    0    0  0.12146853629E+02  0.10103302175E+00 -0.69974555903E+00  0.12167411593E+02  0.51100000000E-03 0.  1.
         12    1    4    4    0    0  0.17501238698E+02  0.47268753384E+01 -0.18376176667E+02  0.25813186074E+02  0.00000000000E+00 0. -1.
</event>
<event>
 8    1  0.1265908E-006  0.9118800E+02  0.7816164E-02  0.1184000E+00
        -11   -1    0    0    0    0  0.00000000000E+00  0.00000000000E+00  0.45593999997E+02  0.45594000000E+02  0.51100000000E-03 0.  1.
         11   -1    0    0    0    0 -0.00000000000E+00 -0.00000000000E+00 -0.45593999997E+02  0.45594000000E+02  0.51100000000E-03 0. -1.
         23    2    1    2    0    0  0.71054273576E-14  0.88817841970E-15 -0.88817841970E-15  0.91188000000E+02  0.91188000000E+02 0.  0.
    9900012    2    3    3    0    0 -0.35402842562E+02 -0.79516963773E+01  0.62600600858E+01  0.54367094402E+02  0.40000023308E+02 0.  0.
         12    1    3    3    0    0  0.35402842562E+02  0.79516963773E+01 -0.62600600858E+01  0.36820905598E+02  0.00000000000E+00 0. -1.
         11    1    4    4    0    0 -0.31884319794E+02 -0.11572487223E+02 -0.89864902218E+01  0.35089732345E+02  0.51100000000E-03 0. -1.
        -11    1    4    4    0    0 -0.53326566247E+00 -0.11317158156E+01  0.13267471853E+02  0.13326325922E+02  0.51100000000E-03 0.  1.
        -12    1    4    4    0    0 -0.29852571057E+01  0.47525066611E+01  0.19790784546E+01  0.59510361350E+01  0.00000000000E+00 0.  1.
</event>
<event>
 8    1  0.1265908E-006  0.9118800E+02  0.7816164E-02  0.1184000E+00
        -11   -1    0    0    0    0  0.00000000000E+00  0.00000000000E+00  0.45593999997E+02  0.45594000000E+02  0.51100000000E-03 0. -1.
         11   -1    0    0    0    0 -0.00000000000E+00 -0.00000000000E+00 -0.45593999997E+02  0.45594000000E+02  0.51100000000E-03 0.  1.
         23    2    1    2    0    0 -0.35527136788E-14  0.00000000000E+00 -0.35527136788E-14  0.91188000000E+02  0.91188000000E+02 0.  0.
    9900012    2    3    3    0    0 -0.27644356839E+02  0.56032478527E+01  0.23667947023E+02  0.54367101480E+02  0.40000039444E+02 0.  0.
        -12    1    3    3    0    0  0.27644356839E+02 -0.56032478527E+01 -0.23667947023E+02  0.36820898520E+02  0.00000000000E+00 0.  1.
         11    1    4    4    0    0 -0.16829796207E+01  0.94070592406E+00 -0.13048272912E+01  0.23280727137E+01  0.51100000000E-03 0. -1.
        -11    1    4    4    0    0 -0.29597627830E+02  0.22020879189E+00  0.34912491188E+01  0.29803638801E+02  0.51100000000E-03 0.  1.
         12    1    4    4    0    0  0.36362506117E+01  0.44423331367E+01  0.21481525195E+02  0.22235389965E+02  0.00000000000E+00 0. -1.
</event>
<event>
 8    1  0.1265908E-006  0.9118800E+02  0.7816164E-02  0.1184000E+00
        -11   -1    0    0    0    0  0.00000000000E+00  0.00000000000E+00  0.45593999997E+02  0.45594000000E+02  0.51100000000E-03 0. -1.
         11   -1    0    0    0    0 -0.00000000000E+00 -0.00000000000E+00 -0.45593999997E+02  0.45594000000E+02  0.51100000000E-03 0.  1.
         23    2    1    2    0    0  0.00000000000E+00  0.35527136788E-14  0.35527136788E-14  0.91188000000E+02  0.91188000000E+02 0.  0.
    9900012    2    3    3    0    0 -0.12696141621E+02  0.25392212694E+02  0.23448314738E+02  0.54367082825E+02  0.39999996915E+02 0.  0.
        -12    1    3    3    0    0  0.12696141621E+02 -0.25392212694E+02 -0.23448314738E+02  0.36820917175E+02  0.00000000000E+00 0.  1.
         11    1    4    4    0    0 -0.12271064548E+02  0.46559034264E+01  0.18713256923E+02  0.22856999951E+02  0.51100000000E-03 0. -1.
        -11    1    4    4    0    0 -0.66037086084E+01  0.53266575937E+01  0.10888968971E+02  0.13804053536E+02  0.51100000000E-03 0.  1.
        -12    1    4    4    0    0  0.61786315358E+01  0.15409651674E+02 -0.61539111558E+01  0.17706029337E+02  0.00000000000E+00 0.  1.
</event>
<event>
 8    1  0.1265908E-006  0.9118800E+02  0.7816164E-02  0.1184000E+00
        -11   -1    0    0    0    0  0.00000000000E+00  0.00000000000E+00  0.45593999997E+02  0.45594000000E+02  0.51100000000E-03 0. -1.
         11   -1    0    0    0    0 -0.00000000000E+00 -0.00000000000E+00 -0.45593999997E+02  0.45594000000E+02  0.51100000000E-03 0.  1.
         23    2    1    2    0    0 -0.44408920985E-15  0.00000000000E+00  0.00000000000E+00  0.91188000000E+02  0.91188000000E+02 0.  0.
    9900012    2    3    3    0    0 -0.30099403225E+01  0.28488254155E+02  0.23133180910E+02  0.54367021950E+02  0.39999858139E+02 0.  0.
        -12    1    3    3    0    0  0.30099403225E+01 -0.28488254155E+02 -0.23133180910E+02  0.36820978050E+02  0.00000000000E+00 0.  1.
         11    1    4    4    0    0  0.23822806729E+01 -0.98455832401E+00  0.42732207251E+01  0.49904941563E+01  0.51100000000E-03 0. -1.
        -11    1    4    4    0    0 -0.16860451287E+02  0.18585987005E+02  0.43691891872E+00  0.25097900888E+02  0.51100000000E-03 0.  1.
        -12    1    4    4    0    0  0.11468230292E+02  0.10886825474E+02  0.18423041266E+02  0.24278626906E+02  0.00000000000E+00 0.  1.
</event>
<event>
 8    1  0.1265908E-006  0.9118800E+02  0.7816164E-02  0.1184000E+00
        -11   -1    0    0    0    0  0.00000000000E+00  0.00000000000E+00  0.45593999997E+02  0.45594000000E+02  0.51100000000E-03 0.  1.
         11   -1    0    0    0    0 -0.00000000000E+00 -0.00000000000E+00 -0.45593999997E+02  0.45594000000E+02  0.51100000000E-03 0. -1.
         23    2    1    2    0    0  0.35527136788E-14 -0.35527136788E-14  0.00000000000E+00  0.91188000000E+02  0.91188000000E+02 0.  0.
    9900012    2    3    3    0    0  0.20423419197E+02 -0.25169799284E+02  0.17468411713E+02  0.54367078563E+02  0.39999987200E+02 0.  0.
         12    1    3    3    0    0 -0.20423419197E+02  0.25169799284E+02 -0.17468411713E+02  0.36820921437E+02  0.00000000000E+00 0. -1.
         11    1    4    4    0    0 -0.30469406185E+01 -0.12035262510E+02 -0.81012704400E+01  0.14824370942E+02  0.51100000000E-03 0. -1.
        -11    1    4    4    0    0 -0.13539115476E+01 -0.28695799935E+01  0.39095941337E+01  0.50351258544E+01  0.51100000000E-03 0.  1.
         12    1    4    4    0    0  0.24824271363E+02 -0.10264956781E+02  0.21660088019E+02  0.34507581767E+02  0.00000000000E+00 0. -1.
</event>
<event>
 8    1  0.1265908E-006  0.9118800E+02  0.7816164E-02  0.1184000E+00
        -11   -1    0    0    0    0  0.00000000000E+00  0.00000000000E+00  0.45593999997E+02  0.45594000000E+02  0.51100000000E-03 0.  1.
         11   -1    0    0    0    0 -0.00000000000E+00 -0.00000000000E+00 -0.45593999997E+02  0.45594000000E+02  0.51100000000E-03 0. -1.
         23    2    1    2    0    0  0.17763568394E-14 -0.17763568394E-14  0.00000000000E+00  0.91188000000E+02  0.91188000000E+02 0.  0.
    9900012    2    3    3    0    0 -0.13568384087E+02 -0.10972700956E+02  0.32423437257E+02  0.54367075289E+02  0.39999979736E+02 0.  0.
         12    1    3    3    0    0  0.13568384087E+02  0.10972700956E+02 -0.32423437257E+02  0.36820924711E+02  0.00000000000E+00 0. -1.
         11    1    4    4    0    0  0.22046205869E+01 -0.10347932444E+02  0.11542902952E+02  0.15658182098E+02  0.51100000000E-03 0. -1.
        -11    1    4    4    0    0  0.42740663742E+01 -0.87745636588E+01  0.19413827549E+01  0.99513606123E+01  0.51100000000E-03 0.  1.
         12    1    4    4    0    0 -0.20047071048E+02  0.81497951469E+01  0.18939151550E+02  0.28757532578E+02  0.00000000000E+00 0. -1.
</event>
<event>
 8    1  0.1265908E-006  0.9118800E+02  0.7816164E-02  0.1184000E+00
        -11   -1    0    0    0    0  0.00000000000E+00  0.00000000000E+00  0.45593999997E+02  0.45594000000E+02  0.51100000000E-03 0. -1.
         11   -1    0    0    0    0 -0.00000000000E+00 -0.00000000000E+00 -0.45593999997E+02  0.45594000000E+02  0.51100000000E-03 0.  1.
         23    2    1    2    0    0  0.71054273576E-14  0.88817841970E-15 -0.44408920985E-15  0.91188000000E+02  0.91188000000E+02 0.  0.
    9900012    2    3    3    0    0  0.36068123700E+02  0.67916732592E+01  0.29569690130E+01  0.54367081508E+02  0.39999993913E+02 0.  0.
        -12    1    3    3    0    0 -0.36068123700E+02 -0.67916732592E+01 -0.29569690130E+01  0.36820918492E+02  0.00000000000E+00 0.  1.
         11    1    4    4    0    0 -0.24175003624E+00 -0.51741719236E+01  0.76332801222E+00  0.52357585974E+01  0.51100000000E-03 0. -1.
        -11    1    4    4    0    0  0.73063107432E+00 -0.39128028928E+00 -0.96218244758E+01  0.96574545578E+01  0.51100000000E-03 0.  1.
         12    1    4    4    0    0  0.35579242661E+02  0.12357125472E+02  0.11815465477E+02  0.39473868353E+02  0.00000000000E+00 0. -1.
</event>
<event>
 8    1  0.1265908E-006  0.9118800E+02  0.7816164E-02  0.1184000E+00
        -11   -1    0    0    0    0  0.00000000000E+00  0.00000000000E+00  0.45593999997E+02  0.45594000000E+02  0.51100000000E-03 0.  1.
         11   -1    0    0    0    0 -0.00000000000E+00 -0.00000000000E+00 -0.45593999997E+02  0.45594000000E+02  0.51100000000E-03 0. -1.
         23    2    1    2    0    0  0.00000000000E+00  0.00000000000E+00  0.00000000000E+00  0.91188000000E+02  0.91188000000E+02 0.  0.
    9900012    2    3    3    0    0  0.35139861220E+02  0.10363998750E+02 -0.36820460395E+01  0.54367085024E+02  0.40000001930E+02 0.  0.
         12    1    3    3    0    0 -0.35139861220E+02 -0.10363998750E+02  0.36820460395E+01  0.36820914976E+02  0.00000000000E+00 0. -1.
         11    1    4    4    0    0  0.18667531952E+02  0.11120766590E+02 -0.13721643026E+02  0.25698865467E+02  0.51100000000E-03 0. -1.
        -11    1    4    4    0    0  0.17259001375E+02 -0.69255502893E+01  0.12018414382E+02  0.22142237010E+02  0.51100000000E-03 0.  1.
        -12    1    4    4    0    0 -0.78667210789E+00  0.61687824495E+01 -0.19788173956E+01  0.65259825467E+01  0.00000000000E+00 0.  1.
</event>
<event>
 8    1  0.1265908E-006  0.9118800E+02  0.7816164E-02  0.1184000E+00
        -11   -1    0    0    0    0  0.00000000000E+00  0.00000000000E+00  0.45593999997E+02  0.45594000000E+02  0.51100000000E-03 0.  1.
         11   -1    0    0    0    0 -0.00000000000E+00 -0.00000000000E+00 -0.45593999997E+02  0.45594000000E+02  0.51100000000E-03 0. -1.
         23    2    1    2    0    0 -0.35527136788E-14  0.00000000000E+00  0.35527136788E-14  0.91188000000E+02  0.91188000000E+02 0.  0.
    9900012    2    3    3    0    0  0.24133331544E+02 -0.13165917713E+02 -0.24495288182E+02  0.54367106152E+02  0.40000050095E+02 0.  0.
        -12    1    3    3    0    0 -0.24133331544E+02  0.13165917713E+02  0.24495288182E+02  0.36820893848E+02  0.00000000000E+00 0.  1.
         11    1    4    4    0    0  0.91772594468E+01 -0.90496765213E+00 -0.30940575781E+02  0.32285604956E+02  0.51100000000E-03 0. -1.
        -11    1    4    4    0    0  0.14598988759E+02 -0.78392082347E+01  0.59987030236E+01  0.17622942341E+02  0.51100000000E-03 0.  1.
         12    1    4    4    0    0  0.35708333902E+00 -0.44217418259E+01  0.44658457586E+00  0.44585588557E+01  0.00000000000E+00 0. -1.
</event>
<event>
 8    1  0.1265908E-006  0.9118800E+02  0.7816164E-02  0.1184000E+00
        -11   -1    0    0    0    0  0.00000000000E+00  0.00000000000E+00  0.45593999997E+02  0.45594000000E+02  0.51100000000E-03 0.  1.
         11   -1    0    0    0    0 -0.00000000000E+00 -0.00000000000E+00 -0.45593999997E+02  0.45594000000E+02  0.51100000000E-03 0. -1.
         23    2    1    2    0    0 -0.71054273576E-14  0.00000000000E+00 -0.35527136788E-14  0.91188000000E+02  0.91188000000E+02 0.  0.
    9900012    2    3    3    0    0 -0.27860566326E+02  0.32744614015E+01 -0.23850374075E+02  0.54367168981E+02  0.40000193325E+02 0.  0.
        -12    1    3    3    0    0  0.27860566326E+02 -0.32744614015E+01  0.23850374075E+02  0.36820831019E+02  0.00000000000E+00 0.  1.
         11    1    4    4    0    0 -0.19166298137E+02 -0.24516728101E+00 -0.21059859023E+02  0.28476740572E+02  0.51100000000E-03 0. -1.
        -11    1    4    4    0    0 -0.72769300657E+01  0.68850982819E+01  0.90494982558E+01  0.13500063277E+02  0.51100000000E-03 0.  1.
        -12    1    4    4    0    0 -0.14173381229E+01 -0.33654695994E+01 -0.11840013308E+02  0.12390365132E+02  0.00000000000E+00 0.  1.
</event>
<event>
 8    1  0.1265908E-006  0.9118800E+02  0.7816164E-02  0.1184000E+00
        -11   -1    0    0    0    0  0.00000000000E+00  0.00000000000E+00  0.45593999997E+02  0.45594000000E+02  0.51100000000E-03 0.  1.
         11   -1    0    0    0    0 -0.00000000000E+00 -0.00000000000E+00 -0.45593999997E+02  0.45594000000E+02  0.51100000000E-03 0. -1.
         23    2    1    2    0    0  0.17763568394E-14  0.00000000000E+00 -0.71054273576E-14  0.91188000000E+02  0.91188000000E+02 0.  0.
    9900012    2    3    3    0    0  0.14829152638E+02  0.55460871803E+01 -0.33243287893E+02  0.54367095055E+02  0.40000024798E+02 0.  0.
        -12    1    3    3    0    0 -0.14829152638E+02 -0.55460871803E+01  0.33243287893E+02  0.36820904945E+02  0.00000000000E+00 0.  1.
         11    1    4    4    0    0  0.58998017776E+01  0.76342917076E+01 -0.40218564410E+02  0.41359678364E+02  0.51100000000E-03 0. -1.
        -11    1    4    4    0    0  0.90024385780E+01 -0.20204446964E+01  0.40428019861E+01  0.10073248993E+02  0.51100000000E-03 0.  1.
         12    1    4    4    0    0 -0.73087717148E-01 -0.67759830799E-01  0.29324745306E+01  0.29341676983E+01  0.00000000000E+00 0. -1.
</event>
<event>
 8    1  0.1265908E-006  0.9118800E+02  0.7816164E-02  0.1184000E+00
        -11   -1    0    0    0    0  0.00000000000E+00  0.00000000000E+00  0.45593999997E+02  0.45594000000E+02  0.51100000000E-03 0. -1.
         11   -1    0    0    0    0 -0.00000000000E+00 -0.00000000000E+00 -0.45593999997E+02  0.45594000000E+02  0.51100000000E-03 0.  1.
         23    2    1    2    0    0  0.35527136788E-14  0.35527136788E-14  0.35527136788E-14  0.91188000000E+02  0.91188000000E+02 0.  0.
    9900012    2    3    3    0    0 -0.18195273231E+02 -0.23167728965E+02 -0.22090006900E+02  0.54367081514E+02  0.39999993927E+02 0.  0.
         12    1    3    3    0    0  0.18195273231E+02  0.23167728965E+02  0.22090006900E+02  0.36820918486E+02  0.00000000000E+00 0. -1.
         11    1    4    4    0    0 -0.43301052188E+01 -0.35276311083E+00  0.77820692347E+01  0.89126233429E+01  0.51100000000E-03 0. -1.
        -11    1    4    4    0    0 -0.18561186891E+02 -0.11071729705E+02 -0.18948509960E+02  0.28742771047E+02  0.51100000000E-03 0.  1.
         12    1    4    4    0    0  0.46960188791E+01 -0.11743236149E+02 -0.10923566174E+02  0.16711687124E+02  0.00000000000E+00 0. -1.
</event>
<event>
 8    1  0.1265908E-006  0.9118800E+02  0.7816164E-02  0.1184000E+00
        -11   -1    0    0    0    0  0.00000000000E+00  0.00000000000E+00  0.45593999997E+02  0.45594000000E+02  0.51100000000E-03 0.  1.
         11   -1    0    0    0    0 -0.00000000000E+00 -0.00000000000E+00 -0.45593999997E+02  0.45594000000E+02  0.51100000000E-03 0. -1.
         23    2    1    2    0    0  0.88817841970E-15 -0.17763568394E-14  0.00000000000E+00  0.91188000000E+02  0.91188000000E+02 0.  0.
    9900012    2    3    3    0    0 -0.40628592373E+01 -0.14292814338E+02 -0.33689567040E+02  0.54367105195E+02  0.40000047913E+02 0.  0.
        -12    1    3    3    0    0  0.40628592373E+01  0.14292814338E+02  0.33689567040E+02  0.36820894805E+02  0.00000000000E+00 0.  1.
         11    1    4    4    0    0 -0.90716354008E+01 -0.15185927182E+02 -0.33721184720E+02  0.38079197108E+02  0.51100000000E-03 0. -1.
        -11    1    4    4    0    0  0.91904910029E+01 -0.20817006841E+01  0.35455721227E+01  0.10068251315E+02  0.51100000000E-03 0.  1.
         12    1    4    4    0    0 -0.41817148394E+01  0.29748135284E+01 -0.35139544431E+01  0.62196567715E+01  0.00000000000E+00 0. -1.
</event>
<event>
 8    1  0.1265908E-006  0.9118800E+02  0.7816164E-02  0.1184000E+00
        -11   -1    0    0    0    0  0.00000000000E+00  0.00000000000E+00  0.45593999997E+02  0.45594000000E+02  0.51100000000E-03 0. -1.
         11   -1    0    0    0    0 -0.00000000000E+00 -0.00000000000E+00 -0.45593999997E+02  0.45594000000E+02  0.51100000000E-03 0.  1.
         23    2    1    2    0    0  0.00000000000E+00  0.00000000000E+00  0.00000000000E+00  0.91188000000E+02  0.91188000000E+02 0.  0.
    9900012    2    3    3    0    0  0.32569245256E+02  0.16489633438E+02  0.48079316562E+01  0.54367082653E+02  0.39999996524E+02 0.  0.
        -12    1    3    3    0    0 -0.32569245256E+02 -0.16489633438E+02 -0.48079316562E+01  0.36820917347E+02  0.00000000000E+00 0.  1.
         11    1    4    4    0    0  0.32543778006E+02  0.26997738330E+01  0.16806440481E+01  0.32698789432E+02  0.51100000000E-03 0. -1.
        -11    1    4    4    0    0 -0.80769769418E+01  0.79761090310E+01  0.27941604699E+01  0.11690303879E+02  0.51100000000E-03 0.  1.
        -12    1    4    4    0    0  0.81024441921E+01  0.58137505739E+01  0.33312713819E+00  0.99779893421E+01  0.00000000000E+00 0.  1.
</event>
<event>
 8    1  0.1265908E-006  0.9118800E+02  0.7816164E-02  0.1184000E+00
        -11   -1    0    0    0    0  0.00000000000E+00  0.00000000000E+00  0.45593999997E+02  0.45594000000E+02  0.51100000000E-03 0.  1.
         11   -1    0    0    0    0 -0.00000000000E+00 -0.00000000000E+00 -0.45593999997E+02  0.45594000000E+02  0.51100000000E-03 0. -1.
         23    2    1    2    0    0  0.00000000000E+00 -0.17763568394E-14 -0.55511151231E-15  0.91188000000E+02  0.91188000000E+02 0.  0.
    9900012    2    3    3    0    0  0.35367080111E+02 -0.10199402817E+02  0.96070809981E+00  0.54367066641E+02  0.39999960021E+02 0.  0.
        -12    1    3    3    0    0 -0.35367080111E+02  0.10199402817E+02 -0.96070809981E+00  0.36820933359E+02  0.00000000000E+00 0.  1.
         11    1    4    4    0    0 -0.12205885976E+01  0.42371916415E+01  0.15917343881E+01  0.46879897776E+01  0.51100000000E-03 0. -1.
        -11    1    4    4    0    0  0.35071107148E+02 -0.19832390455E+02  0.62844827047E+01  0.40777456896E+02  0.51100000000E-03 0.  1.
        -12    1    4    4    0    0  0.15165615603E+01  0.53957959969E+01 -0.69155089929E+01  0.89016199670E+01  0.00000000000E+00 0.  1.
</event>
<event>
 8    1  0.1265908E-006  0.9118800E+02  0.7816164E-02  0.1184000E+00
        -11   -1    0    0    0    0  0.00000000000E+00  0.00000000000E+00  0.45593999997E+02  0.45594000000E+02  0.51100000000E-03 0.  1.
         11   -1    0    0    0    0 -0.00000000000E+00 -0.00000000000E+00 -0.45593999997E+02  0.45594000000E+02  0.51100000000E-03 0. -1.
         23    2    1    2    0    0 -0.71054273576E-14  0.22204460493E-14  0.17763568394E-14  0.91188000000E+02  0.91188000000E+02 0.  0.
    9900012    2    3    3    0    0  0.35247507450E+02 -0.26210562334E+01 -0.10320989587E+02  0.54367088234E+02  0.40000009248E+02 0.  0.
        -12    1    3    3    0    0 -0.35247507450E+02  0.26210562334E+01  0.10320989587E+02  0.36820911766E+02  0.00000000000E+00 0.  1.
         11    1    4    4    0    0  0.12931803628E+02 -0.13846265859E+02 -0.42331473619E+01  0.19413144005E+02  0.51100000000E-03 0.  1.
        -11    1    4    4    0    0  0.62326052762E+01  0.85970057815E+01 -0.13395835317E+02  0.17093925267E+02  0.51100000000E-03 0. -1.
        -12    1    4    4    0    0  0.16083098546E+02  0.26282038444E+01  0.73079930925E+01  0.17860018962E+02  0.00000000000E+00 0.  1.
</event>
<event>
 8    1  0.1265908E-006  0.9118800E+02  0.7816164E-02  0.1184000E+00
        -11   -1    0    0    0    0  0.00000000000E+00  0.00000000000E+00  0.45593999997E+02  0.45594000000E+02  0.51100000000E-03 0.  1.
         11   -1    0    0    0    0 -0.00000000000E+00 -0.00000000000E+00 -0.45593999997E+02  0.45594000000E+02  0.51100000000E-03 0. -1.
         23    2    1    2    0    0 -0.35527136788E-14  0.00000000000E+00  0.00000000000E+00  0.91188000000E+02  0.91188000000E+02 0.  0.
    9900012    2    3    3    0    0  0.30295521774E+02  0.61501347725E+01 -0.20003424052E+02  0.54367085141E+02  0.40000002195E+02 0.  0.
        -12    1    3    3    0    0 -0.30295521774E+02 -0.61501347725E+01  0.20003424052E+02  0.36820914859E+02  0.00000000000E+00 0.  1.
         11    1    4    4    0    0 -0.68430065785E+00  0.39949568765E+01 -0.17795228381E+02  0.18250975350E+02  0.51100000000E-03 0. -1.
        -11    1    4    4    0    0  0.16705126987E+02  0.97540596754E+00  0.79799444492E+01  0.18538937351E+02  0.51100000000E-03 0.  1.
         12    1    4    4    0    0  0.14274695445E+02  0.11797719285E+01 -0.10188140120E+02  0.17577172439E+02  0.00000000000E+00 0. -1.
</event>
<event>
 8    1  0.1265908E-006  0.9118800E+02  0.7816164E-02  0.1184000E+00
        -11   -1    0    0    0    0  0.00000000000E+00  0.00000000000E+00  0.45593999997E+02  0.45594000000E+02  0.51100000000E-03 0.  1.
         11   -1    0    0    0    0 -0.00000000000E+00 -0.00000000000E+00 -0.45593999997E+02  0.45594000000E+02  0.51100000000E-03 0. -1.
         23    2    1    2    0    0  0.35527136788E-14  0.00000000000E+00  0.00000000000E+00  0.91188000000E+02  0.91188000000E+02 0.  0.
    9900012    2    3    3    0    0  0.31393318055E+02  0.61198074754E+01  0.18242450061E+02  0.54367089551E+02  0.40000012249E+02 0.  0.
         12    1    3    3    0    0 -0.31393318055E+02 -0.61198074754E+01 -0.18242450061E+02  0.36820910449E+02  0.00000000000E+00 0. -1.
         11    1    4    4    0    0  0.25801229764E+02 -0.49737186891E+01  0.14419172291E+02  0.29972551856E+02  0.51100000000E-03 0. -1.
        -11    1    4    4    0    0  0.40139565718E+01 -0.58374295262E+01  0.13374907987E+01  0.72094599472E+01  0.51100000000E-03 0.  1.
         12    1    4    4    0    0  0.15781317189E+01  0.16930955691E+02  0.24857869717E+01  0.17185077748E+02  0.00000000000E+00 0. -1.
</event>
<event>
 8    1  0.1265908E-006  0.9118800E+02  0.7816164E-02  0.1184000E+00
        -11   -1    0    0    0    0  0.00000000000E+00  0.00000000000E+00  0.45593999997E+02  0.45594000000E+02  0.51100000000E-03 0. -1.
         11   -1    0    0    0    0 -0.00000000000E+00 -0.00000000000E+00 -0.45593999997E+02  0.45594000000E+02  0.51100000000E-03 0.  1.
         23    2    1    2    0    0 -0.17763568394E-14  0.00000000000E+00  0.88817841970E-15  0.91188000000E+02  0.91188000000E+02 0.  0.
    9900012    2    3    3    0    0  0.11213451242E+02  0.34617213612E+02 -0.56293072467E+01  0.54367053962E+02  0.39999931117E+02 0.  0.
         12    1    3    3    0    0 -0.11213451242E+02 -0.34617213612E+02  0.56293072467E+01  0.36820946038E+02  0.00000000000E+00 0. -1.
         11    1    4    4    0    0 -0.13584746673E+02  0.14083399106E+02  0.27815540174E+01  0.19764223121E+02  0.51100000000E-03 0. -1.
        -11    1    4    4    0    0  0.87427882960E+01  0.13362141683E+02 -0.35309247572E+01  0.16353917190E+02  0.51100000000E-03 0.  1.
        -12    1    4    4    0    0  0.16055409620E+02  0.71716728234E+01 -0.48799365068E+01  0.18248913651E+02  0.00000000000E+00 0.  1.
</event>
<event>
 8    1  0.1265908E-006  0.9118800E+02  0.7816164E-02  0.1184000E+00
        -11   -1    0    0    0    0  0.00000000000E+00  0.00000000000E+00  0.45593999997E+02  0.45594000000E+02  0.51100000000E-03 0. -1.
         11   -1    0    0    0    0 -0.00000000000E+00 -0.00000000000E+00 -0.45593999997E+02  0.45594000000E+02  0.51100000000E-03 0.  1.
         23    2    1    2    0    0  0.35527136788E-14  0.00000000000E+00 -0.35527136788E-14  0.91188000000E+02  0.91188000000E+02 0.  0.
    9900012    2    3    3    0    0  0.17815136432E+02  0.15085284268E+02  0.28475179324E+02  0.54367072186E+02  0.39999972663E+02 0.  0.
        -12    1    3    3    0    0 -0.17815136432E+02 -0.15085284268E+02 -0.28475179324E+02  0.36820927814E+02  0.00000000000E+00 0.  1.
         11    1    4    4    0    0  0.10720751656E+02  0.21845035954E+02  0.34155746235E+02  0.41937514388E+02  0.51100000000E-03 0. -1.
        -11    1    4    4    0    0  0.11723726132E+01 -0.13265983498E+01 -0.37756781689E+01  0.41701398804E+01  0.51100000000E-03 0.  1.
         12    1    4    4    0    0  0.59220121620E+01 -0.54331533365E+01 -0.19048887417E+01  0.82594179179E+01  0.00000000000E+00 0. -1.
</event>
<event>
 8    1  0.1265908E-006  0.9118800E+02  0.7816164E-02  0.1184000E+00
        -11   -1    0    0    0    0  0.00000000000E+00  0.00000000000E+00  0.45593999997E+02  0.45594000000E+02  0.51100000000E-03 0. -1.
         11   -1    0    0    0    0 -0.00000000000E+00 -0.00000000000E+00 -0.45593999997E+02  0.45594000000E+02  0.51100000000E-03 0.  1.
         23    2    1    2    0    0  0.00000000000E+00  0.00000000000E+00 -0.35527136788E-14  0.91188000000E+02  0.91188000000E+02 0.  0.
    9900012    2    3    3    0    0  0.31063907762E+02  0.18177028944E+01 -0.19685266959E+02  0.54367080069E+02  0.39999990634E+02 0.  0.
         12    1    3    3    0    0 -0.31063907762E+02 -0.18177028944E+01  0.19685266959E+02  0.36820919931E+02  0.00000000000E+00 0. -1.
         11    1    4    4    0    0  0.96822998734E+01  0.35023439896E+01  0.25484910967E+01  0.10606985971E+02  0.51100000000E-03 0. -1.
        -11    1    4    4    0    0  0.25842211017E+02  0.16709706713E+01 -0.59842787935E+01  0.26578630630E+02  0.51100000000E-03 0.  1.
        -12    1    4    4    0    0 -0.44606031285E+01 -0.33556117666E+01 -0.16249479263E+02  0.17181463468E+02  0.00000000000E+00 0.  1.
</event>
<event>
 8    1  0.1265908E-006  0.9118800E+02  0.7816164E-02  0.1184000E+00
        -11   -1    0    0    0    0  0.00000000000E+00  0.00000000000E+00  0.45593999997E+02  0.45594000000E+02  0.51100000000E-03 0. -1.
         11   -1    0    0    0    0 -0.00000000000E+00 -0.00000000000E+00 -0.45593999997E+02  0.45594000000E+02  0.51100000000E-03 0.  1.
         23    2    1    2    0    0 -0.35527136788E-14 -0.35527136788E-14 -0.35527136788E-14  0.91188000000E+02  0.91188000000E+02 0.  0.
    9900012    2    3    3    0    0 -0.26979988380E+02 -0.16194192605E+02 -0.19120907939E+02  0.54367071610E+02  0.39999971348E+02 0.  0.
        -12    1    3    3    0    0  0.26979988380E+02  0.16194192605E+02  0.19120907939E+02  0.36820928390E+02  0.00000000000E+00 0.  1.
         11    1    4    4    0    0  0.84521678554E+01 -0.37335423741E+01 -0.65724160174E+01  0.11339097525E+02  0.51100000000E-03 0.  1.
        -11    1    4    4    0    0 -0.14650801241E+02  0.32759027050E+01 -0.33197868166E+01  0.15375256106E+02  0.51100000000E-03 0. -1.
         12    1    4    4    0    0 -0.20781354994E+02 -0.15736552936E+02 -0.92287051047E+01  0.27652717979E+02  0.00000000000E+00 0. -1.
</event>
<event>
 8    1  0.1265908E-006  0.9118800E+02  0.7816164E-02  0.1184000E+00
        -11   -1    0    0    0    0  0.00000000000E+00  0.00000000000E+00  0.45593999997E+02  0.45594000000E+02  0.51100000000E-03 0. -1.
         11   -1    0    0    0    0 -0.00000000000E+00 -0.00000000000E+00 -0.45593999997E+02  0.45594000000E+02  0.51100000000E-03 0.  1.
         23    2    1    2    0    0  0.00000000000E+00  0.17763568394E-14  0.00000000000E+00  0.91188000000E+02  0.91188000000E+02 0.  0.
    9900012    2    3    3    0    0  0.42557831356E+01  0.93350049121E+01 -0.35362769863E+02  0.54367088833E+02  0.40000010611E+02 0.  0.
         12    1    3    3    0    0 -0.42557831356E+01 -0.93350049121E+01  0.35362769863E+02  0.36820911167E+02  0.00000000000E+00 0. -1.
         11    1    4    4    0    0  0.29197749913E+01  0.62292036587E+01  0.73095461102E+01  0.10037804980E+02  0.51100000000E-03 0. -1.
        -11    1    4    4    0    0  0.23852848300E+01  0.71530560117E+01 -0.22552649034E+02  0.23779776549E+02  0.51100000000E-03 0.  1.
        -12    1    4    4    0    0 -0.10492766856E+01 -0.40472547583E+01 -0.20119666939E+02  0.20549507303E+02  0.00000000000E+00 0.  1.
</event>
<event>
 8    1  0.1265908E-006  0.9118800E+02  0.7816164E-02  0.1184000E+00
        -11   -1    0    0    0    0  0.00000000000E+00  0.00000000000E+00  0.45593999997E+02  0.45594000000E+02  0.51100000000E-03 0.  1.
         11   -1    0    0    0    0 -0.00000000000E+00 -0.00000000000E+00 -0.45593999997E+02  0.45594000000E+02  0.51100000000E-03 0. -1.
         23    2    1    2    0    0  0.00000000000E+00  0.00000000000E+00  0.00000000000E+00  0.91188000000E+02  0.91188000000E+02 0.  0.
    9900012    2    3    3    0    0 -0.30933872215E+02 -0.16923426766E+02 -0.10605306447E+02  0.54367090879E+02  0.40000015276E+02 0.  0.
         12    1    3    3    0    0  0.30933872215E+02  0.16923426766E+02  0.10605306447E+02  0.36820909121E+02  0.00000000000E+00 0. -1.
         11    1    4    4    0    0  0.67172273964E+00 -0.18917542071E+01  0.34242324967E+01  0.39692963950E+01  0.51100000000E-03 0. -1.
        -11    1    4    4    0    0 -0.21707481659E+02  0.68557331491E+01 -0.13300813646E+02  0.26365270355E+02  0.51100000000E-03 0.  1.
         12    1    4    4    0    0 -0.98981132952E+01 -0.21887405708E+02 -0.72872529780E+00  0.24032524129E+02  0.00000000000E+00 0. -1.
</event>
<event>
 8    1  0.1265908E-006  0.9118800E+02  0.7816164E-02  0.1184000E+00
        -11   -1    0    0    0    0  0.00000000000E+00  0.00000000000E+00  0.45593999997E+02  0.45594000000E+02  0.51100000000E-03 0. -1.
         11   -1    0    0    0    0 -0.00000000000E+00 -0.00000000000E+00 -0.45593999997E+02  0.45594000000E+02  0.51100000000E-03 0.  1.
         23    2    1    2    0    0  0.00000000000E+00 -0.17763568394E-14  0.00000000000E+00  0.91188000000E+02  0.91188000000E+02 0.  0.
    9900012    2    3    3    0    0 -0.30476193960E+02 -0.11819663342E+02  0.16949251490E+02  0.54367082495E+02  0.39999996164E+02 0.  0.
        -12    1    3    3    0    0  0.30476193960E+02  0.11819663342E+02 -0.16949251490E+02  0.36820917505E+02  0.00000000000E+00 0.  1.
         11    1    4    4    0    0 -0.26250823026E+02 -0.13806933563E+02  0.68849857837E+01  0.30448976230E+02  0.51100000000E-03 0. -1.
        -11    1    4    4    0    0 -0.26564405968E+01  0.46265312556E+01  0.16200644323E+02  0.17056445844E+02  0.51100000000E-03 0.  1.
        -12    1    4    4    0    0 -0.15689303376E+01 -0.26392610346E+01 -0.61363786162E+01  0.68616604211E+01  0.00000000000E+00 0.  1.
</event>
<event>
 8    1  0.1265908E-006  0.9118800E+02  0.7816164E-02  0.1184000E+00
        -11   -1    0    0    0    0  0.00000000000E+00  0.00000000000E+00  0.45593999997E+02  0.45594000000E+02  0.51100000000E-03 0. -1.
         11   -1    0    0    0    0 -0.00000000000E+00 -0.00000000000E+00 -0.45593999997E+02  0.45594000000E+02  0.51100000000E-03 0.  1.
         23    2    1    2    0    0  0.00000000000E+00 -0.88817841970E-15  0.35527136788E-14  0.91188000000E+02  0.91188000000E+02 0.  0.
    9900012    2    3    3    0    0  0.16570536652E+02 -0.79784351103E+01  0.31898929881E+02  0.54367084214E+02  0.40000000083E+02 0.  0.
        -12    1    3    3    0    0 -0.16570536652E+02  0.79784351103E+01 -0.31898929881E+02  0.36820915786E+02  0.00000000000E+00 0.  1.
         11    1    4    4    0    0  0.87910816568E+01 -0.50175499200E+01  0.20597115719E+02  0.22949947714E+02  0.51100000000E-03 0. -1.
        -11    1    4    4    0    0  0.23242281227E+01 -0.10975434624E+02  0.16852805992E+02  0.20245475337E+02  0.51100000000E-03 0.  1.
        -12    1    4    4    0    0  0.54552268721E+01  0.80145494335E+01 -0.55509918294E+01  0.11171661163E+02  0.00000000000E+00 0.  1.
</event>
<event>
 8    1  0.1265908E-006  0.9118800E+02  0.7816164E-02  0.1184000E+00
        -11   -1    0    0    0    0  0.00000000000E+00  0.00000000000E+00  0.45593999997E+02  0.45594000000E+02  0.51100000000E-03 0.  1.
         11   -1    0    0    0    0 -0.00000000000E+00 -0.00000000000E+00 -0.45593999997E+02  0.45594000000E+02  0.51100000000E-03 0. -1.
         23    2    1    2    0    0  0.00000000000E+00  0.88817841970E-15  0.88817841970E-15  0.91188000000E+02  0.91188000000E+02 0.  0.
    9900012    2    3    3    0    0  0.36458822909E+02  0.20958947978E+01 -0.47072819923E+01  0.54366850552E+02  0.39999467399E+02 0.  0.
        -12    1    3    3    0    0 -0.36458822909E+02 -0.20958947978E+01  0.47072819923E+01  0.36821149448E+02  0.00000000000E+00 0.  1.
         11    1    4    4    0    0  0.20040712311E+02  0.19042376654E+02 -0.18982619113E+01  0.27710028097E+02  0.51100000000E-03 0. -1.
        -11    1    4    4    0    0  0.11054863115E+02 -0.58760249469E+01  0.32642929394E+01  0.12938055353E+02  0.51100000000E-03 0.  1.
         12    1    4    4    0    0  0.53632474837E+01 -0.11070456910E+02 -0.60733130203E+01  0.13718767102E+02  0.00000000000E+00 0. -1.
</event>
<event>
 8    1  0.1265908E-006  0.9118800E+02  0.7816164E-02  0.1184000E+00
        -11   -1    0    0    0    0  0.00000000000E+00  0.00000000000E+00  0.45593999997E+02  0.45594000000E+02  0.51100000000E-03 0.  1.
         11   -1    0    0    0    0 -0.00000000000E+00 -0.00000000000E+00 -0.45593999997E+02  0.45594000000E+02  0.51100000000E-03 0. -1.
         23    2    1    2    0    0  0.00000000000E+00  0.88817841970E-15  0.00000000000E+00  0.91188000000E+02  0.91188000000E+02 0.  0.
    9900012    2    3    3    0    0 -0.53166796025E+01  0.51667772891E+01  0.36066847701E+02  0.54367079688E+02  0.39999989764E+02 0.  0.
         12    1    3    3    0    0  0.53166796025E+01 -0.51667772891E+01 -0.36066847701E+02  0.36820920312E+02  0.00000000000E+00 0. -1.
         11    1    4    4    0    0 -0.10272150839E+02 -0.40977201222E+00  0.14617657426E+02  0.17870671640E+02  0.51100000000E-03 0. -1.
        -11    1    4    4    0    0 -0.90044216643E+01 -0.50429130592E+01  0.14113220983E+02  0.17484095299E+02  0.51100000000E-03 0.  1.
         12    1    4    4    0    0  0.13959892901E+02  0.10619462361E+02  0.73359692918E+01  0.19012312749E+02  0.00000000000E+00 0. -1.
</event>
<event>
 8    1  0.1265908E-006  0.9118800E+02  0.7816164E-02  0.1184000E+00
        -11   -1    0    0    0    0  0.00000000000E+00  0.00000000000E+00  0.45593999997E+02  0.45594000000E+02  0.51100000000E-03 0. -1.
         11   -1    0    0    0    0 -0.00000000000E+00 -0.00000000000E+00 -0.45593999997E+02  0.45594000000E+02  0.51100000000E-03 0.  1.
         23    2    1    2    0    0  0.00000000000E+00  0.00000000000E+00  0.35527136788E-14  0.91188000000E+02  0.91188000000E+02 0.  0.
    9900012    2    3    3    0    0 -0.19577189161E+02  0.15419115092E+02  0.27106554598E+02  0.54367071877E+02  0.39999971958E+02 0.  0.
        -12    1    3    3    0    0  0.19577189161E+02 -0.15419115092E+02 -0.27106554598E+02  0.36820928123E+02  0.00000000000E+00 0.  1.
         11    1    4    4    0    0 -0.42336911507E+01  0.10817782589E+02  0.24199319537E+02  0.26843167235E+02  0.51100000000E-03 0. -1.
        -11    1    4    4    0    0 -0.14506398746E+02  0.11790826327E+02  0.60280525243E+01  0.19641705821E+02  0.51100000000E-03 0.  1.
        -12    1    4    4    0    0 -0.83709926425E+00 -0.71894938234E+01 -0.31208174634E+01  0.78821988211E+01  0.00000000000E+00 0.  1.
</event>
<event>
 8    1  0.1265908E-006  0.9118800E+02  0.7816164E-02  0.1184000E+00
        -11   -1    0    0    0    0  0.00000000000E+00  0.00000000000E+00  0.45593999997E+02  0.45594000000E+02  0.51100000000E-03 0.  1.
         11   -1    0    0    0    0 -0.00000000000E+00 -0.00000000000E+00 -0.45593999997E+02  0.45594000000E+02  0.51100000000E-03 0. -1.
         23    2    1    2    0    0  0.00000000000E+00  0.00000000000E+00  0.11102230246E-15  0.91188000000E+02  0.91188000000E+02 0.  0.
    9900012    2    3    3    0    0  0.15907395522E+02  0.33194781549E+02  0.91665110496E+00  0.54367095562E+02  0.40000025952E+02 0.  0.
         12    1    3    3    0    0 -0.15907395522E+02 -0.33194781549E+02 -0.91665110496E+00  0.36820904438E+02  0.00000000000E+00 0. -1.
         11    1    4    4    0    0  0.30819580740E+01 -0.24760748140E+01 -0.38012734174E+01  0.54844408930E+01  0.51100000000E-03 0. -1.
        -11    1    4    4    0    0  0.10686284671E+02  0.39656018963E+02  0.96516236597E+01  0.42189457920E+02  0.51100000000E-03 0.  1.
        -12    1    4    4    0    0  0.21391527767E+01 -0.39851625993E+01 -0.49336991373E+01  0.66931967491E+01  0.00000000000E+00 0.  1.
</event>
<event>
 8    1  0.1265908E-006  0.9118800E+02  0.7816164E-02  0.1184000E+00
        -11   -1    0    0    0    0  0.00000000000E+00  0.00000000000E+00  0.45593999997E+02  0.45594000000E+02  0.51100000000E-03 0.  1.
         11   -1    0    0    0    0 -0.00000000000E+00 -0.00000000000E+00 -0.45593999997E+02  0.45594000000E+02  0.51100000000E-03 0. -1.
         23    2    1    2    0    0  0.00000000000E+00 -0.17763568394E-14  0.00000000000E+00  0.91188000000E+02  0.91188000000E+02 0.  0.
    9900012    2    3    3    0    0 -0.36824790160E+01 -0.11165041172E+02 -0.34893548358E+02  0.54367102223E+02  0.40000041138E+02 0.  0.
        -12    1    3    3    0    0  0.36824790160E+01  0.11165041172E+02  0.34893548358E+02  0.36820897777E+02  0.00000000000E+00 0.  1.
         11    1    4    4    0    0 -0.45318528773E+01 -0.11100736102E+02 -0.11838094336E+02  0.16849466172E+02  0.51100000000E-03 0. -1.
        -11    1    4    4    0    0 -0.46282944564E+01 -0.11927872885E+02 -0.20557744982E+02  0.24213965808E+02  0.51100000000E-03 0.  1.
         12    1    4    4    0    0  0.54776683176E+01  0.11863567815E+02 -0.24977090402E+01  0.13303670244E+02  0.00000000000E+00 0. -1.
</event>
<event>
 8    1  0.1265908E-006  0.9118800E+02  0.7816164E-02  0.1184000E+00
        -11   -1    0    0    0    0  0.00000000000E+00  0.00000000000E+00  0.45593999997E+02  0.45594000000E+02  0.51100000000E-03 0.  1.
         11   -1    0    0    0    0 -0.00000000000E+00 -0.00000000000E+00 -0.45593999997E+02  0.45594000000E+02  0.51100000000E-03 0. -1.
         23    2    1    2    0    0  0.00000000000E+00  0.35527136788E-14  0.88817841970E-15  0.91188000000E+02  0.91188000000E+02 0.  0.
    9900012    2    3    3    0    0 -0.25911735251E+02  0.25037390093E+02 -0.75817749731E+01  0.54367187433E+02  0.40000235389E+02 0.  0.
         12    1    3    3    0    0  0.25911735251E+02 -0.25037390093E+02  0.75817749731E+01  0.36820812567E+02  0.00000000000E+00 0. -1.
         11    1    4    4    0    0  0.49070246234E+00 -0.21877844143E+01  0.95066696878E+00  0.24353557228E+01  0.51100000000E-03 0. -1.
        -11    1    4    4    0    0  0.12349676510E+01  0.24332979697E+01 -0.14124259883E+02  0.14385437137E+02  0.51100000000E-03 0.  1.
        -12    1    4    4    0    0 -0.27637405364E+02  0.24791876537E+02  0.55918179416E+01  0.37546394573E+02  0.00000000000E+00 0.  1.
</event>
<event>
 8    1  0.1265908E-006  0.9118800E+02  0.7816164E-02  0.1184000E+00
        -11   -1    0    0    0    0  0.00000000000E+00  0.00000000000E+00  0.45593999997E+02  0.45594000000E+02  0.51100000000E-03 0.  1.
         11   -1    0    0    0    0 -0.00000000000E+00 -0.00000000000E+00 -0.45593999997E+02  0.45594000000E+02  0.51100000000E-03 0. -1.
         23    2    1    2    0    0  0.17763568394E-14  0.17763568394E-14  0.00000000000E+00  0.91188000000E+02  0.91188000000E+02 0.  0.
    9900012    2    3    3    0    0  0.15725327371E+02 -0.80109271676E+01 -0.32315866900E+02  0.54367134604E+02  0.40000114957E+02 0.  0.
        -12    1    3    3    0    0 -0.15725327371E+02  0.80109271676E+01  0.32315866900E+02  0.36820865396E+02  0.00000000000E+00 0.  1.
         11    1    4    4    0    0  0.35412268672E+01  0.92059402838E+01 -0.22364553967E+02  0.24443054200E+02  0.51100000000E-03 0. -1.
        -11    1    4    4    0    0  0.12477562449E+02 -0.16306551990E+01 -0.35765798846E+01  0.13082068834E+02  0.51100000000E-03 0.  1.
         12    1    4    4    0    0 -0.29346194473E+00 -0.15586212252E+02 -0.63747330482E+01  0.16842011570E+02  0.00000000000E+00 0. -1.
</event>
<event>
 8    1  0.1265908E-006  0.9118800E+02  0.7816164E-02  0.1184000E+00
        -11   -1    0    0    0    0  0.00000000000E+00  0.00000000000E+00  0.45593999997E+02  0.45594000000E+02  0.51100000000E-03 0.  1.
         11   -1    0    0    0    0 -0.00000000000E+00 -0.00000000000E+00 -0.45593999997E+02  0.45594000000E+02  0.51100000000E-03 0. -1.
         23    2    1    2    0    0  0.00000000000E+00  0.00000000000E+00  0.00000000000E+00  0.91188000000E+02  0.91188000000E+02 0.  0.
    9900012    2    3    3    0    0  0.24649906450E+02  0.33131116070E+01 -0.27151150819E+02  0.54367087636E+02  0.40000007883E+02 0.  0.
        -12    1    3    3    0    0 -0.24649906450E+02 -0.33131116070E+01  0.27151150819E+02  0.36820912364E+02  0.00000000000E+00 0.  1.
         11    1    4    4    0    0 -0.30178956978E+01 -0.52234636681E+01 -0.28370536248E+01  0.66664188786E+01  0.51100000000E-03 0. -1.
        -11    1    4    4    0    0  0.11900713814E+02  0.10467341433E+02 -0.27271868231E+02  0.31542780838E+02  0.51100000000E-03 0.  1.
        -12    1    4    4    0    0  0.15767088334E+02 -0.19307661582E+01  0.29577710360E+01  0.16157887919E+02  0.00000000000E+00 0.  1.
</event>
<event>
 8    1  0.1265908E-006  0.9118800E+02  0.7816164E-02  0.1184000E+00
        -11   -1    0    0    0    0  0.00000000000E+00  0.00000000000E+00  0.45593999997E+02  0.45594000000E+02  0.51100000000E-03 0.  1.
         11   -1    0    0    0    0 -0.00000000000E+00 -0.00000000000E+00 -0.45593999997E+02  0.45594000000E+02  0.51100000000E-03 0. -1.
         23    2    1    2    0    0 -0.35527136788E-14  0.35527136788E-14  0.00000000000E+00  0.91188000000E+02  0.91188000000E+02 0.  0.
    9900012    2    3    3    0    0 -0.29955447448E+02  0.20260723781E+02  0.69250327419E+01  0.54367057068E+02  0.39999938198E+02 0.  0.
         12    1    3    3    0    0  0.29955447448E+02 -0.20260723781E+02 -0.69250327419E+01  0.36820942932E+02  0.00000000000E+00 0. -1.
         11    1    4    4    0    0 -0.10312914380E+01  0.89849834369E+01  0.15893922131E+01  0.91825735641E+01  0.51100000000E-03 0. -1.
        -11    1    4    4    0    0 -0.28241228047E+02  0.20320199946E+02  0.26455647243E+00  0.34792922812E+02  0.51100000000E-03 0.  1.
        -12    1    4    4    0    0 -0.68292796284E+00 -0.90444596022E+01  0.50710840564E+01  0.10391560691E+02  0.00000000000E+00 0.  1.
</event>
<event>
 8    1  0.1265908E-006  0.9118800E+02  0.7816164E-02  0.1184000E+00
        -11   -1    0    0    0    0  0.00000000000E+00  0.00000000000E+00  0.45593999997E+02  0.45594000000E+02  0.51100000000E-03 0.  1.
         11   -1    0    0    0    0 -0.00000000000E+00 -0.00000000000E+00 -0.45593999997E+02  0.45594000000E+02  0.51100000000E-03 0. -1.
         23    2    1    2    0    0 -0.17763568394E-14  0.17763568394E-14  0.35527136788E-14  0.91188000000E+02  0.91188000000E+02 0.  0.
    9900012    2    3    3    0    0 -0.15273390429E+02 -0.13504581039E+02 -0.30661551371E+02  0.54367069855E+02  0.39999967348E+02 0.  0.
        -12    1    3    3    0    0  0.15273390429E+02  0.13504581039E+02  0.30661551371E+02  0.36820930145E+02  0.00000000000E+00 0.  1.
         11    1    4    4    0    0 -0.19348203033E+02  0.70738940093E+01 -0.19578413870E+02  0.28420190481E+02  0.51100000000E-03 0. -1.
        -11    1    4    4    0    0 -0.31588313241E+01 -0.30115327287E+01 -0.11718390994E+01  0.45189326003E+01  0.51100000000E-03 0.  1.
         12    1    4    4    0    0  0.72336439274E+01 -0.17566942319E+02 -0.99112984022E+01  0.21427946774E+02  0.00000000000E+00 0. -1.
</event>
<event>
 8    1  0.1265908E-006  0.9118800E+02  0.7816164E-02  0.1184000E+00
        -11   -1    0    0    0    0  0.00000000000E+00  0.00000000000E+00  0.45593999997E+02  0.45594000000E+02  0.51100000000E-03 0.  1.
         11   -1    0    0    0    0 -0.00000000000E+00 -0.00000000000E+00 -0.45593999997E+02  0.45594000000E+02  0.51100000000E-03 0. -1.
         23    2    1    2    0    0  0.00000000000E+00  0.35527136788E-14  0.00000000000E+00  0.91188000000E+02  0.91188000000E+02 0.  0.
    9900012    2    3    3    0    0 -0.17492047979E+02 -0.30735786519E+02  0.10252796103E+02  0.54367080085E+02  0.39999990669E+02 0.  0.
         12    1    3    3    0    0  0.17492047979E+02  0.30735786519E+02 -0.10252796103E+02  0.36820919915E+02  0.00000000000E+00 0. -1.
         11    1    4    4    0    0 -0.54487499827E+01 -0.45366141975E+01 -0.12823088976E+02  0.14652691081E+02  0.51100000000E-03 0. -1.
        -11    1    4    4    0    0 -0.14177064415E+02 -0.15092986162E+02  0.12253204866E+02  0.24060931330E+02  0.51100000000E-03 0.  1.
         12    1    4    4    0    0  0.21337664189E+01 -0.11106186159E+02  0.10822680213E+02  0.15653457674E+02  0.00000000000E+00 0. -1.
</event>
<event>
 8    1  0.1265908E-006  0.9118800E+02  0.7816164E-02  0.1184000E+00
        -11   -1    0    0    0    0  0.00000000000E+00  0.00000000000E+00  0.45593999997E+02  0.45594000000E+02  0.51100000000E-03 0.  1.
         11   -1    0    0    0    0 -0.00000000000E+00 -0.00000000000E+00 -0.45593999997E+02  0.45594000000E+02  0.51100000000E-03 0. -1.
         23    2    1    2    0    0  0.00000000000E+00  0.00000000000E+00  0.00000000000E+00  0.91188000000E+02  0.91188000000E+02 0.  0.
    9900012    2    3    3    0    0 -0.19305577250E+02 -0.10071107485E+02 -0.29692543735E+02  0.54367086481E+02  0.40000005251E+02 0.  0.
        -12    1    3    3    0    0  0.19305577250E+02  0.10071107485E+02  0.29692543735E+02  0.36820913519E+02  0.00000000000E+00 0.  1.
         11    1    4    4    0    0 -0.78790131963E+00 -0.30609048036E+01 -0.64498486061E+01  0.71826509040E+01  0.51100000000E-03 0. -1.
        -11    1    4    4    0    0 -0.37168832658E+01  0.13633959055E+02 -0.24164432163E+01  0.14336640430E+02  0.51100000000E-03 0.  1.
         12    1    4    4    0    0 -0.14800792665E+02 -0.20644161737E+02 -0.20826251912E+02  0.32847795147E+02  0.00000000000E+00 0. -1.
</event>
<event>
 8    1  0.1265908E-006  0.9118800E+02  0.7816164E-02  0.1184000E+00
        -11   -1    0    0    0    0  0.00000000000E+00  0.00000000000E+00  0.45593999997E+02  0.45594000000E+02  0.51100000000E-03 0.  1.
         11   -1    0    0    0    0 -0.00000000000E+00 -0.00000000000E+00 -0.45593999997E+02  0.45594000000E+02  0.51100000000E-03 0. -1.
         23    2    1    2    0    0  0.00000000000E+00 -0.88817841970E-15  0.00000000000E+00  0.91188000000E+02  0.91188000000E+02 0.  0.
    9900012    2    3    3    0    0  0.24551970026E+02  0.31181151662E+01  0.27262701147E+02  0.54367126189E+02  0.40000095773E+02 0.  0.
         12    1    3    3    0    0 -0.24551970026E+02 -0.31181151662E+01 -0.27262701147E+02  0.36820873811E+02  0.00000000000E+00 0. -1.
         11    1    4    4    0    0  0.23791115140E+01  0.80214585493E+01  0.11210324551E+02  0.13988400397E+02  0.51100000000E-03 0.  1.
        -11    1    4    4    0    0 -0.44700919422E+01 -0.89610639358E+01  0.55924573965E+01  0.11469872224E+02  0.51100000000E-03 0. -1.
         12    1    4    4    0    0  0.26642950454E+02  0.40577205527E+01  0.10459919200E+02  0.28908853569E+02  0.00000000000E+00 0. -1.
</event>
<event>
 8    1  0.1265908E-006  0.9118800E+02  0.7816164E-02  0.1184000E+00
        -11   -1    0    0    0    0  0.00000000000E+00  0.00000000000E+00  0.45593999997E+02  0.45594000000E+02  0.51100000000E-03 0. -1.
         11   -1    0    0    0    0 -0.00000000000E+00 -0.00000000000E+00 -0.45593999997E+02  0.45594000000E+02  0.51100000000E-03 0.  1.
         23    2    1    2    0    0 -0.88817841970E-15  0.00000000000E+00  0.00000000000E+00  0.91188000000E+02  0.91188000000E+02 0.  0.
    9900012    2    3    3    0    0  0.41729474129E+01 -0.12339208049E+02  0.34439954444E+02  0.54367081931E+02  0.39999994877E+02 0.  0.
        -12    1    3    3    0    0 -0.41729474129E+01  0.12339208049E+02 -0.34439954444E+02  0.36820918069E+02  0.00000000000E+00 0.  1.
         11    1    4    4    0    0  0.14832409511E+02 -0.77436276841E+01  0.23912765720E+02  0.29185347458E+02  0.51100000000E-03 0. -1.
        -11    1    4    4    0    0 -0.16216591294E+02 -0.35826022996E+01  0.10271336860E+02  0.19527243369E+02  0.51100000000E-03 0.  1.
        -12    1    4    4    0    0  0.55571291959E+01 -0.10129780656E+01  0.25585186367E+00  0.56544911034E+01  0.00000000000E+00 0.  1.
</event>
<event>
 8    1  0.1265908E-006  0.9118800E+02  0.7816164E-02  0.1184000E+00
        -11   -1    0    0    0    0  0.00000000000E+00  0.00000000000E+00  0.45593999997E+02  0.45594000000E+02  0.51100000000E-03 0. -1.
         11   -1    0    0    0    0 -0.00000000000E+00 -0.00000000000E+00 -0.45593999997E+02  0.45594000000E+02  0.51100000000E-03 0.  1.
         23    2    1    2    0    0  0.53290705182E-14  0.17763568394E-14  0.71054273576E-14  0.91188000000E+02  0.91188000000E+02 0.  0.
    9900012    2    3    3    0    0  0.12049645591E+02  0.41145207580E+01  0.34549332209E+02  0.54367087518E+02  0.40000007615E+02 0.  0.
        -12    1    3    3    0    0 -0.12049645591E+02 -0.41145207580E+01 -0.34549332209E+02  0.36820912482E+02  0.00000000000E+00 0.  1.
         11    1    4    4    0    0 -0.45965016422E+01 -0.24349065021E+01  0.89522354889E+01  0.10353700668E+02  0.51100000000E-03 0. -1.
        -11    1    4    4    0    0  0.76951550540E+01  0.37522358004E+01 -0.63880245549E+01  0.10681832370E+02  0.51100000000E-03 0.  1.
         12    1    4    4    0    0  0.89509921796E+01  0.27971914597E+01  0.31985121275E+02  0.33331554480E+02  0.00000000000E+00 0. -1.
</event>
<event>
 8    1  0.1265908E-006  0.9118800E+02  0.7816164E-02  0.1184000E+00
        -11   -1    0    0    0    0  0.00000000000E+00  0.00000000000E+00  0.45593999997E+02  0.45594000000E+02  0.51100000000E-03 0. -1.
         11   -1    0    0    0    0 -0.00000000000E+00 -0.00000000000E+00 -0.45593999997E+02  0.45594000000E+02  0.51100000000E-03 0.  1.
         23    2    1    2    0    0  0.00000000000E+00  0.00000000000E+00  0.00000000000E+00  0.91188000000E+02  0.91188000000E+02 0.  0.
    9900012    2    3    3    0    0 -0.34788148840E+02 -0.78297032230E+01  0.91793852816E+01  0.54367072983E+02  0.39999974479E+02 0.  0.
        -12    1    3    3    0    0  0.34788148840E+02  0.78297032230E+01 -0.91793852816E+01  0.36820927017E+02  0.00000000000E+00 0.  1.
         11    1    4    4    0    0 -0.40019311264E+02 -0.50447304852E+00  0.15961202661E+01  0.40054305227E+02  0.51100000000E-03 0. -1.
        -11    1    4    4    0    0  0.68589630589E+01 -0.30482358861E+01  0.53726611510E+01  0.92305256819E+01  0.51100000000E-03 0.  1.
         12    1    4    4    0    0 -0.16278006346E+01 -0.42769942884E+01  0.22106038645E+01  0.50822420736E+01  0.00000000000E+00 0. -1.
</event>
<event>
 8    1  0.1265908E-006  0.9118800E+02  0.7816164E-02  0.1184000E+00
        -11   -1    0    0    0    0  0.00000000000E+00  0.00000000000E+00  0.45593999997E+02  0.45594000000E+02  0.51100000000E-03 0.  1.
         11   -1    0    0    0    0 -0.00000000000E+00 -0.00000000000E+00 -0.45593999997E+02  0.45594000000E+02  0.51100000000E-03 0. -1.
         23    2    1    2    0    0  0.00000000000E+00  0.00000000000E+00  0.88817841970E-15  0.91188000000E+02  0.91188000000E+02 0.  0.
    9900012    2    3    3    0    0  0.13880062564E+02  0.34051905993E+02  0.18938690863E+01  0.54367147502E+02  0.40000144360E+02 0.  0.
         12    1    3    3    0    0 -0.13880062564E+02 -0.34051905993E+02 -0.18938690863E+01  0.36820852498E+02  0.00000000000E+00 0. -1.
         11    1    4    4    0    0  0.13306624159E+02  0.25180173017E+02 -0.12423921347E+02  0.31071871227E+02  0.51100000000E-03 0. -1.
        -11    1    4    4    0    0 -0.77527816204E+01  0.39254647193E+01  0.69091155580E+01  0.11101836522E+02  0.51100000000E-03 0.  1.
        -12    1    4    4    0    0  0.83262200255E+01  0.49462682573E+01  0.74086748754E+01  0.12193439752E+02  0.00000000000E+00 0.  1.
</event>
<event>
 8    1  0.1265908E-006  0.9118800E+02  0.7816164E-02  0.1184000E+00
        -11   -1    0    0    0    0  0.00000000000E+00  0.00000000000E+00  0.45593999997E+02  0.45594000000E+02  0.51100000000E-03 0.  1.
         11   -1    0    0    0    0 -0.00000000000E+00 -0.00000000000E+00 -0.45593999997E+02  0.45594000000E+02  0.51100000000E-03 0. -1.
         23    2    1    2    0    0  0.00000000000E+00  0.00000000000E+00 -0.35527136788E-14  0.91188000000E+02  0.91188000000E+02 0.  0.
    9900012    2    3    3    0    0  0.27761670361E+02  0.42326263073E+01 -0.23815010046E+02  0.54367079721E+02  0.39999989840E+02 0.  0.
        -12    1    3    3    0    0 -0.27761670361E+02 -0.42326263073E+01  0.23815010046E+02  0.36820920279E+02  0.00000000000E+00 0.  1.
         11    1    4    4    0    0  0.17317090179E+02  0.14743162661E+02 -0.12447429539E+02  0.25926452898E+02  0.51100000000E-03 0. -1.
        -11    1    4    4    0    0  0.69050298504E+01 -0.68646113025E+01  0.52511309078E+01  0.11062400356E+02  0.51100000000E-03 0.  1.
        -12    1    4    4    0    0  0.35395503316E+01 -0.36459250507E+01 -0.16618711415E+02  0.17378226467E+02  0.00000000000E+00 0.  1.
</event>
<event>
 8    1  0.1265908E-006  0.9118800E+02  0.7816164E-02  0.1184000E+00
        -11   -1    0    0    0    0  0.00000000000E+00  0.00000000000E+00  0.45593999997E+02  0.45594000000E+02  0.51100000000E-03 0.  1.
         11   -1    0    0    0    0 -0.00000000000E+00 -0.00000000000E+00 -0.45593999997E+02  0.45594000000E+02  0.51100000000E-03 0. -1.
         23    2    1    2    0    0  0.13322676296E-14  0.00000000000E+00  0.00000000000E+00  0.91188000000E+02  0.91188000000E+02 0.  0.
    9900012    2    3    3    0    0  0.31695703512E+01 -0.14010625432E+02 -0.33903373722E+02  0.54367047392E+02  0.39999916140E+02 0.  0.
        -12    1    3    3    0    0 -0.31695703512E+01  0.14010625432E+02  0.33903373722E+02  0.36820952608E+02  0.00000000000E+00 0.  1.
         11    1    4    4    0    0  0.14136002294E+02 -0.18701173831E+02 -0.17941824280E+02  0.29520662633E+02  0.51100000000E-03 0. -1.
        -11    1    4    4    0    0 -0.10994828449E+01  0.81612695145E+01 -0.94092647357E+01  0.12503977197E+02  0.51100000000E-03 0.  1.
         12    1    4    4    0    0 -0.98669490979E+01 -0.34707211153E+01 -0.65522847067E+01  0.12342407563E+02  0.00000000000E+00 0. -1.
</event>
<event>
 8    1  0.1265908E-006  0.9118800E+02  0.7816164E-02  0.1184000E+00
        -11   -1    0    0    0    0  0.00000000000E+00  0.00000000000E+00  0.45593999997E+02  0.45594000000E+02  0.51100000000E-03 0. -1.
         11   -1    0    0    0    0 -0.00000000000E+00 -0.00000000000E+00 -0.45593999997E+02  0.45594000000E+02  0.51100000000E-03 0.  1.
         23    2    1    2    0    0  0.00000000000E+00  0.35527136788E-14  0.00000000000E+00  0.91188000000E+02  0.91188000000E+02 0.  0.
    9900012    2    3    3    0    0  0.20602962756E+02  0.29330450781E+02  0.84275676584E+01  0.54367064189E+02  0.39999954432E+02 0.  0.
         12    1    3    3    0    0 -0.20602962756E+02 -0.29330450781E+02 -0.84275676584E+01  0.36820935811E+02  0.00000000000E+00 0. -1.
         11    1    4    4    0    0  0.28268059935E+02  0.10421011547E+02  0.13030079306E+02  0.32824741600E+02  0.51100000000E-03 0. -1.
        -11    1    4    4    0    0 -0.29026641678E+01  0.61216216207E+01 -0.40332854202E+01  0.78846117267E+01  0.51100000000E-03 0.  1.
         12    1    4    4    0    0 -0.47624330108E+01  0.12787817613E+02 -0.56922622731E+00  0.13657710862E+02  0.00000000000E+00 0. -1.
</event>
<event>
 8    1  0.1265908E-006  0.9118800E+02  0.7816164E-02  0.1184000E+00
        -11   -1    0    0    0    0  0.00000000000E+00  0.00000000000E+00  0.45593999997E+02  0.45594000000E+02  0.51100000000E-03 0. -1.
         11   -1    0    0    0    0 -0.00000000000E+00 -0.00000000000E+00 -0.45593999997E+02  0.45594000000E+02  0.51100000000E-03 0.  1.
         23    2    1    2    0    0  0.44408920985E-15  0.88817841970E-15  0.00000000000E+00  0.91188000000E+02  0.91188000000E+02 0.  0.
    9900012    2    3    3    0    0  0.32302317316E+01 -0.33805902938E+01  0.36522842124E+02  0.54367071378E+02  0.39999970820E+02 0.  0.
        -12    1    3    3    0    0 -0.32302317316E+01  0.33805902938E+01 -0.36522842124E+02  0.36820928622E+02  0.00000000000E+00 0.  1.
         11    1    4    4    0    0 -0.42366027192E+01  0.14332619150E+01  0.11050548765E+02  0.11921311613E+02  0.51100000000E-03 0. -1.
        -11    1    4    4    0    0 -0.33910135253E-01  0.88404816668E+01  0.25370360259E+02  0.26866530217E+02  0.51100000000E-03 0.  1.
        -12    1    4    4    0    0  0.75007445861E+01 -0.13654333876E+02  0.10193310057E+00  0.15579229547E+02  0.00000000000E+00 0.  1.
</event>
<event>
 8    1  0.1265908E-006  0.9118800E+02  0.7816164E-02  0.1184000E+00
        -11   -1    0    0    0    0  0.00000000000E+00  0.00000000000E+00  0.45593999997E+02  0.45594000000E+02  0.51100000000E-03 0. -1.
         11   -1    0    0    0    0 -0.00000000000E+00 -0.00000000000E+00 -0.45593999997E+02  0.45594000000E+02  0.51100000000E-03 0.  1.
         23    2    1    2    0    0  0.00000000000E+00  0.00000000000E+00  0.44408920985E-15  0.91188000000E+02  0.91188000000E+02 0.  0.
    9900012    2    3    3    0    0  0.30612566337E+02  0.20410806990E+02 -0.14329197083E+01  0.54367034252E+02  0.39999886185E+02 0.  0.
        -12    1    3    3    0    0 -0.30612566337E+02 -0.20410806990E+02  0.14329197083E+01  0.36820965748E+02  0.00000000000E+00 0.  1.
         11    1    4    4    0    0 -0.35749563364E+01  0.88937400846E+01 -0.22579475273E+01  0.98477029198E+01  0.51100000000E-03 0.  1.
        -11    1    4    4    0    0  0.10270574601E+01 -0.28383573919E+01  0.72180361073E+01  0.78237564647E+01  0.51100000000E-03 0. -1.
         12    1    4    4    0    0  0.33160465213E+02  0.14355424297E+02 -0.63930082883E+01  0.36695574868E+02  0.00000000000E+00 0. -1.
</event>
<event>
 8    1  0.1265908E-006  0.9118800E+02  0.7816164E-02  0.1184000E+00
        -11   -1    0    0    0    0  0.00000000000E+00  0.00000000000E+00  0.45593999997E+02  0.45594000000E+02  0.51100000000E-03 0.  1.
         11   -1    0    0    0    0 -0.00000000000E+00 -0.00000000000E+00 -0.45593999997E+02  0.45594000000E+02  0.51100000000E-03 0. -1.
         23    2    1    2    0    0  0.00000000000E+00  0.00000000000E+00  0.00000000000E+00  0.91188000000E+02  0.91188000000E+02 0.  0.
    9900012    2    3    3    0    0  0.27090395211E+02  0.22954699818E+02  0.97453522186E+01  0.54367086836E+02  0.40000006059E+02 0.  0.
         12    1    3    3    0    0 -0.27090395211E+02 -0.22954699818E+02 -0.97453522186E+01  0.36820913164E+02  0.00000000000E+00 0. -1.
         11    1    4    4    0    0  0.51855762950E+01 -0.64501035176E+01  0.38887076306E+01  0.91441830797E+01  0.51100000000E-03 0. -1.
        -11    1    4    4    0    0  0.12461903048E+02 -0.97881831017E+00  0.47938243714E+01  0.13387974650E+02  0.51100000000E-03 0.  1.
        -12    1    4    4    0    0  0.94429158677E+01  0.30383621645E+02  0.10628202166E+01  0.31834929106E+02  0.00000000000E+00 0.  1.
</event>
<event>
 8    1  0.1265908E-006  0.9118800E+02  0.7816164E-02  0.1184000E+00
        -11   -1    0    0    0    0  0.00000000000E+00  0.00000000000E+00  0.45593999997E+02  0.45594000000E+02  0.51100000000E-03 0. -1.
         11   -1    0    0    0    0 -0.00000000000E+00 -0.00000000000E+00 -0.45593999997E+02  0.45594000000E+02  0.51100000000E-03 0.  1.
         23    2    1    2    0    0  0.35527136788E-14  0.71054273576E-14 -0.88817841970E-15  0.91188000000E+02  0.91188000000E+02 0.  0.
    9900012    2    3    3    0    0  0.17207622857E+02  0.32252394872E+02 -0.44118822635E+01  0.54367028198E+02  0.39999872382E+02 0.  0.
        -12    1    3    3    0    0 -0.17207622857E+02 -0.32252394872E+02  0.44118822635E+01  0.36820971802E+02  0.00000000000E+00 0.  1.
         11    1    4    4    0    0  0.60769295169E+00  0.11071389665E+02  0.10157713607E+02  0.15037423510E+02  0.51100000000E-03 0. -1.
        -11    1    4    4    0    0  0.17573478151E+02  0.64445114377E+01 -0.15820505757E+02  0.24508106101E+02  0.51100000000E-03 0.  1.
        -12    1    4    4    0    0 -0.97354824595E+00  0.14736493769E+02  0.12509098861E+01  0.14821498586E+02  0.00000000000E+00 0.  1.
</event>
<event>
 8    1  0.1265908E-006  0.9118800E+02  0.7816164E-02  0.1184000E+00
        -11   -1    0    0    0    0  0.00000000000E+00  0.00000000000E+00  0.45593999997E+02  0.45594000000E+02  0.51100000000E-03 0.  1.
         11   -1    0    0    0    0 -0.00000000000E+00 -0.00000000000E+00 -0.45593999997E+02  0.45594000000E+02  0.51100000000E-03 0. -1.
         23    2    1    2    0    0  0.00000000000E+00  0.35527136788E-14  0.00000000000E+00  0.91188000000E+02  0.91188000000E+02 0.  0.
    9900012    2    3    3    0    0 -0.12332162780E+02  0.29149741082E+02 -0.18814649710E+02  0.54367072694E+02  0.39999973820E+02 0.  0.
        -12    1    3    3    0    0  0.12332162780E+02 -0.29149741082E+02  0.18814649710E+02  0.36820927306E+02  0.00000000000E+00 0.  1.
         11    1    4    4    0    0  0.11622210858E+01  0.57687957024E+01 -0.20186828535E+02  0.21027073222E+02  0.51100000000E-03 0. -1.
        -11    1    4    4    0    0 -0.14513917132E+02  0.10603679176E+02 -0.54983246888E+01  0.18796898075E+02  0.51100000000E-03 0.  1.
         12    1    4    4    0    0  0.10195332662E+01  0.12777266203E+02  0.68705035141E+01  0.14543101397E+02  0.00000000000E+00 0. -1.
</event>
<event>
 8    1  0.1265908E-006  0.9118800E+02  0.7816164E-02  0.1184000E+00
        -11   -1    0    0    0    0  0.00000000000E+00  0.00000000000E+00  0.45593999997E+02  0.45594000000E+02  0.51100000000E-03 0. -1.
         11   -1    0    0    0    0 -0.00000000000E+00 -0.00000000000E+00 -0.45593999997E+02  0.45594000000E+02  0.51100000000E-03 0.  1.
         23    2    1    2    0    0 -0.35527136788E-14  0.00000000000E+00  0.00000000000E+00  0.91188000000E+02  0.91188000000E+02 0.  0.
    9900012    2    3    3    0    0 -0.31048011448E+02 -0.18724110806E+02  0.64193896469E+01  0.54367083339E+02  0.39999998088E+02 0.  0.
        -12    1    3    3    0    0  0.31048011448E+02  0.18724110806E+02 -0.64193896469E+01  0.36820916661E+02  0.00000000000E+00 0.  1.
         11    1    4    4    0    0  0.43377471619E+01 -0.13430289243E+02  0.38492571051E+01  0.14628926827E+02  0.51100000000E-03 0. -1.
        -11    1    4    4    0    0 -0.13113344749E+02 -0.69676846356E+01  0.78365132846E+01  0.16790455038E+02  0.51100000000E-03 0.  1.
        -12    1    4    4    0    0 -0.22272413861E+02  0.16738630729E+01 -0.52663807429E+01  0.22947701473E+02  0.00000000000E+00 0.  1.
</event>
<event>
 8    1  0.1265908E-006  0.9118800E+02  0.7816164E-02  0.1184000E+00
        -11   -1    0    0    0    0  0.00000000000E+00  0.00000000000E+00  0.45593999997E+02  0.45594000000E+02  0.51100000000E-03 0. -1.
         11   -1    0    0    0    0 -0.00000000000E+00 -0.00000000000E+00 -0.45593999997E+02  0.45594000000E+02  0.51100000000E-03 0.  1.
         23    2    1    2    0    0  0.35527136788E-14  0.35527136788E-14  0.00000000000E+00  0.91188000000E+02  0.91188000000E+02 0.  0.
    9900012    2    3    3    0    0  0.24773193617E+02  0.20649506615E+02  0.17766960872E+02  0.54367107234E+02  0.40000052562E+02 0.  0.
        -12    1    3    3    0    0 -0.24773193617E+02 -0.20649506615E+02 -0.17766960872E+02  0.36820892766E+02  0.00000000000E+00 0.  1.
         11    1    4    4    0    0  0.78011669623E+01  0.18794661881E+01  0.20691891382E+02  0.22193354149E+02  0.51100000000E-03 0. -1.
        -11    1    4    4    0    0 -0.25808707574E+01  0.86365149001E+01 -0.45383488055E+01  0.10091922197E+02  0.51100000000E-03 0.  1.
        -12    1    4    4    0    0  0.19552897412E+02  0.10133525527E+02  0.16134182954E+01  0.22081830889E+02  0.00000000000E+00 0.  1.
</event>
<event>
 8    1  0.1265908E-006  0.9118800E+02  0.7816164E-02  0.1184000E+00
        -11   -1    0    0    0    0  0.00000000000E+00  0.00000000000E+00  0.45593999997E+02  0.45594000000E+02  0.51100000000E-03 0.  1.
         11   -1    0    0    0    0 -0.00000000000E+00 -0.00000000000E+00 -0.45593999997E+02  0.45594000000E+02  0.51100000000E-03 0. -1.
         23    2    1    2    0    0  0.00000000000E+00  0.17763568394E-14 -0.35527136788E-14  0.91188000000E+02  0.91188000000E+02 0.  0.
    9900012    2    3    3    0    0 -0.27058136211E+02 -0.87562812869E+01  0.23387278207E+02  0.54367082316E+02  0.39999995755E+02 0.  0.
         12    1    3    3    0    0  0.27058136211E+02  0.87562812869E+01 -0.23387278207E+02  0.36820917684E+02  0.00000000000E+00 0. -1.
         11    1    4    4    0    0  0.58813133152E+01 -0.72375834030E+01  0.33106342144E+01  0.98960981700E+01  0.51100000000E-03 0. -1.
        -11    1    4    4    0    0 -0.28745832600E+02  0.59580267369E+01  0.94981080761E+01  0.30855064929E+02  0.51100000000E-03 0.  1.
        -12    1    4    4    0    0 -0.41936169259E+01 -0.74767246209E+01  0.10578535917E+02  0.13615919217E+02  0.00000000000E+00 0.  1.
</event>
<event>
 8    1  0.1265908E-006  0.9118800E+02  0.7816164E-02  0.1184000E+00
        -11   -1    0    0    0    0  0.00000000000E+00  0.00000000000E+00  0.45593999997E+02  0.45594000000E+02  0.51100000000E-03 0. -1.
         11   -1    0    0    0    0 -0.00000000000E+00 -0.00000000000E+00 -0.45593999997E+02  0.45594000000E+02  0.51100000000E-03 0.  1.
         23    2    1    2    0    0  0.00000000000E+00  0.00000000000E+00  0.88817841970E-15  0.91188000000E+02  0.91188000000E+02 0.  0.
    9900012    2    3    3    0    0  0.32347258421E+02  0.17103912412E+02 -0.41099268013E+01  0.54367075983E+02  0.39999981318E+02 0.  0.
        -12    1    3    3    0    0 -0.32347258421E+02 -0.17103912412E+02  0.41099268013E+01  0.36820924017E+02  0.00000000000E+00 0.  1.
         11    1    4    4    0    0  0.10596996595E+02  0.21219532862E+02  0.11117656200E+02  0.26194793211E+02  0.51100000000E-03 0. -1.
        -11    1    4    4    0    0  0.20182089375E+02 -0.10789820342E+01 -0.12208031762E+02  0.23611797339E+02  0.51100000000E-03 0.  1.
         12    1    4    4    0    0  0.15681724507E+01 -0.30366384159E+01 -0.30195512389E+01  0.45604854335E+01  0.00000000000E+00 0. -1.
</event>
<event>
 8    1  0.1265908E-006  0.9118800E+02  0.7816164E-02  0.1184000E+00
        -11   -1    0    0    0    0  0.00000000000E+00  0.00000000000E+00  0.45593999997E+02  0.45594000000E+02  0.51100000000E-03 0.  1.
         11   -1    0    0    0    0 -0.00000000000E+00 -0.00000000000E+00 -0.45593999997E+02  0.45594000000E+02  0.51100000000E-03 0. -1.
         23    2    1    2    0    0  0.00000000000E+00  0.88817841970E-15  0.71054273576E-14  0.91188000000E+02  0.91188000000E+02 0.  0.
    9900012    2    3    3    0    0  0.15741699311E+02 -0.79901536757E+01 -0.32313079012E+02  0.54367099302E+02  0.40000034479E+02 0.  0.
        -12    1    3    3    0    0 -0.15741699311E+02  0.79901536757E+01  0.32313079012E+02  0.36820900698E+02  0.00000000000E+00 0.  1.
         11    1    4    4    0    0  0.13007713611E+02 -0.17867639246E+02 -0.17204450298E+02  0.28007967722E+02  0.51100000000E-03 0. -1.
        -11    1    4    4    0    0  0.16529622888E+01  0.12758983363E+02 -0.21549021565E+01  0.13044828261E+02  0.51100000000E-03 0.  1.
        -12    1    4    4    0    0  0.10810234117E+01 -0.28814977926E+01 -0.12953726557E+02  0.13314303319E+02  0.00000000000E+00 0.  1.
</event>
<event>
 8    1  0.1265908E-006  0.9118800E+02  0.7816164E-02  0.1184000E+00
        -11   -1    0    0    0    0  0.00000000000E+00  0.00000000000E+00  0.45593999997E+02  0.45594000000E+02  0.51100000000E-03 0. -1.
         11   -1    0    0    0    0 -0.00000000000E+00 -0.00000000000E+00 -0.45593999997E+02  0.45594000000E+02  0.51100000000E-03 0.  1.
         23    2    1    2    0    0  0.00000000000E+00 -0.71054273576E-14  0.00000000000E+00  0.91188000000E+02  0.91188000000E+02 0.  0.
    9900012    2    3    3    0    0  0.18353560799E+02  0.19596744062E+02  0.25197098139E+02  0.54367091178E+02  0.40000015959E+02 0.  0.
        -12    1    3    3    0    0 -0.18353560799E+02 -0.19596744062E+02 -0.25197098139E+02  0.36820908822E+02  0.00000000000E+00 0.  1.
         11    1    4    4    0    0  0.94760428679E+01 -0.25865161566E+01  0.26048803361E+02  0.27839281798E+02  0.51100000000E-03 0. -1.
        -11    1    4    4    0    0  0.61039918963E+01  0.16275731438E+02  0.46478849454E+01  0.17993359487E+02  0.51100000000E-03 0.  1.
         12    1    4    4    0    0  0.27735260353E+01  0.59075287812E+01 -0.54995901672E+01  0.85344498931E+01  0.00000000000E+00 0. -1.
</event>
<event>
 8    1  0.1265908E-006  0.9118800E+02  0.7816164E-02  0.1184000E+00
        -11   -1    0    0    0    0  0.00000000000E+00  0.00000000000E+00  0.45593999997E+02  0.45594000000E+02  0.51100000000E-03 0. -1.
         11   -1    0    0    0    0 -0.00000000000E+00 -0.00000000000E+00 -0.45593999997E+02  0.45594000000E+02  0.51100000000E-03 0.  1.
         23    2    1    2    0    0 -0.88817841970E-15 -0.53290705182E-14  0.00000000000E+00  0.91188000000E+02  0.91188000000E+02 0.  0.
    9900012    2    3    3    0    0  0.63855771786E+01  0.10539737496E+02  0.34697746670E+02  0.54366874456E+02  0.39999521893E+02 0.  0.
        -12    1    3    3    0    0 -0.63855771786E+01 -0.10539737496E+02 -0.34697746670E+02  0.36821125544E+02  0.00000000000E+00 0.  1.
         11    1    4    4    0    0 -0.73566639465E+01  0.67500636561E+01  0.21631481858E+02  0.23824459520E+02  0.51100000000E-03 0. -1.
        -11    1    4    4    0    0  0.79363051417E+01 -0.55275841354E+01  0.16425859632E+02  0.19061689080E+02  0.51100000000E-03 0.  1.
        -12    1    4    4    0    0  0.58059359833E+01  0.93172579755E+01 -0.33595948197E+01  0.11480725856E+02  0.00000000000E+00 0.  1.
</event>
<event>
 8    1  0.1265908E-006  0.9118800E+02  0.7816164E-02  0.1184000E+00
        -11   -1    0    0    0    0  0.00000000000E+00  0.00000000000E+00  0.45593999997E+02  0.45594000000E+02  0.51100000000E-03 0.  1.
         11   -1    0    0    0    0 -0.00000000000E+00 -0.00000000000E+00 -0.45593999997E+02  0.45594000000E+02  0.51100000000E-03 0. -1.
         23    2    1    2    0    0 -0.35527136788E-14  0.00000000000E+00  0.00000000000E+00  0.91188000000E+02  0.91188000000E+02 0.  0.
    9900012    2    3    3    0    0 -0.24485244107E+02  0.24659187410E+02 -0.12172771021E+02  0.54367094837E+02  0.40000024300E+02 0.  0.
        -12    1    3    3    0    0  0.24485244107E+02 -0.24659187410E+02  0.12172771021E+02  0.36820905163E+02  0.00000000000E+00 0.  1.
         11    1    4    4    0    0  0.24240438791E+01  0.19376573123E+02 -0.15134875513E+02  0.24706113247E+02  0.51100000000E-03 0. -1.
        -11    1    4    4    0    0 -0.73860474791E+01  0.53400610247E+01  0.43285207629E+01  0.10089897986E+02  0.51100000000E-03 0.  1.
        -12    1    4    4    0    0 -0.19523240507E+02 -0.57446737886E-01 -0.13664162709E+01  0.19571083604E+02  0.00000000000E+00 0.  1.
</event>
<event>
 8    1  0.1265908E-006  0.9118800E+02  0.7816164E-02  0.1184000E+00
        -11   -1    0    0    0    0  0.00000000000E+00  0.00000000000E+00  0.45593999997E+02  0.45594000000E+02  0.51100000000E-03 0.  1.
         11   -1    0    0    0    0 -0.00000000000E+00 -0.00000000000E+00 -0.45593999997E+02  0.45594000000E+02  0.51100000000E-03 0. -1.
         23    2    1    2    0    0  0.00000000000E+00  0.00000000000E+00  0.88817841970E-15  0.91188000000E+02  0.91188000000E+02 0.  0.
    9900012    2    3    3    0    0 -0.16878537516E+02 -0.32689931321E+02  0.15044300929E+01  0.54367082734E+02  0.39999996708E+02 0.  0.
        -12    1    3    3    0    0  0.16878537516E+02  0.32689931321E+02 -0.15044300929E+01  0.36820917266E+02  0.00000000000E+00 0.  1.
         11    1    4    4    0    0 -0.24190171127E+01  0.64816183286E+00 -0.71348298110E+01  0.75615841096E+01  0.51100000000E-03 0. -1.
        -11    1    4    4    0    0 -0.12263746143E+02 -0.63970631160E+01 -0.70780459233E+01  0.15537716059E+02  0.51100000000E-03 0.  1.
         12    1    4    4    0    0 -0.21957742607E+01 -0.26941030037E+02  0.15717305827E+02  0.31267782565E+02  0.00000000000E+00 0. -1.
</event>
<event>
 8    1  0.1265908E-006  0.9118800E+02  0.7816164E-02  0.1184000E+00
        -11   -1    0    0    0    0  0.00000000000E+00  0.00000000000E+00  0.45593999997E+02  0.45594000000E+02  0.51100000000E-03 0.  1.
         11   -1    0    0    0    0 -0.00000000000E+00 -0.00000000000E+00 -0.45593999997E+02  0.45594000000E+02  0.51100000000E-03 0. -1.
         23    2    1    2    0    0  0.00000000000E+00  0.17763568394E-14 -0.71054273576E-14  0.91188000000E+02  0.91188000000E+02 0.  0.
    9900012    2    3    3    0    0  0.18401705792E+02  0.97550122421E+01 -0.30364405146E+02  0.54367080134E+02  0.39999990781E+02 0.  0.
        -12    1    3    3    0    0 -0.18401705792E+02 -0.97550122421E+01  0.30364405146E+02  0.36820919866E+02  0.00000000000E+00 0.  1.
         11    1    4    4    0    0  0.31406895752E+01  0.12188724586E+02 -0.16134620436E+02  0.20463502020E+02  0.51100000000E-03 0. -1.
        -11    1    4    4    0    0  0.99537852373E+01 -0.17856902869E+01  0.68120716146E+01  0.12193065664E+02  0.51100000000E-03 0.  1.
        -12    1    4    4    0    0  0.53072309798E+01 -0.64802205666E+00 -0.21041856324E+02  0.21710512450E+02  0.00000000000E+00 0.  1.
</event>
<event>
 8    1  0.1265908E-006  0.9118800E+02  0.7816164E-02  0.1184000E+00
        -11   -1    0    0    0    0  0.00000000000E+00  0.00000000000E+00  0.45593999997E+02  0.45594000000E+02  0.51100000000E-03 0.  1.
         11   -1    0    0    0    0 -0.00000000000E+00 -0.00000000000E+00 -0.45593999997E+02  0.45594000000E+02  0.51100000000E-03 0. -1.
         23    2    1    2    0    0  0.00000000000E+00  0.99920072216E-15 -0.17763568394E-14  0.91188000000E+02  0.91188000000E+02 0.  0.
    9900012    2    3    3    0    0  0.36741049916E+02  0.40338002667E+00 -0.23902081397E+01  0.54367074437E+02  0.39999977794E+02 0.  0.
         12    1    3    3    0    0 -0.36741049916E+02 -0.40338002667E+00  0.23902081397E+01  0.36820925563E+02  0.00000000000E+00 0. -1.
         11    1    4    4    0    0  0.11832699176E+02  0.96932458489E+01 -0.11378998912E+02  0.19064453870E+02  0.51100000000E-03 0. -1.
        -11    1    4    4    0    0  0.25364283591E+02 -0.88813484137E+01  0.58915446865E+00  0.26880705626E+02  0.51100000000E-03 0.  1.
         12    1    4    4    0    0 -0.45593285121E+00 -0.40851740850E+00  0.83996363032E+01  0.84219149404E+01  0.00000000000E+00 0. -1.
</event>
<event>
 8    1  0.1265908E-006  0.9118800E+02  0.7816164E-02  0.1184000E+00
        -11   -1    0    0    0    0  0.00000000000E+00  0.00000000000E+00  0.45593999997E+02  0.45594000000E+02  0.51100000000E-03 0.  1.
         11   -1    0    0    0    0 -0.00000000000E+00 -0.00000000000E+00 -0.45593999997E+02  0.45594000000E+02  0.51100000000E-03 0. -1.
         23    2    1    2    0    0  0.00000000000E+00  0.00000000000E+00 -0.44408920985E-15  0.91188000000E+02  0.91188000000E+02 0.  0.
    9900012    2    3    3    0    0 -0.23972260429E+02 -0.27848304937E+02 -0.23637636409E+01  0.54367017714E+02  0.39999848482E+02 0.  0.
         12    1    3    3    0    0  0.23972260429E+02  0.27848304937E+02  0.23637636409E+01  0.36820982286E+02  0.00000000000E+00 0. -1.
         11    1    4    4    0    0 -0.43629353860E+01 -0.28272584917E+02 -0.41907220307E+01  0.28912564993E+02  0.51100000000E-03 0. -1.
        -11    1    4    4    0    0 -0.11053443357E+02  0.22209015252E+01  0.87753989978E+01  0.14287009535E+02  0.51100000000E-03 0.  1.
         12    1    4    4    0    0 -0.85558816868E+01 -0.17966215453E+01 -0.69484406080E+01  0.11167443185E+02  0.00000000000E+00 0. -1.
</event>
<event>
 8    1  0.1265908E-006  0.9118800E+02  0.7816164E-02  0.1184000E+00
        -11   -1    0    0    0    0  0.00000000000E+00  0.00000000000E+00  0.45593999997E+02  0.45594000000E+02  0.51100000000E-03 0.  1.
         11   -1    0    0    0    0 -0.00000000000E+00 -0.00000000000E+00 -0.45593999997E+02  0.45594000000E+02  0.51100000000E-03 0. -1.
         23    2    1    2    0    0 -0.35527136788E-14  0.00000000000E+00  0.35527136788E-14  0.91188000000E+02  0.91188000000E+02 0.  0.
    9900012    2    3    3    0    0 -0.17026633575E+02 -0.24222167515E+02 -0.21889519842E+02  0.54367207926E+02  0.40000282109E+02 0.  0.
        -12    1    3    3    0    0  0.17026633575E+02  0.24222167515E+02  0.21889519842E+02  0.36820792074E+02  0.00000000000E+00 0.  1.
         11    1    4    4    0    0 -0.10024982007E+02 -0.72904530143E+01 -0.67353345280E+01  0.14107292471E+02  0.51100000000E-03 0. -1.
        -11    1    4    4    0    0  0.92105788079E+01 -0.10686757100E+02 -0.17771230657E+02  0.22690486522E+02  0.51100000000E-03 0.  1.
        -12    1    4    4    0    0 -0.16212230376E+02 -0.62449574010E+01  0.26170453437E+01  0.17569428933E+02  0.00000000000E+00 0.  1.
</event>
<event>
 8    1  0.1265908E-006  0.9118800E+02  0.7816164E-02  0.1184000E+00
        -11   -1    0    0    0    0  0.00000000000E+00  0.00000000000E+00  0.45593999997E+02  0.45594000000E+02  0.51100000000E-03 0. -1.
         11   -1    0    0    0    0 -0.00000000000E+00 -0.00000000000E+00 -0.45593999997E+02  0.45594000000E+02  0.51100000000E-03 0.  1.
         23    2    1    2    0    0  0.00000000000E+00  0.00000000000E+00  0.35527136788E-14  0.91188000000E+02  0.91188000000E+02 0.  0.
    9900012    2    3    3    0    0 -0.17618298497E+02  0.22385058189E+02 -0.23329905486E+02  0.54367085263E+02  0.40000002475E+02 0.  0.
         12    1    3    3    0    0  0.17618298497E+02 -0.22385058189E+02  0.23329905486E+02  0.36820914737E+02  0.00000000000E+00 0. -1.
         11    1    4    4    0    0 -0.14038199134E+02  0.99662682505E+01  0.80581845287E+01  0.19008731571E+02  0.51100000000E-03 0. -1.
        -11    1    4    4    0    0 -0.14534247781E+01  0.13705747611E+02 -0.26121038856E+02  0.29534194289E+02  0.51100000000E-03 0.  1.
         12    1    4    4    0    0 -0.21266745847E+01 -0.12869576726E+01 -0.52670511593E+01  0.58241594033E+01  0.00000000000E+00 0. -1.
</event>
<event>
 8    1  0.1265908E-006  0.9118800E+02  0.7816164E-02  0.1184000E+00
        -11   -1    0    0    0    0  0.00000000000E+00  0.00000000000E+00  0.45593999997E+02  0.45594000000E+02  0.51100000000E-03 0.  1.
         11   -1    0    0    0    0 -0.00000000000E+00 -0.00000000000E+00 -0.45593999997E+02  0.45594000000E+02  0.51100000000E-03 0. -1.
         23    2    1    2    0    0  0.00000000000E+00  0.00000000000E+00  0.00000000000E+00  0.91188000000E+02  0.91188000000E+02 0.  0.
    9900012    2    3    3    0    0  0.14873421824E+02 -0.25290123467E+02  0.22247949977E+02  0.54367077960E+02  0.39999985824E+02 0.  0.
         12    1    3    3    0    0 -0.14873421824E+02  0.25290123467E+02 -0.22247949977E+02  0.36820922040E+02  0.00000000000E+00 0. -1.
         11    1    4    4    0    0  0.86483612358E+01  0.20598005796E+01  0.62024919445E+01  0.10840103186E+02  0.51100000000E-03 0. -1.
        -11    1    4    4    0    0 -0.37324667287E+01 -0.28528922488E+02  0.61149846618E+01  0.29414686194E+02  0.51100000000E-03 0.  1.
        -12    1    4    4    0    0  0.99575273170E+01  0.11789984417E+01  0.99304733708E+01  0.14112288580E+02  0.00000000000E+00 0.  1.
</event>
<event>
 8    1  0.1265908E-006  0.9118800E+02  0.7816164E-02  0.1184000E+00
        -11   -1    0    0    0    0  0.00000000000E+00  0.00000000000E+00  0.45593999997E+02  0.45594000000E+02  0.51100000000E-03 0.  1.
         11   -1    0    0    0    0 -0.00000000000E+00 -0.00000000000E+00 -0.45593999997E+02  0.45594000000E+02  0.51100000000E-03 0. -1.
         23    2    1    2    0    0  0.00000000000E+00 -0.88817841970E-15  0.00000000000E+00  0.91188000000E+02  0.91188000000E+02 0.  0.
    9900012    2    3    3    0    0  0.19670464385E+02 -0.54411039490E+01  0.30647145888E+02  0.54367077518E+02  0.39999984817E+02 0.  0.
         12    1    3    3    0    0 -0.19670464385E+02  0.54411039490E+01 -0.30647145888E+02  0.36820922482E+02  0.00000000000E+00 0. -1.
         11    1    4    4    0    0 -0.62194585221E+01  0.72631456482E+01  0.94723864379E+01  0.13459608245E+02  0.51100000000E-03 0. -1.
        -11    1    4    4    0    0  0.16047215745E+02 -0.13721954721E+02  0.46088650074E+01  0.21611265845E+02  0.51100000000E-03 0.  1.
        -12    1    4    4    0    0  0.98427071629E+01  0.10177051238E+01  0.16565894443E+02  0.19296203427E+02  0.00000000000E+00 0.  1.
</event>
<event>
 8    1  0.1265908E-006  0.9118800E+02  0.7816164E-02  0.1184000E+00
        -11   -1    0    0    0    0  0.00000000000E+00  0.00000000000E+00  0.45593999997E+02  0.45594000000E+02  0.51100000000E-03 0. -1.
         11   -1    0    0    0    0 -0.00000000000E+00 -0.00000000000E+00 -0.45593999997E+02  0.45594000000E+02  0.51100000000E-03 0.  1.
         23    2    1    2    0    0 -0.35527136788E-14 -0.17763568394E-14  0.00000000000E+00  0.91188000000E+02  0.91188000000E+02 0.  0.
    9900012    2    3    3    0    0  0.29649743667E+02  0.89472829407E+01  0.19915301974E+02  0.54367076271E+02  0.39999981975E+02 0.  0.
        -12    1    3    3    0    0 -0.29649743667E+02 -0.89472829407E+01 -0.19915301974E+02  0.36820923729E+02  0.00000000000E+00 0.  1.
         11    1    4    4    0    0  0.20238605798E+02  0.29472264364E+01  0.86312237330E+00  0.20470278181E+02  0.51100000000E-03 0. -1.
        -11    1    4    4    0    0 -0.52137484186E+01  0.11045717174E+02  0.57794411547E+01  0.13512697021E+02  0.51100000000E-03 0.  1.
        -12    1    4    4    0    0  0.14624886287E+02 -0.50456606698E+01  0.13272738446E+02  0.20384101069E+02  0.00000000000E+00 0.  1.
</event>
<event>
 8    1  0.1265908E-006  0.9118800E+02  0.7816164E-02  0.1184000E+00
        -11   -1    0    0    0    0  0.00000000000E+00  0.00000000000E+00  0.45593999997E+02  0.45594000000E+02  0.51100000000E-03 0. -1.
         11   -1    0    0    0    0 -0.00000000000E+00 -0.00000000000E+00 -0.45593999997E+02  0.45594000000E+02  0.51100000000E-03 0.  1.
         23    2    1    2    0    0  0.00000000000E+00  0.35527136788E-14  0.35527136788E-14  0.91188000000E+02  0.91188000000E+02 0.  0.
    9900012    2    3    3    0    0 -0.20310896175E+02 -0.20517231050E+02 -0.22853672613E+02  0.54367087121E+02  0.40000006709E+02 0.  0.
         12    1    3    3    0    0  0.20310896175E+02  0.20517231050E+02  0.22853672613E+02  0.36820912879E+02  0.00000000000E+00 0. -1.
         11    1    4    4    0    0 -0.19763616922E+02 -0.18728732572E+02 -0.10337516080E+02  0.29124392124E+02  0.51100000000E-03 0. -1.
        -11    1    4    4    0    0  0.40333810404E+01  0.55462224329E+01  0.29954851019E+01  0.74834268320E+01  0.51100000000E-03 0.  1.
        -12    1    4    4    0    0 -0.45806602929E+01 -0.73347209110E+01 -0.15511641635E+02  0.17759268165E+02  0.00000000000E+00 0.  1.
</event>
<event>
 8    1  0.1265908E-006  0.9118800E+02  0.7816164E-02  0.1184000E+00
        -11   -1    0    0    0    0  0.00000000000E+00  0.00000000000E+00  0.45593999997E+02  0.45594000000E+02  0.51100000000E-03 0.  1.
         11   -1    0    0    0    0 -0.00000000000E+00 -0.00000000000E+00 -0.45593999997E+02  0.45594000000E+02  0.51100000000E-03 0. -1.
         23    2    1    2    0    0  0.35527136788E-14 -0.35527136788E-14 -0.71054273576E-14  0.91188000000E+02  0.91188000000E+02 0.  0.
    9900012    2    3    3    0    0  0.14049658256E+02 -0.12550716181E+02 -0.31636477649E+02  0.54367080785E+02  0.39999992266E+02 0.  0.
        -12    1    3    3    0    0 -0.14049658256E+02  0.12550716181E+02  0.31636477649E+02  0.36820919215E+02  0.00000000000E+00 0.  1.
         11    1    4    4    0    0  0.90662044271E+00 -0.98102665698E+01 -0.39670255150E+01  0.10620761860E+02  0.51100000000E-03 0. -1.
        -11    1    4    4    0    0  0.14130041067E+02 -0.56245230189E+00  0.17327930013E+01  0.14246999158E+02  0.51100000000E-03 0.  1.
         12    1    4    4    0    0 -0.98700325420E+00 -0.21779973094E+01 -0.29402245136E+02  0.29499319767E+02  0.00000000000E+00 0. -1.
</event>
<event>
 8    1  0.1265908E-006  0.9118800E+02  0.7816164E-02  0.1184000E+00
        -11   -1    0    0    0    0  0.00000000000E+00  0.00000000000E+00  0.45593999997E+02  0.45594000000E+02  0.51100000000E-03 0. -1.
         11   -1    0    0    0    0 -0.00000000000E+00 -0.00000000000E+00 -0.45593999997E+02  0.45594000000E+02  0.51100000000E-03 0.  1.
         23    2    1    2    0    0  0.17763568394E-14  0.17763568394E-14  0.00000000000E+00  0.91188000000E+02  0.91188000000E+02 0.  0.
    9900012    2    3    3    0    0  0.18934824921E+01 -0.10144953411E+02 -0.35345075639E+02  0.54367085731E+02  0.40000003542E+02 0.  0.
         12    1    3    3    0    0 -0.18934824921E+01  0.10144953411E+02  0.35345075639E+02  0.36820914269E+02  0.00000000000E+00 0. -1.
         11    1    4    4    0    0 -0.13289928053E+02  0.10873117061E+00 -0.12804809379E+01  0.13351915286E+02  0.51100000000E-03 0. -1.
        -11    1    4    4    0    0  0.47105780168E+01 -0.25855533374E+01 -0.23989241370E+02  0.24583700557E+02  0.51100000000E-03 0.  1.
         12    1    4    4    0    0  0.10472832528E+02 -0.76681312443E+01 -0.10075353331E+02  0.16431469888E+02  0.00000000000E+00 0. -1.
</event>
<event>
 8    1  0.1265908E-006  0.9118800E+02  0.7816164E-02  0.1184000E+00
        -11   -1    0    0    0    0  0.00000000000E+00  0.00000000000E+00  0.45593999997E+02  0.45594000000E+02  0.51100000000E-03 0. -1.
         11   -1    0    0    0    0 -0.00000000000E+00 -0.00000000000E+00 -0.45593999997E+02  0.45594000000E+02  0.51100000000E-03 0.  1.
         23    2    1    2    0    0 -0.17763568394E-14  0.00000000000E+00  0.00000000000E+00  0.91188000000E+02  0.91188000000E+02 0.  0.
    9900012    2    3    3    0    0 -0.40422940400E+01  0.30928268589E+02  0.19567397198E+02  0.54367068832E+02  0.39999965016E+02 0.  0.
        -12    1    3    3    0    0  0.40422940400E+01 -0.30928268589E+02 -0.19567397198E+02  0.36820931168E+02  0.00000000000E+00 0.  1.
         11    1    4    4    0    0 -0.16800210884E+02  0.23088131217E+02  0.24279465712E+00  0.28554646528E+02  0.51100000000E-03 0. -1.
        -11    1    4    4    0    0  0.11237198383E+02  0.47185900237E+01  0.18643867999E+02  0.22274055166E+02  0.51100000000E-03 0.  1.
        -12    1    4    4    0    0  0.15207184618E+01  0.31215473477E+01  0.68073454193E+00  0.35383671376E+01  0.00000000000E+00 0.  1.
</event>
<event>
 8    1  0.1265908E-006  0.9118800E+02  0.7816164E-02  0.1184000E+00
        -11   -1    0    0    0    0  0.00000000000E+00  0.00000000000E+00  0.45593999997E+02  0.45594000000E+02  0.51100000000E-03 0. -1.
         11   -1    0    0    0    0 -0.00000000000E+00 -0.00000000000E+00 -0.45593999997E+02  0.45594000000E+02  0.51100000000E-03 0.  1.
         23    2    1    2    0    0 -0.17763568394E-14  0.00000000000E+00  0.00000000000E+00  0.91188000000E+02  0.91188000000E+02 0.  0.
    9900012    2    3    3    0    0  0.83183705817E+01  0.93569437566E+01  0.34626967814E+02  0.54367155555E+02  0.40000162719E+02 0.  0.
        -12    1    3    3    0    0 -0.83183705817E+01 -0.93569437566E+01 -0.34626967814E+02  0.36820844445E+02  0.00000000000E+00 0.  1.
         11    1    4    4    0    0  0.21473045160E+02  0.16320963470E+01  0.24041938837E+02  0.32276465578E+02  0.51100000000E-03 0. -1.
        -11    1    4    4    0    0 -0.86051375173E+01  0.69917434581E+01  0.61190310376E+00  0.11104381745E+02  0.51100000000E-03 0.  1.
         12    1    4    4    0    0 -0.45495370607E+01  0.73310395147E+00  0.99731258741E+01  0.10986308232E+02  0.00000000000E+00 0. -1.
</event>
<event>
 8    1  0.1265908E-006  0.9118800E+02  0.7816164E-02  0.1184000E+00
        -11   -1    0    0    0    0  0.00000000000E+00  0.00000000000E+00  0.45593999997E+02  0.45594000000E+02  0.51100000000E-03 0.  1.
         11   -1    0    0    0    0 -0.00000000000E+00 -0.00000000000E+00 -0.45593999997E+02  0.45594000000E+02  0.51100000000E-03 0. -1.
         23    2    1    2    0    0 -0.35527136788E-14  0.35527136788E-14  0.17763568394E-14  0.91188000000E+02  0.91188000000E+02 0.  0.
    9900012    2    3    3    0    0  0.31968960634E+02 -0.16123260537E+02  0.85910347154E+01  0.54367084044E+02  0.39999999695E+02 0.  0.
        -12    1    3    3    0    0 -0.31968960634E+02  0.16123260537E+02 -0.85910347154E+01  0.36820915956E+02  0.00000000000E+00 0.  1.
         11    1    4    4    0    0  0.14367397368E+02  0.97721484148E+00 -0.18174882214E+01  0.14514831025E+02  0.51100000000E-03 0. -1.
        -11    1    4    4    0    0  0.86399617168E+01  0.77717725771E+01  0.54205776688E+00  0.11633710257E+02  0.51100000000E-03 0.  1.
        -12    1    4    4    0    0  0.89616015487E+01 -0.24872247956E+02  0.98664651699E+01  0.28218542763E+02  0.00000000000E+00 0.  1.
</event>
<event>
 8    1  0.1265908E-006  0.9118800E+02  0.7816164E-02  0.1184000E+00
        -11   -1    0    0    0    0  0.00000000000E+00  0.00000000000E+00  0.45593999997E+02  0.45594000000E+02  0.51100000000E-03 0.  1.
         11   -1    0    0    0    0 -0.00000000000E+00 -0.00000000000E+00 -0.45593999997E+02  0.45594000000E+02  0.51100000000E-03 0. -1.
         23    2    1    2    0    0  0.00000000000E+00  0.00000000000E+00  0.00000000000E+00  0.91188000000E+02  0.91188000000E+02 0.  0.
    9900012    2    3    3    0    0  0.24925954935E+02  0.76456133958E+01 -0.26000436782E+02  0.54367063748E+02  0.39999953427E+02 0.  0.
        -12    1    3    3    0    0 -0.24925954935E+02 -0.76456133958E+01  0.26000436782E+02  0.36820936252E+02  0.00000000000E+00 0.  1.
         11    1    4    4    0    0  0.15158603277E+02 -0.54774800155E-01 -0.99766668169E+01  0.18147179798E+02  0.51100000000E-03 0. -1.
        -11    1    4    4    0    0 -0.10784680197E+02  0.19726994766E+01 -0.72909820492E+01  0.13166597498E+02  0.51100000000E-03 0.  1.
        -12    1    4    4    0    0  0.20552031855E+02  0.57276887194E+01 -0.87327879160E+01  0.23053286451E+02  0.00000000000E+00 0.  1.
</event>
<event>
 8    1  0.1265908E-006  0.9118800E+02  0.7816164E-02  0.1184000E+00
        -11   -1    0    0    0    0  0.00000000000E+00  0.00000000000E+00  0.45593999997E+02  0.45594000000E+02  0.51100000000E-03 0. -1.
         11   -1    0    0    0    0 -0.00000000000E+00 -0.00000000000E+00 -0.45593999997E+02  0.45594000000E+02  0.51100000000E-03 0.  1.
         23    2    1    2    0    0  0.35527136788E-14 -0.35527136788E-14  0.00000000000E+00  0.91188000000E+02  0.91188000000E+02 0.  0.
    9900012    2    3    3    0    0  0.28280795298E+02 -0.19352287135E+02 -0.13470973624E+02  0.54367061250E+02  0.39999947732E+02 0.  0.
         12    1    3    3    0    0 -0.28280795298E+02  0.19352287135E+02  0.13470973624E+02  0.36820938750E+02  0.00000000000E+00 0. -1.
         11    1    4    4    0    0  0.16275969622E+01 -0.11297545457E+02 -0.12631446605E+02  0.17024601282E+02  0.51100000000E-03 0. -1.
        -11    1    4    4    0    0  0.28839313865E+02 -0.81932763275E+01 -0.70146939322E+01  0.30790286332E+02  0.51100000000E-03 0.  1.
         12    1    4    4    0    0 -0.21861155290E+01  0.13853464900E+00  0.61751669132E+01  0.65521736363E+01  0.00000000000E+00 0. -1.
</event>
<event>
 8    1  0.1265908E-006  0.9118800E+02  0.7816164E-02  0.1184000E+00
        -11   -1    0    0    0    0  0.00000000000E+00  0.00000000000E+00  0.45593999997E+02  0.45594000000E+02  0.51100000000E-03 0. -1.
         11   -1    0    0    0    0 -0.00000000000E+00 -0.00000000000E+00 -0.45593999997E+02  0.45594000000E+02  0.51100000000E-03 0.  1.
         23    2    1    2    0    0  0.00000000000E+00  0.00000000000E+00  0.00000000000E+00  0.91188000000E+02  0.91188000000E+02 0.  0.
    9900012    2    3    3    0    0  0.91983700294E+01 -0.35424292806E+02  0.40360339536E+01  0.54367080646E+02  0.39999991949E+02 0.  0.
         12    1    3    3    0    0 -0.91983700294E+01  0.35424292806E+02 -0.40360339536E+01  0.36820919354E+02  0.00000000000E+00 0. -1.
         11    1    4    4    0    0  0.96249464118E+01 -0.15812130536E+02  0.77939485985E+01  0.20085036732E+02  0.51100000000E-03 0.  1.
        -11    1    4    4    0    0 -0.14095432508E+02 -0.85116790439E+01 -0.19444352620E+01  0.16580432035E+02  0.51100000000E-03 0. -1.
        -12    1    4    4    0    0  0.13668856125E+02 -0.11100483226E+02 -0.18134793829E+01  0.17701611879E+02  0.00000000000E+00 0.  1.
</event>
<event>
 8    1  0.1265908E-006  0.9118800E+02  0.7816164E-02  0.1184000E+00
        -11   -1    0    0    0    0  0.00000000000E+00  0.00000000000E+00  0.45593999997E+02  0.45594000000E+02  0.51100000000E-03 0. -1.
         11   -1    0    0    0    0 -0.00000000000E+00 -0.00000000000E+00 -0.45593999997E+02  0.45594000000E+02  0.51100000000E-03 0.  1.
         23    2    1    2    0    0  0.17763568394E-14  0.00000000000E+00  0.17763568394E-14  0.91188000000E+02  0.91188000000E+02 0.  0.
    9900012    2    3    3    0    0  0.99506263186E+01 -0.32011446314E+02  0.15232630983E+02  0.54367072446E+02  0.39999973255E+02 0.  0.
        -12    1    3    3    0    0 -0.99506263186E+01  0.32011446314E+02 -0.15232630983E+02  0.36820927554E+02  0.00000000000E+00 0.  1.
         11    1    4    4    0    0  0.65497576651E+00  0.24772223115E+01  0.81289467081E+01  0.85232269992E+01  0.51100000000E-03 0. -1.
        -11    1    4    4    0    0  0.12483811976E+02 -0.10599411377E+02 -0.71212956406E+01  0.17857937586E+02  0.51100000000E-03 0.  1.
         12    1    4    4    0    0 -0.31881614234E+01 -0.23889257249E+02  0.14224979916E+02  0.27985907861E+02  0.00000000000E+00 0. -1.
</event>
<event>
 8    1  0.1265908E-006  0.9118800E+02  0.7816164E-02  0.1184000E+00
        -11   -1    0    0    0    0  0.00000000000E+00  0.00000000000E+00  0.45593999997E+02  0.45594000000E+02  0.51100000000E-03 0. -1.
         11   -1    0    0    0    0 -0.00000000000E+00 -0.00000000000E+00 -0.45593999997E+02  0.45594000000E+02  0.51100000000E-03 0.  1.
         23    2    1    2    0    0  0.00000000000E+00  0.00000000000E+00  0.99920072216E-15  0.91188000000E+02  0.91188000000E+02 0.  0.
    9900012    2    3    3    0    0  0.35908540007E+02 -0.80901358498E+01  0.95229170710E+00  0.54367076560E+02  0.39999982633E+02 0.  0.
         12    1    3    3    0    0 -0.35908540007E+02  0.80901358498E+01 -0.95229170710E+00  0.36820923440E+02  0.00000000000E+00 0. -1.
         11    1    4    4    0    0  0.35500924693E+01 -0.81643413250E+01  0.65694578979E+01  0.11064239836E+02  0.51100000000E-03 0. -1.
        -11    1    4    4    0    0  0.52900148780E+01 -0.11677057969E+02 -0.50785017362E+01  0.13788731645E+02  0.51100000000E-03 0.  1.
         12    1    4    4    0    0  0.27068432660E+02  0.11751263445E+02 -0.53866445456E+00  0.29514105079E+02  0.00000000000E+00 0. -1.
</event>
<event>
 8    1  0.1265908E-006  0.9118800E+02  0.7816164E-02  0.1184000E+00
        -11   -1    0    0    0    0  0.00000000000E+00  0.00000000000E+00  0.45593999997E+02  0.45594000000E+02  0.51100000000E-03 0. -1.
         11   -1    0    0    0    0 -0.00000000000E+00 -0.00000000000E+00 -0.45593999997E+02  0.45594000000E+02  0.51100000000E-03 0.  1.
         23    2    1    2    0    0 -0.17763568394E-14  0.00000000000E+00 -0.71054273576E-14  0.91188000000E+02  0.91188000000E+02 0.  0.
    9900012    2    3    3    0    0 -0.95764912810E+01  0.12729870669E+02 -0.33196703496E+02  0.54367083179E+02  0.39999997724E+02 0.  0.
         12    1    3    3    0    0  0.95764912810E+01 -0.12729870669E+02  0.33196703496E+02  0.36820916821E+02  0.00000000000E+00 0. -1.
         11    1    4    4    0    0 -0.46710519412E+01 -0.10791383704E+01 -0.52733366782E+01  0.71268047428E+01  0.51100000000E-03 0. -1.
        -11    1    4    4    0    0 -0.14084942382E+02  0.11365243955E+02 -0.37738995784E+00  0.18102397507E+02  0.51100000000E-03 0.  1.
         12    1    4    4    0    0  0.91795030418E+01  0.24437650843E+01 -0.27545976860E+02  0.29137880930E+02  0.00000000000E+00 0. -1.
</event>
<event>
 8    1  0.1265908E-006  0.9118800E+02  0.7816164E-02  0.1184000E+00
        -11   -1    0    0    0    0  0.00000000000E+00  0.00000000000E+00  0.45593999997E+02  0.45594000000E+02  0.51100000000E-03 0.  1.
         11   -1    0    0    0    0 -0.00000000000E+00 -0.00000000000E+00 -0.45593999997E+02  0.45594000000E+02  0.51100000000E-03 0. -1.
         23    2    1    2    0    0  0.00000000000E+00  0.00000000000E+00  0.35527136788E-14  0.91188000000E+02  0.91188000000E+02 0.  0.
    9900012    2    3    3    0    0 -0.19243966332E+02  0.67147516733E+01 -0.30665503736E+02  0.54366929272E+02  0.39999646859E+02 0.  0.
        -12    1    3    3    0    0  0.19243966332E+02 -0.67147516733E+01  0.30665503736E+02  0.36821070728E+02  0.00000000000E+00 0.  1.
         11    1    4    4    0    0 -0.16998090952E+02  0.59722030854E+01 -0.15430545066E+01  0.18082680199E+02  0.51100000000E-03 0. -1.
        -11    1    4    4    0    0 -0.16205369907E+01 -0.33832218079E+01  0.24218330460E+01  0.44651545890E+01  0.51100000000E-03 0.  1.
         12    1    4    4    0    0 -0.62533838872E+00  0.41257703958E+01 -0.31544282275E+02  0.31819094483E+02  0.00000000000E+00 0. -1.
</event>
<event>
 8    1  0.1265908E-006  0.9118800E+02  0.7816164E-02  0.1184000E+00
        -11   -1    0    0    0    0  0.00000000000E+00  0.00000000000E+00  0.45593999997E+02  0.45594000000E+02  0.51100000000E-03 0.  1.
         11   -1    0    0    0    0 -0.00000000000E+00 -0.00000000000E+00 -0.45593999997E+02  0.45594000000E+02  0.51100000000E-03 0. -1.
         23    2    1    2    0    0  0.00000000000E+00 -0.35527136788E-14  0.35527136788E-14  0.91188000000E+02  0.91188000000E+02 0.  0.
    9900012    2    3    3    0    0  0.16269797176E+02 -0.22919334165E+02  0.23786065864E+02  0.54367094145E+02  0.40000022721E+02 0.  0.
         12    1    3    3    0    0 -0.16269797176E+02  0.22919334165E+02 -0.23786065864E+02  0.36820905855E+02  0.00000000000E+00 0. -1.
         11    1    4    4    0    0  0.58765891974E+01  0.29558294133E+01  0.13957618695E+02  0.15430046922E+02  0.51100000000E-03 0. -1.
        -11    1    4    4    0    0 -0.10085308426E+01  0.49497400200E+00  0.10143800413E+02  0.10205822887E+02  0.51100000000E-03 0.  1.
         12    1    4    4    0    0  0.11401738821E+02 -0.26370137581E+02 -0.31535324354E+00  0.28731224336E+02  0.00000000000E+00 0. -1.
</event>
<event>
 8    1  0.1265908E-006  0.9118800E+02  0.7816164E-02  0.1184000E+00
        -11   -1    0    0    0    0  0.00000000000E+00  0.00000000000E+00  0.45593999997E+02  0.45594000000E+02  0.51100000000E-03 0. -1.
         11   -1    0    0    0    0 -0.00000000000E+00 -0.00000000000E+00 -0.45593999997E+02  0.45594000000E+02  0.51100000000E-03 0.  1.
         23    2    1    2    0    0 -0.35527136788E-14  0.00000000000E+00  0.00000000000E+00  0.91188000000E+02  0.91188000000E+02 0.  0.
    9900012    2    3    3    0    0 -0.27507103324E+02  0.21919782622E+02 -0.10893300146E+02  0.54367060420E+02  0.39999945839E+02 0.  0.
         12    1    3    3    0    0  0.27507103324E+02 -0.21919782622E+02  0.10893300146E+02  0.36820939580E+02  0.00000000000E+00 0. -1.
         11    1    4    4    0    0  0.47337517665E+01  0.56662771211E+01 -0.64970065923E+01  0.98349477437E+01  0.51100000000E-03 0. -1.
        -11    1    4    4    0    0 -0.58565178958E+01  0.41282792468E+00 -0.11532737777E+02  0.12941146381E+02  0.51100000000E-03 0.  1.
         12    1    4    4    0    0 -0.26384337195E+02  0.15840677576E+02  0.71364442240E+01  0.31590966295E+02  0.00000000000E+00 0. -1.
</event>
<event>
 8    1  0.1265908E-006  0.9118800E+02  0.7816164E-02  0.1184000E+00
        -11   -1    0    0    0    0  0.00000000000E+00  0.00000000000E+00  0.45593999997E+02  0.45594000000E+02  0.51100000000E-03 0.  1.
         11   -1    0    0    0    0 -0.00000000000E+00 -0.00000000000E+00 -0.45593999997E+02  0.45594000000E+02  0.51100000000E-03 0. -1.
         23    2    1    2    0    0 -0.28449465006E-15  0.00000000000E+00 -0.71054273576E-14  0.91188000000E+02  0.91188000000E+02 0.  0.
    9900012    2    3    3    0    0 -0.42678603662E-01 -0.62772850218E+01 -0.36281855999E+02  0.54367092849E+02  0.40000019767E+02 0.  0.
        -12    1    3    3    0    0  0.42678603662E-01  0.62772850218E+01  0.36281855999E+02  0.36820907151E+02  0.00000000000E+00 0.  1.
         11    1    4    4    0    0 -0.13486916055E+02 -0.11027643904E+02 -0.11881325439E+02  0.21087240910E+02  0.51100000000E-03 0. -1.
        -11    1    4    4    0    0  0.37634474045E+00  0.78438668896E+01 -0.38885931804E+01  0.87629355999E+01  0.51100000000E-03 0.  1.
        -12    1    4    4    0    0  0.13067892711E+02 -0.30935080076E+01 -0.20511937380E+02  0.24516916339E+02  0.00000000000E+00 0.  1.
</event>
<event>
 8    1  0.1265908E-006  0.9118800E+02  0.7816164E-02  0.1184000E+00
        -11   -1    0    0    0    0  0.00000000000E+00  0.00000000000E+00  0.45593999997E+02  0.45594000000E+02  0.51100000000E-03 0.  1.
         11   -1    0    0    0    0 -0.00000000000E+00 -0.00000000000E+00 -0.45593999997E+02  0.45594000000E+02  0.51100000000E-03 0. -1.
         23    2    1    2    0    0 -0.71054273576E-14  0.88817841970E-15  0.00000000000E+00  0.91188000000E+02  0.91188000000E+02 0.  0.
    9900012    2    3    3    0    0 -0.30349583254E+02  0.84942403421E+00 -0.20831734173E+02  0.54367083749E+02  0.39999999023E+02 0.  0.
        -12    1    3    3    0    0  0.30349583254E+02 -0.84942403421E+00  0.20831734173E+02  0.36820916251E+02  0.00000000000E+00 0.  1.
         11    1    4    4    0    0  0.59800951660E+00  0.31775435733E+01  0.48472390180E+01  0.58266735709E+01  0.51100000000E-03 0. -1.
        -11    1    4    4    0    0 -0.22583130131E+01  0.86044505239E+01 -0.11978508836E+02  0.14920496663E+02  0.51100000000E-03 0.  1.
         12    1    4    4    0    0 -0.28689279758E+02 -0.10932570063E+02 -0.13700464356E+02  0.33619913515E+02  0.00000000000E+00 0. -1.
</event>
<event>
 8    1  0.1265908E-006  0.9118800E+02  0.7816164E-02  0.1184000E+00
        -11   -1    0    0    0    0  0.00000000000E+00  0.00000000000E+00  0.45593999997E+02  0.45594000000E+02  0.51100000000E-03 0.  1.
         11   -1    0    0    0    0 -0.00000000000E+00 -0.00000000000E+00 -0.45593999997E+02  0.45594000000E+02  0.51100000000E-03 0. -1.
         23    2    1    2    0    0  0.00000000000E+00  0.88817841970E-15  0.00000000000E+00  0.91188000000E+02  0.91188000000E+02 0.  0.
    9900012    2    3    3    0    0  0.27805361388E+02  0.76274409908E+01 -0.22901237473E+02  0.54367045969E+02  0.39999912896E+02 0.  0.
        -12    1    3    3    0    0 -0.27805361388E+02 -0.76274409908E+01  0.22901237473E+02  0.36820954031E+02  0.00000000000E+00 0.  1.
         11    1    4    4    0    0  0.18117243882E+02  0.79900482367E+01 -0.25135818774E+02  0.31998199675E+02  0.51100000000E-03 0. -1.
        -11    1    4    4    0    0 -0.32745881619E+01 -0.63279733650E+01  0.36926786333E+01  0.80250888025E+01  0.51100000000E-03 0.  1.
         12    1    4    4    0    0  0.12962705667E+02  0.59653661192E+01 -0.14580973317E+01  0.14343757492E+02  0.00000000000E+00 0. -1.
</event>
<event>
 8    1  0.1265908E-006  0.9118800E+02  0.7816164E-02  0.1184000E+00
        -11   -1    0    0    0    0  0.00000000000E+00  0.00000000000E+00  0.45593999997E+02  0.45594000000E+02  0.51100000000E-03 0. -1.
         11   -1    0    0    0    0 -0.00000000000E+00 -0.00000000000E+00 -0.45593999997E+02  0.45594000000E+02  0.51100000000E-03 0.  1.
         23    2    1    2    0    0  0.00000000000E+00  0.00000000000E+00 -0.71054273576E-14  0.91188000000E+02  0.91188000000E+02 0.  0.
    9900012    2    3    3    0    0 -0.87153887188E+01 -0.10670871745E+02 -0.34146078656E+02  0.54367079426E+02  0.39999989167E+02 0.  0.
         12    1    3    3    0    0  0.87153887188E+01  0.10670871745E+02  0.34146078656E+02  0.36820920574E+02  0.00000000000E+00 0. -1.
         11    1    4    4    0    0  0.90653265903E+01 -0.84913048492E+01 -0.41801607104E+01  0.13105576983E+02  0.51100000000E-03 0. -1.
        -11    1    4    4    0    0 -0.11226708236E+02 -0.22027520012E+01 -0.91148491472E+00  0.11477016128E+02  0.51100000000E-03 0.  1.
        -12    1    4    4    0    0 -0.65540070731E+01  0.23185105815E-01 -0.29054433031E+02  0.29784486315E+02  0.00000000000E+00 0.  1.
</event>
<event>
 8    1  0.1265908E-006  0.9118800E+02  0.7816164E-02  0.1184000E+00
        -11   -1    0    0    0    0  0.00000000000E+00  0.00000000000E+00  0.45593999997E+02  0.45594000000E+02  0.51100000000E-03 0. -1.
         11   -1    0    0    0    0 -0.00000000000E+00 -0.00000000000E+00 -0.45593999997E+02  0.45594000000E+02  0.51100000000E-03 0.  1.
         23    2    1    2    0    0  0.00000000000E+00  0.00000000000E+00 -0.17763568394E-14  0.91188000000E+02  0.91188000000E+02 0.  0.
    9900012    2    3    3    0    0  0.79932591508E+01 -0.32895140628E+02 -0.14484333992E+02  0.54367103759E+02  0.40000044640E+02 0.  0.
         12    1    3    3    0    0 -0.79932591508E+01  0.32895140628E+02  0.14484333992E+02  0.36820896241E+02  0.00000000000E+00 0. -1.
         11    1    4    4    0    0  0.25982524119E+01 -0.95500928919E+01  0.10670430605E+02  0.14553806354E+02  0.51100000000E-03 0. -1.
        -11    1    4    4    0    0  0.11257557767E+01 -0.93712021186E+01 -0.23231661038E+02  0.25075821623E+02  0.51100000000E-03 0.  1.
        -12    1    4    4    0    0  0.42692509623E+01 -0.13973845617E+02 -0.19231035592E+01  0.14737475782E+02  0.00000000000E+00 0.  1.
</event>
<event>
 8    1  0.1265908E-006  0.9118800E+02  0.7816164E-02  0.1184000E+00
        -11   -1    0    0    0    0  0.00000000000E+00  0.00000000000E+00  0.45593999997E+02  0.45594000000E+02  0.51100000000E-03 0.  1.
         11   -1    0    0    0    0 -0.00000000000E+00 -0.00000000000E+00 -0.45593999997E+02  0.45594000000E+02  0.51100000000E-03 0. -1.
         23    2    1    2    0    0  0.00000000000E+00  0.71054273576E-14  0.00000000000E+00  0.91188000000E+02  0.91188000000E+02 0.  0.
    9900012    2    3    3    0    0  0.25175034146E+01  0.36465927260E+02  0.44360923928E+01  0.54367074019E+02  0.39999976842E+02 0.  0.
         12    1    3    3    0    0 -0.25175034146E+01 -0.36465927260E+02 -0.44360923928E+01  0.36820925981E+02  0.00000000000E+00 0. -1.
         11    1    4    4    0    0 -0.77116260991E+01  0.11103651971E+02  0.36829264017E+01  0.14011574191E+02  0.51100000000E-03 0. -1.
        -11    1    4    4    0    0 -0.89784778169E+01  0.17221027536E+02 -0.78704875245E+00  0.19436982773E+02  0.51100000000E-03 0.  1.
         12    1    4    4    0    0  0.19207607331E+02  0.81412477528E+01  0.15402147436E+01  0.20918517055E+02  0.00000000000E+00 0. -1.
</event>
<event>
 8    1  0.1265908E-006  0.9118800E+02  0.7816164E-02  0.1184000E+00
        -11   -1    0    0    0    0  0.00000000000E+00  0.00000000000E+00  0.45593999997E+02  0.45594000000E+02  0.51100000000E-03 0. -1.
         11   -1    0    0    0    0 -0.00000000000E+00 -0.00000000000E+00 -0.45593999997E+02  0.45594000000E+02  0.51100000000E-03 0.  1.
         23    2    1    2    0    0  0.00000000000E+00  0.00000000000E+00 -0.88817841970E-15  0.91188000000E+02  0.91188000000E+02 0.  0.
    9900012    2    3    3    0    0  0.33292323537E+02 -0.13775859522E+02  0.75912204967E+01  0.54367085553E+02  0.40000003136E+02 0.  0.
         12    1    3    3    0    0 -0.33292323537E+02  0.13775859522E+02 -0.75912204967E+01  0.36820914447E+02  0.00000000000E+00 0. -1.
         11    1    4    4    0    0  0.19999860126E+02 -0.25524670135E+01  0.18084723754E+02  0.27084436978E+02  0.51100000000E-03 0. -1.
        -11    1    4    4    0    0  0.13768749566E+02 -0.73907793113E+01  0.49540931116E+00  0.15634817367E+02  0.51100000000E-03 0.  1.
         12    1    4    4    0    0 -0.47628615514E+00 -0.38326131971E+01 -0.10988912568E+02  0.11647831208E+02  0.00000000000E+00 0. -1.
</event>
<event>
 8    1  0.1265908E-006  0.9118800E+02  0.7816164E-02  0.1184000E+00
        -11   -1    0    0    0    0  0.00000000000E+00  0.00000000000E+00  0.45593999997E+02  0.45594000000E+02  0.51100000000E-03 0.  1.
         11   -1    0    0    0    0 -0.00000000000E+00 -0.00000000000E+00 -0.45593999997E+02  0.45594000000E+02  0.51100000000E-03 0. -1.
         23    2    1    2    0    0  0.17763568394E-14 -0.35527136788E-14  0.00000000000E+00  0.91188000000E+02  0.91188000000E+02 0.  0.
    9900012    2    3    3    0    0 -0.67143835390E+01  0.31342682586E+02  0.18119920591E+02  0.54367106200E+02  0.40000050204E+02 0.  0.
         12    1    3    3    0    0  0.67143835390E+01 -0.31342682586E+02 -0.18119920591E+02  0.36820893800E+02  0.00000000000E+00 0. -1.
         11    1    4    4    0    0 -0.80606797359E+01  0.16297660507E+02 -0.12114098957E+00  0.18182490786E+02  0.51100000000E-03 0. -1.
        -11    1    4    4    0    0  0.59046375312E+01  0.15258826662E+02 -0.10172553683E+01  0.16393027305E+02  0.51100000000E-03 0.  1.
        -12    1    4    4    0    0 -0.45583413343E+01 -0.21380458279E+00  0.19258316949E+02  0.19791588108E+02  0.00000000000E+00 0.  1.
</event>
<event>
 8    1  0.1265908E-006  0.9118800E+02  0.7816164E-02  0.1184000E+00
        -11   -1    0    0    0    0  0.00000000000E+00  0.00000000000E+00  0.45593999997E+02  0.45594000000E+02  0.51100000000E-03 0.  1.
         11   -1    0    0    0    0 -0.00000000000E+00 -0.00000000000E+00 -0.45593999997E+02  0.45594000000E+02  0.51100000000E-03 0. -1.
         23    2    1    2    0    0  0.36082248300E-15  0.00000000000E+00 -0.35527136788E-14  0.91188000000E+02  0.91188000000E+02 0.  0.
    9900012    2    3    3    0    0  0.22769858372E+00 -0.18831681382E+02 -0.31640114019E+02  0.54367070008E+02  0.39999967697E+02 0.  0.
        -12    1    3    3    0    0 -0.22769858372E+00  0.18831681382E+02  0.31640114019E+02  0.36820929992E+02  0.00000000000E+00 0.  1.
         11    1    4    4    0    0 -0.40868460616E+01 -0.10648569280E+01 -0.20184635059E+02  0.20621729407E+02  0.51100000000E-03 0. -1.
        -11    1    4    4    0    0 -0.10765131804E+02 -0.90614467416E+01 -0.29939347503E+01  0.14386157422E+02  0.51100000000E-03 0.  1.
        -12    1    4    4    0    0  0.15079676450E+02 -0.87053777128E+01 -0.84615442100E+01  0.19359183179E+02  0.00000000000E+00 0.  1.
</event>
<event>
 8    1  0.1265908E-006  0.9118800E+02  0.7816164E-02  0.1184000E+00
        -11   -1    0    0    0    0  0.00000000000E+00  0.00000000000E+00  0.45593999997E+02  0.45594000000E+02  0.51100000000E-03 0. -1.
         11   -1    0    0    0    0 -0.00000000000E+00 -0.00000000000E+00 -0.45593999997E+02  0.45594000000E+02  0.51100000000E-03 0.  1.
         23    2    1    2    0    0  0.88817841970E-15 -0.88817841970E-15  0.71054273576E-14  0.91188000000E+02  0.91188000000E+02 0.  0.
    9900012    2    3    3    0    0  0.71065616718E+01  0.68331647785E+01  0.35476495605E+02  0.54367121410E+02  0.40000084879E+02 0.  0.
        -12    1    3    3    0    0 -0.71065616718E+01 -0.68331647785E+01 -0.35476495605E+02  0.36820878590E+02  0.00000000000E+00 0.  1.
         11    1    4    4    0    0  0.11255109734E+01  0.20689719927E+01 -0.59336394560E+01  0.63840032513E+01  0.51100000000E-03 0. -1.
        -11    1    4    4    0    0  0.26758783965E+01 -0.79843511404E+01  0.63972425165E+01  0.10575202145E+02  0.51100000000E-03 0.  1.
         12    1    4    4    0    0  0.33051723019E+01  0.12748543926E+02  0.35012892545E+02  0.37407916014E+02  0.00000000000E+00 0. -1.
</event>
<event>
 8    1  0.1265908E-006  0.9118800E+02  0.7816164E-02  0.1184000E+00
        -11   -1    0    0    0    0  0.00000000000E+00  0.00000000000E+00  0.45593999997E+02  0.45594000000E+02  0.51100000000E-03 0.  1.
         11   -1    0    0    0    0 -0.00000000000E+00 -0.00000000000E+00 -0.45593999997E+02  0.45594000000E+02  0.51100000000E-03 0. -1.
         23    2    1    2    0    0  0.35527136788E-14  0.00000000000E+00  0.00000000000E+00  0.91188000000E+02  0.91188000000E+02 0.  0.
    9900012    2    3    3    0    0  0.24019591165E+02 -0.25630223695E+02 -0.11042260458E+02  0.54367073309E+02  0.39999975222E+02 0.  0.
        -12    1    3    3    0    0 -0.24019591165E+02  0.25630223695E+02  0.11042260458E+02  0.36820926691E+02  0.00000000000E+00 0.  1.
         11    1    4    4    0    0  0.15753032740E+02 -0.26180348280E+02 -0.21802478290E+02  0.37535539644E+02  0.51100000000E-03 0. -1.
        -11    1    4    4    0    0  0.10396912386E+02 -0.63635359267E+00  0.94454616482E+01  0.14061204752E+02  0.51100000000E-03 0.  1.
         12    1    4    4    0    0 -0.21303539610E+01  0.11864781774E+01  0.13147561831E+01  0.27703289129E+01  0.00000000000E+00 0. -1.
</event>
<event>
 8    1  0.1265908E-006  0.9118800E+02  0.7816164E-02  0.1184000E+00
        -11   -1    0    0    0    0  0.00000000000E+00  0.00000000000E+00  0.45593999997E+02  0.45594000000E+02  0.51100000000E-03 0.  1.
         11   -1    0    0    0    0 -0.00000000000E+00 -0.00000000000E+00 -0.45593999997E+02  0.45594000000E+02  0.51100000000E-03 0. -1.
         23    2    1    2    0    0  0.00000000000E+00  0.00000000000E+00  0.35527136788E-14  0.91188000000E+02  0.91188000000E+02 0.  0.
    9900012    2    3    3    0    0 -0.60175288814E+01  0.28026030474E+02 -0.23110871849E+02  0.54367062538E+02  0.39999950667E+02 0.  0.
        -12    1    3    3    0    0  0.60175288814E+01 -0.28026030474E+02  0.23110871849E+02  0.36820937462E+02  0.00000000000E+00 0.  1.
         11    1    4    4    0    0 -0.15648940177E+02  0.61708858156E+01 -0.16714418115E+02  0.23713728800E+02  0.51100000000E-03 0. -1.
        -11    1    4    4    0    0 -0.22896878820E+01  0.73300675118E+01  0.45308580221E+01  0.89163465053E+01  0.51100000000E-03 0.  1.
        -12    1    4    4    0    0  0.11921099178E+02  0.14525077147E+02 -0.10927311756E+02  0.21736987233E+02  0.00000000000E+00 0.  1.
</event>
<event>
 8    1  0.1265908E-006  0.9118800E+02  0.7816164E-02  0.1184000E+00
        -11   -1    0    0    0    0  0.00000000000E+00  0.00000000000E+00  0.45593999997E+02  0.45594000000E+02  0.51100000000E-03 0.  1.
         11   -1    0    0    0    0 -0.00000000000E+00 -0.00000000000E+00 -0.45593999997E+02  0.45594000000E+02  0.51100000000E-03 0. -1.
         23    2    1    2    0    0  0.83266726847E-15 -0.17763568394E-14  0.00000000000E+00  0.91188000000E+02  0.91188000000E+02 0.  0.
    9900012    2    3    3    0    0 -0.34565688767E+00  0.94047166192E+01  0.35597889486E+02  0.54367110423E+02  0.40000059831E+02 0.  0.
         12    1    3    3    0    0  0.34565688767E+00 -0.94047166192E+01 -0.35597889486E+02  0.36820889577E+02  0.00000000000E+00 0. -1.
         11    1    4    4    0    0  0.25659237063E+00  0.38710359181E+01  0.75005672871E+01  0.84444815479E+01  0.51100000000E-03 0.  1.
        -11    1    4    4    0    0 -0.98321785480E+01  0.17571923671E+02  0.10566030285E+02  0.22739508190E+02  0.51100000000E-03 0. -1.
         12    1    4    4    0    0  0.92299292897E+01 -0.12038242970E+02  0.17531291915E+02  0.23183120685E+02  0.00000000000E+00 0. -1.
</event>
<event>
 8    1  0.1265908E-006  0.9118800E+02  0.7816164E-02  0.1184000E+00
        -11   -1    0    0    0    0  0.00000000000E+00  0.00000000000E+00  0.45593999997E+02  0.45594000000E+02  0.51100000000E-03 0. -1.
         11   -1    0    0    0    0 -0.00000000000E+00 -0.00000000000E+00 -0.45593999997E+02  0.45594000000E+02  0.51100000000E-03 0.  1.
         23    2    1    2    0    0  0.17763568394E-14 -0.35527136788E-14  0.71054273576E-14  0.91188000000E+02  0.91188000000E+02 0.  0.
    9900012    2    3    3    0    0 -0.73810815865E+01  0.16428093069E+02 -0.32115674397E+02  0.54367093584E+02  0.40000021444E+02 0.  0.
         12    1    3    3    0    0  0.73810815865E+01 -0.16428093069E+02  0.32115674397E+02  0.36820906416E+02  0.00000000000E+00 0. -1.
         11    1    4    4    0    0  0.72648236489E+01 -0.24369394752E+01 -0.95279707349E+01  0.12226960507E+02  0.51100000000E-03 0. -1.
        -11    1    4    4    0    0 -0.28801760614E+01  0.70897963220E+01 -0.24233445058E+02  0.25412998361E+02  0.51100000000E-03 0.  1.
         12    1    4    4    0    0 -0.11765729174E+02  0.11775236222E+02  0.16457413958E+01  0.16727134717E+02  0.00000000000E+00 0. -1.
</event>
<event>
 8    1  0.1265908E-006  0.9118800E+02  0.7816164E-02  0.1184000E+00
        -11   -1    0    0    0    0  0.00000000000E+00  0.00000000000E+00  0.45593999997E+02  0.45594000000E+02  0.51100000000E-03 0. -1.
         11   -1    0    0    0    0 -0.00000000000E+00 -0.00000000000E+00 -0.45593999997E+02  0.45594000000E+02  0.51100000000E-03 0.  1.
         23    2    1    2    0    0  0.35527136788E-14 -0.17763568394E-14 -0.17763568394E-14  0.91188000000E+02  0.91188000000E+02 0.  0.
    9900012    2    3    3    0    0 -0.30983043587E+02 -0.15021207317E+02 -0.13045962763E+02  0.54367043962E+02  0.39999908319E+02 0.  0.
         12    1    3    3    0    0  0.30983043587E+02  0.15021207317E+02  0.13045962763E+02  0.36820956038E+02  0.00000000000E+00 0. -1.
         11    1    4    4    0    0 -0.53652192179E+01  0.13401575751E+01  0.83105743909E+01  0.99823467456E+01  0.51100000000E-03 0. -1.
        -11    1    4    4    0    0 -0.59506416233E+01 -0.16228029603E+02 -0.16992971627E+02  0.24238815266E+02  0.51100000000E-03 0.  1.
        -12    1    4    4    0    0 -0.19667182745E+02 -0.13333528963E+00 -0.43635655277E+01  0.20145881950E+02  0.00000000000E+00 0.  1.
</event>
<event>
 8    1  0.1265908E-006  0.9118800E+02  0.7816164E-02  0.1184000E+00
        -11   -1    0    0    0    0  0.00000000000E+00  0.00000000000E+00  0.45593999997E+02  0.45594000000E+02  0.51100000000E-03 0. -1.
         11   -1    0    0    0    0 -0.00000000000E+00 -0.00000000000E+00 -0.45593999997E+02  0.45594000000E+02  0.51100000000E-03 0.  1.
         23    2    1    2    0    0  0.88817841970E-15 -0.35527136788E-14  0.00000000000E+00  0.91188000000E+02  0.91188000000E+02 0.  0.
    9900012    2    3    3    0    0 -0.64205852058E+01  0.25214156103E+02  0.26053852382E+02  0.54367071083E+02  0.39999970147E+02 0.  0.
        -12    1    3    3    0    0  0.64205852058E+01 -0.25214156103E+02 -0.26053852382E+02  0.36820928917E+02  0.00000000000E+00 0.  1.
         11    1    4    4    0    0 -0.15118849882E+02  0.12183402363E+02  0.19203842035E+02  0.27309384176E+02  0.51100000000E-03 0. -1.
        -11    1    4    4    0    0 -0.12269112999E+00  0.14679438208E+01  0.11649981267E+02  0.11742741415E+02  0.51100000000E-03 0.  1.
         12    1    4    4    0    0  0.88209558066E+01  0.11562809919E+02 -0.47999709195E+01  0.15314945491E+02  0.00000000000E+00 0. -1.
</event>
<event>
 8    1  0.1265908E-006  0.9118800E+02  0.7816164E-02  0.1184000E+00
        -11   -1    0    0    0    0  0.00000000000E+00  0.00000000000E+00  0.45593999997E+02  0.45594000000E+02  0.51100000000E-03 0.  1.
         11   -1    0    0    0    0 -0.00000000000E+00 -0.00000000000E+00 -0.45593999997E+02  0.45594000000E+02  0.51100000000E-03 0. -1.
         23    2    1    2    0    0  0.00000000000E+00  0.00000000000E+00  0.00000000000E+00  0.91188000000E+02  0.91188000000E+02 0.  0.
    9900012    2    3    3    0    0 -0.50344782244E+01  0.29404021767E+02  0.21583254137E+02  0.54367091182E+02  0.40000015968E+02 0.  0.
         12    1    3    3    0    0  0.50344782244E+01 -0.29404021767E+02 -0.21583254137E+02  0.36820908818E+02  0.00000000000E+00 0. -1.
         11    1    4    4    0    0 -0.91166966143E+01  0.29483338829E+01  0.20482684901E+02  0.22612987659E+02  0.51100000000E-03 0. -1.
        -11    1    4    4    0    0  0.15268746779E+01  0.22456924893E+02  0.75550358860E+01  0.23742859757E+02  0.51100000000E-03 0.  1.
        -12    1    4    4    0    0  0.25553437120E+01  0.39987629909E+01 -0.64544666503E+01  0.80112437663E+01  0.00000000000E+00 0.  1.
</event>
<event>
 8    1  0.1265908E-006  0.9118800E+02  0.7816164E-02  0.1184000E+00
        -11   -1    0    0    0    0  0.00000000000E+00  0.00000000000E+00  0.45593999997E+02  0.45594000000E+02  0.51100000000E-03 0. -1.
         11   -1    0    0    0    0 -0.00000000000E+00 -0.00000000000E+00 -0.45593999997E+02  0.45594000000E+02  0.51100000000E-03 0.  1.
         23    2    1    2    0    0  0.00000000000E+00  0.35527136788E-14 -0.71054273576E-14  0.91188000000E+02  0.91188000000E+02 0.  0.
    9900012    2    3    3    0    0  0.24267693390E+01  0.16552422244E+02  0.32801025830E+02  0.54367093072E+02  0.40000020275E+02 0.  0.
        -12    1    3    3    0    0 -0.24267693390E+01 -0.16552422244E+02 -0.32801025830E+02  0.36820906928E+02  0.00000000000E+00 0.  1.
         11    1    4    4    0    0  0.10401176305E+01  0.16522412143E+02  0.34194480715E+02  0.37991241876E+02  0.51100000000E-03 0. -1.
        -11    1    4    4    0    0 -0.19319505204E+00 -0.54161166921E+01  0.53156540240E+01  0.75912991190E+01  0.51100000000E-03 0.  1.
        -12    1    4    4    0    0  0.15798467605E+01  0.54461267924E+01 -0.67091089090E+01  0.87845520762E+01  0.00000000000E+00 0.  1.
</event>
<event>
 8    1  0.1265908E-006  0.9118800E+02  0.7816164E-02  0.1184000E+00
        -11   -1    0    0    0    0  0.00000000000E+00  0.00000000000E+00  0.45593999997E+02  0.45594000000E+02  0.51100000000E-03 0. -1.
         11   -1    0    0    0    0 -0.00000000000E+00 -0.00000000000E+00 -0.45593999997E+02  0.45594000000E+02  0.51100000000E-03 0.  1.
         23    2    1    2    0    0 -0.71054273576E-14  0.88817841970E-15  0.17763568394E-14  0.91188000000E+02  0.91188000000E+02 0.  0.
    9900012    2    3    3    0    0 -0.34998964810E+02 -0.60766286951E+01  0.96914790196E+01  0.54367112998E+02  0.40000065701E+02 0.  0.
         12    1    3    3    0    0  0.34998964810E+02  0.60766286951E+01 -0.96914790196E+01  0.36820887002E+02  0.00000000000E+00 0. -1.
         11    1    4    4    0    0 -0.31750161697E+01 -0.17283123656E+02 -0.28588733635E+01  0.17803377437E+02  0.51100000000E-03 0. -1.
        -11    1    4    4    0    0 -0.11035664262E+02  0.58936080941E+01  0.20569562467E+01  0.12678784301E+02  0.51100000000E-03 0.  1.
         12    1    4    4    0    0 -0.20788284378E+02  0.53128868670E+01  0.10493396136E+02  0.23884951260E+02  0.00000000000E+00 0. -1.
</event>
<event>
 8    1  0.1265908E-006  0.9118800E+02  0.7816164E-02  0.1184000E+00
        -11   -1    0    0    0    0  0.00000000000E+00  0.00000000000E+00  0.45593999997E+02  0.45594000000E+02  0.51100000000E-03 0.  1.
         11   -1    0    0    0    0 -0.00000000000E+00 -0.00000000000E+00 -0.45593999997E+02  0.45594000000E+02  0.51100000000E-03 0. -1.
         23    2    1    2    0    0  0.00000000000E+00  0.00000000000E+00 -0.35527136788E-14  0.91188000000E+02  0.91188000000E+02 0.  0.
    9900012    2    3    3    0    0  0.17383238277E+02  0.20376236083E+02 -0.25266798230E+02  0.54367094760E+02  0.40000024123E+02 0.  0.
        -12    1    3    3    0    0 -0.17383238277E+02 -0.20376236083E+02  0.25266798230E+02  0.36820905240E+02  0.00000000000E+00 0.  1.
         11    1    4    4    0    0 -0.36471789171E+00 -0.83135642425E+01  0.29157156609E+01  0.88175828678E+01  0.51100000000E-03 0. -1.
        -11    1    4    4    0    0  0.96776585654E+01  0.23827671982E+02 -0.16562439187E+02  0.30589694661E+02  0.51100000000E-03 0.  1.
         12    1    4    4    0    0  0.80702976032E+01  0.48621283437E+01 -0.11620074704E+02  0.14959817230E+02  0.00000000000E+00 0. -1.
</event>
<event>
 8    1  0.1265908E-006  0.9118800E+02  0.7816164E-02  0.1184000E+00
        -11   -1    0    0    0    0  0.00000000000E+00  0.00000000000E+00  0.45593999997E+02  0.45594000000E+02  0.51100000000E-03 0.  1.
         11   -1    0    0    0    0 -0.00000000000E+00 -0.00000000000E+00 -0.45593999997E+02  0.45594000000E+02  0.51100000000E-03 0. -1.
         23    2    1    2    0    0  0.35527136788E-14  0.00000000000E+00 -0.35527136788E-14  0.91188000000E+02  0.91188000000E+02 0.  0.
    9900012    2    3    3    0    0  0.27049936889E+02  0.14468374129E+02 -0.20365318814E+02  0.54367093628E+02  0.40000021544E+02 0.  0.
        -12    1    3    3    0    0 -0.27049936889E+02 -0.14468374129E+02  0.20365318814E+02  0.36820906372E+02  0.00000000000E+00 0.  1.
         11    1    4    4    0    0  0.62500694852E+01 -0.60733627089E+01 -0.52988300032E+01  0.10199348157E+02  0.51100000000E-03 0. -1.
        -11    1    4    4    0    0  0.10562647742E+02  0.39343931577E+01 -0.20950904111E+02  0.23790530893E+02  0.51100000000E-03 0.  1.
        -12    1    4    4    0    0  0.10237219662E+02  0.16607343680E+02  0.58844153004E+01  0.20377214578E+02  0.00000000000E+00 0.  1.
</event>
<event>
 8    1  0.1265908E-006  0.9118800E+02  0.7816164E-02  0.1184000E+00
        -11   -1    0    0    0    0  0.00000000000E+00  0.00000000000E+00  0.45593999997E+02  0.45594000000E+02  0.51100000000E-03 0. -1.
         11   -1    0    0    0    0 -0.00000000000E+00 -0.00000000000E+00 -0.45593999997E+02  0.45594000000E+02  0.51100000000E-03 0.  1.
         23    2    1    2    0    0  0.00000000000E+00  0.00000000000E+00 -0.17763568394E-14  0.91188000000E+02  0.91188000000E+02 0.  0.
    9900012    2    3    3    0    0  0.35229610783E+02  0.93183554682E+01  0.52747798158E+01  0.54367074881E+02  0.39999978805E+02 0.  0.
         12    1    3    3    0    0 -0.35229610783E+02 -0.93183554682E+01 -0.52747798158E+01  0.36820925119E+02  0.00000000000E+00 0. -1.
         11    1    4    4    0    0  0.14148708174E+02  0.76956720119E+01 -0.89123783468E+01  0.18407601657E+02  0.51100000000E-03 0. -1.
        -11    1    4    4    0    0  0.10749068428E+02  0.19385752841E+01 -0.65875647402E+01  0.12755256002E+02  0.51100000000E-03 0.  1.
         12    1    4    4    0    0  0.10331834181E+02 -0.31589182774E+00  0.20774722903E+02  0.23204217222E+02  0.00000000000E+00 0. -1.
</event>
<event>
 8    1  0.1265908E-006  0.9118800E+02  0.7816164E-02  0.1184000E+00
        -11   -1    0    0    0    0  0.00000000000E+00  0.00000000000E+00  0.45593999997E+02  0.45594000000E+02  0.51100000000E-03 0.  1.
         11   -1    0    0    0    0 -0.00000000000E+00 -0.00000000000E+00 -0.45593999997E+02  0.45594000000E+02  0.51100000000E-03 0. -1.
         23    2    1    2    0    0  0.00000000000E+00 -0.17763568394E-14 -0.35527136788E-14  0.91188000000E+02  0.91188000000E+02 0.  0.
    9900012    2    3    3    0    0 -0.16514908608E+02  0.10010537747E+02 -0.31350082597E+02  0.54367071832E+02  0.39999971855E+02 0.  0.
        -12    1    3    3    0    0  0.16514908608E+02 -0.10010537747E+02  0.31350082597E+02  0.36820928168E+02  0.00000000000E+00 0.  1.
         11    1    4    4    0    0 -0.43725224637E+01 -0.41246698719E+01 -0.79492100474E+01  0.99660320533E+01  0.51100000000E-03 0. -1.
        -11    1    4    4    0    0  0.29248003584E+00 -0.18325207993E+01  0.73539958930E+01  0.75845192931E+01  0.51100000000E-03 0.  1.
        -12    1    4    4    0    0 -0.12434866180E+02  0.15967728418E+02 -0.30754868443E+02  0.36816520486E+02  0.00000000000E+00 0.  1.
</event>
<event>
 8    1  0.1265908E-006  0.9118800E+02  0.7816164E-02  0.1184000E+00
        -11   -1    0    0    0    0  0.00000000000E+00  0.00000000000E+00  0.45593999997E+02  0.45594000000E+02  0.51100000000E-03 0.  1.
         11   -1    0    0    0    0 -0.00000000000E+00 -0.00000000000E+00 -0.45593999997E+02  0.45594000000E+02  0.51100000000E-03 0. -1.
         23    2    1    2    0    0  0.00000000000E+00  0.17763568394E-14  0.35527136788E-14  0.91188000000E+02  0.91188000000E+02 0.  0.
    9900012    2    3    3    0    0  0.19961291714E+02 -0.13587286103E+02 -0.27797644497E+02  0.54367128879E+02  0.40000101905E+02 0.  0.
        -12    1    3    3    0    0 -0.19961291714E+02  0.13587286103E+02  0.27797644497E+02  0.36820871121E+02  0.00000000000E+00 0.  1.
         11    1    4    4    0    0 -0.32515783593E+01  0.58238350905E+01 -0.83912738140E+01  0.10719295381E+02  0.51100000000E-03 0. -1.
        -11    1    4    4    0    0  0.10673037444E+02 -0.22280633167E+02 -0.18283851048E+02  0.30734989052E+02  0.51100000000E-03 0.  1.
         12    1    4    4    0    0  0.12539832630E+02  0.28695119736E+01 -0.11225196342E+01  0.12912844446E+02  0.00000000000E+00 0. -1.
</event>
<event>
 8    1  0.1265908E-006  0.9118800E+02  0.7816164E-02  0.1184000E+00
        -11   -1    0    0    0    0  0.00000000000E+00  0.00000000000E+00  0.45593999997E+02  0.45594000000E+02  0.51100000000E-03 0.  1.
         11   -1    0    0    0    0 -0.00000000000E+00 -0.00000000000E+00 -0.45593999997E+02  0.45594000000E+02  0.51100000000E-03 0. -1.
         23    2    1    2    0    0  0.00000000000E+00  0.00000000000E+00 -0.35527136788E-14  0.91188000000E+02  0.91188000000E+02 0.  0.
    9900012    2    3    3    0    0  0.26322643333E+02 -0.30390413070E+01 -0.25566829246E+02  0.54367080921E+02  0.39999992575E+02 0.  0.
        -12    1    3    3    0    0 -0.26322643333E+02  0.30390413070E+01  0.25566829246E+02  0.36820919079E+02  0.00000000000E+00 0.  1.
         11    1    4    4    0    0  0.20360150617E+02 -0.40921471951E+01 -0.14040575257E+02  0.25068289842E+02  0.51100000000E-03 0. -1.
        -11    1    4    4    0    0  0.15200484062E+01  0.60563559335E+00  0.85637214880E+01  0.87186390919E+01  0.51100000000E-03 0.  1.
        -12    1    4    4    0    0  0.44424443105E+01  0.44747029479E+00 -0.20089975477E+02  0.20580151986E+02  0.00000000000E+00 0.  1.
</event>
<event>
 8    1  0.1265908E-006  0.9118800E+02  0.7816164E-02  0.1184000E+00
        -11   -1    0    0    0    0  0.00000000000E+00  0.00000000000E+00  0.45593999997E+02  0.45594000000E+02  0.51100000000E-03 0. -1.
         11   -1    0    0    0    0 -0.00000000000E+00 -0.00000000000E+00 -0.45593999997E+02  0.45594000000E+02  0.51100000000E-03 0.  1.
         23    2    1    2    0    0 -0.71054273576E-14  0.17763568394E-14 -0.44408920985E-15  0.91188000000E+02  0.91188000000E+02 0.  0.
    9900012    2    3    3    0    0 -0.34289210575E+02 -0.13335664329E+02  0.14797216831E+01  0.54367089076E+02  0.40000011168E+02 0.  0.
        -12    1    3    3    0    0  0.34289210575E+02  0.13335664329E+02 -0.14797216831E+01  0.36820910924E+02  0.00000000000E+00 0.  1.
         11    1    4    4    0    0  0.83390883703E+00 -0.14661817810E+02  0.93862563061E+01  0.17428887318E+02  0.51100000000E-03 0. -1.
        -11    1    4    4    0    0 -0.23735351766E+02 -0.28267396736E+01 -0.62283199207E+01  0.24701201387E+02  0.51100000000E-03 0.  1.
         12    1    4    4    0    0 -0.11387767646E+02  0.41528931543E+01 -0.16782147023E+01  0.12237000372E+02  0.00000000000E+00 0. -1.
</event>
<event>
 8    1  0.1265908E-006  0.9118800E+02  0.7816164E-02  0.1184000E+00
        -11   -1    0    0    0    0  0.00000000000E+00  0.00000000000E+00  0.45593999997E+02  0.45594000000E+02  0.51100000000E-03 0.  1.
         11   -1    0    0    0    0 -0.00000000000E+00 -0.00000000000E+00 -0.45593999997E+02  0.45594000000E+02  0.51100000000E-03 0. -1.
         23    2    1    2    0    0 -0.35527136788E-14  0.00000000000E+00  0.00000000000E+00  0.91188000000E+02  0.91188000000E+02 0.  0.
    9900012    2    3    3    0    0 -0.21908956123E+02  0.19802896504E+02 -0.21991425623E+02  0.54367083807E+02  0.39999999156E+02 0.  0.
        -12    1    3    3    0    0  0.21908956123E+02 -0.19802896504E+02  0.21991425623E+02  0.36820916193E+02  0.00000000000E+00 0.  1.
         11    1    4    4    0    0 -0.82920747735E+01  0.19151035706E+02 -0.63062270681E+01  0.21801127786E+02  0.51100000000E-03 0. -1.
        -11    1    4    4    0    0 -0.16010118831E+02  0.33122644424E+01  0.13131396418E+00  0.16349686368E+02  0.51100000000E-03 0.  1.
        -12    1    4    4    0    0  0.23932374820E+01 -0.26604036442E+01 -0.15816512519E+02  0.16216269653E+02  0.00000000000E+00 0.  1.
</event>
<event>
 8    1  0.1265908E-006  0.9118800E+02  0.7816164E-02  0.1184000E+00
        -11   -1    0    0    0    0  0.00000000000E+00  0.00000000000E+00  0.45593999997E+02  0.45594000000E+02  0.51100000000E-03 0. -1.
         11   -1    0    0    0    0 -0.00000000000E+00 -0.00000000000E+00 -0.45593999997E+02  0.45594000000E+02  0.51100000000E-03 0.  1.
         23    2    1    2    0    0  0.66613381478E-15 -0.17763568394E-14 -0.71054273576E-14  0.91188000000E+02  0.91188000000E+02 0.  0.
    9900012    2    3    3    0    0 -0.19314630348E+01 -0.93110234192E+01 -0.35571820227E+02  0.54367080662E+02  0.39999991986E+02 0.  0.
         12    1    3    3    0    0  0.19314630348E+01  0.93110234192E+01  0.35571820227E+02  0.36820919338E+02  0.00000000000E+00 0. -1.
         11    1    4    4    0    0 -0.10778995846E+02  0.41741398137E+01 -0.22319522823E+02  0.25135061049E+02  0.51100000000E-03 0. -1.
        -11    1    4    4    0    0  0.52132214855E+00 -0.91095013468E+01 -0.16849688128E+02  0.19161596537E+02  0.51100000000E-03 0.  1.
        -12    1    4    4    0    0  0.83262106622E+01 -0.43756618861E+01  0.35973907233E+01  0.10070423077E+02  0.00000000000E+00 0.  1.
</event>
<event>
 8    1  0.1265908E-006  0.9118800E+02  0.7816164E-02  0.1184000E+00
        -11   -1    0    0    0    0  0.00000000000E+00  0.00000000000E+00  0.45593999997E+02  0.45594000000E+02  0.51100000000E-03 0.  1.
         11   -1    0    0    0    0 -0.00000000000E+00 -0.00000000000E+00 -0.45593999997E+02  0.45594000000E+02  0.51100000000E-03 0. -1.
         23    2    1    2    0    0  0.17763568394E-14  0.71054273576E-14  0.17763568394E-14  0.91188000000E+02  0.91188000000E+02 0.  0.
    9900012    2    3    3    0    0  0.14060468871E+02  0.32320922292E+02  0.10650892353E+02  0.54367077814E+02  0.39999985493E+02 0.  0.
         12    1    3    3    0    0 -0.14060468871E+02 -0.32320922292E+02 -0.10650892353E+02  0.36820922186E+02  0.00000000000E+00 0. -1.
         11    1    4    4    0    0  0.80649031550E+01 -0.29412932350E+01  0.61219620122E+01  0.10543827006E+02  0.51100000000E-03 0. -1.
        -11    1    4    4    0    0  0.56128392556E+01  0.20987984820E+02  0.14752850255E+02  0.26261113118E+02  0.51100000000E-03 0.  1.
         12    1    4    4    0    0  0.38272646059E+00  0.14274230707E+02 -0.10223919914E+02  0.17562137690E+02  0.00000000000E+00 0. -1.
</event>
<event>
 8    1  0.1265908E-006  0.9118800E+02  0.7816164E-02  0.1184000E+00
        -11   -1    0    0    0    0  0.00000000000E+00  0.00000000000E+00  0.45593999997E+02  0.45594000000E+02  0.51100000000E-03 0.  1.
         11   -1    0    0    0    0 -0.00000000000E+00 -0.00000000000E+00 -0.45593999997E+02  0.45594000000E+02  0.51100000000E-03 0. -1.
         23    2    1    2    0    0  0.00000000000E+00 -0.35527136788E-14  0.00000000000E+00  0.91188000000E+02  0.91188000000E+02 0.  0.
    9900012    2    3    3    0    0  0.18084947509E+02 -0.27505759993E+02  0.16496892413E+02  0.54367087212E+02  0.40000006918E+02 0.  0.
         12    1    3    3    0    0 -0.18084947509E+02  0.27505759993E+02 -0.16496892413E+02  0.36820912788E+02  0.00000000000E+00 0. -1.
         11    1    4    4    0    0 -0.16840459815E+01  0.42239086041E+01  0.76556468509E+01  0.89042879407E+01  0.51100000000E-03 0. -1.
        -11    1    4    4    0    0  0.15330422189E+02 -0.10409599046E+02 -0.55693068663E+01  0.19349386968E+02  0.51100000000E-03 0.  1.
        -12    1    4    4    0    0  0.44385713020E+01 -0.21320069552E+02  0.14410552428E+02  0.26113412304E+02  0.00000000000E+00 0.  1.
</event>
<event>
 8    1  0.1265908E-006  0.9118800E+02  0.7816164E-02  0.1184000E+00
        -11   -1    0    0    0    0  0.00000000000E+00  0.00000000000E+00  0.45593999997E+02  0.45594000000E+02  0.51100000000E-03 0.  1.
         11   -1    0    0    0    0 -0.00000000000E+00 -0.00000000000E+00 -0.45593999997E+02  0.45594000000E+02  0.51100000000E-03 0. -1.
         23    2    1    2    0    0  0.00000000000E+00  0.00000000000E+00 -0.35527136788E-14  0.91188000000E+02  0.91188000000E+02 0.  0.
    9900012    2    3    3    0    0  0.31109229126E+02 -0.43080230314E+01 -0.19220723775E+02  0.54367089885E+02  0.40000013010E+02 0.  0.
        -12    1    3    3    0    0 -0.31109229126E+02  0.43080230314E+01  0.19220723775E+02  0.36820910115E+02  0.00000000000E+00 0.  1.
         11    1    4    4    0    0  0.96692618365E+01  0.33519243897E+01  0.36757396546E+01  0.10873871613E+02  0.51100000000E-03 0. -1.
        -11    1    4    4    0    0  0.17668297347E+02 -0.13946682753E+02 -0.26951641454E+02  0.35115091745E+02  0.51100000000E-03 0.  1.
        -12    1    4    4    0    0  0.37716699429E+01  0.62867353321E+01  0.40551780241E+01  0.83781265269E+01  0.00000000000E+00 0.  1.
</event>
<event>
 8    1  0.1265908E-006  0.9118800E+02  0.7816164E-02  0.1184000E+00
        -11   -1    0    0    0    0  0.00000000000E+00  0.00000000000E+00  0.45593999997E+02  0.45594000000E+02  0.51100000000E-03 0. -1.
         11   -1    0    0    0    0 -0.00000000000E+00 -0.00000000000E+00 -0.45593999997E+02  0.45594000000E+02  0.51100000000E-03 0.  1.
         23    2    1    2    0    0  0.00000000000E+00  0.00000000000E+00  0.00000000000E+00  0.91188000000E+02  0.91188000000E+02 0.  0.
    9900012    2    3    3    0    0 -0.11071930219E+02  0.69984570153E+01  0.34412455062E+02  0.54367039899E+02  0.39999899057E+02 0.  0.
        -12    1    3    3    0    0  0.11071930219E+02 -0.69984570153E+01 -0.34412455062E+02  0.36820960101E+02  0.00000000000E+00 0.  1.
         11    1    4    4    0    0 -0.94180510606E+01  0.63236829151E+01  0.33997620850E+02  0.35840296806E+02  0.51100000000E-03 0. -1.
        -11    1    4    4    0    0 -0.12114117539E+01 -0.80273370670E+01  0.40657558431E+01  0.90794289281E+01  0.51100000000E-03 0.  1.
         12    1    4    4    0    0 -0.44246740462E+00  0.87021111672E+01 -0.36509216311E+01  0.94473141647E+01  0.00000000000E+00 0. -1.
</event>
<event>
 8    1  0.1265908E-006  0.9118800E+02  0.7816164E-02  0.1184000E+00
        -11   -1    0    0    0    0  0.00000000000E+00  0.00000000000E+00  0.45593999997E+02  0.45594000000E+02  0.51100000000E-03 0.  1.
         11   -1    0    0    0    0 -0.00000000000E+00 -0.00000000000E+00 -0.45593999997E+02  0.45594000000E+02  0.51100000000E-03 0. -1.
         23    2    1    2    0    0  0.00000000000E+00  0.00000000000E+00  0.44408920985E-15  0.91188000000E+02  0.91188000000E+02 0.  0.
    9900012    2    3    3    0    0 -0.28514671297E+02  0.23044710855E+02 -0.34109357160E+01  0.54367086648E+02  0.40000005633E+02 0.  0.
        -12    1    3    3    0    0  0.28514671297E+02 -0.23044710855E+02  0.34109357160E+01  0.36820913352E+02  0.00000000000E+00 0.  1.
         11    1    4    4    0    0 -0.24783346796E+02  0.10245505480E+02 -0.95127399483E+01  0.28454821780E+02  0.51100000000E-03 0. -1.
        -11    1    4    4    0    0  0.70833602724E+01 -0.14463464370E+01  0.26288572857E+01  0.76926459462E+01  0.51100000000E-03 0.  1.
         12    1    4    4    0    0 -0.10814684774E+02  0.14245551812E+02  0.34729469465E+01  0.18219618922E+02  0.00000000000E+00 0. -1.
</event>
<event>
 8    1  0.1265908E-006  0.9118800E+02  0.7816164E-02  0.1184000E+00
        -11   -1    0    0    0    0  0.00000000000E+00  0.00000000000E+00  0.45593999997E+02  0.45594000000E+02  0.51100000000E-03 0. -1.
         11   -1    0    0    0    0 -0.00000000000E+00 -0.00000000000E+00 -0.45593999997E+02  0.45594000000E+02  0.51100000000E-03 0.  1.
         23    2    1    2    0    0  0.00000000000E+00  0.17763568394E-14  0.00000000000E+00  0.91188000000E+02  0.91188000000E+02 0.  0.
    9900012    2    3    3    0    0  0.29505785444E+02 -0.13065082205E+02 -0.17733920982E+02  0.54367086091E+02  0.40000004361E+02 0.  0.
        -12    1    3    3    0    0 -0.29505785444E+02  0.13065082205E+02  0.17733920982E+02  0.36820913909E+02  0.00000000000E+00 0.  1.
         11    1    4    4    0    0  0.14651014282E+02 -0.13107670052E+01 -0.98048639951E+01  0.17677830406E+02  0.51100000000E-03 0. -1.
        -11    1    4    4    0    0  0.56535977688E+01 -0.21610939169E+02 -0.49942570536E+01  0.22889702123E+02  0.51100000000E-03 0.  1.
         12    1    4    4    0    0  0.92011733929E+01  0.98566239687E+01 -0.29347999337E+01  0.13799553562E+02  0.00000000000E+00 0. -1.
</event>
<event>
 8    1  0.1265908E-006  0.9118800E+02  0.7816164E-02  0.1184000E+00
        -11   -1    0    0    0    0  0.00000000000E+00  0.00000000000E+00  0.45593999997E+02  0.45594000000E+02  0.51100000000E-03 0.  1.
         11   -1    0    0    0    0 -0.00000000000E+00 -0.00000000000E+00 -0.45593999997E+02  0.45594000000E+02  0.51100000000E-03 0. -1.
         23    2    1    2    0    0  0.00000000000E+00  0.00000000000E+00  0.35527136788E-14  0.91188000000E+02  0.91188000000E+02 0.  0.
    9900012    2    3    3    0    0 -0.19403490620E+02 -0.19717244846E+02  0.24300572255E+02  0.54367041234E+02  0.39999902102E+02 0.  0.
         12    1    3    3    0    0  0.19403490620E+02  0.19717244846E+02 -0.24300572255E+02  0.36820958766E+02  0.00000000000E+00 0. -1.
         11    1    4    4    0    0 -0.38106985835E+01 -0.15119376607E+02 -0.68392919306E+01  0.17026241131E+02  0.51100000000E-03 0. -1.
        -11    1    4    4    0    0 -0.11442105136E+02  0.31004924092E+01  0.17467799729E+02  0.21110633594E+02  0.51100000000E-03 0.  1.
        -12    1    4    4    0    0 -0.41506868998E+01 -0.76983606475E+01  0.13672064456E+02  0.16230166509E+02  0.00000000000E+00 0.  1.
</event>
<event>
 8    1  0.1265908E-006  0.9118800E+02  0.7816164E-02  0.1184000E+00
        -11   -1    0    0    0    0  0.00000000000E+00  0.00000000000E+00  0.45593999997E+02  0.45594000000E+02  0.51100000000E-03 0.  1.
         11   -1    0    0    0    0 -0.00000000000E+00 -0.00000000000E+00 -0.45593999997E+02  0.45594000000E+02  0.51100000000E-03 0. -1.
         23    2    1    2    0    0  0.00000000000E+00  0.00000000000E+00  0.00000000000E+00  0.91188000000E+02  0.91188000000E+02 0.  0.
    9900012    2    3    3    0    0  0.81425434271E+01  0.28786187888E+02 -0.21467108409E+02  0.54367049849E+02  0.39999921741E+02 0.  0.
        -12    1    3    3    0    0 -0.81425434271E+01 -0.28786187888E+02  0.21467108409E+02  0.36820950151E+02  0.00000000000E+00 0.  1.
         11    1    4    4    0    0  0.93524957671E+01  0.17100774317E+02 -0.32633422780E+02  0.38011129184E+02  0.51100000000E-03 0. -1.
        -11    1    4    4    0    0 -0.52167678484E+00  0.31402393920E+01  0.17932207001E+01  0.36536133960E+01  0.51100000000E-03 0.  1.
         12    1    4    4    0    0 -0.68827555517E+00  0.85451741793E+01  0.93730936707E+01  0.12702307269E+02  0.00000000000E+00 0. -1.
</event>
<event>
 8    1  0.1265908E-006  0.9118800E+02  0.7816164E-02  0.1184000E+00
        -11   -1    0    0    0    0  0.00000000000E+00  0.00000000000E+00  0.45593999997E+02  0.45594000000E+02  0.51100000000E-03 0.  1.
         11   -1    0    0    0    0 -0.00000000000E+00 -0.00000000000E+00 -0.45593999997E+02  0.45594000000E+02  0.51100000000E-03 0. -1.
         23    2    1    2    0    0  0.00000000000E+00 -0.17763568394E-14  0.00000000000E+00  0.91188000000E+02  0.91188000000E+02 0.  0.
    9900012    2    3    3    0    0 -0.93969482156E+01  0.15073562783E+02  0.32253159253E+02  0.54367065567E+02  0.39999957573E+02 0.  0.
         12    1    3    3    0    0  0.93969482156E+01 -0.15073562783E+02 -0.32253159253E+02  0.36820934433E+02  0.00000000000E+00 0. -1.
         11    1    4    4    0    0 -0.12230002574E+02 -0.36099361070E+01  0.82207186238E+01  0.15171842888E+02  0.51100000000E-03 0. -1.
        -11    1    4    4    0    0  0.12851094047E+02  0.54107124153E+01  0.14076884366E+02  0.19813760389E+02  0.51100000000E-03 0.  1.
        -12    1    4    4    0    0 -0.10018039688E+02  0.13272786475E+02  0.99555562630E+01  0.19381462290E+02  0.00000000000E+00 0.  1.
</event>
<event>
 8    1  0.1265908E-006  0.9118800E+02  0.7816164E-02  0.1184000E+00
        -11   -1    0    0    0    0  0.00000000000E+00  0.00000000000E+00  0.45593999997E+02  0.45594000000E+02  0.51100000000E-03 0.  1.
         11   -1    0    0    0    0 -0.00000000000E+00 -0.00000000000E+00 -0.45593999997E+02  0.45594000000E+02  0.51100000000E-03 0. -1.
         23    2    1    2    0    0 -0.35527136788E-14  0.00000000000E+00  0.00000000000E+00  0.91188000000E+02  0.91188000000E+02 0.  0.
    9900012    2    3    3    0    0 -0.27776957096E+02 -0.20432502057E+02 -0.12912428160E+02  0.54367118875E+02  0.40000079100E+02 0.  0.
        -12    1    3    3    0    0  0.27776957096E+02  0.20432502057E+02  0.12912428160E+02  0.36820881125E+02  0.00000000000E+00 0.  1.
         11    1    4    4    0    0 -0.88578028057E+01 -0.12360574609E+02 -0.12336687322E+02  0.19581581386E+02  0.51100000000E-03 0. -1.
        -11    1    4    4    0    0 -0.91490473516E+01 -0.18012750233E+02 -0.36042533962E+01  0.20522058406E+02  0.51100000000E-03 0.  1.
        -12    1    4    4    0    0 -0.97701069384E+01  0.99408227862E+01  0.30285125581E+01  0.14263479084E+02  0.00000000000E+00 0.  1.
</event>
<event>
 8    1  0.1265908E-006  0.9118800E+02  0.7816164E-02  0.1184000E+00
        -11   -1    0    0    0    0  0.00000000000E+00  0.00000000000E+00  0.45593999997E+02  0.45594000000E+02  0.51100000000E-03 0.  1.
         11   -1    0    0    0    0 -0.00000000000E+00 -0.00000000000E+00 -0.45593999997E+02  0.45594000000E+02  0.51100000000E-03 0. -1.
         23    2    1    2    0    0 -0.17763568394E-14 -0.35527136788E-14 -0.35527136788E-14  0.91188000000E+02  0.91188000000E+02 0.  0.
    9900012    2    3    3    0    0 -0.33995950122E+01 -0.19892554877E+02 -0.30797876773E+02  0.54367079323E+02  0.39999988932E+02 0.  0.
        -12    1    3    3    0    0  0.33995950122E+01  0.19892554877E+02  0.30797876773E+02  0.36820920677E+02  0.00000000000E+00 0.  1.
         11    1    4    4    0    0 -0.16458363409E+02 -0.16755330729E+02 -0.98782524466E+01  0.25479378046E+02  0.51100000000E-03 0. -1.
        -11    1    4    4    0    0  0.41909332351E+01  0.35491030338E+01 -0.33976217087E+00  0.55023169955E+01  0.51100000000E-03 0.  1.
         12    1    4    4    0    0  0.88678351620E+01 -0.66863271821E+01 -0.20579862156E+02  0.23385384281E+02  0.00000000000E+00 0. -1.
</event>
<event>
 8    1  0.1265908E-006  0.9118800E+02  0.7816164E-02  0.1184000E+00
        -11   -1    0    0    0    0  0.00000000000E+00  0.00000000000E+00  0.45593999997E+02  0.45594000000E+02  0.51100000000E-03 0. -1.
         11   -1    0    0    0    0 -0.00000000000E+00 -0.00000000000E+00 -0.45593999997E+02  0.45594000000E+02  0.51100000000E-03 0.  1.
         23    2    1    2    0    0 -0.11102230246E-14  0.00000000000E+00 -0.35527136788E-14  0.91188000000E+02  0.91188000000E+02 0.  0.
    9900012    2    3    3    0    0 -0.15649588155E+01 -0.20640294724E+02 -0.30451736936E+02  0.54367093645E+02  0.40000021582E+02 0.  0.
         12    1    3    3    0    0  0.15649588155E+01  0.20640294724E+02  0.30451736936E+02  0.36820906355E+02  0.00000000000E+00 0. -1.
         11    1    4    4    0    0  0.38973194662E+01  0.45879796131E+01 -0.12589860848E+02  0.13955043977E+02  0.51100000000E-03 0. -1.
        -11    1    4    4    0    0  0.58976496757E+01 -0.96470260446E+01 -0.17849399150E+02  0.21129326385E+02  0.51100000000E-03 0.  1.
        -12    1    4    4    0    0 -0.11359927957E+02 -0.15581248292E+02 -0.12476937844E-01  0.19282723283E+02  0.00000000000E+00 0.  1.
</event>
<event>
 8    1  0.1265908E-006  0.9118800E+02  0.7816164E-02  0.1184000E+00
        -11   -1    0    0    0    0  0.00000000000E+00  0.00000000000E+00  0.45593999997E+02  0.45594000000E+02  0.51100000000E-03 0. -1.
         11   -1    0    0    0    0 -0.00000000000E+00 -0.00000000000E+00 -0.45593999997E+02  0.45594000000E+02  0.51100000000E-03 0.  1.
         23    2    1    2    0    0  0.00000000000E+00  0.41633363423E-15  0.00000000000E+00  0.91188000000E+02  0.91188000000E+02 0.  0.
    9900012    2    3    3    0    0  0.53332208516E+01 -0.21571611110E+00  0.36432083774E+02  0.54366993683E+02  0.39999793698E+02 0.  0.
        -12    1    3    3    0    0 -0.53332208516E+01  0.21571611110E+00 -0.36432083774E+02  0.36821006317E+02  0.00000000000E+00 0.  1.
         11    1    4    4    0    0  0.13132995155E+02  0.65344122614E+01  0.20236705053E+02  0.24993966011E+02  0.51100000000E-03 0. -1.
        -11    1    4    4    0    0 -0.77672710410E+01 -0.14517836873E+02  0.88999388554E+01  0.18716490023E+02  0.51100000000E-03 0.  1.
        -12    1    4    4    0    0 -0.32503262108E-01  0.77677085006E+01  0.72954398660E+01  0.10656537648E+02  0.00000000000E+00 0.  1.
</event>
<event>
 8    1  0.1265908E-006  0.9118800E+02  0.7816164E-02  0.1184000E+00
        -11   -1    0    0    0    0  0.00000000000E+00  0.00000000000E+00  0.45593999997E+02  0.45594000000E+02  0.51100000000E-03 0. -1.
         11   -1    0    0    0    0 -0.00000000000E+00 -0.00000000000E+00 -0.45593999997E+02  0.45594000000E+02  0.51100000000E-03 0.  1.
         23    2    1    2    0    0  0.00000000000E+00  0.00000000000E+00  0.00000000000E+00  0.91188000000E+02  0.91188000000E+02 0.  0.
    9900012    2    3    3    0    0 -0.25686074297E+01  0.26418886993E+02 -0.25519093635E+02  0.54367089174E+02  0.40000011390E+02 0.  0.
         12    1    3    3    0    0  0.25686074297E+01 -0.26418886993E+02  0.25519093635E+02  0.36820910826E+02  0.00000000000E+00 0. -1.
         11    1    4    4    0    0  0.21936070964E+01  0.22236120310E+01 -0.28188305664E+00  0.31362112296E+01  0.51100000000E-03 0. -1.
        -11    1    4    4    0    0 -0.17354027978E+01 -0.76661554775E+01  0.31334200601E+01  0.84616714785E+01  0.51100000000E-03 0.  1.
        -12    1    4    4    0    0 -0.30268117284E+01  0.31861430440E+02 -0.28370630638E+02  0.42769206466E+02  0.00000000000E+00 0.  1.
</event>
<event>
 8    1  0.1265908E-006  0.9118800E+02  0.7816164E-02  0.1184000E+00
        -11   -1    0    0    0    0  0.00000000000E+00  0.00000000000E+00  0.45593999997E+02  0.45594000000E+02  0.51100000000E-03 0. -1.
         11   -1    0    0    0    0 -0.00000000000E+00 -0.00000000000E+00 -0.45593999997E+02  0.45594000000E+02  0.51100000000E-03 0.  1.
         23    2    1    2    0    0  0.00000000000E+00  0.00000000000E+00 -0.88817841970E-15  0.91188000000E+02  0.91188000000E+02 0.  0.
    9900012    2    3    3    0    0 -0.36107771834E+02 -0.22944816943E+01  0.68369607791E+01  0.54367083855E+02  0.39999999263E+02 0.  0.
        -12    1    3    3    0    0  0.36107771834E+02  0.22944816943E+01 -0.68369607791E+01  0.36820916145E+02  0.00000000000E+00 0.  1.
         11    1    4    4    0    0 -0.11434945095E+02  0.11427242523E+02  0.94983695096E+01  0.18749903056E+02  0.51100000000E-03 0. -1.
        -11    1    4    4    0    0 -0.18153601334E+02 -0.78426444069E+01 -0.11732590147E+02  0.22993781431E+02  0.51100000000E-03 0.  1.
         12    1    4    4    0    0 -0.65192254054E+01 -0.58790798100E+01  0.90711814167E+01  0.12623399368E+02  0.00000000000E+00 0. -1.
</event>
<event>
 8    1  0.1265908E-006  0.9118800E+02  0.7816164E-02  0.1184000E+00
        -11   -1    0    0    0    0  0.00000000000E+00  0.00000000000E+00  0.45593999997E+02  0.45594000000E+02  0.51100000000E-03 0. -1.
         11   -1    0    0    0    0 -0.00000000000E+00 -0.00000000000E+00 -0.45593999997E+02  0.45594000000E+02  0.51100000000E-03 0.  1.
         23    2    1    2    0    0  0.71054273576E-14  0.00000000000E+00  0.17763568394E-14  0.91188000000E+02  0.91188000000E+02 0.  0.
    9900012    2    3    3    0    0  0.32508453507E+02 -0.12701910555E+02  0.11732083341E+02  0.54367083924E+02  0.39999999421E+02 0.  0.
        -12    1    3    3    0    0 -0.32508453507E+02  0.12701910555E+02 -0.11732083341E+02  0.36820916076E+02  0.00000000000E+00 0.  1.
         11    1    4    4    0    0  0.27104346643E+02 -0.19000123717E+02  0.63524903262E+01  0.33704664986E+02  0.51100000000E-03 0. -1.
        -11    1    4    4    0    0  0.89831467241E+01 -0.29238722739E+01  0.51673791854E+01  0.10767904255E+02  0.51100000000E-03 0.  1.
        -12    1    4    4    0    0 -0.35790398601E+01  0.92220854357E+01  0.21221382986E+00  0.98945146830E+01  0.00000000000E+00 0.  1.
</event>
<event>
 8    1  0.1265908E-006  0.9118800E+02  0.7816164E-02  0.1184000E+00
        -11   -1    0    0    0    0  0.00000000000E+00  0.00000000000E+00  0.45593999997E+02  0.45594000000E+02  0.51100000000E-03 0.  1.
         11   -1    0    0    0    0 -0.00000000000E+00 -0.00000000000E+00 -0.45593999997E+02  0.45594000000E+02  0.51100000000E-03 0. -1.
         23    2    1    2    0    0 -0.66613381478E-15  0.17763568394E-14  0.71054273576E-14  0.91188000000E+02  0.91188000000E+02 0.  0.
    9900012    2    3    3    0    0 -0.27430797638E+00 -0.13490615488E+02  0.34259425253E+02  0.54367079727E+02  0.39999989853E+02 0.  0.
         12    1    3    3    0    0  0.27430797638E+00  0.13490615488E+02 -0.34259425253E+02  0.36820920273E+02  0.00000000000E+00 0. -1.
         11    1    4    4    0    0  0.45894229182E+01  0.48894543895E+01  0.14910863162E+01  0.68697092815E+01  0.51100000000E-03 0. -1.
        -11    1    4    4    0    0 -0.90183879254E+01 -0.40467059893E+01 -0.16143927482E+01  0.10015658458E+02  0.51100000000E-03 0.  1.
        -12    1    4    4    0    0  0.41546570308E+01 -0.14333363888E+02  0.34382731685E+02  0.37481711987E+02  0.00000000000E+00 0.  1.
</event>
<event>
 8    1  0.1265908E-006  0.9118800E+02  0.7816164E-02  0.1184000E+00
        -11   -1    0    0    0    0  0.00000000000E+00  0.00000000000E+00  0.45593999997E+02  0.45594000000E+02  0.51100000000E-03 0. -1.
         11   -1    0    0    0    0 -0.00000000000E+00 -0.00000000000E+00 -0.45593999997E+02  0.45594000000E+02  0.51100000000E-03 0.  1.
         23    2    1    2    0    0  0.00000000000E+00  0.71054273576E-14  0.00000000000E+00  0.91188000000E+02  0.91188000000E+02 0.  0.
    9900012    2    3    3    0    0 -0.10615191175E+02  0.34919137959E+02  0.48735332289E+01  0.54367084672E+02  0.40000001126E+02 0.  0.
         12    1    3    3    0    0  0.10615191175E+02 -0.34919137959E+02 -0.48735332289E+01  0.36820915328E+02  0.00000000000E+00 0. -1.
         11    1    4    4    0    0 -0.13149805474E+02  0.64288775174E+01  0.51391973249E+00  0.14646226951E+02  0.51100000000E-03 0. -1.
        -11    1    4    4    0    0 -0.10431899999E+02  0.15800591484E+02 -0.46029081832E+01  0.19485122346E+02  0.51100000000E-03 0.  1.
         12    1    4    4    0    0  0.12966514298E+02  0.12689668958E+02  0.89625216796E+01  0.20235735375E+02  0.00000000000E+00 0. -1.
</event>
<event>
 8    1  0.1265908E-006  0.9118800E+02  0.7816164E-02  0.1184000E+00
        -11   -1    0    0    0    0  0.00000000000E+00  0.00000000000E+00  0.45593999997E+02  0.45594000000E+02  0.51100000000E-03 0.  1.
         11   -1    0    0    0    0 -0.00000000000E+00 -0.00000000000E+00 -0.45593999997E+02  0.45594000000E+02  0.51100000000E-03 0. -1.
         23    2    1    2    0    0  0.00000000000E+00  0.00000000000E+00  0.17763568394E-14  0.91188000000E+02  0.91188000000E+02 0.  0.
    9900012    2    3    3    0    0  0.31384954078E+01 -0.35125955673E+02  0.10587583930E+02  0.54367084085E+02  0.39999999788E+02 0.  0.
         12    1    3    3    0    0 -0.31384954078E+01  0.35125955673E+02 -0.10587583930E+02  0.36820915915E+02  0.00000000000E+00 0. -1.
         11    1    4    4    0    0  0.10096585720E+02 -0.37620817517E+01  0.13917767459E+02  0.17601095239E+02  0.51100000000E-03 0. -1.
        -11    1    4    4    0    0 -0.10126756423E+01 -0.22465082797E+02  0.51987428539E+01  0.23080996177E+02  0.51100000000E-03 0.  1.
        -12    1    4    4    0    0 -0.59454146704E+01 -0.88987911246E+01 -0.85289263829E+01  0.13684992668E+02  0.00000000000E+00 0.  1.
</event>
<event>
 8    1  0.1265908E-006  0.9118800E+02  0.7816164E-02  0.1184000E+00
        -11   -1    0    0    0    0  0.00000000000E+00  0.00000000000E+00  0.45593999997E+02  0.45594000000E+02  0.51100000000E-03 0.  1.
         11   -1    0    0    0    0 -0.00000000000E+00 -0.00000000000E+00 -0.45593999997E+02  0.45594000000E+02  0.51100000000E-03 0. -1.
         23    2    1    2    0    0 -0.88817841970E-15  0.00000000000E+00 -0.17763568394E-14  0.91188000000E+02  0.91188000000E+02 0.  0.
    9900012    2    3    3    0    0 -0.51553352830E+01 -0.35524253485E+02 -0.81993663623E+01  0.54367086428E+02  0.40000005129E+02 0.  0.
        -12    1    3    3    0    0  0.51553352830E+01  0.35524253485E+02  0.81993663623E+01  0.36820913572E+02  0.00000000000E+00 0.  1.
         11    1    4    4    0    0 -0.39606695934E+01 -0.90390509434E+01 -0.39678526119E+01  0.10636503194E+02  0.51100000000E-03 0. -1.
        -11    1    4    4    0    0  0.11733306939E+02 -0.26826500185E+02 -0.78256539121E+01  0.30307960395E+02  0.51100000000E-03 0.  1.
         12    1    4    4    0    0 -0.12927972628E+02  0.34129764369E+00  0.35941401617E+01  0.13422622838E+02  0.00000000000E+00 0. -1.
</event>
<event>
 8    1  0.1265908E-006  0.9118800E+02  0.7816164E-02  0.1184000E+00
        -11   -1    0    0    0    0  0.00000000000E+00  0.00000000000E+00  0.45593999997E+02  0.45594000000E+02  0.51100000000E-03 0. -1.
         11   -1    0    0    0    0 -0.00000000000E+00 -0.00000000000E+00 -0.45593999997E+02  0.45594000000E+02  0.51100000000E-03 0.  1.
         23    2    1    2    0    0  0.00000000000E+00  0.00000000000E+00  0.00000000000E+00  0.91188000000E+02  0.91188000000E+02 0.  0.
    9900012    2    3    3    0    0  0.33439880816E+02 -0.12848540963E+02  0.85130081630E+01  0.54367055663E+02  0.39999934995E+02 0.  0.
        -12    1    3    3    0    0 -0.33439880816E+02  0.12848540963E+02 -0.85130081630E+01  0.36820944337E+02  0.00000000000E+00 0.  1.
         11    1    4    4    0    0  0.16975752243E+02 -0.24881664023E+02  0.66964167845E+00  0.30128421615E+02  0.51100000000E-03 0. -1.
        -11    1    4    4    0    0  0.17330677590E+02  0.86013324051E+01  0.71827748322E+01  0.20638012487E+02  0.51100000000E-03 0.  1.
         12    1    4    4    0    0 -0.86654901686E+00  0.34317906548E+01  0.66059165232E+00  0.36006215613E+01  0.00000000000E+00 0. -1.
</event>
<event>
 8    1  0.1265908E-006  0.9118800E+02  0.7816164E-02  0.1184000E+00
        -11   -1    0    0    0    0  0.00000000000E+00  0.00000000000E+00  0.45593999997E+02  0.45594000000E+02  0.51100000000E-03 0. -1.
         11   -1    0    0    0    0 -0.00000000000E+00 -0.00000000000E+00 -0.45593999997E+02  0.45594000000E+02  0.51100000000E-03 0.  1.
         23    2    1    2    0    0 -0.43368086899E-15  0.00000000000E+00  0.00000000000E+00  0.91188000000E+02  0.91188000000E+02 0.  0.
    9900012    2    3    3    0    0  0.18031256587E-01  0.24240056654E+02  0.27716415118E+02  0.54367077433E+02  0.39999984623E+02 0.  0.
        -12    1    3    3    0    0 -0.18031256587E-01 -0.24240056654E+02 -0.27716415118E+02  0.36820922567E+02  0.00000000000E+00 0.  1.
         11    1    4    4    0    0  0.43102860659E+01  0.11904847349E+02  0.30767027950E+02  0.33270316583E+02  0.51100000000E-03 0. -1.
        -11    1    4    4    0    0 -0.42162477675E+00  0.58849315901E+01 -0.95033479256E+01  0.11185875439E+02  0.51100000000E-03 0.  1.
        -12    1    4    4    0    0 -0.38706300326E+01  0.64502777148E+01  0.64527350936E+01  0.99108854113E+01  0.00000000000E+00 0.  1.
</event>
<event>
 8    1  0.1265908E-006  0.9118800E+02  0.7816164E-02  0.1184000E+00
        -11   -1    0    0    0    0  0.00000000000E+00  0.00000000000E+00  0.45593999997E+02  0.45594000000E+02  0.51100000000E-03 0. -1.
         11   -1    0    0    0    0 -0.00000000000E+00 -0.00000000000E+00 -0.45593999997E+02  0.45594000000E+02  0.51100000000E-03 0.  1.
         23    2    1    2    0    0  0.00000000000E+00  0.00000000000E+00 -0.88817841970E-15  0.91188000000E+02  0.91188000000E+02 0.  0.
    9900012    2    3    3    0    0  0.11325588398E+02 -0.34525925251E+02 -0.59556758623E+01  0.54367101830E+02  0.40000040243E+02 0.  0.
        -12    1    3    3    0    0 -0.11325588398E+02  0.34525925251E+02  0.59556758623E+01  0.36820898170E+02  0.00000000000E+00 0.  1.
         11    1    4    4    0    0  0.50344684372E+01 -0.30282414209E+02 -0.12035927944E+02  0.32973232242E+02  0.51100000000E-03 0. -1.
        -11    1    4    4    0    0  0.61137874502E-01 -0.27907231286E+01 -0.66139521392E+01  0.71788743254E+01  0.51100000000E-03 0.  1.
         12    1    4    4    0    0  0.62299820867E+01 -0.14527879139E+01  0.12694204221E+02  0.14214995263E+02  0.00000000000E+00 0. -1.
</event>
<event>
 8    1  0.1265908E-006  0.9118800E+02  0.7816164E-02  0.1184000E+00
        -11   -1    0    0    0    0  0.00000000000E+00  0.00000000000E+00  0.45593999997E+02  0.45594000000E+02  0.51100000000E-03 0.  1.
         11   -1    0    0    0    0 -0.00000000000E+00 -0.00000000000E+00 -0.45593999997E+02  0.45594000000E+02  0.51100000000E-03 0. -1.
         23    2    1    2    0    0  0.00000000000E+00  0.00000000000E+00  0.53290705182E-14  0.91188000000E+02  0.91188000000E+02 0.  0.
    9900012    2    3    3    0    0  0.30992068359E+02  0.16902006554E+02 -0.10468721359E+02  0.54367078589E+02  0.39999987258E+02 0.  0.
        -12    1    3    3    0    0 -0.30992068359E+02 -0.16902006554E+02  0.10468721359E+02  0.36820921411E+02  0.00000000000E+00 0.  1.
         11    1    4    4    0    0  0.11610279008E+02  0.58983948069E+01 -0.10885023306E+02  0.16972724371E+02  0.51100000000E-03 0. -1.
        -11    1    4    4    0    0  0.80259987193E+01 -0.55631660275E+01  0.10985146591E+02  0.14698262400E+02  0.51100000000E-03 0.  1.
        -12    1    4    4    0    0  0.11355790632E+02  0.16566777774E+02 -0.10568844644E+02  0.22696091818E+02  0.00000000000E+00 0.  1.
</event>
<event>
 8    1  0.1265908E-006  0.9118800E+02  0.7816164E-02  0.1184000E+00
        -11   -1    0    0    0    0  0.00000000000E+00  0.00000000000E+00  0.45593999997E+02  0.45594000000E+02  0.51100000000E-03 0. -1.
         11   -1    0    0    0    0 -0.00000000000E+00 -0.00000000000E+00 -0.45593999997E+02  0.45594000000E+02  0.51100000000E-03 0.  1.
         23    2    1    2    0    0  0.00000000000E+00 -0.16653345369E-14  0.00000000000E+00  0.91188000000E+02  0.91188000000E+02 0.  0.
    9900012    2    3    3    0    0  0.34263383990E+02  0.83319375702E+00 -0.13457550363E+02  0.54367090776E+02  0.40000015042E+02 0.  0.
         12    1    3    3    0    0 -0.34263383990E+02 -0.83319375702E+00  0.13457550363E+02  0.36820909224E+02  0.00000000000E+00 0. -1.
         11    1    4    4    0    0  0.21302038521E+02 -0.11950354438E+02 -0.76434361690E+01  0.25593161842E+02  0.51100000000E-03 0. -1.
        -11    1    4    4    0    0  0.17573792746E+02  0.39428437909E+01 -0.20982406918E+01  0.18132479778E+02  0.51100000000E-03 0.  1.
         12    1    4    4    0    0 -0.46124472776E+01  0.88407044038E+01 -0.37158735025E+01  0.10641449156E+02  0.00000000000E+00 0. -1.
</event>
<event>
 8    1  0.1265908E-006  0.9118800E+02  0.7816164E-02  0.1184000E+00
        -11   -1    0    0    0    0  0.00000000000E+00  0.00000000000E+00  0.45593999997E+02  0.45594000000E+02  0.51100000000E-03 0.  1.
         11   -1    0    0    0    0 -0.00000000000E+00 -0.00000000000E+00 -0.45593999997E+02  0.45594000000E+02  0.51100000000E-03 0. -1.
         23    2    1    2    0    0 -0.17763568394E-14  0.00000000000E+00 -0.35527136788E-14  0.91188000000E+02  0.91188000000E+02 0.  0.
    9900012    2    3    3    0    0  0.44044347485E+01 -0.31044096810E+02 -0.19304029101E+02  0.54367074812E+02  0.39999978648E+02 0.  0.
         12    1    3    3    0    0 -0.44044347485E+01  0.31044096810E+02  0.19304029101E+02  0.36820925188E+02  0.00000000000E+00 0. -1.
         11    1    4    4    0    0 -0.19560655026E+01 -0.41505289773E+01  0.98976037890E+00  0.46939012464E+01  0.51100000000E-03 0. -1.
        -11    1    4    4    0    0 -0.88983133429E+01 -0.10483220086E+02  0.61061196605E+01  0.15045350819E+02  0.51100000000E-03 0.  1.
         12    1    4    4    0    0  0.15258813594E+02 -0.16410347747E+02 -0.26399909141E+02  0.34627822746E+02  0.00000000000E+00 0. -1.
</event>
<event>
 8    1  0.1265908E-006  0.9118800E+02  0.7816164E-02  0.1184000E+00
        -11   -1    0    0    0    0  0.00000000000E+00  0.00000000000E+00  0.45593999997E+02  0.45594000000E+02  0.51100000000E-03 0.  1.
         11   -1    0    0    0    0 -0.00000000000E+00 -0.00000000000E+00 -0.45593999997E+02  0.45594000000E+02  0.51100000000E-03 0. -1.
         23    2    1    2    0    0  0.00000000000E+00  0.35527136788E-14 -0.88817841970E-15  0.91188000000E+02  0.91188000000E+02 0.  0.
    9900012    2    3    3    0    0  0.19566758524E+02 -0.30810539177E+02  0.48614077059E+01  0.54367073227E+02  0.39999975036E+02 0.  0.
         12    1    3    3    0    0 -0.19566758524E+02  0.30810539177E+02 -0.48614077059E+01  0.36820926773E+02  0.00000000000E+00 0. -1.
         11    1    4    4    0    0  0.21747321105E+02 -0.20503344456E+02  0.19518288468E+01  0.29952341231E+02  0.51100000000E-03 0. -1.
        -11    1    4    4    0    0  0.71979621140E+00 -0.13409150542E+02  0.95882634615E+01  0.16500249128E+02  0.51100000000E-03 0.  1.
         12    1    4    4    0    0 -0.29003587926E+01  0.31019558206E+01 -0.66786846024E+01  0.79144828673E+01  0.00000000000E+00 0. -1.
</event>
<event>
 8    1  0.1265908E-006  0.9118800E+02  0.7816164E-02  0.1184000E+00
        -11   -1    0    0    0    0  0.00000000000E+00  0.00000000000E+00  0.45593999997E+02  0.45594000000E+02  0.51100000000E-03 0. -1.
         11   -1    0    0    0    0 -0.00000000000E+00 -0.00000000000E+00 -0.45593999997E+02  0.45594000000E+02  0.51100000000E-03 0.  1.
         23    2    1    2    0    0  0.71054273576E-14 -0.35527136788E-14 -0.17763568394E-14  0.91188000000E+02  0.91188000000E+02 0.  0.
    9900012    2    3    3    0    0  0.32728792398E+02 -0.13141746991E+02 -0.10578323746E+02  0.54367077971E+02  0.39999985850E+02 0.  0.
         12    1    3    3    0    0 -0.32728792398E+02  0.13141746991E+02  0.10578323746E+02  0.36820922029E+02  0.00000000000E+00 0. -1.
         11    1    4    4    0    0  0.57737421944E+01  0.42733932092E+01 -0.39468166886E+01  0.81960570204E+01  0.51100000000E-03 0. -1.
        -11    1    4    4    0    0  0.12114289607E+02 -0.67520681546E+01 -0.19421866545E+02  0.23865358523E+02  0.51100000000E-03 0.  1.
         12    1    4    4    0    0  0.14840760596E+02 -0.10663072046E+02  0.12790359488E+02  0.22305662428E+02  0.00000000000E+00 0. -1.
</event>
<event>
 8    1  0.1265908E-006  0.9118800E+02  0.7816164E-02  0.1184000E+00
        -11   -1    0    0    0    0  0.00000000000E+00  0.00000000000E+00  0.45593999997E+02  0.45594000000E+02  0.51100000000E-03 0. -1.
         11   -1    0    0    0    0 -0.00000000000E+00 -0.00000000000E+00 -0.45593999997E+02  0.45594000000E+02  0.51100000000E-03 0.  1.
         23    2    1    2    0    0  0.00000000000E+00  0.35527136788E-14  0.00000000000E+00  0.91188000000E+02  0.91188000000E+02 0.  0.
    9900012    2    3    3    0    0 -0.15019071257E+02  0.27116306338E+02 -0.19872344633E+02  0.54367127495E+02  0.40000098750E+02 0.  0.
         12    1    3    3    0    0  0.15019071257E+02 -0.27116306338E+02  0.19872344633E+02  0.36820872505E+02  0.00000000000E+00 0. -1.
         11    1    4    4    0    0 -0.11690027120E+02  0.14034215788E+02 -0.13582455186E+02  0.22761788945E+02  0.51100000000E-03 0. -1.
        -11    1    4    4    0    0 -0.11185775890E+02  0.18133188231E+02 -0.64596940845E+01  0.22263462121E+02  0.51100000000E-03 0.  1.
         12    1    4    4    0    0  0.78567317528E+01 -0.50510976807E+01  0.16980463701E+00  0.93418764299E+01  0.00000000000E+00 0. -1.
</event>
<event>
 8    1  0.1265908E-006  0.9118800E+02  0.7816164E-02  0.1184000E+00
        -11   -1    0    0    0    0  0.00000000000E+00  0.00000000000E+00  0.45593999997E+02  0.45594000000E+02  0.51100000000E-03 0. -1.
         11   -1    0    0    0    0 -0.00000000000E+00 -0.00000000000E+00 -0.45593999997E+02  0.45594000000E+02  0.51100000000E-03 0.  1.
         23    2    1    2    0    0  0.00000000000E+00  0.00000000000E+00  0.00000000000E+00  0.91188000000E+02  0.91188000000E+02 0.  0.
    9900012    2    3    3    0    0 -0.14369432279E+02  0.21975679863E+02  0.25814114184E+02  0.54367087727E+02  0.40000008091E+02 0.  0.
        -12    1    3    3    0    0  0.14369432279E+02 -0.21975679863E+02 -0.25814114184E+02  0.36820912273E+02  0.00000000000E+00 0.  1.
         11    1    4    4    0    0 -0.15057365920E+02  0.18180608129E+02  0.15699506756E+02  0.28350190353E+02  0.51100000000E-03 0. -1.
        -11    1    4    4    0    0  0.92209781970E+01  0.71280822158E+01 -0.90119596265E+00  0.11689659936E+02  0.51100000000E-03 0.  1.
         12    1    4    4    0    0 -0.85330445561E+01 -0.33330104817E+01  0.11015803391E+02  0.14327237438E+02  0.00000000000E+00 0. -1.
</event>
<event>
 8    1  0.1265908E-006  0.9118800E+02  0.7816164E-02  0.1184000E+00
        -11   -1    0    0    0    0  0.00000000000E+00  0.00000000000E+00  0.45593999997E+02  0.45594000000E+02  0.51100000000E-03 0.  1.
         11   -1    0    0    0    0 -0.00000000000E+00 -0.00000000000E+00 -0.45593999997E+02  0.45594000000E+02  0.51100000000E-03 0. -1.
         23    2    1    2    0    0  0.00000000000E+00  0.88817841970E-15  0.35527136788E-14  0.91188000000E+02  0.91188000000E+02 0.  0.
    9900012    2    3    3    0    0  0.19894198461E+02 -0.71431419441E+01  0.30149247709E+02  0.54367071893E+02  0.39999971995E+02 0.  0.
         12    1    3    3    0    0 -0.19894198461E+02  0.71431419441E+01 -0.30149247709E+02  0.36820928107E+02  0.00000000000E+00 0. -1.
         11    1    4    4    0    0  0.18588380960E+02 -0.17765876913E+02  0.25507990452E+02  0.36218943474E+02  0.51100000000E-03 0. -1.
        -11    1    4    4    0    0  0.18311839796E+00  0.10739369102E+02  0.87708457627E+01  0.13867058690E+02  0.51100000000E-03 0.  1.
        -12    1    4    4    0    0  0.11226991024E+01 -0.11663413305E+00 -0.41295885060E+01  0.42810697290E+01  0.00000000000E+00 0.  1.
</event>
<event>
 8    1  0.1265908E-006  0.9118800E+02  0.7816164E-02  0.1184000E+00
        -11   -1    0    0    0    0  0.00000000000E+00  0.00000000000E+00  0.45593999997E+02  0.45594000000E+02  0.51100000000E-03 0.  1.
         11   -1    0    0    0    0 -0.00000000000E+00 -0.00000000000E+00 -0.45593999997E+02  0.45594000000E+02  0.51100000000E-03 0. -1.
         23    2    1    2    0    0  0.44408920985E-15 -0.88817841970E-15  0.00000000000E+00  0.91188000000E+02  0.91188000000E+02 0.  0.
    9900012    2    3    3    0    0 -0.36906958363E+01 -0.22950120946E+01 -0.36563530092E+02  0.54367081366E+02  0.39999993590E+02 0.  0.
        -12    1    3    3    0    0  0.36906958363E+01  0.22950120946E+01  0.36563530092E+02  0.36820918634E+02  0.00000000000E+00 0.  1.
         11    1    4    4    0    0 -0.30872218866E+01  0.10608935358E+02 -0.19589776373E+02  0.22490882309E+02  0.51100000000E-03 0. -1.
        -11    1    4    4    0    0 -0.70899398972E+01  0.16847234140E+01  0.15200140500E+01  0.74441912725E+01  0.51100000000E-03 0.  1.
         12    1    4    4    0    0  0.64864659475E+01 -0.14588670866E+02 -0.18493767768E+02  0.24432007785E+02  0.00000000000E+00 0. -1.
</event>
<event>
 8    1  0.1265908E-006  0.9118800E+02  0.7816164E-02  0.1184000E+00
        -11   -1    0    0    0    0  0.00000000000E+00  0.00000000000E+00  0.45593999997E+02  0.45594000000E+02  0.51100000000E-03 0.  1.
         11   -1    0    0    0    0 -0.00000000000E+00 -0.00000000000E+00 -0.45593999997E+02  0.45594000000E+02  0.51100000000E-03 0. -1.
         23    2    1    2    0    0  0.00000000000E+00  0.88817841970E-15  0.00000000000E+00  0.91188000000E+02  0.91188000000E+02 0.  0.
    9900012    2    3    3    0    0  0.32930108530E+02 -0.66828873820E+01  0.15057463469E+02  0.54367078804E+02  0.39999987750E+02 0.  0.
         12    1    3    3    0    0 -0.32930108530E+02  0.66828873820E+01 -0.15057463469E+02  0.36820921196E+02  0.00000000000E+00 0. -1.
         11    1    4    4    0    0 -0.10069035522E+01 -0.51564199758E+01 -0.62222717954E+00  0.52905282018E+01  0.51100000000E-03 0. -1.
        -11    1    4    4    0    0  0.25297145967E+02 -0.15246890075E+02  0.14264643966E+02  0.32800812776E+02  0.51100000000E-03 0.  1.
        -12    1    4    4    0    0  0.86398661148E+01  0.13720422668E+02  0.14150466833E+01  0.16275737826E+02  0.00000000000E+00 0.  1.
</event>
<event>
 8    1  0.1265908E-006  0.9118800E+02  0.7816164E-02  0.1184000E+00
        -11   -1    0    0    0    0  0.00000000000E+00  0.00000000000E+00  0.45593999997E+02  0.45594000000E+02  0.51100000000E-03 0.  1.
         11   -1    0    0    0    0 -0.00000000000E+00 -0.00000000000E+00 -0.45593999997E+02  0.45594000000E+02  0.51100000000E-03 0. -1.
         23    2    1    2    0    0  0.00000000000E+00  0.00000000000E+00 -0.35527136788E-14  0.91188000000E+02  0.91188000000E+02 0.  0.
    9900012    2    3    3    0    0 -0.26978488257E+02  0.29951955491E+01 -0.24879031554E+02  0.54367133144E+02  0.40000111628E+02 0.  0.
        -12    1    3    3    0    0  0.26978488257E+02 -0.29951955491E+01  0.24879031554E+02  0.36820866856E+02  0.00000000000E+00 0.  1.
         11    1    4    4    0    0 -0.16357224960E+02  0.19278654637E+01 -0.49763531780E+01  0.17205800326E+02  0.51100000000E-03 0. -1.
        -11    1    4    4    0    0  0.28458301253E+01 -0.50230820498E+01  0.53695882663E+01  0.78843250055E+01  0.51100000000E-03 0.  1.
        -12    1    4    4    0    0 -0.13467093422E+02  0.60904121352E+01 -0.25272266642E+02  0.29277007812E+02  0.00000000000E+00 0.  1.
</event>
<event>
 8    1  0.1265908E-006  0.9118800E+02  0.7816164E-02  0.1184000E+00
        -11   -1    0    0    0    0  0.00000000000E+00  0.00000000000E+00  0.45593999997E+02  0.45594000000E+02  0.51100000000E-03 0. -1.
         11   -1    0    0    0    0 -0.00000000000E+00 -0.00000000000E+00 -0.45593999997E+02  0.45594000000E+02  0.51100000000E-03 0.  1.
         23    2    1    2    0    0 -0.35527136788E-14  0.17763568394E-14  0.00000000000E+00  0.91188000000E+02  0.91188000000E+02 0.  0.
    9900012    2    3    3    0    0  0.12221509030E+02 -0.10282209935E+02 -0.33176638815E+02  0.54367102575E+02  0.40000041941E+02 0.  0.
         12    1    3    3    0    0 -0.12221509030E+02  0.10282209935E+02  0.33176638815E+02  0.36820897425E+02  0.00000000000E+00 0. -1.
         11    1    4    4    0    0  0.57354031342E+01  0.14047366495E+01 -0.40374167910E+00  0.59187111579E+01  0.51100000000E-03 0. -1.
        -11    1    4    4    0    0 -0.12432165028E+02 -0.82469655870E+01 -0.75164901954E+01  0.16705352250E+02  0.51100000000E-03 0.  1.
        -12    1    4    4    0    0  0.18918270924E+02 -0.34399809978E+01 -0.25256406940E+02  0.31743039167E+02  0.00000000000E+00 0.  1.
</event>
<event>
 8    1  0.1265908E-006  0.9118800E+02  0.7816164E-02  0.1184000E+00
        -11   -1    0    0    0    0  0.00000000000E+00  0.00000000000E+00  0.45593999997E+02  0.45594000000E+02  0.51100000000E-03 0. -1.
         11   -1    0    0    0    0 -0.00000000000E+00 -0.00000000000E+00 -0.45593999997E+02  0.45594000000E+02  0.51100000000E-03 0.  1.
         23    2    1    2    0    0 -0.35527136788E-14  0.17763568394E-14 -0.35527136788E-14  0.91188000000E+02  0.91188000000E+02 0.  0.
    9900012    2    3    3    0    0 -0.19953452250E+02 -0.94804937646E+01  0.29457755783E+02  0.54367090255E+02  0.40000013854E+02 0.  0.
        -12    1    3    3    0    0  0.19953452250E+02  0.94804937646E+01 -0.29457755783E+02  0.36820909745E+02  0.00000000000E+00 0.  1.
         11    1    4    4    0    0 -0.21655442446E+02  0.44409157554E+00  0.20053617960E+01  0.21752629291E+02  0.51100000000E-03 0. -1.
        -11    1    4    4    0    0 -0.32251793116E+01 -0.11875961578E+02  0.19470241582E+02  0.23033248848E+02  0.51100000000E-03 0.  1.
         12    1    4    4    0    0  0.49271695080E+01  0.19513762382E+01  0.79821524051E+01  0.95812121155E+01  0.00000000000E+00 0. -1.
</event>
<event>
 8    1  0.1265908E-006  0.9118800E+02  0.7816164E-02  0.1184000E+00
        -11   -1    0    0    0    0  0.00000000000E+00  0.00000000000E+00  0.45593999997E+02  0.45594000000E+02  0.51100000000E-03 0. -1.
         11   -1    0    0    0    0 -0.00000000000E+00 -0.00000000000E+00 -0.45593999997E+02  0.45594000000E+02  0.51100000000E-03 0.  1.
         23    2    1    2    0    0  0.00000000000E+00  0.44408920985E-15 -0.35527136788E-14  0.91188000000E+02  0.91188000000E+02 0.  0.
    9900012    2    3    3    0    0  0.18936821046E+02 -0.13133210627E+01  0.31550767407E+02  0.54367096596E+02  0.40000028309E+02 0.  0.
        -12    1    3    3    0    0 -0.18936821046E+02  0.13133210627E+01 -0.31550767407E+02  0.36820903404E+02  0.00000000000E+00 0.  1.
         11    1    4    4    0    0  0.25847385737E+02 -0.40009719458E+01  0.29301122128E+02  0.39276594610E+02  0.51100000000E-03 0. -1.
        -11    1    4    4    0    0 -0.52848290166E+01  0.38676212495E+01  0.72091582491E+01  0.97396034203E+01  0.51100000000E-03 0.  1.
         12    1    4    4    0    0 -0.16257356749E+01 -0.11799703664E+01 -0.49595129703E+01  0.53508985650E+01  0.00000000000E+00 0. -1.
</event>
<event>
 8    1  0.1265908E-006  0.9118800E+02  0.7816164E-02  0.1184000E+00
        -11   -1    0    0    0    0  0.00000000000E+00  0.00000000000E+00  0.45593999997E+02  0.45594000000E+02  0.51100000000E-03 0. -1.
         11   -1    0    0    0    0 -0.00000000000E+00 -0.00000000000E+00 -0.45593999997E+02  0.45594000000E+02  0.51100000000E-03 0.  1.
         23    2    1    2    0    0  0.00000000000E+00  0.00000000000E+00  0.00000000000E+00  0.91188000000E+02  0.91188000000E+02 0.  0.
    9900012    2    3    3    0    0 -0.20801971925E+02  0.16067132733E+02 -0.25785757074E+02  0.54367081243E+02  0.39999993309E+02 0.  0.
         12    1    3    3    0    0  0.20801971925E+02 -0.16067132733E+02  0.25785757074E+02  0.36820918757E+02  0.00000000000E+00 0. -1.
         11    1    4    4    0    0  0.29490010627E+01 -0.13404268974E+01  0.26149140338E+01  0.41630670425E+01  0.51100000000E-03 0. -1.
        -11    1    4    4    0    0  0.18178003215E+01 -0.53970812425E-01 -0.17172667148E+02  0.17268694453E+02  0.51100000000E-03 0.  1.
        -12    1    4    4    0    0 -0.25568773309E+02  0.17461530443E+02 -0.11228003960E+02  0.32935319747E+02  0.00000000000E+00 0.  1.
</event>
<event>
 8    1  0.1265908E-006  0.9118800E+02  0.7816164E-02  0.1184000E+00
        -11   -1    0    0    0    0  0.00000000000E+00  0.00000000000E+00  0.45593999997E+02  0.45594000000E+02  0.51100000000E-03 0.  1.
         11   -1    0    0    0    0 -0.00000000000E+00 -0.00000000000E+00 -0.45593999997E+02  0.45594000000E+02  0.51100000000E-03 0. -1.
         23    2    1    2    0    0  0.00000000000E+00  0.17763568394E-14  0.00000000000E+00  0.91188000000E+02  0.91188000000E+02 0.  0.
    9900012    2    3    3    0    0  0.13213231517E+02  0.86840769318E+01  0.33253227288E+02  0.54367084689E+02  0.40000001166E+02 0.  0.
         12    1    3    3    0    0 -0.13213231517E+02 -0.86840769318E+01 -0.33253227288E+02  0.36820915311E+02  0.00000000000E+00 0. -1.
         11    1    4    4    0    0  0.13161773509E+02 -0.10856172889E+02  0.69629452595E+01  0.18427462621E+02  0.51100000000E-03 0. -1.
        -11    1    4    4    0    0  0.68893544447E+01  0.64129470806E+01  0.75948813124E+01  0.12094267954E+02  0.51100000000E-03 0.  1.
        -12    1    4    4    0    0 -0.68378964368E+01  0.13127302740E+02  0.18695400716E+02  0.23845354114E+02  0.00000000000E+00 0.  1.
</event>
<event>
 8    1  0.1265908E-006  0.9118800E+02  0.7816164E-02  0.1184000E+00
        -11   -1    0    0    0    0  0.00000000000E+00  0.00000000000E+00  0.45593999997E+02  0.45594000000E+02  0.51100000000E-03 0.  1.
         11   -1    0    0    0    0 -0.00000000000E+00 -0.00000000000E+00 -0.45593999997E+02  0.45594000000E+02  0.51100000000E-03 0. -1.
         23    2    1    2    0    0  0.17763568394E-14 -0.35527136788E-14 -0.35527136788E-14  0.91188000000E+02  0.91188000000E+02 0.  0.
    9900012    2    3    3    0    0 -0.13065750027E+02  0.30656380717E+02  0.15660478118E+02  0.54367108141E+02  0.40000054628E+02 0.  0.
         12    1    3    3    0    0  0.13065750027E+02 -0.30656380717E+02 -0.15660478118E+02  0.36820891859E+02  0.00000000000E+00 0. -1.
         11    1    4    4    0    0  0.47551067244E+01 -0.38819978920E+01  0.29815854604E+01  0.68242801608E+01  0.51100000000E-03 0. -1.
        -11    1    4    4    0    0  0.44386326899E+01  0.16662312729E+02  0.55923962022E+01  0.18127576263E+02  0.51100000000E-03 0.  1.
        -12    1    4    4    0    0 -0.22259489442E+02  0.17876065881E+02  0.70864964549E+01  0.29415251717E+02  0.00000000000E+00 0.  1.
</event>
<event>
 8    1  0.1265908E-006  0.9118800E+02  0.7816164E-02  0.1184000E+00
        -11   -1    0    0    0    0  0.00000000000E+00  0.00000000000E+00  0.45593999997E+02  0.45594000000E+02  0.51100000000E-03 0. -1.
         11   -1    0    0    0    0 -0.00000000000E+00 -0.00000000000E+00 -0.45593999997E+02  0.45594000000E+02  0.51100000000E-03 0.  1.
         23    2    1    2    0    0  0.00000000000E+00 -0.35527136788E-14 -0.71054273576E-14  0.91188000000E+02  0.91188000000E+02 0.  0.
    9900012    2    3    3    0    0  0.20031879599E+02  0.21553980814E+02  0.22134346546E+02  0.54367087651E+02  0.40000007917E+02 0.  0.
        -12    1    3    3    0    0 -0.20031879599E+02 -0.21553980814E+02 -0.22134346546E+02  0.36820912349E+02  0.00000000000E+00 0.  1.
         11    1    4    4    0    0 -0.37738539882E+01  0.45191549705E+01 -0.33661535134E+01  0.67820148414E+01  0.51100000000E-03 0. -1.
        -11    1    4    4    0    0 -0.46166739551E+01  0.18273947417E+01  0.11335106317E+02  0.12374881229E+02  0.51100000000E-03 0.  1.
         12    1    4    4    0    0  0.28422407542E+02  0.15207431102E+02  0.14165393742E+02  0.35210191580E+02  0.00000000000E+00 0. -1.
</event>
<event>
 8    1  0.1265908E-006  0.9118800E+02  0.7816164E-02  0.1184000E+00
        -11   -1    0    0    0    0  0.00000000000E+00  0.00000000000E+00  0.45593999997E+02  0.45594000000E+02  0.51100000000E-03 0. -1.
         11   -1    0    0    0    0 -0.00000000000E+00 -0.00000000000E+00 -0.45593999997E+02  0.45594000000E+02  0.51100000000E-03 0.  1.
         23    2    1    2    0    0  0.00000000000E+00 -0.35527136788E-14  0.00000000000E+00  0.91188000000E+02  0.91188000000E+02 0.  0.
    9900012    2    3    3    0    0 -0.10396859805E+02 -0.30636496659E+02  0.17580960340E+02  0.54367084913E+02  0.40000001677E+02 0.  0.
        -12    1    3    3    0    0  0.10396859805E+02  0.30636496659E+02 -0.17580960340E+02  0.36820915087E+02  0.00000000000E+00 0.  1.
         11    1    4    4    0    0 -0.10036037752E+02 -0.14548977398E+02 -0.10192535411E+01  0.17704058154E+02  0.51100000000E-03 0. -1.
        -11    1    4    4    0    0 -0.76171082592E+01 -0.13818583643E+02 -0.82759339450E+00  0.15800585534E+02  0.51100000000E-03 0.  1.
        -12    1    4    4    0    0  0.72562862063E+01 -0.22689356179E+01  0.19427807275E+02  0.20862441225E+02  0.00000000000E+00 0.  1.
</event>
<event>
 8    1  0.1265908E-006  0.9118800E+02  0.7816164E-02  0.1184000E+00
        -11   -1    0    0    0    0  0.00000000000E+00  0.00000000000E+00  0.45593999997E+02  0.45594000000E+02  0.51100000000E-03 0.  1.
         11   -1    0    0    0    0 -0.00000000000E+00 -0.00000000000E+00 -0.45593999997E+02  0.45594000000E+02  0.51100000000E-03 0. -1.
         23    2    1    2    0    0 -0.44408920985E-15  0.00000000000E+00  0.53290705182E-14  0.91188000000E+02  0.91188000000E+02 0.  0.
    9900012    2    3    3    0    0 -0.31425696488E+01  0.34139929906E+02  0.13430161456E+02  0.54367084820E+02  0.40000001463E+02 0.  0.
         12    1    3    3    0    0  0.31425696488E+01 -0.34139929906E+02 -0.13430161456E+02  0.36820915180E+02  0.00000000000E+00 0. -1.
         11    1    4    4    0    0 -0.30960870309E+01  0.66627263518E+01 -0.79191644451E+01  0.10802353591E+02  0.51100000000E-03 0. -1.
        -11    1    4    4    0    0  0.31963022701E+00 -0.12013901015E-01 -0.52805204044E+01  0.52901988449E+01  0.51100000000E-03 0.  1.
        -12    1    4    4    0    0 -0.36611284488E+00  0.27489217455E+02  0.26629846306E+02  0.38274532384E+02  0.00000000000E+00 0.  1.
</event>
<event>
 8    1  0.1265908E-006  0.9118800E+02  0.7816164E-02  0.1184000E+00
        -11   -1    0    0    0    0  0.00000000000E+00  0.00000000000E+00  0.45593999997E+02  0.45594000000E+02  0.51100000000E-03 0.  1.
         11   -1    0    0    0    0 -0.00000000000E+00 -0.00000000000E+00 -0.45593999997E+02  0.45594000000E+02  0.51100000000E-03 0. -1.
         23    2    1    2    0    0 -0.71054273576E-14 -0.44408920985E-15 -0.35527136788E-14  0.91188000000E+02  0.91188000000E+02 0.  0.
    9900012    2    3    3    0    0 -0.33543656324E+02 -0.17315038782E+01 -0.15086501155E+02  0.54367115948E+02  0.40000072427E+02 0.  0.
         12    1    3    3    0    0  0.33543656324E+02  0.17315038782E+01  0.15086501155E+02  0.36820884052E+02  0.00000000000E+00 0. -1.
         11    1    4    4    0    0 -0.13143551341E+02 -0.19222275155E+01 -0.18514197501E+02  0.22786474274E+02  0.51100000000E-03 0. -1.
        -11    1    4    4    0    0 -0.72969268244E+01 -0.42374137405E+01  0.12469526044E+02  0.15056224504E+02  0.51100000000E-03 0.  1.
        -12    1    4    4    0    0 -0.13103178159E+02  0.44281373778E+01 -0.90418296986E+01  0.16524417170E+02  0.00000000000E+00 0.  1.
</event>
<event>
 8    1  0.1265908E-006  0.9118800E+02  0.7816164E-02  0.1184000E+00
        -11   -1    0    0    0    0  0.00000000000E+00  0.00000000000E+00  0.45593999997E+02  0.45594000000E+02  0.51100000000E-03 0. -1.
         11   -1    0    0    0    0 -0.00000000000E+00 -0.00000000000E+00 -0.45593999997E+02  0.45594000000E+02  0.51100000000E-03 0.  1.
         23    2    1    2    0    0 -0.22204460493E-14  0.00000000000E+00  0.00000000000E+00  0.91188000000E+02  0.91188000000E+02 0.  0.
    9900012    2    3    3    0    0 -0.30775066063E+01 -0.14797807411E+02  0.33575784894E+02  0.54367089062E+02  0.40000011134E+02 0.  0.
        -12    1    3    3    0    0  0.30775066063E+01  0.14797807411E+02 -0.33575784894E+02  0.36820910938E+02  0.00000000000E+00 0.  1.
         11    1    4    4    0    0  0.10124254965E+02 -0.26798105897E+01  0.67777987930E+01  0.12474793791E+02  0.51100000000E-03 0. -1.
        -11    1    4    4    0    0 -0.19564716410E+02 -0.11384805586E+02  0.11676490370E+02  0.25470224853E+02  0.51100000000E-03 0.  1.
        -12    1    4    4    0    0  0.63629548391E+01 -0.73319123529E+00  0.15121495731E+02  0.16422070418E+02  0.00000000000E+00 0.  1.
</event>
<event>
 8    1  0.1265908E-006  0.9118800E+02  0.7816164E-02  0.1184000E+00
        -11   -1    0    0    0    0  0.00000000000E+00  0.00000000000E+00  0.45593999997E+02  0.45594000000E+02  0.51100000000E-03 0.  1.
         11   -1    0    0    0    0 -0.00000000000E+00 -0.00000000000E+00 -0.45593999997E+02  0.45594000000E+02  0.51100000000E-03 0. -1.
         23    2    1    2    0    0  0.17763568394E-14  0.88817841970E-15  0.00000000000E+00  0.91188000000E+02  0.91188000000E+02 0.  0.
    9900012    2    3    3    0    0  0.15492562476E+02  0.48168450519E+01 -0.33053848759E+02  0.54367103676E+02  0.40000044450E+02 0.  0.
        -12    1    3    3    0    0 -0.15492562476E+02 -0.48168450519E+01  0.33053848759E+02  0.36820896324E+02  0.00000000000E+00 0.  1.
         11    1    4    4    0    0 -0.12568026563E+02  0.42231158924E+01 -0.11095137606E+02  0.17288495547E+02  0.51100000000E-03 0. -1.
        -11    1    4    4    0    0  0.14640727007E+02  0.52350222545E+01 -0.97554253084E+01  0.18355507852E+02  0.51100000000E-03 0.  1.
         12    1    4    4    0    0  0.13419862032E+02 -0.46412930951E+01 -0.12203285845E+02  0.18723100277E+02  0.00000000000E+00 0. -1.
</event>
<event>
 8    1  0.1265908E-006  0.9118800E+02  0.7816164E-02  0.1184000E+00
        -11   -1    0    0    0    0  0.00000000000E+00  0.00000000000E+00  0.45593999997E+02  0.45594000000E+02  0.51100000000E-03 0.  1.
         11   -1    0    0    0    0 -0.00000000000E+00 -0.00000000000E+00 -0.45593999997E+02  0.45594000000E+02  0.51100000000E-03 0. -1.
         23    2    1    2    0    0  0.00000000000E+00  0.00000000000E+00  0.00000000000E+00  0.91188000000E+02  0.91188000000E+02 0.  0.
    9900012    2    3    3    0    0  0.32089432644E+02  0.12778220205E+02  0.12757945006E+02  0.54367085293E+02  0.40000002543E+02 0.  0.
        -12    1    3    3    0    0 -0.32089432644E+02 -0.12778220205E+02 -0.12757945006E+02  0.36820914707E+02  0.00000000000E+00 0.  1.
         11    1    4    4    0    0 -0.24704526977E+00 -0.28166793882E+01 -0.98512690445E+01  0.10249010498E+02  0.51100000000E-03 0. -1.
        -11    1    4    4    0    0  0.13402435142E+02  0.63472008930E+00  0.10947604660E+02  0.17316991233E+02  0.51100000000E-03 0.  1.
         12    1    4    4    0    0  0.18934042772E+02  0.14960179504E+02  0.11661609391E+02  0.26801083562E+02  0.00000000000E+00 0. -1.
</event>
<event>
 8    1  0.1265908E-006  0.9118800E+02  0.7816164E-02  0.1184000E+00
        -11   -1    0    0    0    0  0.00000000000E+00  0.00000000000E+00  0.45593999997E+02  0.45594000000E+02  0.51100000000E-03 0. -1.
         11   -1    0    0    0    0 -0.00000000000E+00 -0.00000000000E+00 -0.45593999997E+02  0.45594000000E+02  0.51100000000E-03 0.  1.
         23    2    1    2    0    0  0.35527136788E-14  0.35527136788E-14  0.35527136788E-14  0.91188000000E+02  0.91188000000E+02 0.  0.
    9900012    2    3    3    0    0  0.27449187588E+02 -0.16465110469E+02 -0.18199579573E+02  0.54367048646E+02  0.39999918997E+02 0.  0.
         12    1    3    3    0    0 -0.27449187588E+02  0.16465110469E+02  0.18199579573E+02  0.36820951354E+02  0.00000000000E+00 0. -1.
         11    1    4    4    0    0  0.13729322296E+02 -0.46267874287E+00 -0.34843501329E+01  0.14172122580E+02  0.51100000000E-03 0. -1.
        -11    1    4    4    0    0  0.21124539392E+02 -0.80360064409E+01 -0.17934138625E+02  0.28852329066E+02  0.51100000000E-03 0.  1.
         12    1    4    4    0    0 -0.74046740996E+01 -0.79664252850E+01  0.32189091851E+01  0.11342596999E+02  0.00000000000E+00 0. -1.
</event>
<event>
 8    1  0.1265908E-006  0.9118800E+02  0.7816164E-02  0.1184000E+00
        -11   -1    0    0    0    0  0.00000000000E+00  0.00000000000E+00  0.45593999997E+02  0.45594000000E+02  0.51100000000E-03 0. -1.
         11   -1    0    0    0    0 -0.00000000000E+00 -0.00000000000E+00 -0.45593999997E+02  0.45594000000E+02  0.51100000000E-03 0.  1.
         23    2    1    2    0    0 -0.17763568394E-14 -0.88817841970E-15 -0.71054273576E-14  0.91188000000E+02  0.91188000000E+02 0.  0.
    9900012    2    3    3    0    0  0.64596246038E+01  0.32432347002E+01  0.36104487041E+02  0.54367091458E+02  0.40000016596E+02 0.  0.
        -12    1    3    3    0    0 -0.64596246038E+01 -0.32432347002E+01 -0.36104487041E+02  0.36820908542E+02  0.00000000000E+00 0.  1.
         11    1    4    4    0    0  0.72317453413E+00 -0.65916325265E+01  0.16919234376E+02  0.18172316663E+02  0.51100000000E-03 0. -1.
        -11    1    4    4    0    0  0.11612554721E+02 -0.63576633779E+01  0.10534448264E+02  0.16918803482E+02  0.51100000000E-03 0.  1.
        -12    1    4    4    0    0 -0.58761046515E+01  0.16192530605E+02  0.86508044014E+01  0.19275971313E+02  0.00000000000E+00 0.  1.
</event>
<event>
 8    1  0.1265908E-006  0.9118800E+02  0.7816164E-02  0.1184000E+00
        -11   -1    0    0    0    0  0.00000000000E+00  0.00000000000E+00  0.45593999997E+02  0.45594000000E+02  0.51100000000E-03 0.  1.
         11   -1    0    0    0    0 -0.00000000000E+00 -0.00000000000E+00 -0.45593999997E+02  0.45594000000E+02  0.51100000000E-03 0. -1.
         23    2    1    2    0    0  0.00000000000E+00  0.35527136788E-14  0.00000000000E+00  0.91188000000E+02  0.91188000000E+02 0.  0.
    9900012    2    3    3    0    0  0.21062428817E+02  0.21741084579E+02 -0.20963768046E+02  0.54367078813E+02  0.39999987771E+02 0.  0.
        -12    1    3    3    0    0 -0.21062428817E+02 -0.21741084579E+02  0.20963768046E+02  0.36820921187E+02  0.00000000000E+00 0.  1.
         11    1    4    4    0    0 -0.16846921110E+01 -0.94267654567E+01 -0.10323205309E+02  0.14080861571E+02  0.51100000000E-03 0. -1.
        -11    1    4    4    0    0  0.14952991595E+01  0.44991251122E+01 -0.95061943211E+00  0.48354652224E+01  0.51100000000E-03 0.  1.
         12    1    4    4    0    0  0.21251821769E+02  0.26668724923E+02 -0.96899433055E+01  0.35450752020E+02  0.00000000000E+00 0. -1.
</event>
<event>
 8    1  0.1265908E-006  0.9118800E+02  0.7816164E-02  0.1184000E+00
        -11   -1    0    0    0    0  0.00000000000E+00  0.00000000000E+00  0.45593999997E+02  0.45594000000E+02  0.51100000000E-03 0.  1.
         11   -1    0    0    0    0 -0.00000000000E+00 -0.00000000000E+00 -0.45593999997E+02  0.45594000000E+02  0.51100000000E-03 0. -1.
         23    2    1    2    0    0  0.71054273576E-14  0.00000000000E+00  0.22204460493E-15  0.91188000000E+02  0.91188000000E+02 0.  0.
    9900012    2    3    3    0    0  0.31304326160E+02 -0.19300367499E+02 -0.18203838432E+01  0.54367098066E+02  0.40000031660E+02 0.  0.
        -12    1    3    3    0    0 -0.31304326160E+02  0.19300367499E+02  0.18203838432E+01  0.36820901934E+02  0.00000000000E+00 0.  1.
         11    1    4    4    0    0  0.35598964087E+01  0.85344342193E+01  0.18300822827E+01  0.94264856286E+01  0.51100000000E-03 0. -1.
        -11    1    4    4    0    0 -0.55674233433E+00 -0.11568179518E+02 -0.41250454453E+01  0.12294256366E+02  0.51100000000E-03 0.  1.
         12    1    4    4    0    0  0.28301172086E+02 -0.16266622200E+02  0.47457931943E+00  0.32646356071E+02  0.00000000000E+00 0. -1.
</event>
<event>
 8    1  0.1265908E-006  0.9118800E+02  0.7816164E-02  0.1184000E+00
        -11   -1    0    0    0    0  0.00000000000E+00  0.00000000000E+00  0.45593999997E+02  0.45594000000E+02  0.51100000000E-03 0.  1.
         11   -1    0    0    0    0 -0.00000000000E+00 -0.00000000000E+00 -0.45593999997E+02  0.45594000000E+02  0.51100000000E-03 0. -1.
         23    2    1    2    0    0  0.35527136788E-14 -0.35527136788E-14 -0.17763568394E-14  0.91188000000E+02  0.91188000000E+02 0.  0.
    9900012    2    3    3    0    0  0.24370279555E+02 -0.23562610382E+02 -0.14376109818E+02  0.54367086553E+02  0.40000005414E+02 0.  0.
        -12    1    3    3    0    0 -0.24370279555E+02  0.23562610382E+02  0.14376109818E+02  0.36820913447E+02  0.00000000000E+00 0.  1.
         11    1    4    4    0    0  0.15066692526E+02 -0.34355257369E+01 -0.21925430723E+02  0.26824104336E+02  0.51100000000E-03 0. -1.
        -11    1    4    4    0    0  0.21545164136E+01  0.16867301923E+01 -0.11852922114E+01  0.29819318580E+01  0.51100000000E-03 0.  1.
        -12    1    4    4    0    0  0.71490706152E+01 -0.21813814837E+02  0.87346131168E+01  0.24561050359E+02  0.00000000000E+00 0.  1.
</event>
<event>
 8    1  0.1265908E-006  0.9118800E+02  0.7816164E-02  0.1184000E+00
        -11   -1    0    0    0    0  0.00000000000E+00  0.00000000000E+00  0.45593999997E+02  0.45594000000E+02  0.51100000000E-03 0. -1.
         11   -1    0    0    0    0 -0.00000000000E+00 -0.00000000000E+00 -0.45593999997E+02  0.45594000000E+02  0.51100000000E-03 0.  1.
         23    2    1    2    0    0  0.00000000000E+00  0.17763568394E-14  0.00000000000E+00  0.91188000000E+02  0.91188000000E+02 0.  0.
    9900012    2    3    3    0    0 -0.23288164130E+02  0.14698629857E+02 -0.24441538842E+02  0.54367121015E+02  0.40000083979E+02 0.  0.
         12    1    3    3    0    0  0.23288164130E+02 -0.14698629857E+02  0.24441538842E+02  0.36820878985E+02  0.00000000000E+00 0. -1.
         11    1    4    4    0    0 -0.57034561289E+01 -0.95782592707E+01 -0.17126028940E+02  0.20434611080E+02  0.51100000000E-03 0. -1.
        -11    1    4    4    0    0 -0.93518306475E+01  0.27172169938E+01 -0.43453045222E+01  0.10664036586E+02  0.51100000000E-03 0.  1.
         12    1    4    4    0    0 -0.82328773538E+01  0.21559672134E+02 -0.29702053804E+01  0.23268473350E+02  0.00000000000E+00 0. -1.
</event>
<event>
 8    1  0.1265908E-006  0.9118800E+02  0.7816164E-02  0.1184000E+00
        -11   -1    0    0    0    0  0.00000000000E+00  0.00000000000E+00  0.45593999997E+02  0.45594000000E+02  0.51100000000E-03 0.  1.
         11   -1    0    0    0    0 -0.00000000000E+00 -0.00000000000E+00 -0.45593999997E+02  0.45594000000E+02  0.51100000000E-03 0. -1.
         23    2    1    2    0    0  0.35527136788E-14 -0.88817841970E-15  0.35527136788E-14  0.91188000000E+02  0.91188000000E+02 0.  0.
    9900012    2    3    3    0    0 -0.24950510665E+02  0.53412043265E+01 -0.26546618899E+02  0.54367089894E+02  0.40000013031E+02 0.  0.
        -12    1    3    3    0    0  0.24950510665E+02 -0.53412043265E+01  0.26546618899E+02  0.36820910106E+02  0.00000000000E+00 0.  1.
         11    1    4    4    0    0 -0.16633170817E+02  0.12095293946E+02 -0.21182983071E+02  0.29524181261E+02  0.51100000000E-03 0. -1.
        -11    1    4    4    0    0  0.26049748549E+01  0.19762023603E+00  0.66723603316E+01  0.71655663006E+01  0.51100000000E-03 0.  1.
        -12    1    4    4    0    0 -0.10922314703E+02 -0.69517098558E+01 -0.12035996159E+02  0.17677342332E+02  0.00000000000E+00 0.  1.
</event>
<event>
 8    1  0.1265908E-006  0.9118800E+02  0.7816164E-02  0.1184000E+00
        -11   -1    0    0    0    0  0.00000000000E+00  0.00000000000E+00  0.45593999997E+02  0.45594000000E+02  0.51100000000E-03 0.  1.
         11   -1    0    0    0    0 -0.00000000000E+00 -0.00000000000E+00 -0.45593999997E+02  0.45594000000E+02  0.51100000000E-03 0. -1.
         23    2    1    2    0    0  0.00000000000E+00  0.00000000000E+00  0.17763568394E-14  0.91188000000E+02  0.91188000000E+02 0.  0.
    9900012    2    3    3    0    0 -0.89258126233E+01  0.34627322483E+02 -0.87783539211E+01  0.54367067218E+02  0.39999961337E+02 0.  0.
        -12    1    3    3    0    0  0.89258126233E+01 -0.34627322483E+02  0.87783539211E+01  0.36820932782E+02  0.00000000000E+00 0.  1.
         11    1    4    4    0    0 -0.35286855015E+01  0.89744438476E+01 -0.11742102445E+02  0.15194381653E+02  0.51100000000E-03 0. -1.
        -11    1    4    4    0    0 -0.12161005165E+02  0.29128599849E+01 -0.59248967561E+01  0.13837601011E+02  0.51100000000E-03 0.  1.
        -12    1    4    4    0    0  0.67638780435E+01  0.22740018651E+02  0.88886452796E+01  0.25335084554E+02  0.00000000000E+00 0.  1.
</event>
<event>
 8    1  0.1265908E-006  0.9118800E+02  0.7816164E-02  0.1184000E+00
        -11   -1    0    0    0    0  0.00000000000E+00  0.00000000000E+00  0.45593999997E+02  0.45594000000E+02  0.51100000000E-03 0.  1.
         11   -1    0    0    0    0 -0.00000000000E+00 -0.00000000000E+00 -0.45593999997E+02  0.45594000000E+02  0.51100000000E-03 0. -1.
         23    2    1    2    0    0  0.00000000000E+00  0.00000000000E+00  0.00000000000E+00  0.91188000000E+02  0.91188000000E+02 0.  0.
    9900012    2    3    3    0    0  0.32386067888E+02  0.14834808887E+02  0.93194305436E+01  0.54367072070E+02  0.39999972398E+02 0.  0.
         12    1    3    3    0    0 -0.32386067888E+02 -0.14834808887E+02 -0.93194305436E+01  0.36820927930E+02  0.00000000000E+00 0. -1.
         11    1    4    4    0    0  0.10518621159E+02 -0.18349176736E+01  0.12189115609E+02  0.16204408460E+02  0.51100000000E-03 0. -1.
        -11    1    4    4    0    0 -0.23012970958E+00  0.13161733502E+02  0.55103488966E+01  0.14270533756E+02  0.51100000000E-03 0.  1.
         12    1    4    4    0    0  0.22097576439E+02  0.35079930591E+01 -0.83800339617E+01  0.23892129854E+02  0.00000000000E+00 0. -1.
</event>
<event>
 8    1  0.1265908E-006  0.9118800E+02  0.7816164E-02  0.1184000E+00
        -11   -1    0    0    0    0  0.00000000000E+00  0.00000000000E+00  0.45593999997E+02  0.45594000000E+02  0.51100000000E-03 0.  1.
         11   -1    0    0    0    0 -0.00000000000E+00 -0.00000000000E+00 -0.45593999997E+02  0.45594000000E+02  0.51100000000E-03 0. -1.
         23    2    1    2    0    0 -0.35527136788E-14  0.00000000000E+00 -0.35527136788E-14  0.91188000000E+02  0.91188000000E+02 0.  0.
    9900012    2    3    3    0    0 -0.28081883872E+02  0.99907719722E+01 -0.21618780749E+02  0.54367090078E+02  0.40000013452E+02 0.  0.
        -12    1    3    3    0    0  0.28081883872E+02 -0.99907719722E+01  0.21618780749E+02  0.36820909922E+02  0.00000000000E+00 0.  1.
         11    1    4    4    0    0 -0.78201182185E+01  0.58260235151E+01 -0.12537192708E+02  0.15883261636E+02  0.51100000000E-03 0. -1.
        -11    1    4    4    0    0 -0.36592980546E-02  0.33733807825E+01 -0.16541025551E+02  0.16881505793E+02  0.51100000000E-03 0.  1.
         12    1    4    4    0    0 -0.20258106355E+02  0.79136767455E+00  0.74594375098E+01  0.21602322649E+02  0.00000000000E+00 0. -1.
</event>
<event>
 8    1  0.1265908E-006  0.9118800E+02  0.7816164E-02  0.1184000E+00
        -11   -1    0    0    0    0  0.00000000000E+00  0.00000000000E+00  0.45593999997E+02  0.45594000000E+02  0.51100000000E-03 0. -1.
         11   -1    0    0    0    0 -0.00000000000E+00 -0.00000000000E+00 -0.45593999997E+02  0.45594000000E+02  0.51100000000E-03 0.  1.
         23    2    1    2    0    0  0.00000000000E+00  0.35527136788E-14  0.35527136788E-14  0.91188000000E+02  0.91188000000E+02 0.  0.
    9900012    2    3    3    0    0 -0.79038151748E+01  0.27324966473E+02  0.23380669817E+02  0.54367084637E+02  0.40000001048E+02 0.  0.
        -12    1    3    3    0    0  0.79038151748E+01 -0.27324966473E+02 -0.23380669817E+02  0.36820915363E+02  0.00000000000E+00 0.  1.
         11    1    4    4    0    0 -0.47629493691E+01 -0.68001807216E+01  0.13303935688E+01  0.84082157351E+01  0.51100000000E-03 0. -1.
        -11    1    4    4    0    0 -0.45793243528E+01 -0.77695753667E+00  0.58046875144E+01  0.74342633759E+01  0.51100000000E-03 0.  1.
         12    1    4    4    0    0  0.14384585471E+01  0.34902104731E+02  0.16245588734E+02  0.38524605526E+02  0.00000000000E+00 0. -1.
</event>
<event>
 8    1  0.1265908E-006  0.9118800E+02  0.7816164E-02  0.1184000E+00
        -11   -1    0    0    0    0  0.00000000000E+00  0.00000000000E+00  0.45593999997E+02  0.45594000000E+02  0.51100000000E-03 0. -1.
         11   -1    0    0    0    0 -0.00000000000E+00 -0.00000000000E+00 -0.45593999997E+02  0.45594000000E+02  0.51100000000E-03 0.  1.
         23    2    1    2    0    0  0.88817841970E-15  0.00000000000E+00  0.00000000000E+00  0.91188000000E+02  0.91188000000E+02 0.  0.
    9900012    2    3    3    0    0 -0.72056151105E+01  0.34474478905E+02 -0.10740997282E+02  0.54367087361E+02  0.40000007258E+02 0.  0.
         12    1    3    3    0    0  0.72056151105E+01 -0.34474478905E+02  0.10740997282E+02  0.36820912639E+02  0.00000000000E+00 0. -1.
         11    1    4    4    0    0  0.10189823658E+02 -0.68405763078E+00  0.56956308729E+00  0.10228628618E+02  0.51100000000E-03 0. -1.
        -11    1    4    4    0    0 -0.19811210137E+02  0.32585491317E+02 -0.12913200576E+02  0.40262253301E+02  0.51100000000E-03 0.  1.
        -12    1    4    4    0    0  0.24157713686E+01  0.25730452189E+01  0.16026402067E+01  0.38762054429E+01  0.00000000000E+00 0.  1.
</event>
<event>
 8    1  0.1265908E-006  0.9118800E+02  0.7816164E-02  0.1184000E+00
        -11   -1    0    0    0    0  0.00000000000E+00  0.00000000000E+00  0.45593999997E+02  0.45594000000E+02  0.51100000000E-03 0.  1.
         11   -1    0    0    0    0 -0.00000000000E+00 -0.00000000000E+00 -0.45593999997E+02  0.45594000000E+02  0.51100000000E-03 0. -1.
         23    2    1    2    0    0  0.00000000000E+00 -0.71054273576E-14  0.35527136788E-14  0.91188000000E+02  0.91188000000E+02 0.  0.
    9900012    2    3    3    0    0 -0.16855647096E+02  0.17827508054E+02 -0.27456275894E+02  0.54367082461E+02  0.39999996087E+02 0.  0.
        -12    1    3    3    0    0  0.16855647096E+02 -0.17827508054E+02  0.27456275894E+02  0.36820917539E+02  0.00000000000E+00 0.  1.
         11    1    4    4    0    0  0.73103786870E-01 -0.28807488372E+01  0.23975920125E+01  0.37486671960E+01  0.51100000000E-03 0. -1.
        -11    1    4    4    0    0 -0.77375880942E+01  0.32256616354E+01  0.55667787779E+01  0.10063010917E+02  0.51100000000E-03 0.  1.
         12    1    4    4    0    0 -0.91911627884E+01  0.17482595256E+02 -0.35420646684E+02  0.40555404348E+02  0.00000000000E+00 0. -1.
</event>
<event>
 8    1  0.1265908E-006  0.9118800E+02  0.7816164E-02  0.1184000E+00
        -11   -1    0    0    0    0  0.00000000000E+00  0.00000000000E+00  0.45593999997E+02  0.45594000000E+02  0.51100000000E-03 0. -1.
         11   -1    0    0    0    0 -0.00000000000E+00 -0.00000000000E+00 -0.45593999997E+02  0.45594000000E+02  0.51100000000E-03 0.  1.
         23    2    1    2    0    0  0.88817841970E-15  0.00000000000E+00  0.35527136788E-14  0.91188000000E+02  0.91188000000E+02 0.  0.
    9900012    2    3    3    0    0 -0.75131401979E+01  0.26479642730E+02  0.24457350209E+02  0.54367072065E+02  0.39999972386E+02 0.  0.
         12    1    3    3    0    0  0.75131401979E+01 -0.26479642730E+02 -0.24457350209E+02  0.36820927935E+02  0.00000000000E+00 0. -1.
         11    1    4    4    0    0 -0.88153629289E+01  0.75133582433E+01  0.19359783098E+02  0.22560194536E+02  0.51100000000E-03 0. -1.
        -11    1    4    4    0    0 -0.95539061725E+01  0.18091852951E+02  0.41344166808E+01  0.20873084772E+02  0.51100000000E-03 0.  1.
        -12    1    4    4    0    0  0.10856128904E+02  0.87443153542E+00  0.96315043045E+00  0.10933792756E+02  0.00000000000E+00 0.  1.
</event>
<event>
 8    1  0.1265908E-006  0.9118800E+02  0.7816164E-02  0.1184000E+00
        -11   -1    0    0    0    0  0.00000000000E+00  0.00000000000E+00  0.45593999997E+02  0.45594000000E+02  0.51100000000E-03 0. -1.
         11   -1    0    0    0    0 -0.00000000000E+00 -0.00000000000E+00 -0.45593999997E+02  0.45594000000E+02  0.51100000000E-03 0.  1.
         23    2    1    2    0    0  0.44408920985E-15  0.00000000000E+00  0.35527136788E-14  0.91188000000E+02  0.91188000000E+02 0.  0.
    9900012    2    3    3    0    0  0.32403816152E+01 -0.34806238386E+02 -0.11567407384E+02  0.54367092663E+02  0.40000019343E+02 0.  0.
        -12    1    3    3    0    0 -0.32403816152E+01  0.34806238386E+02  0.11567407384E+02  0.36820907337E+02  0.00000000000E+00 0.  1.
         11    1    4    4    0    0 -0.54969715751E+01 -0.99834431123E+01  0.46323727314E+01  0.12302223793E+02  0.51100000000E-03 0. -1.
        -11    1    4    4    0    0 -0.69879327848E+01  0.12177996473E+00  0.21764660585E+01  0.73200436972E+01  0.51100000000E-03 0.  1.
        -12    1    4    4    0    0  0.15725285975E+02 -0.24944575238E+02 -0.18376246174E+02  0.34744825172E+02  0.00000000000E+00 0.  1.
</event>
<event>
 8    1  0.1265908E-006  0.9118800E+02  0.7816164E-02  0.1184000E+00
        -11   -1    0    0    0    0  0.00000000000E+00  0.00000000000E+00  0.45593999997E+02  0.45594000000E+02  0.51100000000E-03 0.  1.
         11   -1    0    0    0    0 -0.00000000000E+00 -0.00000000000E+00 -0.45593999997E+02  0.45594000000E+02  0.51100000000E-03 0. -1.
         23    2    1    2    0    0 -0.44408920985E-15  0.00000000000E+00 -0.35527136788E-14  0.91188000000E+02  0.91188000000E+02 0.  0.
    9900012    2    3    3    0    0  0.17345667814E+01  0.32035136331E+02 -0.18069913304E+02  0.54367075942E+02  0.39999981225E+02 0.  0.
        -12    1    3    3    0    0 -0.17345667814E+01 -0.32035136331E+02  0.18069913304E+02  0.36820924058E+02  0.00000000000E+00 0.  1.
         11    1    4    4    0    0 -0.28473290685E+01 -0.17742957499E+01 -0.22619769055E+00  0.33625249276E+01  0.51100000000E-03 0. -1.
        -11    1    4    4    0    0 -0.28835283920E+01 -0.61776927905E+01 -0.46025112110E+01  0.82256752860E+01  0.51100000000E-03 0.  1.
         12    1    4    4    0    0  0.74654242419E+01  0.39987124871E+02 -0.13241204402E+02  0.42778875729E+02  0.00000000000E+00 0. -1.
</event>
<event>
 8    1  0.1265908E-006  0.9118800E+02  0.7816164E-02  0.1184000E+00
        -11   -1    0    0    0    0  0.00000000000E+00  0.00000000000E+00  0.45593999997E+02  0.45594000000E+02  0.51100000000E-03 0.  1.
         11   -1    0    0    0    0 -0.00000000000E+00 -0.00000000000E+00 -0.45593999997E+02  0.45594000000E+02  0.51100000000E-03 0. -1.
         23    2    1    2    0    0  0.88817841970E-15 -0.35527136788E-14  0.00000000000E+00  0.91188000000E+02  0.91188000000E+02 0.  0.
    9900012    2    3    3    0    0  0.43818599638E+01 -0.25892925504E+02  0.25809554869E+02  0.54367117197E+02  0.40000075273E+02 0.  0.
         12    1    3    3    0    0 -0.43818599638E+01  0.25892925504E+02 -0.25809554869E+02  0.36820882803E+02  0.00000000000E+00 0. -1.
         11    1    4    4    0    0 -0.52818069835E+01 -0.52657729053E+01  0.32711658617E+01  0.81441006660E+01  0.51100000000E-03 0. -1.
        -11    1    4    4    0    0 -0.28657172877E+01  0.62301806288E+01  0.13661324639E+02  0.15285917617E+02  0.51100000000E-03 0.  1.
        -12    1    4    4    0    0  0.12529384235E+02 -0.26857333227E+02  0.88770643683E+01  0.30937098914E+02  0.00000000000E+00 0.  1.
</event>
<event>
 8    1  0.1265908E-006  0.9118800E+02  0.7816164E-02  0.1184000E+00
        -11   -1    0    0    0    0  0.00000000000E+00  0.00000000000E+00  0.45593999997E+02  0.45594000000E+02  0.51100000000E-03 0.  1.
         11   -1    0    0    0    0 -0.00000000000E+00 -0.00000000000E+00 -0.45593999997E+02  0.45594000000E+02  0.51100000000E-03 0. -1.
         23    2    1    2    0    0  0.00000000000E+00  0.00000000000E+00  0.33306690739E-15  0.91188000000E+02  0.91188000000E+02 0.  0.
    9900012    2    3    3    0    0  0.29941289843E+02 -0.21423726691E+02 -0.56938431804E+00  0.54367067078E+02  0.39999961017E+02 0.  0.
         12    1    3    3    0    0 -0.29941289843E+02  0.21423726691E+02  0.56938431804E+00  0.36820932922E+02  0.00000000000E+00 0. -1.
         11    1    4    4    0    0 -0.26253329407E+01 -0.79217379854E+01 -0.47764601777E+01  0.96156579520E+01  0.51100000000E-03 0. -1.
        -11    1    4    4    0    0  0.32913096464E+02 -0.20627737539E+01  0.46187490345E+01  0.33299546504E+02  0.51100000000E-03 0.  1.
        -12    1    4    4    0    0 -0.34647368105E+00 -0.11439214951E+02 -0.41167317481E+00  0.11451862622E+02  0.00000000000E+00 0.  1.
</event>
<event>
 8    1  0.1265908E-006  0.9118800E+02  0.7816164E-02  0.1184000E+00
        -11   -1    0    0    0    0  0.00000000000E+00  0.00000000000E+00  0.45593999997E+02  0.45594000000E+02  0.51100000000E-03 0. -1.
         11   -1    0    0    0    0 -0.00000000000E+00 -0.00000000000E+00 -0.45593999997E+02  0.45594000000E+02  0.51100000000E-03 0.  1.
         23    2    1    2    0    0  0.00000000000E+00  0.00000000000E+00  0.00000000000E+00  0.91188000000E+02  0.91188000000E+02 0.  0.
    9900012    2    3    3    0    0 -0.21911853392E+02  0.20736941509E+02 -0.21109940176E+02  0.54367086968E+02  0.40000006362E+02 0.  0.
        -12    1    3    3    0    0  0.21911853392E+02 -0.20736941509E+02  0.21109940176E+02  0.36820913032E+02  0.00000000000E+00 0.  1.
         11    1    4    4    0    0 -0.21014095022E+02  0.30602129270E+01 -0.24589442032E+01  0.21377640179E+02  0.51100000000E-03 0. -1.
        -11    1    4    4    0    0  0.89766132944E+01  0.14049873317E+02 -0.12033695609E+02  0.20561817934E+02  0.51100000000E-03 0.  1.
        -12    1    4    4    0    0 -0.98743716647E+01  0.36268552655E+01 -0.66173003634E+01  0.12427628856E+02  0.00000000000E+00 0.  1.
</event>
<event>
 8    1  0.1265908E-006  0.9118800E+02  0.7816164E-02  0.1184000E+00
        -11   -1    0    0    0    0  0.00000000000E+00  0.00000000000E+00  0.45593999997E+02  0.45594000000E+02  0.51100000000E-03 0.  1.
         11   -1    0    0    0    0 -0.00000000000E+00 -0.00000000000E+00 -0.45593999997E+02  0.45594000000E+02  0.51100000000E-03 0. -1.
         23    2    1    2    0    0  0.00000000000E+00  0.00000000000E+00 -0.35527136788E-14  0.91188000000E+02  0.91188000000E+02 0.  0.
    9900012    2    3    3    0    0  0.18827876414E+02 -0.19242425026E+02 -0.25120105905E+02  0.54367087846E+02  0.40000008363E+02 0.  0.
        -12    1    3    3    0    0 -0.18827876414E+02  0.19242425026E+02  0.25120105905E+02  0.36820912154E+02  0.00000000000E+00 0.  1.
         11    1    4    4    0    0  0.72604261313E+01  0.37475903864E+01 -0.25406918805E+01  0.85564792295E+01  0.51100000000E-03 0.  1.
        -11    1    4    4    0    0  0.15031930780E+02 -0.81424823634E+01 -0.25088276528E+02  0.30359192700E+02  0.51100000000E-03 0. -1.
        -12    1    4    4    0    0 -0.34644804973E+01 -0.14847533049E+02  0.25088625030E+01  0.15451415917E+02  0.00000000000E+00 0.  1.
</event>
<event>
 8    1  0.1265908E-006  0.9118800E+02  0.7816164E-02  0.1184000E+00
        -11   -1    0    0    0    0  0.00000000000E+00  0.00000000000E+00  0.45593999997E+02  0.45594000000E+02  0.51100000000E-03 0. -1.
         11   -1    0    0    0    0 -0.00000000000E+00 -0.00000000000E+00 -0.45593999997E+02  0.45594000000E+02  0.51100000000E-03 0.  1.
         23    2    1    2    0    0  0.00000000000E+00  0.71054273576E-14 -0.17763568394E-14  0.91188000000E+02  0.91188000000E+02 0.  0.
    9900012    2    3    3    0    0 -0.14634160867E+02  0.33251971349E+02  0.59939527362E+01  0.54367085667E+02  0.40000003396E+02 0.  0.
        -12    1    3    3    0    0  0.14634160867E+02 -0.33251971349E+02 -0.59939527362E+01  0.36820914333E+02  0.00000000000E+00 0.  1.
         11    1    4    4    0    0 -0.11179038209E+02  0.10896074080E+02  0.21341151897E+02  0.26441257349E+02  0.51100000000E-03 0. -1.
        -11    1    4    4    0    0 -0.44928476597E+01  0.17224676786E+02 -0.13617737053E+02  0.22412450406E+02  0.51100000000E-03 0.  1.
         12    1    4    4    0    0  0.10377250016E+01  0.51312204826E+01 -0.17294621080E+01  0.55133779123E+01  0.00000000000E+00 0. -1.
</event>
<event>
 8    1  0.1265908E-006  0.9118800E+02  0.7816164E-02  0.1184000E+00
        -11   -1    0    0    0    0  0.00000000000E+00  0.00000000000E+00  0.45593999997E+02  0.45594000000E+02  0.51100000000E-03 0. -1.
         11   -1    0    0    0    0 -0.00000000000E+00 -0.00000000000E+00 -0.45593999997E+02  0.45594000000E+02  0.51100000000E-03 0.  1.
         23    2    1    2    0    0  0.00000000000E+00  0.00000000000E+00  0.17763568394E-14  0.91188000000E+02  0.91188000000E+02 0.  0.
    9900012    2    3    3    0    0  0.30659353847E+02  0.13177522602E+02  0.15560725889E+02  0.54367091939E+02  0.40000017694E+02 0.  0.
        -12    1    3    3    0    0 -0.30659353847E+02 -0.13177522602E+02 -0.15560725889E+02  0.36820908061E+02  0.00000000000E+00 0.  1.
         11    1    4    4    0    0  0.30166288686E+02  0.12831032316E+02  0.91692902493E+01  0.34039921377E+02  0.51100000000E-03 0. -1.
        -11    1    4    4    0    0 -0.17705219193E+01  0.95948345624E+01  0.27952076597E+01  0.10149324326E+02  0.51100000000E-03 0.  1.
        -12    1    4    4    0    0  0.22635870796E+01 -0.92483442768E+01  0.35962279803E+01  0.10177846237E+02  0.00000000000E+00 0.  1.
</event>
<event>
 8    1  0.1265908E-006  0.9118800E+02  0.7816164E-02  0.1184000E+00
        -11   -1    0    0    0    0  0.00000000000E+00  0.00000000000E+00  0.45593999997E+02  0.45594000000E+02  0.51100000000E-03 0. -1.
         11   -1    0    0    0    0 -0.00000000000E+00 -0.00000000000E+00 -0.45593999997E+02  0.45594000000E+02  0.51100000000E-03 0.  1.
         23    2    1    2    0    0  0.00000000000E+00  0.35527136788E-14 -0.35527136788E-14  0.91188000000E+02  0.91188000000E+02 0.  0.
    9900012    2    3    3    0    0  0.13273857932E+02 -0.23451249085E+02 -0.25092306185E+02  0.54367079075E+02  0.39999988368E+02 0.  0.
         12    1    3    3    0    0 -0.13273857932E+02  0.23451249085E+02  0.25092306185E+02  0.36820920925E+02  0.00000000000E+00 0. -1.
         11    1    4    4    0    0 -0.19740107049E+00 -0.21739677120E+01 -0.58501390642E+01  0.62441356589E+01  0.51100000000E-03 0. -1.
        -11    1    4    4    0    0 -0.85346546680E+00 -0.22357022442E+02 -0.24170257796E+02  0.32935789318E+02  0.51100000000E-03 0.  1.
         12    1    4    4    0    0  0.14324724470E+02  0.10797410686E+01  0.49280906756E+01  0.15187154099E+02  0.00000000000E+00 0. -1.
</event>
<event>
 8    1  0.1265908E-006  0.9118800E+02  0.7816164E-02  0.1184000E+00
        -11   -1    0    0    0    0  0.00000000000E+00  0.00000000000E+00  0.45593999997E+02  0.45594000000E+02  0.51100000000E-03 0.  1.
         11   -1    0    0    0    0 -0.00000000000E+00 -0.00000000000E+00 -0.45593999997E+02  0.45594000000E+02  0.51100000000E-03 0. -1.
         23    2    1    2    0    0 -0.17763568394E-14  0.17763568394E-14  0.71054273576E-14  0.91188000000E+02  0.91188000000E+02 0.  0.
    9900012    2    3    3    0    0 -0.10280811746E+02  0.13744585342E+02  0.32575596659E+02  0.54367106284E+02  0.40000050395E+02 0.  0.
         12    1    3    3    0    0  0.10280811746E+02 -0.13744585342E+02 -0.32575596659E+02  0.36820893716E+02  0.00000000000E+00 0. -1.
         11    1    4    4    0    0  0.27818357158E+01  0.21825906920E+01  0.54273143595E+01  0.64775036470E+01  0.51100000000E-03 0. -1.
        -11    1    4    4    0    0  0.11316073917E+01  0.91204234608E+01 -0.65212157361E+01  0.11268935812E+02  0.51100000000E-03 0.  1.
        -12    1    4    4    0    0 -0.14194254854E+02  0.24415711890E+01  0.33669498036E+02  0.36620666825E+02  0.00000000000E+00 0.  1.
</event>
<event>
 8    1  0.1265908E-006  0.9118800E+02  0.7816164E-02  0.1184000E+00
        -11   -1    0    0    0    0  0.00000000000E+00  0.00000000000E+00  0.45593999997E+02  0.45594000000E+02  0.51100000000E-03 0.  1.
         11   -1    0    0    0    0 -0.00000000000E+00 -0.00000000000E+00 -0.45593999997E+02  0.45594000000E+02  0.51100000000E-03 0. -1.
         23    2    1    2    0    0 -0.44408920985E-15  0.00000000000E+00  0.00000000000E+00  0.91188000000E+02  0.91188000000E+02 0.  0.
    9900012    2    3    3    0    0  0.29150879232E+01 -0.36704262135E+02  0.27964898540E+00  0.54367098326E+02  0.40000032254E+02 0.  0.
         12    1    3    3    0    0 -0.29150879232E+01  0.36704262135E+02 -0.27964898540E+00  0.36820901674E+02  0.00000000000E+00 0. -1.
         11    1    4    4    0    0 -0.10222324429E+02 -0.31594131250E+02 -0.74590727023E+00  0.33215078264E+02  0.51100000000E-03 0. -1.
        -11    1    4    4    0    0  0.11744214636E+02 -0.10381428535E+02  0.76510249797E+00  0.15693502411E+02  0.51100000000E-03 0.  1.
         12    1    4    4    0    0  0.13931977171E+01  0.52712976494E+01  0.26045375767E+00  0.54585176511E+01  0.00000000000E+00 0. -1.
</event>
<event>
 8    1  0.1265908E-006  0.9118800E+02  0.7816164E-02  0.1184000E+00
        -11   -1    0    0    0    0  0.00000000000E+00  0.00000000000E+00  0.45593999997E+02  0.45594000000E+02  0.51100000000E-03 0.  1.
         11   -1    0    0    0    0 -0.00000000000E+00 -0.00000000000E+00 -0.45593999997E+02  0.45594000000E+02  0.51100000000E-03 0. -1.
         23    2    1    2    0    0  0.00000000000E+00  0.88817841970E-15 -0.71054273576E-14  0.91188000000E+02  0.91188000000E+02 0.  0.
    9900012    2    3    3    0    0 -0.16628904250E+02  0.36801619807E+01 -0.32645282219E+02  0.54367102402E+02  0.40000041545E+02 0.  0.
        -12    1    3    3    0    0  0.16628904250E+02 -0.36801619807E+01  0.32645282219E+02  0.36820897598E+02  0.00000000000E+00 0.  1.
         11    1    4    4    0    0 -0.20289873163E+02  0.39182852737E+00 -0.57775494346E+01  0.21100060671E+02  0.51100000000E-03 0. -1.
        -11    1    4    4    0    0  0.35727973322E+01 -0.58888134549E+01 -0.26698653106E+01  0.73872312622E+01  0.51100000000E-03 0.  1.
         12    1    4    4    0    0  0.88171581010E-01  0.91771469082E+01 -0.24197867474E+02  0.25879810469E+02  0.00000000000E+00 0. -1.
</event>
<event>
 8    1  0.1265908E-006  0.9118800E+02  0.7816164E-02  0.1184000E+00
        -11   -1    0    0    0    0  0.00000000000E+00  0.00000000000E+00  0.45593999997E+02  0.45594000000E+02  0.51100000000E-03 0. -1.
         11   -1    0    0    0    0 -0.00000000000E+00 -0.00000000000E+00 -0.45593999997E+02  0.45594000000E+02  0.51100000000E-03 0.  1.
         23    2    1    2    0    0  0.00000000000E+00 -0.44408920985E-15  0.00000000000E+00  0.91188000000E+02  0.91188000000E+02 0.  0.
    9900012    2    3    3    0    0  0.20369538329E+02  0.23102068751E+01  0.30586354888E+02  0.54367078598E+02  0.39999987280E+02 0.  0.
        -12    1    3    3    0    0 -0.20369538329E+02 -0.23102068751E+01 -0.30586354888E+02  0.36820921402E+02  0.00000000000E+00 0.  1.
         11    1    4    4    0    0  0.73242576320E+00  0.54139736752E+01  0.21259095591E+02  0.21949867974E+02  0.51100000000E-03 0. -1.
        -11    1    4    4    0    0 -0.15503854635E+01 -0.44014459227E+01  0.10152879536E+02  0.11173960105E+02  0.51100000000E-03 0.  1.
        -12    1    4    4    0    0  0.21187498029E+02  0.12976791226E+01 -0.82562023931E+00  0.21243250519E+02  0.00000000000E+00 0.  1.
</event>
<event>
 8    1  0.1265908E-006  0.9118800E+02  0.7816164E-02  0.1184000E+00
        -11   -1    0    0    0    0  0.00000000000E+00  0.00000000000E+00  0.45593999997E+02  0.45594000000E+02  0.51100000000E-03 0.  1.
         11   -1    0    0    0    0 -0.00000000000E+00 -0.00000000000E+00 -0.45593999997E+02  0.45594000000E+02  0.51100000000E-03 0. -1.
         23    2    1    2    0    0  0.35527136788E-14  0.00000000000E+00 -0.35527136788E-14  0.91188000000E+02  0.91188000000E+02 0.  0.
    9900012    2    3    3    0    0  0.27015303146E+02  0.11134155360E+02 -0.22405009611E+02  0.54367075578E+02  0.39999980395E+02 0.  0.
        -12    1    3    3    0    0 -0.27015303146E+02 -0.11134155360E+02  0.22405009611E+02  0.36820924422E+02  0.00000000000E+00 0.  1.
         11    1    4    4    0    0  0.11050358437E+02  0.27595584273E+01 -0.20280502719E+02  0.23259930677E+02  0.51100000000E-03 0. -1.
        -11    1    4    4    0    0  0.95720829973E+01  0.10410715519E+02 -0.12417702315E+02  0.18820390580E+02  0.51100000000E-03 0.  1.
        -12    1    4    4    0    0  0.63928617112E+01 -0.20361185858E+01  0.10293195423E+02  0.12286754322E+02  0.00000000000E+00 0.  1.
</event>
<event>
 8    1  0.1265908E-006  0.9118800E+02  0.7816164E-02  0.1184000E+00
        -11   -1    0    0    0    0  0.00000000000E+00  0.00000000000E+00  0.45593999997E+02  0.45594000000E+02  0.51100000000E-03 0.  1.
         11   -1    0    0    0    0 -0.00000000000E+00 -0.00000000000E+00 -0.45593999997E+02  0.45594000000E+02  0.51100000000E-03 0. -1.
         23    2    1    2    0    0  0.35527136788E-14 -0.44408920985E-15  0.00000000000E+00  0.91188000000E+02  0.91188000000E+02 0.  0.
    9900012    2    3    3    0    0 -0.20432922022E+02 -0.17511055804E+01 -0.30581191986E+02  0.54367082353E+02  0.39999995840E+02 0.  0.
        -12    1    3    3    0    0  0.20432922022E+02  0.17511055804E+01  0.30581191986E+02  0.36820917647E+02  0.00000000000E+00 0.  1.
         11    1    4    4    0    0  0.22977479488E+01  0.16374692557E+01 -0.14373042701E+02  0.14647365222E+02  0.51100000000E-03 0. -1.
        -11    1    4    4    0    0  0.16897471853E+01 -0.23709477962E+01  0.60168454443E+01  0.66842402982E+01  0.51100000000E-03 0.  1.
         12    1    4    4    0    0 -0.24420417156E+02 -0.10176270400E+01 -0.22224994729E+02  0.33035476833E+02  0.00000000000E+00 0. -1.
</event>
<event>
 8    1  0.1265908E-006  0.9118800E+02  0.7816164E-02  0.1184000E+00
        -11   -1    0    0    0    0  0.00000000000E+00  0.00000000000E+00  0.45593999997E+02  0.45594000000E+02  0.51100000000E-03 0.  1.
         11   -1    0    0    0    0 -0.00000000000E+00 -0.00000000000E+00 -0.45593999997E+02  0.45594000000E+02  0.51100000000E-03 0. -1.
         23    2    1    2    0    0  0.00000000000E+00  0.00000000000E+00  0.26645352591E-14  0.91188000000E+02  0.91188000000E+02 0.  0.
    9900012    2    3    3    0    0 -0.19342915361E+02 -0.30478952674E+02 -0.72570382233E+01  0.54367088353E+02  0.40000009518E+02 0.  0.
         12    1    3    3    0    0  0.19342915361E+02  0.30478952674E+02  0.72570382233E+01  0.36820911647E+02  0.00000000000E+00 0. -1.
         11    1    4    4    0    0 -0.85511116651E+01 -0.11010912602E+02 -0.62797759182E+00  0.13955502970E+02  0.51100000000E-03 0. -1.
        -11    1    4    4    0    0 -0.15565732087E+02 -0.71464976050E+01  0.94798653718E+01  0.19576319653E+02  0.51100000000E-03 0.  1.
         12    1    4    4    0    0  0.47739283912E+01 -0.12321542467E+02 -0.16108926003E+02  0.20835265729E+02  0.00000000000E+00 0. -1.
</event>
<event>
 8    1  0.1265908E-006  0.9118800E+02  0.7816164E-02  0.1184000E+00
        -11   -1    0    0    0    0  0.00000000000E+00  0.00000000000E+00  0.45593999997E+02  0.45594000000E+02  0.51100000000E-03 0. -1.
         11   -1    0    0    0    0 -0.00000000000E+00 -0.00000000000E+00 -0.45593999997E+02  0.45594000000E+02  0.51100000000E-03 0.  1.
         23    2    1    2    0    0  0.00000000000E+00  0.00000000000E+00 -0.17763568394E-14  0.91188000000E+02  0.91188000000E+02 0.  0.
    9900012    2    3    3    0    0 -0.32988196180E+02  0.10283965371E+02 -0.12720016458E+02  0.54367084074E+02  0.39999999763E+02 0.  0.
         12    1    3    3    0    0  0.32988196180E+02 -0.10283965371E+02  0.12720016458E+02  0.36820915926E+02  0.00000000000E+00 0. -1.
         11    1    4    4    0    0  0.51217484469E+01 -0.24850937120E+01 -0.25443278806E+01  0.62355114093E+01  0.51100000000E-03 0. -1.
        -11    1    4    4    0    0 -0.20618252532E+02 -0.14727656712E+01  0.45871377651E+01  0.21173644215E+02  0.51100000000E-03 0.  1.
        -12    1    4    4    0    0 -0.17491692095E+02  0.14241824754E+02 -0.14762826343E+02  0.26957928449E+02  0.00000000000E+00 0.  1.
</event>
<event>
 8    1  0.1265908E-006  0.9118800E+02  0.7816164E-02  0.1184000E+00
        -11   -1    0    0    0    0  0.00000000000E+00  0.00000000000E+00  0.45593999997E+02  0.45594000000E+02  0.51100000000E-03 0.  1.
         11   -1    0    0    0    0 -0.00000000000E+00 -0.00000000000E+00 -0.45593999997E+02  0.45594000000E+02  0.51100000000E-03 0. -1.
         23    2    1    2    0    0  0.88817841970E-15  0.00000000000E+00 -0.71054273576E-14  0.91188000000E+02  0.91188000000E+02 0.  0.
    9900012    2    3    3    0    0 -0.71545434722E+01 -0.43371784976E+01  0.35857791361E+02  0.54367084600E+02  0.40000000962E+02 0.  0.
         12    1    3    3    0    0  0.71545434722E+01  0.43371784976E+01 -0.35857791361E+02  0.36820915400E+02  0.00000000000E+00 0. -1.
         11    1    4    4    0    0 -0.78079665840E+01 -0.15977874437E+01 -0.49023218374E+01  0.93568171165E+01  0.51100000000E-03 0. -1.
        -11    1    4    4    0    0  0.63141188360E+01  0.15246599293E+01  0.35739778847E+02  0.36325259488E+02  0.51100000000E-03 0.  1.
         12    1    4    4    0    0 -0.56606957241E+01 -0.42640509832E+01  0.50203343514E+01  0.86850079947E+01  0.00000000000E+00 0. -1.
</event>
<event>
 8    1  0.1265908E-006  0.9118800E+02  0.7816164E-02  0.1184000E+00
        -11   -1    0    0    0    0  0.00000000000E+00  0.00000000000E+00  0.45593999997E+02  0.45594000000E+02  0.51100000000E-03 0. -1.
         11   -1    0    0    0    0 -0.00000000000E+00 -0.00000000000E+00 -0.45593999997E+02  0.45594000000E+02  0.51100000000E-03 0.  1.
         23    2    1    2    0    0  0.00000000000E+00  0.00000000000E+00  0.00000000000E+00  0.91188000000E+02  0.91188000000E+02 0.  0.
    9900012    2    3    3    0    0 -0.79202131530E+01 -0.26891744156E+02  0.23872256315E+02  0.54367077935E+02  0.39999985769E+02 0.  0.
        -12    1    3    3    0    0  0.79202131530E+01  0.26891744156E+02 -0.23872256315E+02  0.36820922065E+02  0.00000000000E+00 0.  1.
         11    1    4    4    0    0 -0.24588637418E+01 -0.14763695519E+02  0.12291612004E+01  0.15017441653E+02  0.51100000000E-03 0. -1.
        -11    1    4    4    0    0  0.30653318171E+00 -0.34799103749E+01 -0.70616695187E+01  0.78785097234E+01  0.51100000000E-03 0.  1.
        -12    1    4    4    0    0 -0.57678825929E+01 -0.86481382624E+01  0.29704764633E+02  0.31471126559E+02  0.00000000000E+00 0.  1.
</event>
<event>
 8    1  0.1265908E-006  0.9118800E+02  0.7816164E-02  0.1184000E+00
        -11   -1    0    0    0    0  0.00000000000E+00  0.00000000000E+00  0.45593999997E+02  0.45594000000E+02  0.51100000000E-03 0. -1.
         11   -1    0    0    0    0 -0.00000000000E+00 -0.00000000000E+00 -0.45593999997E+02  0.45594000000E+02  0.51100000000E-03 0.  1.
         23    2    1    2    0    0  0.00000000000E+00  0.00000000000E+00  0.88817841970E-15  0.91188000000E+02  0.91188000000E+02 0.  0.
    9900012    2    3    3    0    0  0.25956122347E+00  0.36446097646E+02  0.52339706545E+01  0.54367084008E+02  0.39999999614E+02 0.  0.
        -12    1    3    3    0    0 -0.25956122347E+00 -0.36446097646E+02 -0.52339706545E+01  0.36820915992E+02  0.00000000000E+00 0.  1.
         11    1    4    4    0    0 -0.95493040382E+01  0.27576657464E+02 -0.35917650977E+01  0.29403435536E+02  0.51100000000E-03 0. -1.
        -11    1    4    4    0    0 -0.12446547623E+01 -0.99598070433E+00 -0.46626348079E+01  0.49276065847E+01  0.51100000000E-03 0.  1.
         12    1    4    4    0    0  0.11053520024E+02  0.98654208860E+01  0.13488370560E+02  0.20036041888E+02  0.00000000000E+00 0. -1.
</event>
<event>
 8    1  0.1265908E-006  0.9118800E+02  0.7816164E-02  0.1184000E+00
        -11   -1    0    0    0    0  0.00000000000E+00  0.00000000000E+00  0.45593999997E+02  0.45594000000E+02  0.51100000000E-03 0.  1.
         11   -1    0    0    0    0 -0.00000000000E+00 -0.00000000000E+00 -0.45593999997E+02  0.45594000000E+02  0.51100000000E-03 0. -1.
         23    2    1    2    0    0  0.00000000000E+00  0.00000000000E+00 -0.17763568394E-14  0.91188000000E+02  0.91188000000E+02 0.  0.
    9900012    2    3    3    0    0 -0.52060201534E+01  0.33659420614E+02 -0.13990019912E+02  0.54367083403E+02  0.39999998233E+02 0.  0.
         12    1    3    3    0    0  0.52060201534E+01 -0.33659420614E+02  0.13990019912E+02  0.36820916597E+02  0.00000000000E+00 0. -1.
         11    1    4    4    0    0  0.81025904479E+01  0.20302493846E+02 -0.51146284575E+01  0.22450003404E+02  0.51100000000E-03 0. -1.
        -11    1    4    4    0    0 -0.19045680080E+02  0.14609037124E+02 -0.41058264715E+01  0.24351995949E+02  0.51100000000E-03 0.  1.
         12    1    4    4    0    0  0.57370694792E+01 -0.12521103558E+01 -0.47695649826E+01  0.75650840495E+01  0.00000000000E+00 0. -1.
</event>
<event>
 8    1  0.1265908E-006  0.9118800E+02  0.7816164E-02  0.1184000E+00
        -11   -1    0    0    0    0  0.00000000000E+00  0.00000000000E+00  0.45593999997E+02  0.45594000000E+02  0.51100000000E-03 0. -1.
         11   -1    0    0    0    0 -0.00000000000E+00 -0.00000000000E+00 -0.45593999997E+02  0.45594000000E+02  0.51100000000E-03 0.  1.
         23    2    1    2    0    0  0.35527136788E-14  0.00000000000E+00  0.17763568394E-14  0.91188000000E+02  0.91188000000E+02 0.  0.
    9900012    2    3    3    0    0  0.30668609487E+02  0.19643866696E+02  0.54161159442E+01  0.54367089928E+02  0.40000013108E+02 0.  0.
        -12    1    3    3    0    0 -0.30668609487E+02 -0.19643866696E+02 -0.54161159442E+01  0.36820910072E+02  0.00000000000E+00 0.  1.
         11    1    4    4    0    0  0.26378049669E+01  0.69610027766E+01 -0.63382452471E+01  0.97768567429E+01  0.51100000000E-03 0. -1.
        -11    1    4    4    0    0 -0.79482063739E+00  0.13756106388E+02  0.10370599835E+01  0.13818020715E+02  0.51100000000E-03 0.  1.
         12    1    4    4    0    0  0.28825625157E+02 -0.10732424688E+01  0.10717301208E+02  0.30772212470E+02  0.00000000000E+00 0. -1.
</event>
<event>
 8    1  0.1265908E-006  0.9118800E+02  0.7816164E-02  0.1184000E+00
        -11   -1    0    0    0    0  0.00000000000E+00  0.00000000000E+00  0.45593999997E+02  0.45594000000E+02  0.51100000000E-03 0. -1.
         11   -1    0    0    0    0 -0.00000000000E+00 -0.00000000000E+00 -0.45593999997E+02  0.45594000000E+02  0.51100000000E-03 0.  1.
         23    2    1    2    0    0 -0.18735013541E-15  0.00000000000E+00  0.00000000000E+00  0.91188000000E+02  0.91188000000E+02 0.  0.
    9900012    2    3    3    0    0 -0.53846002101E-01 -0.20407952992E+02 -0.30647883227E+02  0.54367079438E+02  0.39999989195E+02 0.  0.
         12    1    3    3    0    0  0.53846002101E-01  0.20407952992E+02  0.30647883227E+02  0.36820920562E+02  0.00000000000E+00 0. -1.
         11    1    4    4    0    0  0.63873153015E+01  0.21531121759E+01  0.15745870422E+01  0.69219226677E+01  0.51100000000E-03 0. -1.
        -11    1    4    4    0    0  0.84880737974E+01 -0.12034179524E+02 -0.70080751744E+01  0.16308954335E+02  0.51100000000E-03 0.  1.
        -12    1    4    4    0    0 -0.14929235101E+02 -0.10526885645E+02 -0.25214395095E+02  0.31136202435E+02  0.00000000000E+00 0.  1.
</event>
<event>
 8    1  0.1265908E-006  0.9118800E+02  0.7816164E-02  0.1184000E+00
        -11   -1    0    0    0    0  0.00000000000E+00  0.00000000000E+00  0.45593999997E+02  0.45594000000E+02  0.51100000000E-03 0. -1.
         11   -1    0    0    0    0 -0.00000000000E+00 -0.00000000000E+00 -0.45593999997E+02  0.45594000000E+02  0.51100000000E-03 0.  1.
         23    2    1    2    0    0  0.22204460493E-15  0.00000000000E+00 -0.35527136788E-14  0.91188000000E+02  0.91188000000E+02 0.  0.
    9900012    2    3    3    0    0  0.10355096881E+01  0.27579596358E+02 -0.24373624936E+02  0.54367081922E+02  0.39999994857E+02 0.  0.
         12    1    3    3    0    0 -0.10355096881E+01 -0.27579596358E+02  0.24373624936E+02  0.36820918078E+02  0.00000000000E+00 0. -1.
         11    1    4    4    0    0 -0.12810181848E+02  0.63837470992E+01 -0.77843828633E+00  0.14333839417E+02  0.51100000000E-03 0. -1.
        -11    1    4    4    0    0 -0.13010234308E+01 -0.21322245249E+01 -0.74842472791E+01  0.78900570966E+01  0.51100000000E-03 0.  1.
        -12    1    4    4    0    0  0.15146714967E+02  0.23328073784E+02 -0.16110939370E+02  0.32143185408E+02  0.00000000000E+00 0.  1.
</event>
<event>
 8    1  0.1265908E-006  0.9118800E+02  0.7816164E-02  0.1184000E+00
        -11   -1    0    0    0    0  0.00000000000E+00  0.00000000000E+00  0.45593999997E+02  0.45594000000E+02  0.51100000000E-03 0. -1.
         11   -1    0    0    0    0 -0.00000000000E+00 -0.00000000000E+00 -0.45593999997E+02  0.45594000000E+02  0.51100000000E-03 0.  1.
         23    2    1    2    0    0  0.00000000000E+00 -0.35527136788E-14 -0.35527136788E-14  0.91188000000E+02  0.91188000000E+02 0.  0.
    9900012    2    3    3    0    0 -0.17250236110E+02  0.24188895213E+02  0.21751015957E+02  0.54367082132E+02  0.39999995337E+02 0.  0.
        -12    1    3    3    0    0  0.17250236110E+02 -0.24188895213E+02 -0.21751015957E+02  0.36820917868E+02  0.00000000000E+00 0.  1.
         11    1    4    4    0    0 -0.98081827910E+01  0.26916908135E+02  0.14494266602E+02  0.32106138943E+02  0.51100000000E-03 0. -1.
        -11    1    4    4    0    0  0.36162397913E+01  0.38415244275E+01 -0.27637263422E+01  0.59558948707E+01  0.51100000000E-03 0.  1.
         12    1    4    4    0    0 -0.11058293110E+02 -0.65695373496E+01  0.10020475696E+02  0.16305048319E+02  0.00000000000E+00 0. -1.
</event>
<event>
 8    1  0.1265908E-006  0.9118800E+02  0.7816164E-02  0.1184000E+00
        -11   -1    0    0    0    0  0.00000000000E+00  0.00000000000E+00  0.45593999997E+02  0.45594000000E+02  0.51100000000E-03 0.  1.
         11   -1    0    0    0    0 -0.00000000000E+00 -0.00000000000E+00 -0.45593999997E+02  0.45594000000E+02  0.51100000000E-03 0. -1.
         23    2    1    2    0    0 -0.35527136788E-14 -0.35527136788E-14 -0.17763568394E-14  0.91188000000E+02  0.91188000000E+02 0.  0.
    9900012    2    3    3    0    0  0.30346131222E+02 -0.16011075744E+02 -0.13361730356E+02  0.54367108312E+02  0.40000055018E+02 0.  0.
        -12    1    3    3    0    0 -0.30346131222E+02  0.16011075744E+02  0.13361730356E+02  0.36820891688E+02  0.00000000000E+00 0.  1.
         11    1    4    4    0    0  0.27507306806E+02 -0.25348914038E+02 -0.20054382243E+02  0.42442874762E+02  0.51100000000E-03 0. -1.
        -11    1    4    4    0    0  0.17890946504E+01  0.71887453538E+01  0.56419960261E+01  0.93118762261E+01  0.51100000000E-03 0.  1.
         12    1    4    4    0    0  0.10497297655E+01  0.21490929407E+01  0.10506558611E+01  0.26123573237E+01  0.00000000000E+00 0. -1.
</event>
<event>
 8    1  0.1265908E-006  0.9118800E+02  0.7816164E-02  0.1184000E+00
        -11   -1    0    0    0    0  0.00000000000E+00  0.00000000000E+00  0.45593999997E+02  0.45594000000E+02  0.51100000000E-03 0.  1.
         11   -1    0    0    0    0 -0.00000000000E+00 -0.00000000000E+00 -0.45593999997E+02  0.45594000000E+02  0.51100000000E-03 0. -1.
         23    2    1    2    0    0  0.35527136788E-14 -0.17763568394E-14  0.00000000000E+00  0.91188000000E+02  0.91188000000E+02 0.  0.
    9900012    2    3    3    0    0 -0.16870488475E+02  0.12459929986E+02  0.30264111660E+02  0.54367086225E+02  0.40000004667E+02 0.  0.
         12    1    3    3    0    0  0.16870488475E+02 -0.12459929986E+02 -0.30264111660E+02  0.36820913775E+02  0.00000000000E+00 0. -1.
         11    1    4    4    0    0 -0.23412522109E+01  0.35605240062E+01  0.87925831344E+01  0.97707886862E+01  0.51100000000E-03 0.  1.
        -11    1    4    4    0    0 -0.22587845903E+02  0.58620225164E-01  0.23349716011E+02  0.32487281464E+02  0.51100000000E-03 0. -1.
         12    1    4    4    0    0  0.80586096388E+01  0.88407857549E+01 -0.18781874852E+01  0.12109016075E+02  0.00000000000E+00 0. -1.
</event>
<event>
 8    1  0.1265908E-006  0.9118800E+02  0.7816164E-02  0.1184000E+00
        -11   -1    0    0    0    0  0.00000000000E+00  0.00000000000E+00  0.45593999997E+02  0.45594000000E+02  0.51100000000E-03 0. -1.
         11   -1    0    0    0    0 -0.00000000000E+00 -0.00000000000E+00 -0.45593999997E+02  0.45594000000E+02  0.51100000000E-03 0.  1.
         23    2    1    2    0    0 -0.35527136788E-14  0.17763568394E-14  0.00000000000E+00  0.91188000000E+02  0.91188000000E+02 0.  0.
    9900012    2    3    3    0    0 -0.14166022685E+02  0.13403465158E+02 -0.31232203866E+02  0.54367086984E+02  0.40000006398E+02 0.  0.
         12    1    3    3    0    0  0.14166022685E+02 -0.13403465158E+02  0.31232203866E+02  0.36820913016E+02  0.00000000000E+00 0. -1.
         11    1    4    4    0    0  0.48755198203E+01  0.15964182589E+02 -0.14182716237E+02  0.21903772720E+02  0.51100000000E-03 0.  1.
        -11    1    4    4    0    0 -0.16638279642E+02  0.82396515533E+00 -0.20950879539E+02  0.26766595258E+02  0.51100000000E-03 0. -1.
         12    1    4    4    0    0 -0.24032628633E+01 -0.33846825860E+01  0.39013919092E+01  0.56967190055E+01  0.00000000000E+00 0. -1.
</event>
<event>
 8    1  0.1265908E-006  0.9118800E+02  0.7816164E-02  0.1184000E+00
        -11   -1    0    0    0    0  0.00000000000E+00  0.00000000000E+00  0.45593999997E+02  0.45594000000E+02  0.51100000000E-03 0. -1.
         11   -1    0    0    0    0 -0.00000000000E+00 -0.00000000000E+00 -0.45593999997E+02  0.45594000000E+02  0.51100000000E-03 0.  1.
         23    2    1    2    0    0  0.00000000000E+00  0.35527136788E-14  0.00000000000E+00  0.91188000000E+02  0.91188000000E+02 0.  0.
    9900012    2    3    3    0    0 -0.26101291776E+02  0.24635231484E+02 -0.82223869328E+01  0.54367085977E+02  0.40000004101E+02 0.  0.
         12    1    3    3    0    0  0.26101291776E+02 -0.24635231484E+02  0.82223869328E+01  0.36820914023E+02  0.00000000000E+00 0. -1.
         11    1    4    4    0    0 -0.23078848128E+02  0.86757738567E+01 -0.14123424799E+02  0.28414317012E+02  0.51100000000E-03 0. -1.
        -11    1    4    4    0    0  0.38321627570E+01  0.36976510610E+01  0.99911872766E+01  0.11321745370E+02  0.51100000000E-03 0.  1.
        -12    1    4    4    0    0 -0.68546064047E+01  0.12261806566E+02 -0.40901494105E+01  0.14631023595E+02  0.00000000000E+00 0.  1.
</event>
<event>
 8    1  0.1265908E-006  0.9118800E+02  0.7816164E-02  0.1184000E+00
        -11   -1    0    0    0    0  0.00000000000E+00  0.00000000000E+00  0.45593999997E+02  0.45594000000E+02  0.51100000000E-03 0. -1.
         11   -1    0    0    0    0 -0.00000000000E+00 -0.00000000000E+00 -0.45593999997E+02  0.45594000000E+02  0.51100000000E-03 0.  1.
         23    2    1    2    0    0  0.00000000000E+00  0.00000000000E+00  0.00000000000E+00  0.91188000000E+02  0.91188000000E+02 0.  0.
    9900012    2    3    3    0    0  0.25243609872E+02  0.58110295496E+01 -0.26168220472E+02  0.54367032244E+02  0.39999881607E+02 0.  0.
         12    1    3    3    0    0 -0.25243609872E+02 -0.58110295496E+01  0.26168220472E+02  0.36820967756E+02  0.00000000000E+00 0. -1.
         11    1    4    4    0    0 -0.39080322709E+01  0.64435907331E+01  0.17597050154E+01  0.77388073867E+01  0.51100000000E-03 0. -1.
        -11    1    4    4    0    0  0.23199983960E+02  0.65396043445E+01 -0.93695561752E+01  0.25861056899E+02  0.51100000000E-03 0.  1.
        -12    1    4    4    0    0  0.59516581828E+01 -0.71721655280E+01 -0.18558369313E+02  0.20767167959E+02  0.00000000000E+00 0.  1.
</event>
<event>
 8    1  0.1265908E-006  0.9118800E+02  0.7816164E-02  0.1184000E+00
        -11   -1    0    0    0    0  0.00000000000E+00  0.00000000000E+00  0.45593999997E+02  0.45594000000E+02  0.51100000000E-03 0.  1.
         11   -1    0    0    0    0 -0.00000000000E+00 -0.00000000000E+00 -0.45593999997E+02  0.45594000000E+02  0.51100000000E-03 0. -1.
         23    2    1    2    0    0  0.00000000000E+00  0.00000000000E+00  0.00000000000E+00  0.91188000000E+02  0.91188000000E+02 0.  0.
    9900012    2    3    3    0    0 -0.87667404109E+01 -0.29290710296E+02  0.20517758263E+02  0.54367084052E+02  0.39999999714E+02 0.  0.
         12    1    3    3    0    0  0.87667404109E+01  0.29290710296E+02 -0.20517758263E+02  0.36820915948E+02  0.00000000000E+00 0. -1.
         11    1    4    4    0    0 -0.23499315572E+01  0.30805843815E+01  0.13067006390E+02  0.13629337281E+02  0.51100000000E-03 0.  1.
        -11    1    4    4    0    0  0.16382303096E+01 -0.81167263295E+01 -0.74631317212E+01  0.11147348573E+02  0.51100000000E-03 0. -1.
         12    1    4    4    0    0 -0.80550391633E+01 -0.24254568348E+02  0.14913883594E+02  0.29590398198E+02  0.00000000000E+00 0. -1.
</event>
<event>
 8    1  0.1265908E-006  0.9118800E+02  0.7816164E-02  0.1184000E+00
        -11   -1    0    0    0    0  0.00000000000E+00  0.00000000000E+00  0.45593999997E+02  0.45594000000E+02  0.51100000000E-03 0.  1.
         11   -1    0    0    0    0 -0.00000000000E+00 -0.00000000000E+00 -0.45593999997E+02  0.45594000000E+02  0.51100000000E-03 0. -1.
         23    2    1    2    0    0  0.00000000000E+00  0.35527136788E-14 -0.17763568394E-14  0.91188000000E+02  0.91188000000E+02 0.  0.
    9900012    2    3    3    0    0 -0.20298541672E+02  0.29301376463E+02 -0.92292310788E+01  0.54367079819E+02  0.39999990064E+02 0.  0.
        -12    1    3    3    0    0  0.20298541672E+02 -0.29301376463E+02  0.92292310788E+01  0.36820920181E+02  0.00000000000E+00 0.  1.
         11    1    4    4    0    0 -0.24206471059E+01  0.13142280649E+01  0.40347402406E+01  0.48852693772E+01  0.51100000000E-03 0. -1.
        -11    1    4    4    0    0 -0.21866596534E+02  0.97937552625E+01 -0.18344386927E+02  0.30175854886E+02  0.51100000000E-03 0.  1.
         12    1    4    4    0    0  0.39887019678E+01  0.18193393136E+02  0.50804156072E+01  0.19305955556E+02  0.00000000000E+00 0. -1.
</event>
<event>
 8    1  0.1265908E-006  0.9118800E+02  0.7816164E-02  0.1184000E+00
        -11   -1    0    0    0    0  0.00000000000E+00  0.00000000000E+00  0.45593999997E+02  0.45594000000E+02  0.51100000000E-03 0. -1.
         11   -1    0    0    0    0 -0.00000000000E+00 -0.00000000000E+00 -0.45593999997E+02  0.45594000000E+02  0.51100000000E-03 0.  1.
         23    2    1    2    0    0  0.00000000000E+00  0.00000000000E+00  0.88817841970E-15  0.91188000000E+02  0.91188000000E+02 0.  0.
    9900012    2    3    3    0    0  0.34075457837E+02 -0.12767237555E+02  0.56250652891E+01  0.54367074684E+02  0.39999978358E+02 0.  0.
        -12    1    3    3    0    0 -0.34075457837E+02  0.12767237555E+02 -0.56250652891E+01  0.36820925316E+02  0.00000000000E+00 0.  1.
         11    1    4    4    0    0  0.14405196047E+02 -0.83576497582E+00  0.64909057074E+01  0.15822137447E+02  0.51100000000E-03 0. -1.
        -11    1    4    4    0    0  0.21152909229E+02 -0.19795527706E+02  0.38977691300E+01  0.29231850617E+02  0.51100000000E-03 0.  1.
        -12    1    4    4    0    0 -0.14826474388E+01  0.78640551272E+01 -0.47636095483E+01  0.93130866205E+01  0.00000000000E+00 0.  1.
</event>
<event>
 8    1  0.1265908E-006  0.9118800E+02  0.7816164E-02  0.1184000E+00
        -11   -1    0    0    0    0  0.00000000000E+00  0.00000000000E+00  0.45593999997E+02  0.45594000000E+02  0.51100000000E-03 0. -1.
         11   -1    0    0    0    0 -0.00000000000E+00 -0.00000000000E+00 -0.45593999997E+02  0.45594000000E+02  0.51100000000E-03 0.  1.
         23    2    1    2    0    0  0.35527136788E-14  0.00000000000E+00  0.77715611724E-15  0.91188000000E+02  0.91188000000E+02 0.  0.
    9900012    2    3    3    0    0  0.28352858258E+02 -0.23483811147E+02  0.63435793077E+00  0.54367131360E+02  0.40000107562E+02 0.  0.
        -12    1    3    3    0    0 -0.28352858258E+02  0.23483811147E+02 -0.63435793077E+00  0.36820868640E+02  0.00000000000E+00 0.  1.
         11    1    4    4    0    0  0.88850376664E+01 -0.26994892362E+00  0.67218950851E+01  0.11144534111E+02  0.51100000000E-03 0. -1.
        -11    1    4    4    0    0 -0.59298184140E+01 -0.13989438631E+02 -0.56117311125E+01  0.16197489496E+02  0.51100000000E-03 0.  1.
        -12    1    4    4    0    0  0.25397639006E+02 -0.92244235918E+01 -0.47580604188E+00  0.27025107753E+02  0.00000000000E+00 0.  1.
</event>
<event>
 8    1  0.1265908E-006  0.9118800E+02  0.7816164E-02  0.1184000E+00
        -11   -1    0    0    0    0  0.00000000000E+00  0.00000000000E+00  0.45593999997E+02  0.45594000000E+02  0.51100000000E-03 0.  1.
         11   -1    0    0    0    0 -0.00000000000E+00 -0.00000000000E+00 -0.45593999997E+02  0.45594000000E+02  0.51100000000E-03 0. -1.
         23    2    1    2    0    0  0.00000000000E+00  0.00000000000E+00  0.71054273576E-14  0.91188000000E+02  0.91188000000E+02 0.  0.
    9900012    2    3    3    0    0  0.11715699398E+02 -0.11549128995E+02  0.32941443884E+02  0.54367099439E+02  0.40000034792E+02 0.  0.
         12    1    3    3    0    0 -0.11715699398E+02  0.11549128995E+02 -0.32941443884E+02  0.36820900561E+02  0.00000000000E+00 0. -1.
         11    1    4    4    0    0 -0.13410486633E+02 -0.71019280593E+01  0.16719443669E+02  0.22579156998E+02  0.51100000000E-03 0.  1.
        -11    1    4    4    0    0  0.13064459404E+02 -0.72165333492E+01  0.80489593253E+01  0.16957128283E+02  0.51100000000E-03 0. -1.
         12    1    4    4    0    0  0.12061726626E+02  0.27693324135E+01  0.81730408897E+01  0.14830814158E+02  0.00000000000E+00 0. -1.
</event>
<event>
 8    1  0.1265908E-006  0.9118800E+02  0.7816164E-02  0.1184000E+00
        -11   -1    0    0    0    0  0.00000000000E+00  0.00000000000E+00  0.45593999997E+02  0.45594000000E+02  0.51100000000E-03 0.  1.
         11   -1    0    0    0    0 -0.00000000000E+00 -0.00000000000E+00 -0.45593999997E+02  0.45594000000E+02  0.51100000000E-03 0. -1.
         23    2    1    2    0    0 -0.35527136788E-14  0.00000000000E+00  0.00000000000E+00  0.91188000000E+02  0.91188000000E+02 0.  0.
    9900012    2    3    3    0    0 -0.21337310704E+02  0.21659935077E+02 -0.20768875627E+02  0.54367084606E+02  0.40000000976E+02 0.  0.
        -12    1    3    3    0    0  0.21337310704E+02 -0.21659935077E+02  0.20768875627E+02  0.36820915394E+02  0.00000000000E+00 0.  1.
         11    1    4    4    0    0 -0.18365821933E+02 -0.23536808547E+01 -0.15810670407E+02  0.24347906025E+02  0.51100000000E-03 0. -1.
        -11    1    4    4    0    0  0.48610043276E+01  0.57709701872E+00 -0.91361194931E+00  0.49796677697E+01  0.51100000000E-03 0.  1.
        -12    1    4    4    0    0 -0.78324930989E+01  0.23436518913E+02 -0.40445932704E+01  0.25039510811E+02  0.00000000000E+00 0.  1.
</event>
<event>
 8    1  0.1265908E-006  0.9118800E+02  0.7816164E-02  0.1184000E+00
        -11   -1    0    0    0    0  0.00000000000E+00  0.00000000000E+00  0.45593999997E+02  0.45594000000E+02  0.51100000000E-03 0.  1.
         11   -1    0    0    0    0 -0.00000000000E+00 -0.00000000000E+00 -0.45593999997E+02  0.45594000000E+02  0.51100000000E-03 0. -1.
         23    2    1    2    0    0  0.00000000000E+00  0.00000000000E+00 -0.17763568394E-14  0.91188000000E+02  0.91188000000E+02 0.  0.
    9900012    2    3    3    0    0 -0.22133734647E+02  0.25532566911E+02 -0.14627554538E+02  0.54367088357E+02  0.40000009527E+02 0.  0.
        -12    1    3    3    0    0  0.22133734647E+02 -0.25532566911E+02  0.14627554538E+02  0.36820911643E+02  0.00000000000E+00 0.  1.
         11    1    4    4    0    0 -0.24624932345E+02  0.13541785358E+02 -0.78200435312E-01  0.28102906598E+02  0.51100000000E-03 0. -1.
        -11    1    4    4    0    0  0.64466663586E+00 -0.48659161325E+01 -0.32387409602E+01  0.58806613700E+01  0.51100000000E-03 0.  1.
         12    1    4    4    0    0  0.18465310613E+01  0.16856697685E+02 -0.11310613142E+02  0.20383520389E+02  0.00000000000E+00 0. -1.
</event>
<event>
 8    1  0.1265908E-006  0.9118800E+02  0.7816164E-02  0.1184000E+00
        -11   -1    0    0    0    0  0.00000000000E+00  0.00000000000E+00  0.45593999997E+02  0.45594000000E+02  0.51100000000E-03 0.  1.
         11   -1    0    0    0    0 -0.00000000000E+00 -0.00000000000E+00 -0.45593999997E+02  0.45594000000E+02  0.51100000000E-03 0. -1.
         23    2    1    2    0    0 -0.71054273576E-14  0.88817841970E-15  0.00000000000E+00  0.91188000000E+02  0.91188000000E+02 0.  0.
    9900012    2    3    3    0    0 -0.21864026313E+02  0.68098887005E+01  0.28833529994E+02  0.54367045604E+02  0.39999912063E+02 0.  0.
         12    1    3    3    0    0  0.21864026313E+02 -0.68098887005E+01 -0.28833529994E+02  0.36820954396E+02  0.00000000000E+00 0. -1.
         11    1    4    4    0    0  0.73500491335E+01  0.25138261343E+00  0.91480059448E+01  0.11737650042E+02  0.51100000000E-03 0. -1.
        -11    1    4    4    0    0 -0.26953986781E+02 -0.14574858201E+01  0.20997097073E+02  0.34198241973E+02  0.51100000000E-03 0.  1.
         12    1    4    4    0    0 -0.22600886662E+01  0.80159919072E+01 -0.13115730246E+01  0.84311535886E+01  0.00000000000E+00 0. -1.
</event>
<event>
 8    1  0.1265908E-006  0.9118800E+02  0.7816164E-02  0.1184000E+00
        -11   -1    0    0    0    0  0.00000000000E+00  0.00000000000E+00  0.45593999997E+02  0.45594000000E+02  0.51100000000E-03 0. -1.
         11   -1    0    0    0    0 -0.00000000000E+00 -0.00000000000E+00 -0.45593999997E+02  0.45594000000E+02  0.51100000000E-03 0.  1.
         23    2    1    2    0    0  0.35527136788E-14  0.35527136788E-14  0.00000000000E+00  0.91188000000E+02  0.91188000000E+02 0.  0.
    9900012    2    3    3    0    0 -0.30151025982E+02  0.18834212291E+02  0.95899307523E+01  0.54367099791E+02  0.40000035594E+02 0.  0.
        -12    1    3    3    0    0  0.30151025982E+02 -0.18834212291E+02 -0.95899307523E+01  0.36820900209E+02  0.00000000000E+00 0.  1.
         11    1    4    4    0    0  0.11346776958E+01  0.20682896997E+02  0.44322490389E+01  0.21182883502E+02  0.51100000000E-03 0. -1.
        -11    1    4    4    0    0 -0.30804801420E+01  0.81317021602E+00 -0.22509908820E+01  0.39009696124E+01  0.51100000000E-03 0.  1.
         12    1    4    4    0    0 -0.28205223536E+02 -0.26618549221E+01  0.74086725953E+01  0.29283246677E+02  0.00000000000E+00 0. -1.
</event>
<event>
 8    1  0.1265908E-006  0.9118800E+02  0.7816164E-02  0.1184000E+00
        -11   -1    0    0    0    0  0.00000000000E+00  0.00000000000E+00  0.45593999997E+02  0.45594000000E+02  0.51100000000E-03 0.  1.
         11   -1    0    0    0    0 -0.00000000000E+00 -0.00000000000E+00 -0.45593999997E+02  0.45594000000E+02  0.51100000000E-03 0. -1.
         23    2    1    2    0    0  0.35527136788E-14 -0.35527136788E-14  0.00000000000E+00  0.91188000000E+02  0.91188000000E+02 0.  0.
    9900012    2    3    3    0    0  0.22990058605E+02 -0.16815835431E+02 -0.23333774162E+02  0.54367080232E+02  0.39999991004E+02 0.  0.
        -12    1    3    3    0    0 -0.22990058605E+02  0.16815835431E+02  0.23333774162E+02  0.36820919768E+02  0.00000000000E+00 0.  1.
         11    1    4    4    0    0  0.29107895721E+02 -0.26519583440E+01 -0.20822715816E+02  0.35887156067E+02  0.51100000000E-03 0. -1.
        -11    1    4    4    0    0 -0.37627512906E+00 -0.10621521952E+01  0.29581136459E+01  0.31654678740E+01  0.51100000000E-03 0.  1.
         12    1    4    4    0    0 -0.57415619866E+01 -0.13101724892E+02 -0.54691719918E+01  0.15314456290E+02  0.00000000000E+00 0. -1.
</event>
<event>
 8    1  0.1265908E-006  0.9118800E+02  0.7816164E-02  0.1184000E+00
        -11   -1    0    0    0    0  0.00000000000E+00  0.00000000000E+00  0.45593999997E+02  0.45594000000E+02  0.51100000000E-03 0. -1.
         11   -1    0    0    0    0 -0.00000000000E+00 -0.00000000000E+00 -0.45593999997E+02  0.45594000000E+02  0.51100000000E-03 0.  1.
         23    2    1    2    0    0 -0.33306690739E-15 -0.35527136788E-14  0.00000000000E+00  0.91188000000E+02  0.91188000000E+02 0.  0.
    9900012    2    3    3    0    0 -0.86874567105E+00 -0.21330054325E+02 -0.30000866657E+02  0.54367110049E+02  0.40000058980E+02 0.  0.
         12    1    3    3    0    0  0.86874567105E+00  0.21330054325E+02  0.30000866657E+02  0.36820889951E+02  0.00000000000E+00 0. -1.
         11    1    4    4    0    0 -0.62697055203E+01  0.40988109319E+01 -0.94005514234E+01  0.12019976110E+02  0.51100000000E-03 0. -1.
        -11    1    4    4    0    0  0.11642744216E+01 -0.46903998844E+01 -0.20621607082E+02  0.21180322588E+02  0.51100000000E-03 0.  1.
         12    1    4    4    0    0  0.42366854276E+01 -0.20738465373E+02  0.21291848683E-01  0.21166811351E+02  0.00000000000E+00 0. -1.
</event>
<event>
 8    1  0.1265908E-006  0.9118800E+02  0.7816164E-02  0.1184000E+00
        -11   -1    0    0    0    0  0.00000000000E+00  0.00000000000E+00  0.45593999997E+02  0.45594000000E+02  0.51100000000E-03 0.  1.
         11   -1    0    0    0    0 -0.00000000000E+00 -0.00000000000E+00 -0.45593999997E+02  0.45594000000E+02  0.51100000000E-03 0. -1.
         23    2    1    2    0    0  0.71054273576E-14  0.44408920985E-15 -0.35527136788E-14  0.91188000000E+02  0.91188000000E+02 0.  0.
    9900012    2    3    3    0    0  0.23696280975E+02 -0.17710876160E+01 -0.28126975662E+02  0.54367119466E+02  0.40000080447E+02 0.  0.
        -12    1    3    3    0    0 -0.23696280975E+02  0.17710876160E+01  0.28126975662E+02  0.36820880534E+02  0.00000000000E+00 0.  1.
         11    1    4    4    0    0  0.44466523414E+01 -0.27418040611E+01 -0.15176086987E+02  0.16050041216E+02  0.51100000000E-03 0. -1.
        -11    1    4    4    0    0  0.19029422432E+02 -0.12383539241E+02 -0.79583263873E+01  0.24058385677E+02  0.51100000000E-03 0.  1.
         12    1    4    4    0    0  0.22020620127E+00  0.13354255686E+02 -0.49925622880E+01  0.14258692573E+02  0.00000000000E+00 0. -1.
</event>
<event>
 8    1  0.1265908E-006  0.9118800E+02  0.7816164E-02  0.1184000E+00
        -11   -1    0    0    0    0  0.00000000000E+00  0.00000000000E+00  0.45593999997E+02  0.45594000000E+02  0.51100000000E-03 0. -1.
         11   -1    0    0    0    0 -0.00000000000E+00 -0.00000000000E+00 -0.45593999997E+02  0.45594000000E+02  0.51100000000E-03 0.  1.
         23    2    1    2    0    0  0.35527136788E-14  0.00000000000E+00  0.00000000000E+00  0.91188000000E+02  0.91188000000E+02 0.  0.
    9900012    2    3    3    0    0  0.28248413964E+02  0.10760969592E+02  0.21023909466E+02  0.54367134621E+02  0.40000114995E+02 0.  0.
        -12    1    3    3    0    0 -0.28248413964E+02 -0.10760969592E+02 -0.21023909466E+02  0.36820865379E+02  0.00000000000E+00 0.  1.
         11    1    4    4    0    0 -0.69466071073E+01  0.54939857255E+01  0.11435580673E+02  0.14464153450E+02  0.51100000000E-03 0. -1.
        -11    1    4    4    0    0  0.17552160839E+01  0.29235273540E+01  0.50238798029E+01  0.60718336790E+01  0.51100000000E-03 0.  1.
        -12    1    4    4    0    0  0.33439804987E+02  0.23434565127E+01  0.45644489902E+01  0.33831147492E+02  0.00000000000E+00 0.  1.
</event>
<event>
 8    1  0.1265908E-006  0.9118800E+02  0.7816164E-02  0.1184000E+00
        -11   -1    0    0    0    0  0.00000000000E+00  0.00000000000E+00  0.45593999997E+02  0.45594000000E+02  0.51100000000E-03 0.  1.
         11   -1    0    0    0    0 -0.00000000000E+00 -0.00000000000E+00 -0.45593999997E+02  0.45594000000E+02  0.51100000000E-03 0. -1.
         23    2    1    2    0    0 -0.33306690739E-15  0.22204460493E-15  0.00000000000E+00  0.91188000000E+02  0.91188000000E+02 0.  0.
    9900012    2    3    3    0    0 -0.46448252814E+00 -0.15918428758E+01 -0.36783559834E+02  0.54367082279E+02  0.39999995672E+02 0.  0.
        -12    1    3    3    0    0  0.46448252814E+00  0.15918428758E+01  0.36783559834E+02  0.36820917721E+02  0.00000000000E+00 0.  1.
         11    1    4    4    0    0 -0.11619987803E+02 -0.79253253152E+01 -0.50614328359E+01  0.14948344407E+02  0.51100000000E-03 0.  1.
        -11    1    4    4    0    0  0.13297847810E+02  0.11372627518E+02 -0.20648552983E+02  0.27065331212E+02  0.51100000000E-03 0. -1.
        -12    1    4    4    0    0 -0.21423425360E+01 -0.50391450790E+01 -0.11073574015E+02  0.12353406661E+02  0.00000000000E+00 0.  1.
</event>
<event>
 8    1  0.1265908E-006  0.9118800E+02  0.7816164E-02  0.1184000E+00
        -11   -1    0    0    0    0  0.00000000000E+00  0.00000000000E+00  0.45593999997E+02  0.45594000000E+02  0.51100000000E-03 0.  1.
         11   -1    0    0    0    0 -0.00000000000E+00 -0.00000000000E+00 -0.45593999997E+02  0.45594000000E+02  0.51100000000E-03 0. -1.
         23    2    1    2    0    0 -0.13877787808E-15 -0.35527136788E-14  0.35527136788E-14  0.91188000000E+02  0.91188000000E+02 0.  0.
    9900012    2    3    3    0    0 -0.18569249311E+00 -0.24147929312E+02  0.27796056871E+02  0.54367112594E+02  0.40000064781E+02 0.  0.
         12    1    3    3    0    0  0.18569249311E+00  0.24147929312E+02 -0.27796056871E+02  0.36820887406E+02  0.00000000000E+00 0. -1.
         11    1    4    4    0    0  0.67833665339E+01 -0.70398454206E+00 -0.28307428015E+01  0.73839529276E+01  0.51100000000E-03 0. -1.
        -11    1    4    4    0    0  0.41381825906E+01 -0.17077100319E+02  0.48918920795E+01  0.18239586586E+02  0.51100000000E-03 0.  1.
        -12    1    4    4    0    0 -0.11107241618E+02 -0.63668444517E+01  0.25734907593E+02  0.28743573081E+02  0.00000000000E+00 0.  1.
</event>
<event>
 8    1  0.1265908E-006  0.9118800E+02  0.7816164E-02  0.1184000E+00
        -11   -1    0    0    0    0  0.00000000000E+00  0.00000000000E+00  0.45593999997E+02  0.45594000000E+02  0.51100000000E-03 0.  1.
         11   -1    0    0    0    0 -0.00000000000E+00 -0.00000000000E+00 -0.45593999997E+02  0.45594000000E+02  0.51100000000E-03 0. -1.
         23    2    1    2    0    0  0.17763568394E-14  0.35527136788E-14 -0.35527136788E-14  0.91188000000E+02  0.91188000000E+02 0.  0.
    9900012    2    3    3    0    0  0.99823499830E+01  0.22027534317E+02 -0.27765426304E+02  0.54367102712E+02  0.40000042252E+02 0.  0.
        -12    1    3    3    0    0 -0.99823499830E+01 -0.22027534317E+02  0.27765426304E+02  0.36820897288E+02  0.00000000000E+00 0.  1.
         11    1    4    4    0    0  0.91012495751E+01  0.24178753390E+01 -0.62615269666E+01  0.11308650901E+02  0.51100000000E-03 0. -1.
        -11    1    4    4    0    0  0.12587115011E+02  0.36803633536E+00 -0.10533226836E+01  0.12636471184E+02  0.51100000000E-03 0.  1.
         12    1    4    4    0    0 -0.11706014603E+02  0.19241622643E+02 -0.20450576654E+02  0.30421980627E+02  0.00000000000E+00 0. -1.
</event>
<event>
 8    1  0.1265908E-006  0.9118800E+02  0.7816164E-02  0.1184000E+00
        -11   -1    0    0    0    0  0.00000000000E+00  0.00000000000E+00  0.45593999997E+02  0.45594000000E+02  0.51100000000E-03 0. -1.
         11   -1    0    0    0    0 -0.00000000000E+00 -0.00000000000E+00 -0.45593999997E+02  0.45594000000E+02  0.51100000000E-03 0.  1.
         23    2    1    2    0    0  0.00000000000E+00  0.00000000000E+00  0.00000000000E+00  0.91188000000E+02  0.91188000000E+02 0.  0.
    9900012    2    3    3    0    0 -0.17492708547E+02  0.28936225463E+02  0.14576762240E+02  0.54367054958E+02  0.39999933388E+02 0.  0.
        -12    1    3    3    0    0  0.17492708547E+02 -0.28936225463E+02 -0.14576762240E+02  0.36820945042E+02  0.00000000000E+00 0.  1.
         11    1    4    4    0    0 -0.19503656328E+00 -0.67006184906E+01  0.33085127150E+01  0.74754654748E+01  0.51100000000E-03 0. -1.
        -11    1    4    4    0    0 -0.75186505292E+01  0.24549632450E+01 -0.42484239906E+01  0.89780876015E+01  0.51100000000E-03 0.  1.
        -12    1    4    4    0    0 -0.97790214547E+01  0.33181880708E+02  0.15516673516E+02  0.37913501882E+02  0.00000000000E+00 0.  1.
</event>
<event>
 8    1  0.1265908E-006  0.9118800E+02  0.7816164E-02  0.1184000E+00
        -11   -1    0    0    0    0  0.00000000000E+00  0.00000000000E+00  0.45593999997E+02  0.45594000000E+02  0.51100000000E-03 0.  1.
         11   -1    0    0    0    0 -0.00000000000E+00 -0.00000000000E+00 -0.45593999997E+02  0.45594000000E+02  0.51100000000E-03 0. -1.
         23    2    1    2    0    0  0.88817841970E-15  0.00000000000E+00  0.00000000000E+00  0.91188000000E+02  0.91188000000E+02 0.  0.
    9900012    2    3    3    0    0 -0.63776479472E+01  0.26723937540E+02  0.24514024540E+02  0.54367073475E+02  0.39999975602E+02 0.  0.
         12    1    3    3    0    0  0.63776479472E+01 -0.26723937540E+02 -0.24514024540E+02  0.36820926525E+02  0.00000000000E+00 0. -1.
         11    1    4    4    0    0 -0.96451438767E+01 -0.30756194932E+01 -0.53374096429E+01  0.11444482410E+02  0.51100000000E-03 0. -1.
        -11    1    4    4    0    0  0.24297327241E+01  0.17278050528E+02  0.12306570342E+02  0.21351494210E+02  0.51100000000E-03 0.  1.
         12    1    4    4    0    0  0.83776320542E+00  0.12521506505E+02  0.17544863841E+02  0.21571096856E+02  0.00000000000E+00 0. -1.
</event>
<event>
 8    1  0.1265908E-006  0.9118800E+02  0.7816164E-02  0.1184000E+00
        -11   -1    0    0    0    0  0.00000000000E+00  0.00000000000E+00  0.45593999997E+02  0.45594000000E+02  0.51100000000E-03 0. -1.
         11   -1    0    0    0    0 -0.00000000000E+00 -0.00000000000E+00 -0.45593999997E+02  0.45594000000E+02  0.51100000000E-03 0.  1.
         23    2    1    2    0    0  0.00000000000E+00  0.00000000000E+00  0.00000000000E+00  0.91188000000E+02  0.91188000000E+02 0.  0.
    9900012    2    3    3    0    0  0.30951290652E+02  0.16241943230E+02  0.11575699209E+02  0.54367083050E+02  0.39999997428E+02 0.  0.
         12    1    3    3    0    0 -0.30951290652E+02 -0.16241943230E+02 -0.11575699209E+02  0.36820916950E+02  0.00000000000E+00 0. -1.
         11    1    4    4    0    0  0.21483180044E+02  0.20059218915E+02  0.48049081849E+01  0.29782317425E+02  0.51100000000E-03 0.  1.
        -11    1    4    4    0    0  0.15593404986E+02  0.95624768682E+00  0.28320031509E+01  0.15877308676E+02  0.51100000000E-03 0. -1.
         12    1    4    4    0    0 -0.61252943783E+01 -0.47735233717E+01  0.39387878727E+01  0.87074569483E+01  0.00000000000E+00 0. -1.
</event>
<event>
 8    1  0.1265908E-006  0.9118800E+02  0.7816164E-02  0.1184000E+00
        -11   -1    0    0    0    0  0.00000000000E+00  0.00000000000E+00  0.45593999997E+02  0.45594000000E+02  0.51100000000E-03 0. -1.
         11   -1    0    0    0    0 -0.00000000000E+00 -0.00000000000E+00 -0.45593999997E+02  0.45594000000E+02  0.51100000000E-03 0.  1.
         23    2    1    2    0    0  0.00000000000E+00  0.00000000000E+00  0.00000000000E+00  0.91188000000E+02  0.91188000000E+02 0.  0.
    9900012    2    3    3    0    0 -0.20024658018E+02  0.75940204645E+01 -0.29952046695E+02  0.54367066052E+02  0.39999958680E+02 0.  0.
         12    1    3    3    0    0  0.20024658018E+02 -0.75940204645E+01  0.29952046695E+02  0.36820933948E+02  0.00000000000E+00 0. -1.
         11    1    4    4    0    0  0.27566136378E+01  0.66405742761E+01 -0.52904504020E+01  0.89266461328E+01  0.51100000000E-03 0. -1.
        -11    1    4    4    0    0 -0.15733482475E+02  0.77381576964E+01 -0.29659824123E+02  0.34454705377E+02  0.51100000000E-03 0.  1.
         12    1    4    4    0    0 -0.70477891809E+01 -0.67847115080E+01  0.49982278299E+01  0.10985714543E+02  0.00000000000E+00 0. -1.
</event>
<event>
 8    1  0.1265908E-006  0.9118800E+02  0.7816164E-02  0.1184000E+00
        -11   -1    0    0    0    0  0.00000000000E+00  0.00000000000E+00  0.45593999997E+02  0.45594000000E+02  0.51100000000E-03 0. -1.
         11   -1    0    0    0    0 -0.00000000000E+00 -0.00000000000E+00 -0.45593999997E+02  0.45594000000E+02  0.51100000000E-03 0.  1.
         23    2    1    2    0    0 -0.22204460493E-15 -0.35527136788E-14 -0.35527136788E-14  0.91188000000E+02  0.91188000000E+02 0.  0.
    9900012    2    3    3    0    0  0.19161958091E+01  0.19437901990E+02  0.31213393262E+02  0.54367085303E+02  0.40000002566E+02 0.  0.
        -12    1    3    3    0    0 -0.19161958091E+01 -0.19437901990E+02 -0.31213393262E+02  0.36820914697E+02  0.00000000000E+00 0.  1.
         11    1    4    4    0    0  0.91537471878E+01 -0.38967248044E+01  0.12658161987E+02  0.16099832823E+02  0.51100000000E-03 0. -1.
        -11    1    4    4    0    0  0.45481155156E+01 -0.23321158002E+01  0.40232400938E+01  0.65046583279E+01  0.51100000000E-03 0.  1.
        -12    1    4    4    0    0 -0.11785666894E+02  0.25666742595E+02  0.14531991181E+02  0.31762594152E+02  0.00000000000E+00 0.  1.
</event>
<event>
 8    1  0.1265908E-006  0.9118800E+02  0.7816164E-02  0.1184000E+00
        -11   -1    0    0    0    0  0.00000000000E+00  0.00000000000E+00  0.45593999997E+02  0.45594000000E+02  0.51100000000E-03 0. -1.
         11   -1    0    0    0    0 -0.00000000000E+00 -0.00000000000E+00 -0.45593999997E+02  0.45594000000E+02  0.51100000000E-03 0.  1.
         23    2    1    2    0    0  0.00000000000E+00  0.00000000000E+00  0.44408920985E-15  0.91188000000E+02  0.91188000000E+02 0.  0.
    9900012    2    3    3    0    0 -0.21741228950E+02  0.29682140531E+02 -0.14390399634E+01  0.54367063853E+02  0.39999953665E+02 0.  0.
         12    1    3    3    0    0  0.21741228950E+02 -0.29682140531E+02  0.14390399634E+01  0.36820936147E+02  0.00000000000E+00 0. -1.
         11    1    4    4    0    0  0.67698021469E+00 -0.23820378269E+01 -0.26749485523E+01  0.36452375010E+01  0.51100000000E-03 0. -1.
        -11    1    4    4    0    0 -0.19665215731E+02  0.25535530749E+02 -0.13052714382E+02  0.34772940533E+02  0.51100000000E-03 0.  1.
        -12    1    4    4    0    0 -0.27529934342E+01  0.65286476090E+01  0.14288622971E+02  0.15948885818E+02  0.00000000000E+00 0.  1.
</event>
<event>
 8    1  0.1265908E-006  0.9118800E+02  0.7816164E-02  0.1184000E+00
        -11   -1    0    0    0    0  0.00000000000E+00  0.00000000000E+00  0.45593999997E+02  0.45594000000E+02  0.51100000000E-03 0. -1.
         11   -1    0    0    0    0 -0.00000000000E+00 -0.00000000000E+00 -0.45593999997E+02  0.45594000000E+02  0.51100000000E-03 0.  1.
         23    2    1    2    0    0  0.00000000000E+00  0.00000000000E+00 -0.17763568394E-14  0.91188000000E+02  0.91188000000E+02 0.  0.
    9900012    2    3    3    0    0 -0.90587163087E+01  0.32951825719E+02 -0.13707825873E+02  0.54366978157E+02  0.39999758304E+02 0.  0.
         12    1    3    3    0    0  0.90587163087E+01 -0.32951825719E+02  0.13707825873E+02  0.36821021843E+02  0.00000000000E+00 0. -1.
         11    1    4    4    0    0  0.13102614882E+00 -0.15955814517E+01 -0.59125608480E+01  0.61254733746E+01  0.51100000000E-03 0. -1.
        -11    1    4    4    0    0 -0.91828626903E+01  0.30843181644E+02  0.70472435462E+01  0.32943746948E+02  0.51100000000E-03 0.  1.
        -12    1    4    4    0    0 -0.68797672448E-02  0.37042255267E+01 -0.14842508571E+02  0.15297757835E+02  0.00000000000E+00 0.  1.
</event>
<event>
 8    1  0.1265908E-006  0.9118800E+02  0.7816164E-02  0.1184000E+00
        -11   -1    0    0    0    0  0.00000000000E+00  0.00000000000E+00  0.45593999997E+02  0.45594000000E+02  0.51100000000E-03 0.  1.
         11   -1    0    0    0    0 -0.00000000000E+00 -0.00000000000E+00 -0.45593999997E+02  0.45594000000E+02  0.51100000000E-03 0. -1.
         23    2    1    2    0    0 -0.71054273576E-14  0.35527136788E-14  0.35527136788E-14  0.91188000000E+02  0.91188000000E+02 0.  0.
    9900012    2    3    3    0    0  0.32995215119E+02 -0.12081756169E+02 -0.11005711777E+02  0.54367099080E+02  0.40000033972E+02 0.  0.
        -12    1    3    3    0    0 -0.32995215119E+02  0.12081756169E+02  0.11005711777E+02  0.36820900920E+02  0.00000000000E+00 0.  1.
         11    1    4    4    0    0  0.10115325855E+02  0.30660012917E+01 -0.14631649485E+01  0.10670568541E+02  0.51100000000E-03 0.  1.
        -11    1    4    4    0    0  0.23621671168E+02 -0.86990592446E+01  0.68312318989E+01  0.26082996569E+02  0.51100000000E-03 0. -1.
         12    1    4    4    0    0 -0.74178190377E+00 -0.64486982160E+01 -0.16373778727E+02  0.17613533969E+02  0.00000000000E+00 0. -1.
</event>
<event>
 8    1  0.1265908E-006  0.9118800E+02  0.7816164E-02  0.1184000E+00
        -11   -1    0    0    0    0  0.00000000000E+00  0.00000000000E+00  0.45593999997E+02  0.45594000000E+02  0.51100000000E-03 0. -1.
         11   -1    0    0    0    0 -0.00000000000E+00 -0.00000000000E+00 -0.45593999997E+02  0.45594000000E+02  0.51100000000E-03 0.  1.
         23    2    1    2    0    0 -0.22204460493E-15  0.00000000000E+00  0.00000000000E+00  0.91188000000E+02  0.91188000000E+02 0.  0.
    9900012    2    3    3    0    0 -0.13153771132E+01 -0.34535977369E+02 -0.12701083951E+02  0.54367061890E+02  0.39999949191E+02 0.  0.
         12    1    3    3    0    0  0.13153771132E+01  0.34535977369E+02  0.12701083951E+02  0.36820938110E+02  0.00000000000E+00 0. -1.
         11    1    4    4    0    0 -0.10503537303E+02  0.32150394854E+00 -0.58239188426E+01  0.12014395183E+02  0.51100000000E-03 0. -1.
        -11    1    4    4    0    0  0.44870989907E+00 -0.30856412706E+02 -0.58635328459E+00  0.30865245116E+02  0.51100000000E-03 0.  1.
        -12    1    4    4    0    0  0.87394502905E+01 -0.40010686111E+01 -0.62908118237E+01  0.11487421591E+02  0.00000000000E+00 0.  1.
</event>
<event>
 8    1  0.1265908E-006  0.9118800E+02  0.7816164E-02  0.1184000E+00
        -11   -1    0    0    0    0  0.00000000000E+00  0.00000000000E+00  0.45593999997E+02  0.45594000000E+02  0.51100000000E-03 0.  1.
         11   -1    0    0    0    0 -0.00000000000E+00 -0.00000000000E+00 -0.45593999997E+02  0.45594000000E+02  0.51100000000E-03 0. -1.
         23    2    1    2    0    0  0.88817841970E-15  0.17763568394E-14  0.00000000000E+00  0.91188000000E+02  0.91188000000E+02 0.  0.
    9900012    2    3    3    0    0 -0.65247126404E+01 -0.14755217220E+02 -0.33098216424E+02  0.54367078764E+02  0.39999987657E+02 0.  0.
        -12    1    3    3    0    0  0.65247126404E+01  0.14755217220E+02  0.33098216424E+02  0.36820921236E+02  0.00000000000E+00 0.  1.
         11    1    4    4    0    0 -0.11011527511E+02 -0.76114225397E+01 -0.22693316650E+02  0.26347184139E+02  0.51100000000E-03 0. -1.
        -11    1    4    4    0    0  0.15957947499E+01 -0.16417153472E+01 -0.18034404951E+02  0.18179151585E+02  0.51100000000E-03 0.  1.
        -12    1    4    4    0    0  0.28910201204E+01 -0.55020793333E+01  0.76295051771E+01  0.98407430397E+01  0.00000000000E+00 0.  1.
</event>
<event>
 8    1  0.1265908E-006  0.9118800E+02  0.7816164E-02  0.1184000E+00
        -11   -1    0    0    0    0  0.00000000000E+00  0.00000000000E+00  0.45593999997E+02  0.45594000000E+02  0.51100000000E-03 0. -1.
         11   -1    0    0    0    0 -0.00000000000E+00 -0.00000000000E+00 -0.45593999997E+02  0.45594000000E+02  0.51100000000E-03 0.  1.
         23    2    1    2    0    0  0.00000000000E+00  0.00000000000E+00 -0.35527136788E-14  0.91188000000E+02  0.91188000000E+02 0.  0.
    9900012    2    3    3    0    0  0.23313724288E+02 -0.20591731527E+02  0.19703559397E+02  0.54367090175E+02  0.40000013672E+02 0.  0.
        -12    1    3    3    0    0 -0.23313724288E+02  0.20591731527E+02 -0.19703559397E+02  0.36820909825E+02  0.00000000000E+00 0.  1.
         11    1    4    4    0    0 -0.29102266394E+01  0.47949432467E+01  0.50457039353E+01  0.75445363207E+01  0.51100000000E-03 0. -1.
        -11    1    4    4    0    0  0.26789493322E+02 -0.93501058420E+01  0.10405796129E+02  0.30222210790E+02  0.51100000000E-03 0.  1.
        -12    1    4    4    0    0 -0.56554239474E+00 -0.16036568931E+02  0.42520593324E+01  0.16600343065E+02  0.00000000000E+00 0.  1.
</event>
<event>
 8    1  0.1265908E-006  0.9118800E+02  0.7816164E-02  0.1184000E+00
        -11   -1    0    0    0    0  0.00000000000E+00  0.00000000000E+00  0.45593999997E+02  0.45594000000E+02  0.51100000000E-03 0. -1.
         11   -1    0    0    0    0 -0.00000000000E+00 -0.00000000000E+00 -0.45593999997E+02  0.45594000000E+02  0.51100000000E-03 0.  1.
         23    2    1    2    0    0  0.00000000000E+00  0.00000000000E+00  0.44408920985E-15  0.91188000000E+02  0.91188000000E+02 0.  0.
    9900012    2    3    3    0    0  0.23025765170E+02  0.28553682564E+02 -0.32064720424E+01  0.54367080503E+02  0.39999991622E+02 0.  0.
        -12    1    3    3    0    0 -0.23025765170E+02 -0.28553682564E+02  0.32064720424E+01  0.36820919497E+02  0.00000000000E+00 0.  1.
         11    1    4    4    0    0 -0.64952024707E+00  0.77298558263E+01  0.83014155350E+01  0.11361604103E+02  0.51100000000E-03 0. -1.
        -11    1    4    4    0    0  0.12208238410E+02 -0.47313685950E+01 -0.11567540373E+01  0.13144010576E+02  0.51100000000E-03 0.  1.
         12    1    4    4    0    0  0.11467047007E+02  0.25555195333E+02 -0.10351133540E+02  0.29861465824E+02  0.00000000000E+00 0. -1.
</event>
<event>
 8    1  0.1265908E-006  0.9118800E+02  0.7816164E-02  0.1184000E+00
        -11   -1    0    0    0    0  0.00000000000E+00  0.00000000000E+00  0.45593999997E+02  0.45594000000E+02  0.51100000000E-03 0.  1.
         11   -1    0    0    0    0 -0.00000000000E+00 -0.00000000000E+00 -0.45593999997E+02  0.45594000000E+02  0.51100000000E-03 0. -1.
         23    2    1    2    0    0  0.00000000000E+00  0.00000000000E+00  0.00000000000E+00  0.91188000000E+02  0.91188000000E+02 0.  0.
    9900012    2    3    3    0    0 -0.18943689765E+02 -0.24435819928E+02 -0.19995184040E+02  0.54367081187E+02  0.39999993182E+02 0.  0.
        -12    1    3    3    0    0  0.18943689765E+02  0.24435819928E+02  0.19995184040E+02  0.36820918813E+02  0.00000000000E+00 0.  1.
         11    1    4    4    0    0 -0.39692385670E+00 -0.49249556995E+01  0.21374561203E+01  0.53834427755E+01  0.51100000000E-03 0. -1.
        -11    1    4    4    0    0 -0.67403156604E+01 -0.82903759989E+01  0.89199617240E+01  0.13918617274E+02  0.51100000000E-03 0.  1.
        -12    1    4    4    0    0 -0.11806450248E+02 -0.11220488229E+02 -0.31052601885E+02  0.35065021137E+02  0.00000000000E+00 0.  1.
</event>
<event>
 8    1  0.1265908E-006  0.9118800E+02  0.7816164E-02  0.1184000E+00
        -11   -1    0    0    0    0  0.00000000000E+00  0.00000000000E+00  0.45593999997E+02  0.45594000000E+02  0.51100000000E-03 0.  1.
         11   -1    0    0    0    0 -0.00000000000E+00 -0.00000000000E+00 -0.45593999997E+02  0.45594000000E+02  0.51100000000E-03 0. -1.
         23    2    1    2    0    0  0.00000000000E+00 -0.35527136788E-14 -0.35527136788E-14  0.91188000000E+02  0.91188000000E+02 0.  0.
    9900012    2    3    3    0    0 -0.21592215634E+02 -0.20306663783E+02 -0.21844807252E+02  0.54367082387E+02  0.39999995918E+02 0.  0.
        -12    1    3    3    0    0  0.21592215634E+02  0.20306663783E+02  0.21844807252E+02  0.36820917613E+02  0.00000000000E+00 0.  1.
         11    1    4    4    0    0 -0.84042107801E+01  0.10423315118E+01 -0.65436962294E+01  0.10702204185E+02  0.51100000000E-03 0. -1.
        -11    1    4    4    0    0 -0.12212387153E+02 -0.28548772556E+02 -0.56119779253E+01  0.31554224930E+02  0.51100000000E-03 0.  1.
         12    1    4    4    0    0 -0.97561770058E+00  0.71997772608E+01 -0.96891330973E+01  0.12110653272E+02  0.00000000000E+00 0. -1.
</event>
<event>
 8    1  0.1265908E-006  0.9118800E+02  0.7816164E-02  0.1184000E+00
        -11   -1    0    0    0    0  0.00000000000E+00  0.00000000000E+00  0.45593999997E+02  0.45594000000E+02  0.51100000000E-03 0. -1.
         11   -1    0    0    0    0 -0.00000000000E+00 -0.00000000000E+00 -0.45593999997E+02  0.45594000000E+02  0.51100000000E-03 0.  1.
         23    2    1    2    0    0  0.00000000000E+00  0.00000000000E+00  0.88817841970E-15  0.91188000000E+02  0.91188000000E+02 0.  0.
    9900012    2    3    3    0    0  0.30153755680E+02 -0.20250082110E+02  0.60385742760E+01  0.54367093081E+02  0.40000020296E+02 0.  0.
         12    1    3    3    0    0 -0.30153755680E+02  0.20250082110E+02 -0.60385742760E+01  0.36820906919E+02  0.00000000000E+00 0. -1.
         11    1    4    4    0    0 -0.33986370884E+01 -0.66309527825E+01 -0.38129764848E+01  0.83701289594E+01  0.51100000000E-03 0. -1.
        -11    1    4    4    0    0  0.39957040185E+01 -0.14809590062E+02  0.38198554075E+01  0.15807621706E+02  0.51100000000E-03 0.  1.
         12    1    4    4    0    0  0.29556688750E+02  0.11904607351E+01  0.60316953532E+01  0.30189342415E+02  0.00000000000E+00 0. -1.
</event>
<event>
 8    1  0.1265908E-006  0.9118800E+02  0.7816164E-02  0.1184000E+00
        -11   -1    0    0    0    0  0.00000000000E+00  0.00000000000E+00  0.45593999997E+02  0.45594000000E+02  0.51100000000E-03 0.  1.
         11   -1    0    0    0    0 -0.00000000000E+00 -0.00000000000E+00 -0.45593999997E+02  0.45594000000E+02  0.51100000000E-03 0. -1.
         23    2    1    2    0    0  0.17763568394E-14  0.88817841970E-15  0.00000000000E+00  0.91188000000E+02  0.91188000000E+02 0.  0.
    9900012    2    3    3    0    0 -0.11636709672E+02 -0.70285388998E+01  0.34219385495E+02  0.54367085906E+02  0.40000003939E+02 0.  0.
         12    1    3    3    0    0  0.11636709672E+02  0.70285388998E+01 -0.34219385495E+02  0.36820914094E+02  0.00000000000E+00 0. -1.
         11    1    4    4    0    0  0.36854758231E+01 -0.10546007869E+02  0.37732454151E+01  0.11791454331E+02  0.51100000000E-03 0. -1.
        -11    1    4    4    0    0 -0.14029198001E+01 -0.12745860917E+01  0.27496766176E+02  0.27562019231E+02  0.51100000000E-03 0.  1.
        -12    1    4    4    0    0 -0.13919265695E+02  0.47920550606E+01  0.29493739039E+01  0.15013612344E+02  0.00000000000E+00 0.  1.
</event>
<event>
 8    1  0.1265908E-006  0.9118800E+02  0.7816164E-02  0.1184000E+00
        -11   -1    0    0    0    0  0.00000000000E+00  0.00000000000E+00  0.45593999997E+02  0.45594000000E+02  0.51100000000E-03 0. -1.
         11   -1    0    0    0    0 -0.00000000000E+00 -0.00000000000E+00 -0.45593999997E+02  0.45594000000E+02  0.51100000000E-03 0.  1.
         23    2    1    2    0    0  0.16653345369E-14  0.00000000000E+00  0.00000000000E+00  0.91188000000E+02  0.91188000000E+02 0.  0.
    9900012    2    3    3    0    0 -0.57502484930E+00 -0.75094361834E+01  0.36042433908E+02  0.54367091165E+02  0.40000015930E+02 0.  0.
        -12    1    3    3    0    0  0.57502484930E+00  0.75094361834E+01 -0.36042433908E+02  0.36820908835E+02  0.00000000000E+00 0.  1.
         11    1    4    4    0    0 -0.89135895677E+01  0.69378157834E+00  0.86428306518E+01  0.12435108918E+02  0.51100000000E-03 0. -1.
        -11    1    4    4    0    0  0.17764223106E+02 -0.10178958120E+02  0.24385731034E+02  0.31840896490E+02  0.51100000000E-03 0.  1.
        -12    1    4    4    0    0 -0.94256583874E+01  0.19757403578E+01  0.30138722224E+01  0.10091085758E+02  0.00000000000E+00 0.  1.
</event>
<event>
 8    1  0.1265908E-006  0.9118800E+02  0.7816164E-02  0.1184000E+00
        -11   -1    0    0    0    0  0.00000000000E+00  0.00000000000E+00  0.45593999997E+02  0.45594000000E+02  0.51100000000E-03 0.  1.
         11   -1    0    0    0    0 -0.00000000000E+00 -0.00000000000E+00 -0.45593999997E+02  0.45594000000E+02  0.51100000000E-03 0. -1.
         23    2    1    2    0    0 -0.44408920985E-15  0.00000000000E+00  0.00000000000E+00  0.91188000000E+02  0.91188000000E+02 0.  0.
    9900012    2    3    3    0    0  0.32173093057E+01 -0.35503171222E+02  0.92170201362E+01  0.54367086022E+02  0.40000004205E+02 0.  0.
         12    1    3    3    0    0 -0.32173093057E+01  0.35503171222E+02 -0.92170201362E+01  0.36820913978E+02  0.00000000000E+00 0. -1.
         11    1    4    4    0    0  0.56667325590E+01 -0.22878018042E+02  0.14402110633E+01  0.23613338933E+02  0.51100000000E-03 0. -1.
        -11    1    4    4    0    0 -0.45164576411E+01 -0.18174886923E+02  0.13048473398E+02  0.22825151972E+02  0.51100000000E-03 0.  1.
         12    1    4    4    0    0  0.20670343879E+01  0.55497337429E+01 -0.52716643247E+01  0.79285951170E+01  0.00000000000E+00 0. -1.
</event>
<event>
 8    1  0.1265908E-006  0.9118800E+02  0.7816164E-02  0.1184000E+00
        -11   -1    0    0    0    0  0.00000000000E+00  0.00000000000E+00  0.45593999997E+02  0.45594000000E+02  0.51100000000E-03 0.  1.
         11   -1    0    0    0    0 -0.00000000000E+00 -0.00000000000E+00 -0.45593999997E+02  0.45594000000E+02  0.51100000000E-03 0. -1.
         23    2    1    2    0    0 -0.35527136788E-14 -0.17763568394E-14  0.35527136788E-14  0.91188000000E+02  0.91188000000E+02 0.  0.
    9900012    2    3    3    0    0 -0.20187870993E+02 -0.49074874476E+01  0.30399814758E+02  0.54367050724E+02  0.39999923734E+02 0.  0.
         12    1    3    3    0    0  0.20187870993E+02  0.49074874476E+01 -0.30399814758E+02  0.36820949276E+02  0.00000000000E+00 0. -1.
         11    1    4    4    0    0 -0.10475210445E+02 -0.13776291285E+01  0.21804576808E+02  0.24229475148E+02  0.51100000000E-03 0. -1.
        -11    1    4    4    0    0 -0.36909508266E+01  0.58640054828E+01  0.15526092263E+02  0.17002035746E+02  0.51100000000E-03 0.  1.
         12    1    4    4    0    0 -0.60217097213E+01 -0.93938638018E+01 -0.69308543131E+01  0.13135539829E+02  0.00000000000E+00 0. -1.
</event>
<event>
 8    1  0.1265908E-006  0.9118800E+02  0.7816164E-02  0.1184000E+00
        -11   -1    0    0    0    0  0.00000000000E+00  0.00000000000E+00  0.45593999997E+02  0.45594000000E+02  0.51100000000E-03 0.  1.
         11   -1    0    0    0    0 -0.00000000000E+00 -0.00000000000E+00 -0.45593999997E+02  0.45594000000E+02  0.51100000000E-03 0. -1.
         23    2    1    2    0    0  0.88817841970E-15  0.00000000000E+00  0.35527136788E-14  0.91188000000E+02  0.91188000000E+02 0.  0.
    9900012    2    3    3    0    0 -0.27337361582E+01 -0.21584269646E+02  0.29705662584E+02  0.54367076613E+02  0.39999982754E+02 0.  0.
         12    1    3    3    0    0  0.27337361582E+01  0.21584269646E+02 -0.29705662584E+02  0.36820923387E+02  0.00000000000E+00 0. -1.
         11    1    4    4    0    0  0.11872057133E+01 -0.71185069106E+01 -0.77939633072E+00  0.72587917000E+01  0.51100000000E-03 0. -1.
        -11    1    4    4    0    0  0.12818128417E+02 -0.13863011941E+02  0.19089360238E+02  0.26849416953E+02  0.51100000000E-03 0.  1.
         12    1    4    4    0    0 -0.16739070288E+02 -0.60275079430E+00  0.11395698677E+02  0.20258867959E+02  0.00000000000E+00 0. -1.
</event>
<event>
 8    1  0.1265908E-006  0.9118800E+02  0.7816164E-02  0.1184000E+00
        -11   -1    0    0    0    0  0.00000000000E+00  0.00000000000E+00  0.45593999997E+02  0.45594000000E+02  0.51100000000E-03 0.  1.
         11   -1    0    0    0    0 -0.00000000000E+00 -0.00000000000E+00 -0.45593999997E+02  0.45594000000E+02  0.51100000000E-03 0. -1.
         23    2    1    2    0    0  0.00000000000E+00  0.00000000000E+00 -0.88817841970E-15  0.91188000000E+02  0.91188000000E+02 0.  0.
    9900012    2    3    3    0    0  0.36675612978E+02 -0.21541121854E+01 -0.24570553117E+01  0.54367110447E+02  0.40000059887E+02 0.  0.
        -12    1    3    3    0    0 -0.36675612978E+02  0.21541121854E+01  0.24570553117E+01  0.36820889553E+02  0.00000000000E+00 0.  1.
         11    1    4    4    0    0  0.11586286466E+02  0.10483890215E+02 -0.19352733911E+01  0.15744817289E+02  0.51100000000E-03 0. -1.
        -11    1    4    4    0    0  0.21349267502E+02 -0.55638858260E+01 -0.11623729683E+02  0.24937103688E+02  0.51100000000E-03 0.  1.
        -12    1    4    4    0    0  0.37400590102E+01 -0.70741165746E+01  0.11101947762E+02  0.13685189470E+02  0.00000000000E+00 0.  1.
</event>
<event>
 8    1  0.1265908E-006  0.9118800E+02  0.7816164E-02  0.1184000E+00
        -11   -1    0    0    0    0  0.00000000000E+00  0.00000000000E+00  0.45593999997E+02  0.45594000000E+02  0.51100000000E-03 0. -1.
         11   -1    0    0    0    0 -0.00000000000E+00 -0.00000000000E+00 -0.45593999997E+02  0.45594000000E+02  0.51100000000E-03 0.  1.
         23    2    1    2    0    0  0.00000000000E+00  0.00000000000E+00  0.00000000000E+00  0.91188000000E+02  0.91188000000E+02 0.  0.
    9900012    2    3    3    0    0 -0.86315457038E+01  0.32179371078E+02  0.15676886067E+02  0.54367078489E+02  0.39999987031E+02 0.  0.
        -12    1    3    3    0    0  0.86315457038E+01 -0.32179371078E+02 -0.15676886067E+02  0.36820921511E+02  0.00000000000E+00 0.  1.
         11    1    4    4    0    0  0.68311424547E+01  0.13056854708E+02  0.48090528294E+01  0.15500740353E+02  0.51100000000E-03 0. -1.
        -11    1    4    4    0    0 -0.19715414627E+02  0.23884028931E+01  0.77654169394E+01  0.21323783501E+02  0.51100000000E-03 0.  1.
        -12    1    4    4    0    0  0.42527264682E+01  0.16734113476E+02  0.31024162979E+01  0.17542554635E+02  0.00000000000E+00 0.  1.
</event>
<event>
 8    1  0.1265908E-006  0.9118800E+02  0.7816164E-02  0.1184000E+00
        -11   -1    0    0    0    0  0.00000000000E+00  0.00000000000E+00  0.45593999997E+02  0.45594000000E+02  0.51100000000E-03 0.  1.
         11   -1    0    0    0    0 -0.00000000000E+00 -0.00000000000E+00 -0.45593999997E+02  0.45594000000E+02  0.51100000000E-03 0. -1.
         23    2    1    2    0    0  0.35527136788E-14  0.00000000000E+00 -0.17763568394E-14  0.91188000000E+02  0.91188000000E+02 0.  0.
    9900012    2    3    3    0    0  0.18898826894E+02  0.28670432192E+02 -0.13289882391E+02  0.54367077768E+02  0.39999985389E+02 0.  0.
        -12    1    3    3    0    0 -0.18898826894E+02 -0.28670432192E+02  0.13289882391E+02  0.36820922232E+02  0.00000000000E+00 0.  1.
         11    1    4    4    0    0  0.65727925821E+01  0.30418858787E+01 -0.17220268223E+02  0.18681335872E+02  0.51100000000E-03 0. -1.
        -11    1    4    4    0    0  0.14312265256E+02  0.16103976260E+02  0.10478645901E+02  0.23957900749E+02  0.51100000000E-03 0.  1.
         12    1    4    4    0    0 -0.19862309440E+01  0.95245700534E+01 -0.65482600683E+01  0.11727841148E+02  0.00000000000E+00 0. -1.
</event>
<event>
 8    1  0.1265908E-006  0.9118800E+02  0.7816164E-02  0.1184000E+00
        -11   -1    0    0    0    0  0.00000000000E+00  0.00000000000E+00  0.45593999997E+02  0.45594000000E+02  0.51100000000E-03 0.  1.
         11   -1    0    0    0    0 -0.00000000000E+00 -0.00000000000E+00 -0.45593999997E+02  0.45594000000E+02  0.51100000000E-03 0. -1.
         23    2    1    2    0    0  0.00000000000E+00  0.00000000000E+00  0.35527136788E-14  0.91188000000E+02  0.91188000000E+02 0.  0.
    9900012    2    3    3    0    0  0.18838786998E+02 -0.47083148394E+01  0.31284372855E+02  0.54367080550E+02  0.39999991730E+02 0.  0.
         12    1    3    3    0    0 -0.18838786998E+02  0.47083148394E+01 -0.31284372855E+02  0.36820919450E+02  0.00000000000E+00 0. -1.
         11    1    4    4    0    0 -0.55090573909E-01  0.18160520615E+00  0.23909284563E+02  0.23910037725E+02  0.51100000000E-03 0. -1.
        -11    1    4    4    0    0  0.12719673277E+02  0.49449053903E+01  0.11789258437E+02  0.18034100818E+02  0.51100000000E-03 0.  1.
         12    1    4    4    0    0  0.61742042954E+01 -0.98348254359E+01 -0.44141701442E+01  0.12422942007E+02  0.00000000000E+00 0. -1.
</event>
<event>
 8    1  0.1265908E-006  0.9118800E+02  0.7816164E-02  0.1184000E+00
        -11   -1    0    0    0    0  0.00000000000E+00  0.00000000000E+00  0.45593999997E+02  0.45594000000E+02  0.51100000000E-03 0.  1.
         11   -1    0    0    0    0 -0.00000000000E+00 -0.00000000000E+00 -0.45593999997E+02  0.45594000000E+02  0.51100000000E-03 0. -1.
         23    2    1    2    0    0 -0.88817841970E-15  0.00000000000E+00  0.71054273576E-14  0.91188000000E+02  0.91188000000E+02 0.  0.
    9900012    2    3    3    0    0 -0.55525121363E+01  0.16687060671E+02  0.32349528248E+02  0.54367077106E+02  0.39999983879E+02 0.  0.
         12    1    3    3    0    0  0.55525121363E+01 -0.16687060671E+02 -0.32349528248E+02  0.36820922894E+02  0.00000000000E+00 0. -1.
         11    1    4    4    0    0  0.72031853645E+00  0.43022830690E+01 -0.13003862071E+00  0.43641045707E+01  0.51100000000E-03 0. -1.
        -11    1    4    4    0    0 -0.82915640152E+01  0.18549271069E+02  0.38904619310E+01  0.20687222755E+02  0.51100000000E-03 0.  1.
        -12    1    4    4    0    0  0.20187333424E+01 -0.61644934677E+01  0.28589104938E+02  0.29315749780E+02  0.00000000000E+00 0.  1.
</event>
<event>
 8    1  0.1265908E-006  0.9118800E+02  0.7816164E-02  0.1184000E+00
        -11   -1    0    0    0    0  0.00000000000E+00  0.00000000000E+00  0.45593999997E+02  0.45594000000E+02  0.51100000000E-03 0.  1.
         11   -1    0    0    0    0 -0.00000000000E+00 -0.00000000000E+00 -0.45593999997E+02  0.45594000000E+02  0.51100000000E-03 0. -1.
         23    2    1    2    0    0 -0.44408920985E-15  0.00000000000E+00  0.00000000000E+00  0.91188000000E+02  0.91188000000E+02 0.  0.
    9900012    2    3    3    0    0 -0.35094819456E+01  0.31304032639E+02 -0.19065957499E+02  0.54367222464E+02  0.40000315250E+02 0.  0.
        -12    1    3    3    0    0  0.35094819456E+01 -0.31304032639E+02  0.19065957499E+02  0.36820777536E+02  0.00000000000E+00 0.  1.
         11    1    4    4    0    0 -0.15095317298E+02  0.13798325112E+02 -0.13924627350E+02  0.24741819402E+02  0.51100000000E-03 0. -1.
        -11    1    4    4    0    0  0.15556492362E+02  0.16487738333E+02  0.47388001904E+00  0.22673211782E+02  0.51100000000E-03 0.  1.
        -12    1    4    4    0    0 -0.39706570098E+01  0.10179691941E+01 -0.56152101678E+01  0.69521912803E+01  0.00000000000E+00 0.  1.
</event>
<event>
 8    1  0.1265908E-006  0.9118800E+02  0.7816164E-02  0.1184000E+00
        -11   -1    0    0    0    0  0.00000000000E+00  0.00000000000E+00  0.45593999997E+02  0.45594000000E+02  0.51100000000E-03 0.  1.
         11   -1    0    0    0    0 -0.00000000000E+00 -0.00000000000E+00 -0.45593999997E+02  0.45594000000E+02  0.51100000000E-03 0. -1.
         23    2    1    2    0    0 -0.35527136788E-14  0.00000000000E+00  0.00000000000E+00  0.91188000000E+02  0.91188000000E+02 0.  0.
    9900012    2    3    3    0    0 -0.28276193384E+02  0.12363737236E+02 -0.20084194649E+02  0.54367082230E+02  0.39999995559E+02 0.  0.
        -12    1    3    3    0    0  0.28276193384E+02 -0.12363737236E+02  0.20084194649E+02  0.36820917770E+02  0.00000000000E+00 0.  1.
         11    1    4    4    0    0 -0.27921853677E+02  0.13125902143E+02 -0.15345505761E+01  0.30891326704E+02  0.51100000000E-03 0. -1.
        -11    1    4    4    0    0  0.53511538564E+01 -0.20584411048E+01 -0.22522502064E+01  0.61599235896E+01  0.51100000000E-03 0.  1.
         12    1    4    4    0    0 -0.57054935640E+01  0.12962761977E+01 -0.16297393866E+02  0.17315831936E+02  0.00000000000E+00 0. -1.
</event>
<event>
 8    1  0.1265908E-006  0.9118800E+02  0.7816164E-02  0.1184000E+00
        -11   -1    0    0    0    0  0.00000000000E+00  0.00000000000E+00  0.45593999997E+02  0.45594000000E+02  0.51100000000E-03 0. -1.
         11   -1    0    0    0    0 -0.00000000000E+00 -0.00000000000E+00 -0.45593999997E+02  0.45594000000E+02  0.51100000000E-03 0.  1.
         23    2    1    2    0    0  0.00000000000E+00  0.19984014443E-14  0.71054273576E-14  0.91188000000E+02  0.91188000000E+02 0.  0.
    9900012    2    3    3    0    0 -0.16031289083E+02 -0.15556539391E+01 -0.33111287175E+02  0.54367087094E+02  0.40000006648E+02 0.  0.
         12    1    3    3    0    0  0.16031289083E+02  0.15556539391E+01  0.33111287175E+02  0.36820912906E+02  0.00000000000E+00 0. -1.
         11    1    4    4    0    0 -0.78607351653E+01  0.69520874857E+00 -0.20495927664E+01  0.81532388234E+01  0.51100000000E-03 0. -1.
        -11    1    4    4    0    0  0.10208032676E+01  0.10868020514E+02  0.38482292527E+00  0.10922636959E+02  0.51100000000E-03 0.  1.
        -12    1    4    4    0    0 -0.91913571855E+01 -0.13118883201E+02 -0.31446517334E+02  0.35291211311E+02  0.00000000000E+00 0.  1.
</event>
<event>
 8    1  0.1265908E-006  0.9118800E+02  0.7816164E-02  0.1184000E+00
        -11   -1    0    0    0    0  0.00000000000E+00  0.00000000000E+00  0.45593999997E+02  0.45594000000E+02  0.51100000000E-03 0.  1.
         11   -1    0    0    0    0 -0.00000000000E+00 -0.00000000000E+00 -0.45593999997E+02  0.45594000000E+02  0.51100000000E-03 0. -1.
         23    2    1    2    0    0  0.00000000000E+00 -0.17763568394E-14  0.00000000000E+00  0.91188000000E+02  0.91188000000E+02 0.  0.
    9900012    2    3    3    0    0  0.14633440561E+02 -0.15743174079E+02  0.29896390303E+02  0.54367092001E+02  0.40000017835E+02 0.  0.
         12    1    3    3    0    0 -0.14633440561E+02  0.15743174079E+02 -0.29896390303E+02  0.36820907999E+02  0.00000000000E+00 0. -1.
         11    1    4    4    0    0  0.28923707783E+01 -0.85427307003E+01  0.36066827753E-01  0.90191661263E+01  0.51100000000E-03 0. -1.
        -11    1    4    4    0    0  0.13832572880E+02  0.47911830111E+01  0.17849310423E+01  0.14747253514E+02  0.51100000000E-03 0.  1.
        -12    1    4    4    0    0 -0.20915030971E+01 -0.11991626390E+02  0.28075392433E+02  0.30600672361E+02  0.00000000000E+00 0.  1.
</event>
<event>
 8    1  0.1265908E-006  0.9118800E+02  0.7816164E-02  0.1184000E+00
        -11   -1    0    0    0    0  0.00000000000E+00  0.00000000000E+00  0.45593999997E+02  0.45594000000E+02  0.51100000000E-03 0. -1.
         11   -1    0    0    0    0 -0.00000000000E+00 -0.00000000000E+00 -0.45593999997E+02  0.45594000000E+02  0.51100000000E-03 0.  1.
         23    2    1    2    0    0  0.00000000000E+00  0.00000000000E+00 -0.71054273576E-14  0.91188000000E+02  0.91188000000E+02 0.  0.
    9900012    2    3    3    0    0  0.23225587620E+02  0.10526287686E+02 -0.26562169103E+02  0.54367089090E+02  0.40000011199E+02 0.  0.
         12    1    3    3    0    0 -0.23225587620E+02 -0.10526287686E+02  0.26562169103E+02  0.36820910910E+02  0.00000000000E+00 0. -1.
         11    1    4    4    0    0  0.78466503016E+01  0.48386625441E+01  0.78170994630E+01  0.12086753925E+02  0.51100000000E-03 0. -1.
        -11    1    4    4    0    0 -0.82462429580E-01  0.87392522964E+01 -0.10382039006E+02  0.13570853508E+02  0.51100000000E-03 0.  1.
         12    1    4    4    0    0  0.15461399748E+02 -0.30516271549E+01 -0.23997229560E+02  0.28709481657E+02  0.00000000000E+00 0. -1.
</event>
<event>
 8    1  0.1265908E-006  0.9118800E+02  0.7816164E-02  0.1184000E+00
        -11   -1    0    0    0    0  0.00000000000E+00  0.00000000000E+00  0.45593999997E+02  0.45594000000E+02  0.51100000000E-03 0. -1.
         11   -1    0    0    0    0 -0.00000000000E+00 -0.00000000000E+00 -0.45593999997E+02  0.45594000000E+02  0.51100000000E-03 0.  1.
         23    2    1    2    0    0 -0.11102230246E-14  0.35527136788E-14  0.35527136788E-14  0.91188000000E+02  0.91188000000E+02 0.  0.
    9900012    2    3    3    0    0 -0.10295040010E+01  0.23528333063E+02  0.28304335587E+02  0.54367112609E+02  0.40000064815E+02 0.  0.
        -12    1    3    3    0    0  0.10295040010E+01 -0.23528333063E+02 -0.28304335587E+02  0.36820887391E+02  0.00000000000E+00 0.  1.
         11    1    4    4    0    0  0.65365994580E+01  0.80029531085E+01  0.93761903208E+01  0.13953040390E+02  0.51100000000E-03 0. -1.
        -11    1    4    4    0    0  0.65715108552E+01  0.62841084137E+01 -0.55661738154E+01  0.10661006739E+02  0.51100000000E-03 0.  1.
         12    1    4    4    0    0 -0.14137614314E+02  0.92412715410E+01  0.24494319082E+02  0.29753065480E+02  0.00000000000E+00 0. -1.
</event>
<event>
 8    1  0.1265908E-006  0.9118800E+02  0.7816164E-02  0.1184000E+00
        -11   -1    0    0    0    0  0.00000000000E+00  0.00000000000E+00  0.45593999997E+02  0.45594000000E+02  0.51100000000E-03 0.  1.
         11   -1    0    0    0    0 -0.00000000000E+00 -0.00000000000E+00 -0.45593999997E+02  0.45594000000E+02  0.51100000000E-03 0. -1.
         23    2    1    2    0    0  0.00000000000E+00  0.35527136788E-14 -0.22204460493E-15  0.91188000000E+02  0.91188000000E+02 0.  0.
    9900012    2    3    3    0    0 -0.26964727896E+02 -0.25061779845E+02 -0.76849867830E+00  0.54367082715E+02  0.39999996665E+02 0.  0.
         12    1    3    3    0    0  0.26964727896E+02  0.25061779845E+02  0.76849867830E+00  0.36820917285E+02  0.00000000000E+00 0. -1.
         11    1    4    4    0    0 -0.53207822041E+01 -0.19236205949E+02 -0.78317488321E+01  0.21440117364E+02  0.51100000000E-03 0. -1.
        -11    1    4    4    0    0 -0.17092209330E+02  0.70234587659E+01  0.31554117958E+01  0.18746445441E+02  0.51100000000E-03 0.  1.
        -12    1    4    4    0    0 -0.45517363619E+01 -0.12849032662E+02  0.39078383580E+01  0.14180519909E+02  0.00000000000E+00 0.  1.
</event>
<event>
 8    1  0.1265908E-006  0.9118800E+02  0.7816164E-02  0.1184000E+00
        -11   -1    0    0    0    0  0.00000000000E+00  0.00000000000E+00  0.45593999997E+02  0.45594000000E+02  0.51100000000E-03 0.  1.
         11   -1    0    0    0    0 -0.00000000000E+00 -0.00000000000E+00 -0.45593999997E+02  0.45594000000E+02  0.51100000000E-03 0. -1.
         23    2    1    2    0    0  0.00000000000E+00  0.00000000000E+00  0.88817841970E-15  0.91188000000E+02  0.91188000000E+02 0.  0.
    9900012    2    3    3    0    0 -0.36364776768E+02 -0.43377013489E+01 -0.38165546565E+01  0.54367099253E+02  0.40000034367E+02 0.  0.
         12    1    3    3    0    0  0.36364776768E+02  0.43377013489E+01  0.38165546565E+01  0.36820900747E+02  0.00000000000E+00 0. -1.
         11    1    4    4    0    0 -0.12822056640E+02 -0.32070318051E+01 -0.11128618083E+02  0.17278203905E+02  0.51100000000E-03 0. -1.
        -11    1    4    4    0    0 -0.12541850313E+02  0.86897955695E+00  0.17777784647E+02  0.21773900935E+02  0.51100000000E-03 0.  1.
        -12    1    4    4    0    0 -0.11000869815E+02 -0.19996491007E+01 -0.10465721220E+02  0.15314994413E+02  0.00000000000E+00 0.  1.
</event>
<event>
 8    1  0.1265908E-006  0.9118800E+02  0.7816164E-02  0.1184000E+00
        -11   -1    0    0    0    0  0.00000000000E+00  0.00000000000E+00  0.45593999997E+02  0.45594000000E+02  0.51100000000E-03 0. -1.
         11   -1    0    0    0    0 -0.00000000000E+00 -0.00000000000E+00 -0.45593999997E+02  0.45594000000E+02  0.51100000000E-03 0.  1.
         23    2    1    2    0    0 -0.35527136788E-14  0.00000000000E+00 -0.17763568394E-14  0.91188000000E+02  0.91188000000E+02 0.  0.
    9900012    2    3    3    0    0 -0.29211237279E+02  0.19162103755E+02 -0.11631716733E+02  0.54367089666E+02  0.40000012511E+02 0.  0.
         12    1    3    3    0    0  0.29211237279E+02 -0.19162103755E+02  0.11631716733E+02  0.36820910334E+02  0.00000000000E+00 0. -1.
         11    1    4    4    0    0  0.99521222123E-01 -0.81214767181E+01  0.32953361699E+00  0.81287687396E+01  0.51100000000E-03 0. -1.
        -11    1    4    4    0    0 -0.16216407490E+01  0.12511217295E+02  0.10237470178E+00  0.12616289382E+02  0.51100000000E-03 0.  1.
        -12    1    4    4    0    0 -0.27689117752E+02  0.14772363178E+02 -0.12063625052E+02  0.33622031544E+02  0.00000000000E+00 0.  1.
</event>
<event>
 8    1  0.1265908E-006  0.9118800E+02  0.7816164E-02  0.1184000E+00
        -11   -1    0    0    0    0  0.00000000000E+00  0.00000000000E+00  0.45593999997E+02  0.45594000000E+02  0.51100000000E-03 0.  1.
         11   -1    0    0    0    0 -0.00000000000E+00 -0.00000000000E+00 -0.45593999997E+02  0.45594000000E+02  0.51100000000E-03 0. -1.
         23    2    1    2    0    0  0.00000000000E+00  0.17763568394E-14  0.00000000000E+00  0.91188000000E+02  0.91188000000E+02 0.  0.
    9900012    2    3    3    0    0 -0.11696048628E+02  0.15135234474E+02  0.31462782529E+02  0.54367087999E+02  0.40000008712E+02 0.  0.
         12    1    3    3    0    0  0.11696048628E+02 -0.15135234474E+02 -0.31462782529E+02  0.36820912001E+02  0.00000000000E+00 0. -1.
         11    1    4    4    0    0 -0.14856032703E+02  0.42387376921E+01 -0.13981875652E+01  0.15512044791E+02  0.51100000000E-03 0. -1.
        -11    1    4    4    0    0 -0.57072262289E+01  0.93182016137E+01  0.12573237780E+02  0.16657959691E+02  0.51100000000E-03 0.  1.
         12    1    4    4    0    0  0.88672103032E+01  0.15782951683E+01  0.20287732314E+02  0.22197083517E+02  0.00000000000E+00 0. -1.
</event>
<event>
 8    1  0.1265908E-006  0.9118800E+02  0.7816164E-02  0.1184000E+00
        -11   -1    0    0    0    0  0.00000000000E+00  0.00000000000E+00  0.45593999997E+02  0.45594000000E+02  0.51100000000E-03 0.  1.
         11   -1    0    0    0    0 -0.00000000000E+00 -0.00000000000E+00 -0.45593999997E+02  0.45594000000E+02  0.51100000000E-03 0. -1.
         23    2    1    2    0    0 -0.88817841970E-15  0.00000000000E+00  0.17763568394E-14  0.91188000000E+02  0.91188000000E+02 0.  0.
    9900012    2    3    3    0    0  0.43955515308E+01  0.35409354007E+02 -0.90903956029E+01  0.54367102175E+02  0.40000041028E+02 0.  0.
        -12    1    3    3    0    0 -0.43955515308E+01 -0.35409354007E+02  0.90903956029E+01  0.36820897825E+02  0.00000000000E+00 0.  1.
         11    1    4    4    0    0 -0.17534072325E+01 -0.67825978454E+00  0.68086083205E+01  0.70634000864E+01  0.51100000000E-03 0.  1.
        -11    1    4    4    0    0 -0.55374564832E+01  0.12473197278E+02  0.40727439198E+01  0.14241886039E+02  0.51100000000E-03 0. -1.
         12    1    4    4    0    0  0.11686415247E+02  0.23614416513E+02 -0.19971747843E+02  0.33061816049E+02  0.00000000000E+00 0. -1.
</event>
<event>
 8    1  0.1265908E-006  0.9118800E+02  0.7816164E-02  0.1184000E+00
        -11   -1    0    0    0    0  0.00000000000E+00  0.00000000000E+00  0.45593999997E+02  0.45594000000E+02  0.51100000000E-03 0. -1.
         11   -1    0    0    0    0 -0.00000000000E+00 -0.00000000000E+00 -0.45593999997E+02  0.45594000000E+02  0.51100000000E-03 0.  1.
         23    2    1    2    0    0  0.00000000000E+00  0.00000000000E+00  0.35527136788E-14  0.91188000000E+02  0.91188000000E+02 0.  0.
    9900012    2    3    3    0    0 -0.27576626305E+02  0.11205530890E+01 -0.24373225392E+02  0.54367081032E+02  0.39999992830E+02 0.  0.
         12    1    3    3    0    0  0.27576626305E+02 -0.11205530890E+01  0.24373225392E+02  0.36820918968E+02  0.00000000000E+00 0. -1.
         11    1    4    4    0    0  0.40673502842E+01  0.27676602189E+01 -0.18675256638E+01  0.52622175732E+01  0.51100000000E-03 0. -1.
        -11    1    4    4    0    0  0.17564604976E+01 -0.19518329458E+01  0.51232538570E+01  0.57569554170E+01  0.51100000000E-03 0.  1.
        -12    1    4    4    0    0 -0.33400437087E+02  0.30472581594E+00 -0.27628953586E+02  0.43347908042E+02  0.00000000000E+00 0.  1.
</event>
<event>
 8    1  0.1265908E-006  0.9118800E+02  0.7816164E-02  0.1184000E+00
        -11   -1    0    0    0    0  0.00000000000E+00  0.00000000000E+00  0.45593999997E+02  0.45594000000E+02  0.51100000000E-03 0.  1.
         11   -1    0    0    0    0 -0.00000000000E+00 -0.00000000000E+00 -0.45593999997E+02  0.45594000000E+02  0.51100000000E-03 0. -1.
         23    2    1    2    0    0  0.00000000000E+00  0.35527136788E-14  0.00000000000E+00  0.91188000000E+02  0.91188000000E+02 0.  0.
    9900012    2    3    3    0    0 -0.25221050156E+02  0.24774850030E+02 -0.10289985307E+02  0.54367104267E+02  0.40000045797E+02 0.  0.
         12    1    3    3    0    0  0.25221050156E+02 -0.24774850030E+02  0.10289985307E+02  0.36820895733E+02  0.00000000000E+00 0. -1.
         11    1    4    4    0    0 -0.45388594301E+01 -0.23038952371E+01  0.70426397184E+01  0.86895312102E+01  0.51100000000E-03 0. -1.
        -11    1    4    4    0    0 -0.20088788966E+02  0.67167609888E+01 -0.46653973024E+01  0.21689634680E+02  0.51100000000E-03 0.  1.
        -12    1    4    4    0    0 -0.59340176020E+00  0.20361984278E+02 -0.12667227723E+02  0.23987938377E+02  0.00000000000E+00 0.  1.
</event>
<event>
 8    1  0.1265908E-006  0.9118800E+02  0.7816164E-02  0.1184000E+00
        -11   -1    0    0    0    0  0.00000000000E+00  0.00000000000E+00  0.45593999997E+02  0.45594000000E+02  0.51100000000E-03 0. -1.
         11   -1    0    0    0    0 -0.00000000000E+00 -0.00000000000E+00 -0.45593999997E+02  0.45594000000E+02  0.51100000000E-03 0.  1.
         23    2    1    2    0    0  0.17763568394E-14 -0.17763568394E-14 -0.71054273576E-14  0.91188000000E+02  0.91188000000E+02 0.  0.
    9900012    2    3    3    0    0 -0.12035348051E+02  0.88986203070E+01  0.33641377307E+02  0.54367118517E+02  0.40000078283E+02 0.  0.
        -12    1    3    3    0    0  0.12035348051E+02 -0.88986203070E+01 -0.33641377307E+02  0.36820881483E+02  0.00000000000E+00 0.  1.
         11    1    4    4    0    0  0.16815976712E+01 -0.64236805009E+01  0.15004406386E+02  0.16408036237E+02  0.51100000000E-03 0. -1.
        -11    1    4    4    0    0 -0.10118671799E+02 -0.43093452547E+01  0.13379387124E+02  0.17319525847E+02  0.51100000000E-03 0.  1.
         12    1    4    4    0    0 -0.35982739227E+01  0.19631646063E+02  0.52575837974E+01  0.20639556433E+02  0.00000000000E+00 0. -1.
</event>
<event>
 8    1  0.1265908E-006  0.9118800E+02  0.7816164E-02  0.1184000E+00
        -11   -1    0    0    0    0  0.00000000000E+00  0.00000000000E+00  0.45593999997E+02  0.45594000000E+02  0.51100000000E-03 0. -1.
         11   -1    0    0    0    0 -0.00000000000E+00 -0.00000000000E+00 -0.45593999997E+02  0.45594000000E+02  0.51100000000E-03 0.  1.
         23    2    1    2    0    0  0.35527136788E-14  0.00000000000E+00  0.35527136788E-14  0.91188000000E+02  0.91188000000E+02 0.  0.
    9900012    2    3    3    0    0 -0.17584557845E+02  0.19244714661E+02 -0.26003919563E+02  0.54367088148E+02  0.40000009050E+02 0.  0.
         12    1    3    3    0    0  0.17584557845E+02 -0.19244714661E+02  0.26003919563E+02  0.36820911852E+02  0.00000000000E+00 0. -1.
         11    1    4    4    0    0 -0.57134152344E+01  0.19815105153E+02 -0.21800500585E+02  0.30009054165E+02  0.51100000000E-03 0.  1.
        -11    1    4    4    0    0 -0.12623971277E+02 -0.57479579133E+01 -0.95786673517E+01  0.16856884038E+02  0.51100000000E-03 0. -1.
         12    1    4    4    0    0  0.75282866691E+00  0.51775674210E+01  0.53752483739E+01  0.75011499439E+01  0.00000000000E+00 0. -1.
</event>
<event>
 8    1  0.1265908E-006  0.9118800E+02  0.7816164E-02  0.1184000E+00
        -11   -1    0    0    0    0  0.00000000000E+00  0.00000000000E+00  0.45593999997E+02  0.45594000000E+02  0.51100000000E-03 0.  1.
         11   -1    0    0    0    0 -0.00000000000E+00 -0.00000000000E+00 -0.45593999997E+02  0.45594000000E+02  0.51100000000E-03 0. -1.
         23    2    1    2    0    0  0.88817841970E-15  0.00000000000E+00 -0.17763568394E-14  0.91188000000E+02  0.91188000000E+02 0.  0.
    9900012    2    3    3    0    0 -0.53095758192E+01 -0.33601175534E+02 -0.14090803060E+02  0.54367064059E+02  0.39999954136E+02 0.  0.
        -12    1    3    3    0    0  0.53095758192E+01  0.33601175534E+02  0.14090803060E+02  0.36820935941E+02  0.00000000000E+00 0.  1.
         11    1    4    4    0    0  0.28631030719E+01 -0.18618420606E+02 -0.41395478055E+01  0.19286751965E+02  0.51100000000E-03 0. -1.
        -11    1    4    4    0    0 -0.13443562114E+02 -0.10017098204E+02 -0.17765112583E+02  0.24426846789E+02  0.51100000000E-03 0.  1.
        -12    1    4    4    0    0  0.52708832226E+01 -0.49656567243E+01  0.78138573282E+01  0.10653465305E+02  0.00000000000E+00 0.  1.
</event>
<event>
 8    1  0.1265908E-006  0.9118800E+02  0.7816164E-02  0.1184000E+00
        -11   -1    0    0    0    0  0.00000000000E+00  0.00000000000E+00  0.45593999997E+02  0.45594000000E+02  0.51100000000E-03 0.  1.
         11   -1    0    0    0    0 -0.00000000000E+00 -0.00000000000E+00 -0.45593999997E+02  0.45594000000E+02  0.51100000000E-03 0. -1.
         23    2    1    2    0    0 -0.14432899320E-14  0.00000000000E+00  0.00000000000E+00  0.91188000000E+02  0.91188000000E+02 0.  0.
    9900012    2    3    3    0    0 -0.99796206449E+00  0.25501601445E+02 -0.26541518549E+02  0.54367084592E+02  0.40000000945E+02 0.  0.
        -12    1    3    3    0    0  0.99796206449E+00 -0.25501601445E+02  0.26541518549E+02  0.36820915408E+02  0.00000000000E+00 0.  1.
         11    1    4    4    0    0 -0.16104932486E+02  0.14380446801E+01 -0.53314854810E+01  0.17025321159E+02  0.51100000000E-03 0.  1.
        -11    1    4    4    0    0  0.13496326378E+02  0.13150725191E+02 -0.89875465948E+01  0.20877461359E+02  0.51100000000E-03 0. -1.
        -12    1    4    4    0    0  0.16106440430E+01  0.10912831575E+02 -0.12222486473E+02  0.16464302075E+02  0.00000000000E+00 0.  1.
</event>
<event>
 8    1  0.1265908E-006  0.9118800E+02  0.7816164E-02  0.1184000E+00
        -11   -1    0    0    0    0  0.00000000000E+00  0.00000000000E+00  0.45593999997E+02  0.45594000000E+02  0.51100000000E-03 0. -1.
         11   -1    0    0    0    0 -0.00000000000E+00 -0.00000000000E+00 -0.45593999997E+02  0.45594000000E+02  0.51100000000E-03 0.  1.
         23    2    1    2    0    0  0.00000000000E+00  0.17763568394E-14 -0.35527136788E-14  0.91188000000E+02  0.91188000000E+02 0.  0.
    9900012    2    3    3    0    0 -0.16658420072E+02  0.12995542474E+02 -0.30156165909E+02  0.54367062670E+02  0.39999950969E+02 0.  0.
         12    1    3    3    0    0  0.16658420072E+02 -0.12995542474E+02  0.30156165909E+02  0.36820937330E+02  0.00000000000E+00 0. -1.
         11    1    4    4    0    0 -0.78394936200E-01 -0.98144711886E+01 -0.51390193215E+01  0.11078786501E+02  0.51100000000E-03 0. -1.
        -11    1    4    4    0    0 -0.17429055805E+02  0.11605857741E+02 -0.70455176630E+01  0.22093149155E+02  0.51100000000E-03 0.  1.
         12    1    4    4    0    0  0.84903066895E+00  0.11204155921E+02 -0.17971628925E+02  0.21195127015E+02  0.00000000000E+00 0. -1.
</event>
<event>
 8    1  0.1265908E-006  0.9118800E+02  0.7816164E-02  0.1184000E+00
        -11   -1    0    0    0    0  0.00000000000E+00  0.00000000000E+00  0.45593999997E+02  0.45594000000E+02  0.51100000000E-03 0.  1.
         11   -1    0    0    0    0 -0.00000000000E+00 -0.00000000000E+00 -0.45593999997E+02  0.45594000000E+02  0.51100000000E-03 0. -1.
         23    2    1    2    0    0  0.00000000000E+00  0.17763568394E-14  0.71054273576E-14  0.91188000000E+02  0.91188000000E+02 0.  0.
    9900012    2    3    3    0    0  0.16071232068E+02 -0.80448696483E+01  0.32136815852E+02  0.54367090710E+02  0.40000014891E+02 0.  0.
         12    1    3    3    0    0 -0.16071232068E+02  0.80448696483E+01 -0.32136815852E+02  0.36820909290E+02  0.00000000000E+00 0. -1.
         11    1    4    4    0    0  0.54545627612E+01  0.67175366305E+01  0.32676852456E+01  0.92496119067E+01  0.51100000000E-03 0. -1.
        -11    1    4    4    0    0 -0.21759504560E+01 -0.10414947260E+02 -0.25285135554E+01  0.10936145019E+02  0.51100000000E-03 0.  1.
        -12    1    4    4    0    0  0.12792619763E+02 -0.43474590186E+01  0.31397644162E+02  0.34181333784E+02  0.00000000000E+00 0.  1.
</event>
<event>
 8    1  0.1265908E-006  0.9118800E+02  0.7816164E-02  0.1184000E+00
        -11   -1    0    0    0    0  0.00000000000E+00  0.00000000000E+00  0.45593999997E+02  0.45594000000E+02  0.51100000000E-03 0. -1.
         11   -1    0    0    0    0 -0.00000000000E+00 -0.00000000000E+00 -0.45593999997E+02  0.45594000000E+02  0.51100000000E-03 0.  1.
         23    2    1    2    0    0 -0.17763568394E-14 -0.17763568394E-14  0.00000000000E+00  0.91188000000E+02  0.91188000000E+02 0.  0.
    9900012    2    3    3    0    0 -0.10989070149E+02 -0.14096527104E+02 -0.32191711477E+02  0.54367108825E+02  0.40000056188E+02 0.  0.
         12    1    3    3    0    0  0.10989070149E+02  0.14096527104E+02  0.32191711477E+02  0.36820891175E+02  0.00000000000E+00 0. -1.
         11    1    4    4    0    0  0.88541672702E+01  0.58382880568E+00 -0.14659813618E+01  0.89936775424E+01  0.51100000000E-03 0. -1.
        -11    1    4    4    0    0 -0.23436469567E+02 -0.69619142980E+01 -0.19433837359E+02  0.31231560819E+02  0.51100000000E-03 0.  1.
        -12    1    4    4    0    0  0.35932321477E+01 -0.77184416116E+01 -0.11291892756E+02  0.14141870463E+02  0.00000000000E+00 0.  1.
</event>
<event>
 8    1  0.1265908E-006  0.9118800E+02  0.7816164E-02  0.1184000E+00
        -11   -1    0    0    0    0  0.00000000000E+00  0.00000000000E+00  0.45593999997E+02  0.45594000000E+02  0.51100000000E-03 0. -1.
         11   -1    0    0    0    0 -0.00000000000E+00 -0.00000000000E+00 -0.45593999997E+02  0.45594000000E+02  0.51100000000E-03 0.  1.
         23    2    1    2    0    0 -0.22204460493E-15  0.00000000000E+00  0.00000000000E+00  0.91188000000E+02  0.91188000000E+02 0.  0.
    9900012    2    3    3    0    0  0.73397874723E+00  0.21985169244E+02 -0.29527832792E+02  0.54367091526E+02  0.40000016752E+02 0.  0.
         12    1    3    3    0    0 -0.73397874723E+00 -0.21985169244E+02  0.29527832792E+02  0.36820908474E+02  0.00000000000E+00 0. -1.
         11    1    4    4    0    0 -0.71359118844E+00 -0.30326815107E+01  0.54498713044E+01  0.62775367005E+01  0.51100000000E-03 0. -1.
        -11    1    4    4    0    0 -0.35077659549E+00  0.25748582678E+02 -0.19018533382E+02  0.32012765678E+02  0.51100000000E-03 0.  1.
        -12    1    4    4    0    0  0.17983465312E+01 -0.73073192346E+00 -0.15959170715E+02  0.16076789147E+02  0.00000000000E+00 0.  1.
</event>
<event>
 8    1  0.1265908E-006  0.9118800E+02  0.7816164E-02  0.1184000E+00
        -11   -1    0    0    0    0  0.00000000000E+00  0.00000000000E+00  0.45593999997E+02  0.45594000000E+02  0.51100000000E-03 0.  1.
         11   -1    0    0    0    0 -0.00000000000E+00 -0.00000000000E+00 -0.45593999997E+02  0.45594000000E+02  0.51100000000E-03 0. -1.
         23    2    1    2    0    0  0.00000000000E+00  0.35527136788E-14  0.44408920985E-15  0.91188000000E+02  0.91188000000E+02 0.  0.
    9900012    2    3    3    0    0 -0.30450059507E+02  0.20498621314E+02  0.28948404776E+01  0.54367086091E+02  0.40000004361E+02 0.  0.
         12    1    3    3    0    0  0.30450059507E+02 -0.20498621314E+02 -0.28948404776E+01  0.36820913909E+02  0.00000000000E+00 0. -1.
         11    1    4    4    0    0 -0.17105850088E+02 -0.47361125171E+01  0.52742623977E+01  0.18516444397E+02  0.51100000000E-03 0. -1.
        -11    1    4    4    0    0 -0.10844284192E+02  0.12760384133E+02  0.87973253186E+01  0.18916099912E+02  0.51100000000E-03 0.  1.
        -12    1    4    4    0    0 -0.24999252264E+01  0.12474349698E+02 -0.11176747239E+02  0.16934541782E+02  0.00000000000E+00 0.  1.
</event>
<event>
 8    1  0.1265908E-006  0.9118800E+02  0.7816164E-02  0.1184000E+00
        -11   -1    0    0    0    0  0.00000000000E+00  0.00000000000E+00  0.45593999997E+02  0.45594000000E+02  0.51100000000E-03 0.  1.
         11   -1    0    0    0    0 -0.00000000000E+00 -0.00000000000E+00 -0.45593999997E+02  0.45594000000E+02  0.51100000000E-03 0. -1.
         23    2    1    2    0    0  0.00000000000E+00  0.00000000000E+00 -0.35527136788E-14  0.91188000000E+02  0.91188000000E+02 0.  0.
    9900012    2    3    3    0    0  0.25172899925E+02 -0.16383534658E+02 -0.21299838334E+02  0.54367106317E+02  0.40000050472E+02 0.  0.
        -12    1    3    3    0    0 -0.25172899925E+02  0.16383534658E+02  0.21299838334E+02  0.36820893683E+02  0.00000000000E+00 0.  1.
         11    1    4    4    0    0 -0.10149393679E+01 -0.33539615482E+01 -0.19272590011E+01  0.39991858554E+01  0.51100000000E-03 0. -1.
        -11    1    4    4    0    0  0.10708115851E+02 -0.21499538085E+02  0.19479427619E+00  0.24019405239E+02  0.51100000000E-03 0.  1.
         12    1    4    4    0    0  0.15479723442E+02  0.84699649752E+01 -0.19567373609E+02  0.26348515223E+02  0.00000000000E+00 0. -1.
</event>
<event>
 8    1  0.1265908E-006  0.9118800E+02  0.7816164E-02  0.1184000E+00
        -11   -1    0    0    0    0  0.00000000000E+00  0.00000000000E+00  0.45593999997E+02  0.45594000000E+02  0.51100000000E-03 0.  1.
         11   -1    0    0    0    0 -0.00000000000E+00 -0.00000000000E+00 -0.45593999997E+02  0.45594000000E+02  0.51100000000E-03 0. -1.
         23    2    1    2    0    0  0.11102230246E-15  0.00000000000E+00  0.00000000000E+00  0.91188000000E+02  0.91188000000E+02 0.  0.
    9900012    2    3    3    0    0 -0.55775124205E+00 -0.12666667933E+02  0.34569122720E+02  0.54367084631E+02  0.40000001032E+02 0.  0.
         12    1    3    3    0    0  0.55775124205E+00  0.12666667933E+02 -0.34569122720E+02  0.36820915369E+02  0.00000000000E+00 0. -1.
         11    1    4    4    0    0 -0.57363682898E+00 -0.12004722123E+02  0.29682064986E+02  0.32022919832E+02  0.51100000000E-03 0. -1.
        -11    1    4    4    0    0  0.49780942514E+01 -0.99819995534E+01  0.35236237035E+01  0.11697763108E+02  0.51100000000E-03 0.  1.
         12    1    4    4    0    0 -0.49622086645E+01  0.93200537433E+01  0.13634340308E+01  0.10646401691E+02  0.00000000000E+00 0. -1.
</event>
<event>
 8    1  0.1265908E-006  0.9118800E+02  0.7816164E-02  0.1184000E+00
        -11   -1    0    0    0    0  0.00000000000E+00  0.00000000000E+00  0.45593999997E+02  0.45594000000E+02  0.51100000000E-03 0. -1.
         11   -1    0    0    0    0 -0.00000000000E+00 -0.00000000000E+00 -0.45593999997E+02  0.45594000000E+02  0.51100000000E-03 0.  1.
         23    2    1    2    0    0  0.00000000000E+00 -0.35527136788E-14  0.00000000000E+00  0.91188000000E+02  0.91188000000E+02 0.  0.
    9900012    2    3    3    0    0 -0.20441035879E+02 -0.17059542659E+02 -0.25434609472E+02  0.54367037186E+02  0.39999892873E+02 0.  0.
         12    1    3    3    0    0  0.20441035879E+02  0.17059542659E+02  0.25434609472E+02  0.36820962814E+02  0.00000000000E+00 0. -1.
         11    1    4    4    0    0  0.45524195030E+01  0.13812237940E+01  0.32234284826E+01  0.57465462623E+01  0.51100000000E-03 0. -1.
        -11    1    4    4    0    0 -0.18459651477E+02 -0.15688095628E+02 -0.61101386777E+01  0.24984172430E+02  0.51100000000E-03 0.  1.
         12    1    4    4    0    0 -0.65338039056E+01 -0.27526708249E+01 -0.22547899277E+02  0.23636318494E+02  0.00000000000E+00 0. -1.
</event>
<event>
 8    1  0.1265908E-006  0.9118800E+02  0.7816164E-02  0.1184000E+00
        -11   -1    0    0    0    0  0.00000000000E+00  0.00000000000E+00  0.45593999997E+02  0.45594000000E+02  0.51100000000E-03 0. -1.
         11   -1    0    0    0    0 -0.00000000000E+00 -0.00000000000E+00 -0.45593999997E+02  0.45594000000E+02  0.51100000000E-03 0.  1.
         23    2    1    2    0    0 -0.17763568394E-14 -0.35527136788E-14 -0.35527136788E-14  0.91188000000E+02  0.91188000000E+02 0.  0.
    9900012    2    3    3    0    0 -0.13320376614E+02  0.25399343360E+02 -0.23091600207E+02  0.54367067415E+02  0.39999961786E+02 0.  0.
        -12    1    3    3    0    0  0.13320376614E+02 -0.25399343360E+02  0.23091600207E+02  0.36820932585E+02  0.00000000000E+00 0.  1.
         11    1    4    4    0    0 -0.77935940800E+01  0.11130888678E+02  0.20698506429E+01  0.13744856252E+02  0.51100000000E-03 0. -1.
        -11    1    4    4    0    0 -0.10147343800E+02 -0.25171049078E+01 -0.54201405938E+00  0.10468915073E+02  0.51100000000E-03 0.  1.
        -12    1    4    4    0    0  0.46205612657E+01  0.16785559590E+02 -0.24619436791E+02  0.30153296089E+02  0.00000000000E+00 0.  1.
</event>
<event>
 8    1  0.1265908E-006  0.9118800E+02  0.7816164E-02  0.1184000E+00
        -11   -1    0    0    0    0  0.00000000000E+00  0.00000000000E+00  0.45593999997E+02  0.45594000000E+02  0.51100000000E-03 0. -1.
         11   -1    0    0    0    0 -0.00000000000E+00 -0.00000000000E+00 -0.45593999997E+02  0.45594000000E+02  0.51100000000E-03 0.  1.
         23    2    1    2    0    0  0.35527136788E-14 -0.35527136788E-14  0.00000000000E+00  0.91188000000E+02  0.91188000000E+02 0.  0.
    9900012    2    3    3    0    0  0.20313876846E+02  0.86307366834E+01  0.29472584335E+02  0.54367130434E+02  0.40000105450E+02 0.  0.
        -12    1    3    3    0    0 -0.20313876846E+02 -0.86307366834E+01 -0.29472584335E+02  0.36820869566E+02  0.00000000000E+00 0.  1.
         11    1    4    4    0    0  0.46079622148E+01 -0.45579033843E+01 -0.58354292243E+00  0.65075588077E+01  0.51100000000E-03 0. -1.
        -11    1    4    4    0    0 -0.25675733753E+01 -0.71486758516E+01  0.52314990631E+00  0.76137826049E+01  0.51100000000E-03 0.  1.
        -12    1    4    4    0    0  0.18273488007E+02  0.20337315919E+02  0.29532977351E+02  0.40245789021E+02  0.00000000000E+00 0.  1.
</event>
<event>
 8    1  0.1265908E-006  0.9118800E+02  0.7816164E-02  0.1184000E+00
        -11   -1    0    0    0    0  0.00000000000E+00  0.00000000000E+00  0.45593999997E+02  0.45594000000E+02  0.51100000000E-03 0.  1.
         11   -1    0    0    0    0 -0.00000000000E+00 -0.00000000000E+00 -0.45593999997E+02  0.45594000000E+02  0.51100000000E-03 0. -1.
         23    2    1    2    0    0  0.00000000000E+00  0.35527136788E-14  0.44408920985E-15  0.91188000000E+02  0.91188000000E+02 0.  0.
    9900012    2    3    3    0    0  0.27557205733E+02 -0.24273806490E+02 -0.26766775572E+01  0.54367056611E+02  0.39999937156E+02 0.  0.
        -12    1    3    3    0    0 -0.27557205733E+02  0.24273806490E+02  0.26766775572E+01  0.36820943389E+02  0.00000000000E+00 0.  1.
         11    1    4    4    0    0 -0.34652069238E+01 -0.98104590685E+01  0.52366084584E+01  0.11647954094E+02  0.51100000000E-03 0. -1.
        -11    1    4    4    0    0  0.63423050244E+01  0.59144795927E+01  0.25621859589E+01  0.90427152462E+01  0.51100000000E-03 0.  1.
        -12    1    4    4    0    0  0.24680107632E+02 -0.20377827014E+02 -0.10475471974E+02  0.33676387271E+02  0.00000000000E+00 0.  1.
</event>
<event>
 8    1  0.1265908E-006  0.9118800E+02  0.7816164E-02  0.1184000E+00
        -11   -1    0    0    0    0  0.00000000000E+00  0.00000000000E+00  0.45593999997E+02  0.45594000000E+02  0.51100000000E-03 0. -1.
         11   -1    0    0    0    0 -0.00000000000E+00 -0.00000000000E+00 -0.45593999997E+02  0.45594000000E+02  0.51100000000E-03 0.  1.
         23    2    1    2    0    0  0.35527136788E-14  0.00000000000E+00  0.35527136788E-14  0.91188000000E+02  0.91188000000E+02 0.  0.
    9900012    2    3    3    0    0 -0.29458156170E+02  0.50614106698E+01 -0.21502990406E+02  0.54367089646E+02  0.40000012466E+02 0.  0.
         12    1    3    3    0    0  0.29458156170E+02 -0.50614106698E+01  0.21502990406E+02  0.36820910354E+02  0.00000000000E+00 0. -1.
         11    1    4    4    0    0 -0.97526091488E+01 -0.44268772366E+01 -0.21045753575E+02  0.23614283201E+02  0.51100000000E-03 0. -1.
        -11    1    4    4    0    0 -0.19769212291E+02  0.35417331141E+01 -0.75863057522E+01  0.21468993066E+02  0.51100000000E-03 0.  1.
         12    1    4    4    0    0  0.63665270331E-01  0.59465547923E+01  0.71290689214E+01  0.92838133787E+01  0.00000000000E+00 0. -1.
</event>
<event>
 8    1  0.1265908E-006  0.9118800E+02  0.7816164E-02  0.1184000E+00
        -11   -1    0    0    0    0  0.00000000000E+00  0.00000000000E+00  0.45593999997E+02  0.45594000000E+02  0.51100000000E-03 0. -1.
         11   -1    0    0    0    0 -0.00000000000E+00 -0.00000000000E+00 -0.45593999997E+02  0.45594000000E+02  0.51100000000E-03 0.  1.
         23    2    1    2    0    0  0.00000000000E+00  0.00000000000E+00  0.88817841970E-15  0.91188000000E+02  0.91188000000E+02 0.  0.
    9900012    2    3    3    0    0  0.31063275922E+02 -0.18636850645E+02 -0.65970980628E+01  0.54367068238E+02  0.39999963662E+02 0.  0.
         12    1    3    3    0    0 -0.31063275922E+02  0.18636850645E+02  0.65970980628E+01  0.36820931762E+02  0.00000000000E+00 0. -1.
         11    1    4    4    0    0  0.93673922851E+01 -0.89164155700E+01 -0.27464678434E+01  0.13220952716E+02  0.51100000000E-03 0. -1.
        -11    1    4    4    0    0  0.28480558709E+02 -0.10737176703E+02  0.40240606120E+01  0.30702153866E+02  0.51100000000E-03 0.  1.
         12    1    4    4    0    0 -0.67846750724E+01  0.10167416276E+01 -0.78746908314E+01  0.10443961656E+02  0.00000000000E+00 0. -1.
</event>
<event>
 8    1  0.1265908E-006  0.9118800E+02  0.7816164E-02  0.1184000E+00
        -11   -1    0    0    0    0  0.00000000000E+00  0.00000000000E+00  0.45593999997E+02  0.45594000000E+02  0.51100000000E-03 0.  1.
         11   -1    0    0    0    0 -0.00000000000E+00 -0.00000000000E+00 -0.45593999997E+02  0.45594000000E+02  0.51100000000E-03 0. -1.
         23    2    1    2    0    0 -0.13322676296E-14 -0.88817841970E-15  0.00000000000E+00  0.91188000000E+02  0.91188000000E+02 0.  0.
    9900012    2    3    3    0    0  0.30117222956E+01  0.54884668993E+01  0.36284801038E+02  0.54367074884E+02  0.39999978812E+02 0.  0.
         12    1    3    3    0    0 -0.30117222956E+01 -0.54884668993E+01 -0.36284801038E+02  0.36820925116E+02  0.00000000000E+00 0. -1.
         11    1    4    4    0    0  0.19079784419E+02 -0.20092327864E+01  0.17549230666E+02  0.26000974733E+02  0.51100000000E-03 0. -1.
        -11    1    4    4    0    0 -0.91893451144E+01  0.48054873258E+01  0.18216189798E+02  0.20961067317E+02  0.51100000000E-03 0.  1.
        -12    1    4    4    0    0 -0.68787170087E+01  0.26922123598E+01  0.51938057392E+00  0.74050328330E+01  0.00000000000E+00 0.  1.
</event>
<event>
 8    1  0.1265908E-006  0.9118800E+02  0.7816164E-02  0.1184000E+00
        -11   -1    0    0    0    0  0.00000000000E+00  0.00000000000E+00  0.45593999997E+02  0.45594000000E+02  0.51100000000E-03 0. -1.
         11   -1    0    0    0    0 -0.00000000000E+00 -0.00000000000E+00 -0.45593999997E+02  0.45594000000E+02  0.51100000000E-03 0.  1.
         23    2    1    2    0    0 -0.17763568394E-14  0.00000000000E+00  0.00000000000E+00  0.91188000000E+02  0.91188000000E+02 0.  0.
    9900012    2    3    3    0    0  0.12139326261E+02  0.18725543752E+02 -0.29287706318E+02  0.54367095988E+02  0.40000026925E+02 0.  0.
         12    1    3    3    0    0 -0.12139326261E+02 -0.18725543752E+02  0.29287706318E+02  0.36820904012E+02  0.00000000000E+00 0. -1.
         11    1    4    4    0    0  0.60173125588E+01 -0.35930567332E+01 -0.14145467711E+02  0.15786461419E+02  0.51100000000E-03 0. -1.
        -11    1    4    4    0    0  0.66795297690E+01 -0.47084740843E+01 -0.56266759876E+01  0.99219619566E+01  0.51100000000E-03 0.  1.
         12    1    4    4    0    0 -0.55751606660E+00  0.27027074570E+02 -0.95155626190E+01  0.28658672612E+02  0.00000000000E+00 0. -1.
</event>
<event>
 8    1  0.1265908E-006  0.9118800E+02  0.7816164E-02  0.1184000E+00
        -11   -1    0    0    0    0  0.00000000000E+00  0.00000000000E+00  0.45593999997E+02  0.45594000000E+02  0.51100000000E-03 0. -1.
         11   -1    0    0    0    0 -0.00000000000E+00 -0.00000000000E+00 -0.45593999997E+02  0.45594000000E+02  0.51100000000E-03 0.  1.
         23    2    1    2    0    0  0.35527136788E-14  0.00000000000E+00  0.17763568394E-14  0.91188000000E+02  0.91188000000E+02 0.  0.
    9900012    2    3    3    0    0  0.24903598674E+02 -0.22130790221E+02  0.15678576845E+02  0.54367097314E+02  0.40000029947E+02 0.  0.
        -12    1    3    3    0    0 -0.24903598674E+02  0.22130790221E+02 -0.15678576845E+02  0.36820902686E+02  0.00000000000E+00 0.  1.
         11    1    4    4    0    0 -0.21726398431E+01  0.42904545183E+01  0.73099924181E+01  0.87501059008E+01  0.51100000000E-03 0. -1.
        -11    1    4    4    0    0  0.13616912657E+02 -0.47377021364E+01 -0.67868124789E+01  0.15935085683E+02  0.51100000000E-03 0.  1.
         12    1    4    4    0    0  0.13459325860E+02 -0.21683542603E+02  0.15155396905E+02  0.29681905730E+02  0.00000000000E+00 0. -1.
</event>
<event>
 8    1  0.1265908E-006  0.9118800E+02  0.7816164E-02  0.1184000E+00
        -11   -1    0    0    0    0  0.00000000000E+00  0.00000000000E+00  0.45593999997E+02  0.45594000000E+02  0.51100000000E-03 0.  1.
         11   -1    0    0    0    0 -0.00000000000E+00 -0.00000000000E+00 -0.45593999997E+02  0.45594000000E+02  0.51100000000E-03 0. -1.
         23    2    1    2    0    0  0.17763568394E-14  0.00000000000E+00  0.00000000000E+00  0.91188000000E+02  0.91188000000E+02 0.  0.
    9900012    2    3    3    0    0  0.79972488361E+01 -0.10033918717E+02 -0.34512954734E+02  0.54367088031E+02  0.40000008783E+02 0.  0.
        -12    1    3    3    0    0 -0.79972488361E+01  0.10033918717E+02  0.34512954734E+02  0.36820911969E+02  0.00000000000E+00 0.  1.
         11    1    4    4    0    0 -0.45164238468E+01  0.10783950175E+02 -0.76731400659E+01  0.13984589535E+02  0.51100000000E-03 0. -1.
        -11    1    4    4    0    0  0.13218514190E+02 -0.22548734252E+02 -0.18975802052E+02  0.32299467450E+02  0.51100000000E-03 0.  1.
        -12    1    4    4    0    0 -0.70484150744E+00  0.17308653600E+01 -0.78640126170E+01  0.80830310456E+01  0.00000000000E+00 0.  1.
</event>
<event>
 8    1  0.1265908E-006  0.9118800E+02  0.7816164E-02  0.1184000E+00
        -11   -1    0    0    0    0  0.00000000000E+00  0.00000000000E+00  0.45593999997E+02  0.45594000000E+02  0.51100000000E-03 0.  1.
         11   -1    0    0    0    0 -0.00000000000E+00 -0.00000000000E+00 -0.45593999997E+02  0.45594000000E+02  0.51100000000E-03 0. -1.
         23    2    1    2    0    0  0.00000000000E+00  0.00000000000E+00  0.44408920985E-15  0.91188000000E+02  0.91188000000E+02 0.  0.
    9900012    2    3    3    0    0  0.46201280014E+01  0.36489738698E+02 -0.17125075347E+01  0.54367091605E+02  0.40000016931E+02 0.  0.
         12    1    3    3    0    0 -0.46201280014E+01 -0.36489738698E+02  0.17125075347E+01  0.36820908395E+02  0.00000000000E+00 0. -1.
         11    1    4    4    0    0  0.30204343995E+01 -0.10956711352E+01  0.10599878979E+02  0.11076143455E+02  0.51100000000E-03 0. -1.
        -11    1    4    4    0    0 -0.21620563918E+01 -0.71189937137E-01  0.18871467840E+01  0.28706931382E+01  0.51100000000E-03 0.  1.
         12    1    4    4    0    0  0.37617499937E+01  0.37656599771E+02 -0.14199533298E+02  0.40420255011E+02  0.00000000000E+00 0. -1.
</event>
<event>
 8    1  0.1265908E-006  0.9118800E+02  0.7816164E-02  0.1184000E+00
        -11   -1    0    0    0    0  0.00000000000E+00  0.00000000000E+00  0.45593999997E+02  0.45594000000E+02  0.51100000000E-03 0. -1.
         11   -1    0    0    0    0 -0.00000000000E+00 -0.00000000000E+00 -0.45593999997E+02  0.45594000000E+02  0.51100000000E-03 0.  1.
         23    2    1    2    0    0  0.17763568394E-14  0.00000000000E+00  0.00000000000E+00  0.91188000000E+02  0.91188000000E+02 0.  0.
    9900012    2    3    3    0    0 -0.14109549467E+02  0.24367671470E+02 -0.23725854499E+02  0.54367096009E+02  0.40000026971E+02 0.  0.
         12    1    3    3    0    0  0.14109549467E+02 -0.24367671470E+02  0.23725854499E+02  0.36820903991E+02  0.00000000000E+00 0. -1.
         11    1    4    4    0    0 -0.11337171854E+02 -0.27458328289E+01 -0.14169545327E+02  0.18353394199E+02  0.51100000000E-03 0. -1.
        -11    1    4    4    0    0 -0.11850415302E+01  0.30477935307E+02 -0.10351338400E+02  0.32209611469E+02  0.51100000000E-03 0.  1.
        -12    1    4    4    0    0 -0.15873360825E+01 -0.33644310086E+01  0.79502922827E+00  0.38040903412E+01  0.00000000000E+00 0.  1.
</event>
<event>
 8    1  0.1265908E-006  0.9118800E+02  0.7816164E-02  0.1184000E+00
        -11   -1    0    0    0    0  0.00000000000E+00  0.00000000000E+00  0.45593999997E+02  0.45594000000E+02  0.51100000000E-03 0.  1.
         11   -1    0    0    0    0 -0.00000000000E+00 -0.00000000000E+00 -0.45593999997E+02  0.45594000000E+02  0.51100000000E-03 0. -1.
         23    2    1    2    0    0  0.00000000000E+00  0.00000000000E+00 -0.71054273576E-14  0.91188000000E+02  0.91188000000E+02 0.  0.
    9900012    2    3    3    0    0  0.13867949933E+02  0.16231544408E+02  0.29999951616E+02  0.54367079776E+02  0.39999989965E+02 0.  0.
         12    1    3    3    0    0 -0.13867949933E+02 -0.16231544408E+02 -0.29999951616E+02  0.36820920224E+02  0.00000000000E+00 0. -1.
         11    1    4    4    0    0  0.20532027570E+01  0.23272128828E+02  0.44562701951E+01  0.23783733224E+02  0.51100000000E-03 0. -1.
        -11    1    4    4    0    0  0.10231750602E+02 -0.24728010560E+01  0.22579626926E+02  0.24912707958E+02  0.51100000000E-03 0.  1.
         12    1    4    4    0    0  0.15829965747E+01 -0.45677833637E+01  0.29640544946E+01  0.56706385937E+01  0.00000000000E+00 0. -1.
</event>
<event>
 8    1  0.1265908E-006  0.9118800E+02  0.7816164E-02  0.1184000E+00
        -11   -1    0    0    0    0  0.00000000000E+00  0.00000000000E+00  0.45593999997E+02  0.45594000000E+02  0.51100000000E-03 0. -1.
         11   -1    0    0    0    0 -0.00000000000E+00 -0.00000000000E+00 -0.45593999997E+02  0.45594000000E+02  0.51100000000E-03 0.  1.
         23    2    1    2    0    0  0.88817841970E-15 -0.17763568394E-14  0.00000000000E+00  0.91188000000E+02  0.91188000000E+02 0.  0.
    9900012    2    3    3    0    0 -0.61479223389E+01  0.14340676437E+02 -0.33351585494E+02  0.54367079252E+02  0.39999988771E+02 0.  0.
         12    1    3    3    0    0  0.61479223389E+01 -0.14340676437E+02  0.33351585494E+02  0.36820920748E+02  0.00000000000E+00 0. -1.
         11    1    4    4    0    0 -0.37937640832E+01  0.29605086822E+01  0.29222369823E+01  0.56299846197E+01  0.51100000000E-03 0. -1.
        -11    1    4    4    0    0  0.70530177090E+01  0.18979634711E+02 -0.19981200819E+02  0.28446792069E+02  0.51100000000E-03 0.  1.
         12    1    4    4    0    0 -0.94071759647E+01 -0.75994669563E+01 -0.16292621657E+02  0.20290302563E+02  0.00000000000E+00 0. -1.
</event>
<event>
 8    1  0.1265908E-006  0.9118800E+02  0.7816164E-02  0.1184000E+00
        -11   -1    0    0    0    0  0.00000000000E+00  0.00000000000E+00  0.45593999997E+02  0.45594000000E+02  0.51100000000E-03 0.  1.
         11   -1    0    0    0    0 -0.00000000000E+00 -0.00000000000E+00 -0.45593999997E+02  0.45594000000E+02  0.51100000000E-03 0. -1.
         23    2    1    2    0    0  0.00000000000E+00 -0.88817841970E-15  0.44408920985E-15  0.91188000000E+02  0.91188000000E+02 0.  0.
    9900012    2    3    3    0    0 -0.36395475550E+02 -0.46440100559E+01  0.30956688010E+01  0.54367073406E+02  0.39999975445E+02 0.  0.
         12    1    3    3    0    0  0.36395475550E+02  0.46440100559E+01 -0.30956688010E+01  0.36820926594E+02  0.00000000000E+00 0. -1.
         11    1    4    4    0    0 -0.59297999117E+01 -0.88459794462E+01 -0.75357018039E+01  0.13046098317E+02  0.51100000000E-03 0. -1.
        -11    1    4    4    0    0 -0.10463064064E+02  0.13921752662E+02  0.22727692751E+01  0.17562926500E+02  0.51100000000E-03 0.  1.
        -12    1    4    4    0    0 -0.20002611574E+02 -0.97197832716E+01  0.83586013299E+01  0.23758048590E+02  0.00000000000E+00 0.  1.
</event>
<event>
 8    1  0.1265908E-006  0.9118800E+02  0.7816164E-02  0.1184000E+00
        -11   -1    0    0    0    0  0.00000000000E+00  0.00000000000E+00  0.45593999997E+02  0.45594000000E+02  0.51100000000E-03 0.  1.
         11   -1    0    0    0    0 -0.00000000000E+00 -0.00000000000E+00 -0.45593999997E+02  0.45594000000E+02  0.51100000000E-03 0. -1.
         23    2    1    2    0    0  0.00000000000E+00 -0.71054273576E-14 -0.17763568394E-14  0.91188000000E+02  0.91188000000E+02 0.  0.
    9900012    2    3    3    0    0  0.27418668762E+02  0.24241440958E+02  0.40436441633E+01  0.54367056034E+02  0.39999935842E+02 0.  0.
         12    1    3    3    0    0 -0.27418668762E+02 -0.24241440958E+02 -0.40436441633E+01  0.36820943966E+02  0.00000000000E+00 0. -1.
         11    1    4    4    0    0  0.19979576287E+01  0.98895918770E+01 -0.26127913412E+01  0.10422213826E+02  0.51100000000E-03 0. -1.
        -11    1    4    4    0    0  0.26653532185E+02  0.17299239831E+02  0.14906246876E+02  0.35098015227E+02  0.51100000000E-03 0.  1.
         12    1    4    4    0    0 -0.12328210517E+01 -0.29473907505E+01 -0.82498113712E+01  0.88468269816E+01  0.00000000000E+00 0. -1.
</event>
<event>
 8    1  0.1265908E-006  0.9118800E+02  0.7816164E-02  0.1184000E+00
        -11   -1    0    0    0    0  0.00000000000E+00  0.00000000000E+00  0.45593999997E+02  0.45594000000E+02  0.51100000000E-03 0. -1.
         11   -1    0    0    0    0 -0.00000000000E+00 -0.00000000000E+00 -0.45593999997E+02  0.45594000000E+02  0.51100000000E-03 0.  1.
         23    2    1    2    0    0  0.00000000000E+00  0.00000000000E+00  0.17763568394E-14  0.91188000000E+02  0.91188000000E+02 0.  0.
    9900012    2    3    3    0    0 -0.31407888813E+02 -0.11384471739E+02 -0.15482854273E+02  0.54367075882E+02  0.39999981089E+02 0.  0.
         12    1    3    3    0    0  0.31407888813E+02  0.11384471739E+02  0.15482854273E+02  0.36820924118E+02  0.00000000000E+00 0. -1.
         11    1    4    4    0    0  0.42256664636E+01 -0.13315710696E+02 -0.70125552686E+01  0.15631389575E+02  0.51100000000E-03 0. -1.
        -11    1    4    4    0    0 -0.10502490487E+02  0.35488499529E+01 -0.77794617790E+01  0.13543141004E+02  0.51100000000E-03 0.  1.
        -12    1    4    4    0    0 -0.25131064789E+02 -0.16176109966E+01 -0.69083722490E+00  0.25192545303E+02  0.00000000000E+00 0.  1.
</event>
<event>
 8    1  0.1265908E-006  0.9118800E+02  0.7816164E-02  0.1184000E+00
        -11   -1    0    0    0    0  0.00000000000E+00  0.00000000000E+00  0.45593999997E+02  0.45594000000E+02  0.51100000000E-03 0.  1.
         11   -1    0    0    0    0 -0.00000000000E+00 -0.00000000000E+00 -0.45593999997E+02  0.45594000000E+02  0.51100000000E-03 0. -1.
         23    2    1    2    0    0  0.00000000000E+00  0.88817841970E-15  0.00000000000E+00  0.91188000000E+02  0.91188000000E+02 0.  0.
    9900012    2    3    3    0    0  0.35576177525E+02  0.66213966242E+01  0.68025687078E+01  0.54367051593E+02  0.39999925717E+02 0.  0.
         12    1    3    3    0    0 -0.35576177525E+02 -0.66213966242E+01 -0.68025687078E+01  0.36820948407E+02  0.00000000000E+00 0. -1.
         11    1    4    4    0    0 -0.28752643547E+00  0.15815805617E+02  0.37532930831E+01  0.16257600930E+02  0.51100000000E-03 0.  1.
        -11    1    4    4    0    0  0.13391796224E+02 -0.23166819743E+01 -0.28347531845E+01  0.13883192981E+02  0.51100000000E-03 0. -1.
        -12    1    4    4    0    0  0.22471907736E+02 -0.68777270182E+01  0.58840288093E+01  0.24226257682E+02  0.00000000000E+00 0.  1.
</event>
<event>
 8    1  0.1265908E-006  0.9118800E+02  0.7816164E-02  0.1184000E+00
        -11   -1    0    0    0    0  0.00000000000E+00  0.00000000000E+00  0.45593999997E+02  0.45594000000E+02  0.51100000000E-03 0. -1.
         11   -1    0    0    0    0 -0.00000000000E+00 -0.00000000000E+00 -0.45593999997E+02  0.45594000000E+02  0.51100000000E-03 0.  1.
         23    2    1    2    0    0  0.00000000000E+00  0.35527136788E-14  0.00000000000E+00  0.91188000000E+02  0.91188000000E+02 0.  0.
    9900012    2    3    3    0    0  0.26532450787E+02  0.24221095099E+02 -0.80713912622E+01  0.54367085435E+02  0.40000002865E+02 0.  0.
         12    1    3    3    0    0 -0.26532450787E+02 -0.24221095099E+02  0.80713912622E+01  0.36820914565E+02  0.00000000000E+00 0. -1.
         11    1    4    4    0    0  0.72596017709E+01  0.51582245281E+01  0.84314678590E+01  0.12263716756E+02  0.51100000000E-03 0. -1.
        -11    1    4    4    0    0  0.23649431125E+02  0.22490462522E+02 -0.16442255497E+02  0.36544004475E+02  0.51100000000E-03 0.  1.
        -12    1    4    4    0    0 -0.43765821098E+01 -0.34275919510E+01 -0.60603624415E-01  0.55593642034E+01  0.00000000000E+00 0.  1.
</event>
<event>
 8    1  0.1265908E-006  0.9118800E+02  0.7816164E-02  0.1184000E+00
        -11   -1    0    0    0    0  0.00000000000E+00  0.00000000000E+00  0.45593999997E+02  0.45594000000E+02  0.51100000000E-03 0.  1.
         11   -1    0    0    0    0 -0.00000000000E+00 -0.00000000000E+00 -0.45593999997E+02  0.45594000000E+02  0.51100000000E-03 0. -1.
         23    2    1    2    0    0  0.35527136788E-14  0.00000000000E+00 -0.35527136788E-14  0.91188000000E+02  0.91188000000E+02 0.  0.
    9900012    2    3    3    0    0 -0.20106817910E+02  0.73540417869E+01  0.29956860344E+02  0.54367088296E+02  0.40000009387E+02 0.  0.
         12    1    3    3    0    0  0.20106817910E+02 -0.73540417869E+01 -0.29956860344E+02  0.36820911704E+02  0.00000000000E+00 0. -1.
         11    1    4    4    0    0  0.70630157219E+01  0.48808680218E+01  0.40338972431E+00  0.85948698224E+01  0.51100000000E-03 0. -1.
        -11    1    4    4    0    0  0.32799084102E+01  0.15451436282E+00  0.11592201214E-01  0.32835664312E+01  0.51100000000E-03 0.  1.
        -12    1    4    4    0    0 -0.30449742042E+02  0.23186594023E+01  0.29541878419E+02  0.42488652042E+02  0.00000000000E+00 0.  1.
</event>
<event>
 8    1  0.1265908E-006  0.9118800E+02  0.7816164E-02  0.1184000E+00
        -11   -1    0    0    0    0  0.00000000000E+00  0.00000000000E+00  0.45593999997E+02  0.45594000000E+02  0.51100000000E-03 0. -1.
         11   -1    0    0    0    0 -0.00000000000E+00 -0.00000000000E+00 -0.45593999997E+02  0.45594000000E+02  0.51100000000E-03 0.  1.
         23    2    1    2    0    0  0.17763568394E-14  0.00000000000E+00 -0.17763568394E-14  0.91188000000E+02  0.91188000000E+02 0.  0.
    9900012    2    3    3    0    0 -0.15458136864E+02 -0.32380245713E+02 -0.82671697608E+01  0.54367076551E+02  0.39999982614E+02 0.  0.
        -12    1    3    3    0    0  0.15458136864E+02  0.32380245713E+02  0.82671697608E+01  0.36820923449E+02  0.00000000000E+00 0.  1.
         11    1    4    4    0    0 -0.84511896160E-01 -0.19210674509E+02  0.67873356113E+01  0.20374618580E+02  0.51100000000E-03 0. -1.
        -11    1    4    4    0    0 -0.30829959420E+01  0.62200964383E+01 -0.84422133060E+00  0.69933663994E+01  0.51100000000E-03 0.  1.
         12    1    4    4    0    0 -0.12290629026E+02 -0.19389667643E+02 -0.14210284042E+02  0.26999091572E+02  0.00000000000E+00 0. -1.
</event>
<event>
 8    1  0.1265908E-006  0.9118800E+02  0.7816164E-02  0.1184000E+00
        -11   -1    0    0    0    0  0.00000000000E+00  0.00000000000E+00  0.45593999997E+02  0.45594000000E+02  0.51100000000E-03 0. -1.
         11   -1    0    0    0    0 -0.00000000000E+00 -0.00000000000E+00 -0.45593999997E+02  0.45594000000E+02  0.51100000000E-03 0.  1.
         23    2    1    2    0    0  0.88817841970E-15  0.88817841970E-15  0.00000000000E+00  0.91188000000E+02  0.91188000000E+02 0.  0.
    9900012    2    3    3    0    0  0.45037520127E+01 -0.77962545010E+01  0.35703144752E+02  0.54367083232E+02  0.39999997844E+02 0.  0.
        -12    1    3    3    0    0 -0.45037520127E+01  0.77962545010E+01 -0.35703144752E+02  0.36820916768E+02  0.00000000000E+00 0.  1.
         11    1    4    4    0    0 -0.14276354580E+02 -0.48336543199E+01  0.23535325654E+02  0.27947988623E+02  0.51100000000E-03 0. -1.
        -11    1    4    4    0    0  0.49446364249E+01  0.42254100321E+01 -0.21664710927E+00  0.65077227619E+01  0.51100000000E-03 0.  1.
         12    1    4    4    0    0  0.13835470168E+02 -0.71880102132E+01  0.12384466207E+02  0.19911371847E+02  0.00000000000E+00 0. -1.
</event>
<event>
 8    1  0.1265908E-006  0.9118800E+02  0.7816164E-02  0.1184000E+00
        -11   -1    0    0    0    0  0.00000000000E+00  0.00000000000E+00  0.45593999997E+02  0.45594000000E+02  0.51100000000E-03 0.  1.
         11   -1    0    0    0    0 -0.00000000000E+00 -0.00000000000E+00 -0.45593999997E+02  0.45594000000E+02  0.51100000000E-03 0. -1.
         23    2    1    2    0    0 -0.11102230246E-14  0.22204460493E-15  0.00000000000E+00  0.91188000000E+02  0.91188000000E+02 0.  0.
    9900012    2    3    3    0    0 -0.58325390984E+00 -0.10664826163E+01  0.36800845128E+02  0.54367085122E+02  0.40000002153E+02 0.  0.
         12    1    3    3    0    0  0.58325390984E+00  0.10664826163E+01 -0.36800845128E+02  0.36820914878E+02  0.00000000000E+00 0. -1.
         11    1    4    4    0    0  0.35415516605E+01 -0.39669035740E+01 -0.30909128645E+01  0.61508255322E+01  0.51100000000E-03 0. -1.
        -11    1    4    4    0    0  0.42283407638E+01  0.86012649838E+00 -0.24826779977E+01  0.49781897824E+01  0.51100000000E-03 0.  1.
        -12    1    4    4    0    0 -0.83531463342E+01  0.20402944593E+01  0.42374435990E+02  0.43238069807E+02  0.00000000000E+00 0.  1.
</event>
<event>
 8    1  0.1265908E-006  0.9118800E+02  0.7816164E-02  0.1184000E+00
        -11   -1    0    0    0    0  0.00000000000E+00  0.00000000000E+00  0.45593999997E+02  0.45594000000E+02  0.51100000000E-03 0. -1.
         11   -1    0    0    0    0 -0.00000000000E+00 -0.00000000000E+00 -0.45593999997E+02  0.45594000000E+02  0.51100000000E-03 0.  1.
         23    2    1    2    0    0  0.00000000000E+00  0.00000000000E+00  0.00000000000E+00  0.91188000000E+02  0.91188000000E+02 0.  0.
    9900012    2    3    3    0    0 -0.21249505045E+02 -0.25365889723E+02  0.16149602773E+02  0.54367088878E+02  0.40000010716E+02 0.  0.
        -12    1    3    3    0    0  0.21249505045E+02  0.25365889723E+02 -0.16149602773E+02  0.36820911122E+02  0.00000000000E+00 0.  1.
         11    1    4    4    0    0 -0.82257051961E+01 -0.13748745301E+02  0.22677927587E+02  0.27766501818E+02  0.51100000000E-03 0. -1.
        -11    1    4    4    0    0 -0.31480615611E+01 -0.14063217603E+02 -0.77337278528E+01  0.16355272169E+02  0.51100000000E-03 0.  1.
         12    1    4    4    0    0 -0.98757382873E+01  0.24460731815E+01  0.12054030394E+01  0.10245314891E+02  0.00000000000E+00 0. -1.
</event>
<event>
 8    1  0.1265908E-006  0.9118800E+02  0.7816164E-02  0.1184000E+00
        -11   -1    0    0    0    0  0.00000000000E+00  0.00000000000E+00  0.45593999997E+02  0.45594000000E+02  0.51100000000E-03 0. -1.
         11   -1    0    0    0    0 -0.00000000000E+00 -0.00000000000E+00 -0.45593999997E+02  0.45594000000E+02  0.51100000000E-03 0.  1.
         23    2    1    2    0    0  0.00000000000E+00  0.00000000000E+00  0.00000000000E+00  0.91188000000E+02  0.91188000000E+02 0.  0.
    9900012    2    3    3    0    0  0.19598333498E+02  0.10732941113E+01  0.31153438535E+02  0.54367036287E+02  0.39999890824E+02 0.  0.
        -12    1    3    3    0    0 -0.19598333498E+02 -0.10732941113E+01 -0.31153438535E+02  0.36820963713E+02  0.00000000000E+00 0.  1.
         11    1    4    4    0    0  0.22383107911E+02  0.92122705112E+01  0.88525032295E+01  0.25772781406E+02  0.51100000000E-03 0. -1.
        -11    1    4    4    0    0  0.59749362705E+00  0.30741337252E+01  0.13725788853E+02  0.14078514719E+02  0.51100000000E-03 0.  1.
        -12    1    4    4    0    0 -0.33822680396E+01 -0.11213110125E+02  0.85751464525E+01  0.14515740162E+02  0.00000000000E+00 0.  1.
</event>
<event>
 8    1  0.1265908E-006  0.9118800E+02  0.7816164E-02  0.1184000E+00
        -11   -1    0    0    0    0  0.00000000000E+00  0.00000000000E+00  0.45593999997E+02  0.45594000000E+02  0.51100000000E-03 0.  1.
         11   -1    0    0    0    0 -0.00000000000E+00 -0.00000000000E+00 -0.45593999997E+02  0.45594000000E+02  0.51100000000E-03 0. -1.
         23    2    1    2    0    0  0.88817841970E-15  0.44408920985E-15  0.00000000000E+00  0.91188000000E+02  0.91188000000E+02 0.  0.
    9900012    2    3    3    0    0 -0.53309880090E+01  0.31245937383E+01 -0.36298716823E+02  0.54367090693E+02  0.40000014853E+02 0.  0.
        -12    1    3    3    0    0  0.53309880090E+01 -0.31245937383E+01  0.36298716823E+02  0.36820909307E+02  0.00000000000E+00 0.  1.
         11    1    4    4    0    0 -0.11159749438E+02 -0.45962231665E+01 -0.11886243426E+02  0.16939541256E+02  0.51100000000E-03 0. -1.
        -11    1    4    4    0    0  0.55768724606E+01  0.16174541186E+01  0.48305883480E+01  0.75532938720E+01  0.51100000000E-03 0.  1.
         12    1    4    4    0    0  0.25188896880E+00  0.61033627862E+01 -0.29243061745E+02  0.29874255565E+02  0.00000000000E+00 0. -1.
</event>
<event>
 8    1  0.1265908E-006  0.9118800E+02  0.7816164E-02  0.1184000E+00
        -11   -1    0    0    0    0  0.00000000000E+00  0.00000000000E+00  0.45593999997E+02  0.45594000000E+02  0.51100000000E-03 0. -1.
         11   -1    0    0    0    0 -0.00000000000E+00 -0.00000000000E+00 -0.45593999997E+02  0.45594000000E+02  0.51100000000E-03 0.  1.
         23    2    1    2    0    0  0.11102230246E-14  0.26645352591E-14  0.00000000000E+00  0.91188000000E+02  0.91188000000E+02 0.  0.
    9900012    2    3    3    0    0  0.10866314363E+01  0.53316001582E+01  0.36416679021E+02  0.54367065207E+02  0.39999956751E+02 0.  0.
        -12    1    3    3    0    0 -0.10866314363E+01 -0.53316001582E+01 -0.36416679021E+02  0.36820934793E+02  0.00000000000E+00 0.  1.
         11    1    4    4    0    0  0.44891206123E+01 -0.15861602420E+01  0.40530417858E+01  0.62526199439E+01  0.51100000000E-03 0. -1.
        -11    1    4    4    0    0 -0.16279274638E+02 -0.44023629979E+01  0.23177512853E+02  0.28663438123E+02  0.51100000000E-03 0.  1.
         12    1    4    4    0    0  0.12876785462E+02  0.11320123398E+02  0.91861243826E+01  0.19451007140E+02  0.00000000000E+00 0. -1.
</event>
<event>
 8    1  0.1265908E-006  0.9118800E+02  0.7816164E-02  0.1184000E+00
        -11   -1    0    0    0    0  0.00000000000E+00  0.00000000000E+00  0.45593999997E+02  0.45594000000E+02  0.51100000000E-03 0. -1.
         11   -1    0    0    0    0 -0.00000000000E+00 -0.00000000000E+00 -0.45593999997E+02  0.45594000000E+02  0.51100000000E-03 0.  1.
         23    2    1    2    0    0  0.00000000000E+00  0.17763568394E-14  0.44408920985E-15  0.91188000000E+02  0.91188000000E+02 0.  0.
    9900012    2    3    3    0    0  0.33229099186E+02 -0.15660258326E+02 -0.25243263331E+01  0.54366960539E+02  0.39999718139E+02 0.  0.
         12    1    3    3    0    0 -0.33229099186E+02  0.15660258326E+02  0.25243263331E+01  0.36821039461E+02  0.00000000000E+00 0. -1.
         11    1    4    4    0    0  0.22245163958E+01 -0.10694907889E+02  0.14708977246E+02  0.18321668587E+02  0.51100000000E-03 0. -1.
        -11    1    4    4    0    0  0.14413955471E+02 -0.42930236164E+01 -0.76403585303E+01  0.16869120985E+02  0.51100000000E-03 0.  1.
        -12    1    4    4    0    0  0.16590627320E+02 -0.67232682081E+00 -0.95929450485E+01  0.19176170966E+02  0.00000000000E+00 0.  1.
</event>
<event>
 8    1  0.1265908E-006  0.9118800E+02  0.7816164E-02  0.1184000E+00
        -11   -1    0    0    0    0  0.00000000000E+00  0.00000000000E+00  0.45593999997E+02  0.45594000000E+02  0.51100000000E-03 0.  1.
         11   -1    0    0    0    0 -0.00000000000E+00 -0.00000000000E+00 -0.45593999997E+02  0.45594000000E+02  0.51100000000E-03 0. -1.
         23    2    1    2    0    0 -0.35527136788E-14 -0.71054273576E-14  0.44408920985E-15  0.91188000000E+02  0.91188000000E+02 0.  0.
    9900012    2    3    3    0    0  0.29238777008E+02  0.22263893683E+02  0.22787705920E+01  0.54367084228E+02  0.40000000115E+02 0.  0.
         12    1    3    3    0    0 -0.29238777008E+02 -0.22263893683E+02 -0.22787705920E+01  0.36820915772E+02  0.00000000000E+00 0. -1.
         11    1    4    4    0    0  0.23981528793E+01 -0.26238699431E+01 -0.73186587431E+01  0.81362520100E+01  0.51100000000E-03 0. -1.
        -11    1    4    4    0    0  0.28036852326E+02  0.29224116325E+02  0.71994868811E+01  0.41133279409E+02  0.51100000000E-03 0.  1.
         12    1    4    4    0    0 -0.11962281966E+01 -0.43363526990E+01  0.23979424540E+01  0.50975528090E+01  0.00000000000E+00 0. -1.
</event>
<event>
 8    1  0.1265908E-006  0.9118800E+02  0.7816164E-02  0.1184000E+00
        -11   -1    0    0    0    0  0.00000000000E+00  0.00000000000E+00  0.45593999997E+02  0.45594000000E+02  0.51100000000E-03 0. -1.
         11   -1    0    0    0    0 -0.00000000000E+00 -0.00000000000E+00 -0.45593999997E+02  0.45594000000E+02  0.51100000000E-03 0.  1.
         23    2    1    2    0    0  0.00000000000E+00  0.17763568394E-14  0.71054273576E-14  0.91188000000E+02  0.91188000000E+02 0.  0.
    9900012    2    3    3    0    0 -0.91359942399E+01 -0.47638790297E+01 -0.35349953601E+02  0.54367079944E+02  0.39999990349E+02 0.  0.
         12    1    3    3    0    0  0.91359942399E+01  0.47638790297E+01  0.35349953601E+02  0.36820920056E+02  0.00000000000E+00 0. -1.
         11    1    4    4    0    0 -0.10761443671E+02  0.92088649018E+01 -0.33917070166E+02  0.36755673189E+02  0.51100000000E-03 0. -1.
        -11    1    4    4    0    0 -0.65380819716E+00 -0.27758700630E+01 -0.49008664169E+01  0.56702214827E+01  0.51100000000E-03 0.  1.
         12    1    4    4    0    0  0.22792576279E+01 -0.11196873869E+02  0.34679829818E+01  0.11941185273E+02  0.00000000000E+00 0. -1.
</event>
<event>
 8    1  0.1265908E-006  0.9118800E+02  0.7816164E-02  0.1184000E+00
        -11   -1    0    0    0    0  0.00000000000E+00  0.00000000000E+00  0.45593999997E+02  0.45594000000E+02  0.51100000000E-03 0. -1.
         11   -1    0    0    0    0 -0.00000000000E+00 -0.00000000000E+00 -0.45593999997E+02  0.45594000000E+02  0.51100000000E-03 0.  1.
         23    2    1    2    0    0  0.17763568394E-14  0.17763568394E-14  0.00000000000E+00  0.91188000000E+02  0.91188000000E+02 0.  0.
    9900012    2    3    3    0    0  0.10045251733E+02  0.14759344615E+02  0.32203022616E+02  0.54367082012E+02  0.39999995064E+02 0.  0.
        -12    1    3    3    0    0 -0.10045251733E+02 -0.14759344615E+02 -0.32203022616E+02  0.36820917988E+02  0.00000000000E+00 0.  1.
         11    1    4    4    0    0 -0.38396729427E+01  0.13855939223E+02  0.26911784698E+02  0.30511871394E+02  0.51100000000E-03 0. -1.
        -11    1    4    4    0    0  0.81588174701E+01 -0.86094209653E+01  0.46281696543E+01  0.12732179172E+02  0.51100000000E-03 0.  1.
        -12    1    4    4    0    0  0.57261072052E+01  0.95128263575E+01  0.66306826382E+00  0.11123031446E+02  0.00000000000E+00 0.  1.
</event>
<event>
 8    1  0.1265908E-006  0.9118800E+02  0.7816164E-02  0.1184000E+00
        -11   -1    0    0    0    0  0.00000000000E+00  0.00000000000E+00  0.45593999997E+02  0.45594000000E+02  0.51100000000E-03 0.  1.
         11   -1    0    0    0    0 -0.00000000000E+00 -0.00000000000E+00 -0.45593999997E+02  0.45594000000E+02  0.51100000000E-03 0. -1.
         23    2    1    2    0    0  0.00000000000E+00 -0.22204460493E-15 -0.88817841970E-15  0.91188000000E+02  0.91188000000E+02 0.  0.
    9900012    2    3    3    0    0 -0.36392284704E+02  0.18856609265E+01 -0.52752062727E+01  0.54367056173E+02  0.39999936157E+02 0.  0.
        -12    1    3    3    0    0  0.36392284704E+02 -0.18856609265E+01  0.52752062727E+01  0.36820943827E+02  0.00000000000E+00 0.  1.
         11    1    4    4    0    0 -0.25034565875E+02  0.14618871321E+00 -0.12717386149E+02  0.28079935370E+02  0.51100000000E-03 0. -1.
        -11    1    4    4    0    0 -0.14618163797E+02 -0.67615755975E+01  0.48406927743E+01  0.16817904868E+02  0.51100000000E-03 0.  1.
        -12    1    4    4    0    0  0.32604449676E+01  0.85010478108E+01  0.26014871021E+01  0.94692159343E+01  0.00000000000E+00 0.  1.
</event>
<event>
 8    1  0.1265908E-006  0.9118800E+02  0.7816164E-02  0.1184000E+00
        -11   -1    0    0    0    0  0.00000000000E+00  0.00000000000E+00  0.45593999997E+02  0.45594000000E+02  0.51100000000E-03 0.  1.
         11   -1    0    0    0    0 -0.00000000000E+00 -0.00000000000E+00 -0.45593999997E+02  0.45594000000E+02  0.51100000000E-03 0. -1.
         23    2    1    2    0    0  0.71054273576E-14  0.00000000000E+00  0.35527136788E-14  0.91188000000E+02  0.91188000000E+02 0.  0.
    9900012    2    3    3    0    0  0.35286211699E+02 -0.25475850903E+01  0.10206545748E+02  0.54367075215E+02  0.39999979569E+02 0.  0.
         12    1    3    3    0    0 -0.35286211699E+02  0.25475850903E+01 -0.10206545748E+02  0.36820924785E+02  0.00000000000E+00 0. -1.
         11    1    4    4    0    0  0.10325099369E+02 -0.10767991833E+02 -0.60972777355E+01  0.16116268835E+02  0.51100000000E-03 0. -1.
        -11    1    4    4    0    0  0.27723069283E+02  0.11171278156E+02  0.11631007658E+02  0.32072517293E+02  0.51100000000E-03 0.  1.
         12    1    4    4    0    0 -0.27619569532E+01 -0.29508714134E+01  0.46728158254E+01  0.61782890874E+01  0.00000000000E+00 0. -1.
</event>
<event>
 8    1  0.1265908E-006  0.9118800E+02  0.7816164E-02  0.1184000E+00
        -11   -1    0    0    0    0  0.00000000000E+00  0.00000000000E+00  0.45593999997E+02  0.45594000000E+02  0.51100000000E-03 0.  1.
         11   -1    0    0    0    0 -0.00000000000E+00 -0.00000000000E+00 -0.45593999997E+02  0.45594000000E+02  0.51100000000E-03 0. -1.
         23    2    1    2    0    0  0.17763568394E-14  0.35527136788E-14  0.00000000000E+00  0.91188000000E+02  0.91188000000E+02 0.  0.
    9900012    2    3    3    0    0 -0.14417961791E+02 -0.24454752837E+02  0.23449232621E+02  0.54367094674E+02  0.40000023928E+02 0.  0.
         12    1    3    3    0    0  0.14417961791E+02  0.24454752837E+02 -0.23449232621E+02  0.36820905326E+02  0.00000000000E+00 0. -1.
         11    1    4    4    0    0 -0.10521238072E+02  0.41537954856E+00 -0.32538912287E+01  0.11020744037E+02  0.51100000000E-03 0. -1.
        -11    1    4    4    0    0  0.87578251641E+01 -0.13137400731E+02  0.18245183272E+02  0.24128354947E+02  0.51100000000E-03 0.  1.
        -12    1    4    4    0    0 -0.12654548883E+02 -0.11732731655E+02  0.84579405774E+01  0.19217995690E+02  0.00000000000E+00 0.  1.
</event>
<event>
 8    1  0.1265908E-006  0.9118800E+02  0.7816164E-02  0.1184000E+00
        -11   -1    0    0    0    0  0.00000000000E+00  0.00000000000E+00  0.45593999997E+02  0.45594000000E+02  0.51100000000E-03 0. -1.
         11   -1    0    0    0    0 -0.00000000000E+00 -0.00000000000E+00 -0.45593999997E+02  0.45594000000E+02  0.51100000000E-03 0.  1.
         23    2    1    2    0    0 -0.17763568394E-14  0.22204460493E-15 -0.71054273576E-14  0.91188000000E+02  0.91188000000E+02 0.  0.
    9900012    2    3    3    0    0  0.71415618473E+01  0.10023167710E+01  0.36107784683E+02  0.54367100238E+02  0.40000036613E+02 0.  0.
        -12    1    3    3    0    0 -0.71415618473E+01 -0.10023167710E+01 -0.36107784683E+02  0.36820899762E+02  0.00000000000E+00 0.  1.
         11    1    4    4    0    0  0.11902028867E+02  0.90377186883E+01  0.27706380909E+02  0.31479869656E+02  0.51100000000E-03 0. -1.
        -11    1    4    4    0    0  0.50738734173E+01  0.30172632029E+01  0.49296954663E+01  0.76909015299E+01  0.51100000000E-03 0.  1.
        -12    1    4    4    0    0 -0.98343404369E+01 -0.11052665120E+02  0.34717083079E+01  0.15196329052E+02  0.00000000000E+00 0.  1.
</event>
<event>
 8    1  0.1265908E-006  0.9118800E+02  0.7816164E-02  0.1184000E+00
        -11   -1    0    0    0    0  0.00000000000E+00  0.00000000000E+00  0.45593999997E+02  0.45594000000E+02  0.51100000000E-03 0.  1.
         11   -1    0    0    0    0 -0.00000000000E+00 -0.00000000000E+00 -0.45593999997E+02  0.45594000000E+02  0.51100000000E-03 0. -1.
         23    2    1    2    0    0  0.00000000000E+00  0.00000000000E+00  0.00000000000E+00  0.91188000000E+02  0.91188000000E+02 0.  0.
    9900012    2    3    3    0    0 -0.32966324133E+01 -0.36152907440E+02 -0.61544960202E+01  0.54367104806E+02  0.40000047027E+02 0.  0.
        -12    1    3    3    0    0  0.32966324133E+01  0.36152907440E+02  0.61544960202E+01  0.36820895194E+02  0.00000000000E+00 0.  1.
         11    1    4    4    0    0 -0.10553797975E+02 -0.21133514693E+02 -0.20317364476E+02  0.31157718056E+02  0.51100000000E-03 0. -1.
        -11    1    4    4    0    0  0.45757520667E+01 -0.61706502594E+01  0.11040797180E+02  0.13450413905E+02  0.51100000000E-03 0.  1.
        -12    1    4    4    0    0  0.26814134948E+01 -0.88487424869E+01  0.31220712754E+01  0.97589728444E+01  0.00000000000E+00 0.  1.
</event>
<event>
 8    1  0.1265908E-006  0.9118800E+02  0.7816164E-02  0.1184000E+00
        -11   -1    0    0    0    0  0.00000000000E+00  0.00000000000E+00  0.45593999997E+02  0.45594000000E+02  0.51100000000E-03 0.  1.
         11   -1    0    0    0    0 -0.00000000000E+00 -0.00000000000E+00 -0.45593999997E+02  0.45594000000E+02  0.51100000000E-03 0. -1.
         23    2    1    2    0    0  0.71054273576E-14  0.00000000000E+00 -0.17763568394E-14  0.91188000000E+02  0.91188000000E+02 0.  0.
    9900012    2    3    3    0    0  0.32103174016E+02  0.98223610261E+01 -0.15122680831E+02  0.54366972943E+02  0.39999746417E+02 0.  0.
        -12    1    3    3    0    0 -0.32103174016E+02 -0.98223610261E+01  0.15122680831E+02  0.36821027057E+02  0.00000000000E+00 0.  1.
         11    1    4    4    0    0  0.20403064821E+02 -0.23994291929E+01 -0.27341135695E+01  0.20724808608E+02  0.51100000000E-03 0. -1.
        -11    1    4    4    0    0 -0.58691621520E+01 -0.38309131809E+01 -0.53724787299E+01  0.88309958742E+01  0.51100000000E-03 0.  1.
        -12    1    4    4    0    0  0.17569271347E+02  0.16052703400E+02 -0.70160885320E+01  0.24811168461E+02  0.00000000000E+00 0.  1.
</event>
<event>
 8    1  0.1265908E-006  0.9118800E+02  0.7816164E-02  0.1184000E+00
        -11   -1    0    0    0    0  0.00000000000E+00  0.00000000000E+00  0.45593999997E+02  0.45594000000E+02  0.51100000000E-03 0.  1.
         11   -1    0    0    0    0 -0.00000000000E+00 -0.00000000000E+00 -0.45593999997E+02  0.45594000000E+02  0.51100000000E-03 0. -1.
         23    2    1    2    0    0  0.00000000000E+00  0.00000000000E+00  0.88817841970E-15  0.91188000000E+02  0.91188000000E+02 0.  0.
    9900012    2    3    3    0    0  0.33356856308E+02  0.15346765612E+02  0.27525500112E+01  0.54367087340E+02  0.40000007209E+02 0.  0.
         12    1    3    3    0    0 -0.33356856308E+02 -0.15346765612E+02 -0.27525500112E+01  0.36820912660E+02  0.00000000000E+00 0. -1.
         11    1    4    4    0    0  0.20943377111E-01  0.18660099124E+01  0.14446723579E+02  0.14566751664E+02  0.51100000000E-03 0. -1.
        -11    1    4    4    0    0  0.17511633399E+02  0.10433286639E+02 -0.89944235517E+00  0.20403915585E+02  0.51100000000E-03 0.  1.
         12    1    4    4    0    0  0.15824279533E+02  0.30474690608E+01 -0.10794731213E+02  0.19396420091E+02  0.00000000000E+00 0. -1.
</event>
<event>
 8    1  0.1265908E-006  0.9118800E+02  0.7816164E-02  0.1184000E+00
        -11   -1    0    0    0    0  0.00000000000E+00  0.00000000000E+00  0.45593999997E+02  0.45594000000E+02  0.51100000000E-03 0.  1.
         11   -1    0    0    0    0 -0.00000000000E+00 -0.00000000000E+00 -0.45593999997E+02  0.45594000000E+02  0.51100000000E-03 0. -1.
         23    2    1    2    0    0  0.00000000000E+00 -0.35527136788E-14  0.00000000000E+00  0.91188000000E+02  0.91188000000E+02 0.  0.
    9900012    2    3    3    0    0  0.17256640096E+02 -0.17861569528E+02  0.27183705722E+02  0.54367066413E+02  0.39999959502E+02 0.  0.
         12    1    3    3    0    0 -0.17256640096E+02  0.17861569528E+02 -0.27183705722E+02  0.36820933587E+02  0.00000000000E+00 0. -1.
         11    1    4    4    0    0  0.63299437439E+01  0.89747572403E+01  0.43131442478E+00  0.10990927519E+02  0.51100000000E-03 0. -1.
        -11    1    4    4    0    0  0.94765986765E+01 -0.18183070223E+02  0.27795840247E+02  0.34540392304E+02  0.51100000000E-03 0.  1.
        -12    1    4    4    0    0  0.14500976756E+01 -0.86532565452E+01 -0.10434489493E+01  0.88357465907E+01  0.00000000000E+00 0.  1.
</event>
<event>
 8    1  0.1265908E-006  0.9118800E+02  0.7816164E-02  0.1184000E+00
        -11   -1    0    0    0    0  0.00000000000E+00  0.00000000000E+00  0.45593999997E+02  0.45594000000E+02  0.51100000000E-03 0. -1.
         11   -1    0    0    0    0 -0.00000000000E+00 -0.00000000000E+00 -0.45593999997E+02  0.45594000000E+02  0.51100000000E-03 0.  1.
         23    2    1    2    0    0 -0.44408920985E-15 -0.17763568394E-14  0.00000000000E+00  0.91188000000E+02  0.91188000000E+02 0.  0.
    9900012    2    3    3    0    0  0.13327182126E+01 -0.15133991229E+02  0.33540513376E+02  0.54367083853E+02  0.39999999259E+02 0.  0.
        -12    1    3    3    0    0 -0.13327182126E+01  0.15133991229E+02 -0.33540513376E+02  0.36820916147E+02  0.00000000000E+00 0.  1.
         11    1    4    4    0    0  0.66714827725E+01  0.67311272373E+01  0.24898791658E+02  0.26641444829E+02  0.51100000000E-03 0. -1.
        -11    1    4    4    0    0  0.30861356418E-01  0.12860601208E+00 -0.24925917351E+01  0.24960981048E+01  0.51100000000E-03 0.  1.
         12    1    4    4    0    0 -0.53696259164E+01 -0.21993724479E+02  0.11134313453E+02  0.25229540919E+02  0.00000000000E+00 0. -1.
</event>
<event>
 8    1  0.1265908E-006  0.9118800E+02  0.7816164E-02  0.1184000E+00
        -11   -1    0    0    0    0  0.00000000000E+00  0.00000000000E+00  0.45593999997E+02  0.45594000000E+02  0.51100000000E-03 0.  1.
         11   -1    0    0    0    0 -0.00000000000E+00 -0.00000000000E+00 -0.45593999997E+02  0.45594000000E+02  0.51100000000E-03 0. -1.
         23    2    1    2    0    0  0.00000000000E+00  0.00000000000E+00 -0.44408920985E-15  0.91188000000E+02  0.91188000000E+02 0.  0.
    9900012    2    3    3    0    0 -0.27570233172E+02  0.24111454640E+02 -0.37813788723E+01  0.54367097945E+02  0.40000031384E+02 0.  0.
         12    1    3    3    0    0  0.27570233172E+02 -0.24111454640E+02  0.37813788723E+01  0.36820902055E+02  0.00000000000E+00 0. -1.
         11    1    4    4    0    0 -0.20196170430E+02  0.12871814078E+02 -0.17866555907E+02  0.29879469841E+02  0.51100000000E-03 0. -1.
        -11    1    4    4    0    0 -0.83036516153E+01  0.30791239150E+01  0.83114312301E+00  0.88950791668E+01  0.51100000000E-03 0.  1.
        -12    1    4    4    0    0  0.92958887389E+00  0.81605166466E+01  0.13254033912E+02  0.15592548937E+02  0.00000000000E+00 0.  1.
</event>
<event>
 8    1  0.1265908E-006  0.9118800E+02  0.7816164E-02  0.1184000E+00
        -11   -1    0    0    0    0  0.00000000000E+00  0.00000000000E+00  0.45593999997E+02  0.45594000000E+02  0.51100000000E-03 0.  1.
         11   -1    0    0    0    0 -0.00000000000E+00 -0.00000000000E+00 -0.45593999997E+02  0.45594000000E+02  0.51100000000E-03 0. -1.
         23    2    1    2    0    0 -0.88817841970E-15 -0.35527136788E-14  0.00000000000E+00  0.91188000000E+02  0.91188000000E+02 0.  0.
    9900012    2    3    3    0    0  0.58931452223E+01 -0.30680203021E+02 -0.19487851112E+02  0.54367077158E+02  0.39999983996E+02 0.  0.
        -12    1    3    3    0    0 -0.58931452223E+01  0.30680203021E+02  0.19487851112E+02  0.36820922842E+02  0.00000000000E+00 0.  1.
         11    1    4    4    0    0 -0.51811596480E+01 -0.16058943979E+02 -0.98823028014E+01  0.19554897237E+02  0.51100000000E-03 0. -1.
        -11    1    4    4    0    0  0.90330281945E+01 -0.12384403235E+02  0.77624875741E+01  0.17182120226E+02  0.51100000000E-03 0.  1.
        -12    1    4    4    0    0  0.20412766758E+01 -0.22368558067E+01 -0.17368035885E+02  0.17630059695E+02  0.00000000000E+00 0.  1.
</event>
<event>
 8    1  0.1265908E-006  0.9118800E+02  0.7816164E-02  0.1184000E+00
        -11   -1    0    0    0    0  0.00000000000E+00  0.00000000000E+00  0.45593999997E+02  0.45594000000E+02  0.51100000000E-03 0. -1.
         11   -1    0    0    0    0 -0.00000000000E+00 -0.00000000000E+00 -0.45593999997E+02  0.45594000000E+02  0.51100000000E-03 0.  1.
         23    2    1    2    0    0  0.00000000000E+00  0.00000000000E+00  0.00000000000E+00  0.91188000000E+02  0.91188000000E+02 0.  0.
    9900012    2    3    3    0    0 -0.18790349195E+02 -0.18424320190E+02  0.25753585152E+02  0.54367082772E+02  0.39999996795E+02 0.  0.
        -12    1    3    3    0    0  0.18790349195E+02  0.18424320190E+02 -0.25753585152E+02  0.36820917228E+02  0.00000000000E+00 0.  1.
         11    1    4    4    0    0  0.18176847924E+01 -0.14059974688E+02  0.33840079247E+01  0.14575265903E+02  0.51100000000E-03 0. -1.
        -11    1    4    4    0    0 -0.17390926037E+02 -0.82890363458E+01  0.26833497876E+02  0.33033150629E+02  0.51100000000E-03 0.  1.
        -12    1    4    4    0    0 -0.32171079499E+01  0.39246908436E+01 -0.44639206488E+01  0.67586662396E+01  0.00000000000E+00 0.  1.
</event>
<event>
 8    1  0.1265908E-006  0.9118800E+02  0.7816164E-02  0.1184000E+00
        -11   -1    0    0    0    0  0.00000000000E+00  0.00000000000E+00  0.45593999997E+02  0.45594000000E+02  0.51100000000E-03 0.  1.
         11   -1    0    0    0    0 -0.00000000000E+00 -0.00000000000E+00 -0.45593999997E+02  0.45594000000E+02  0.51100000000E-03 0. -1.
         23    2    1    2    0    0  0.88817841970E-15  0.00000000000E+00  0.17763568394E-14  0.91188000000E+02  0.91188000000E+02 0.  0.
    9900012    2    3    3    0    0 -0.64188536612E+01 -0.34686136721E+02  0.10556952407E+02  0.54367095516E+02  0.40000025847E+02 0.  0.
         12    1    3    3    0    0  0.64188536612E+01  0.34686136721E+02 -0.10556952407E+02  0.36820904484E+02  0.00000000000E+00 0. -1.
         11    1    4    4    0    0 -0.15385650045E+02 -0.23016366903E+02  0.54891469892E+00  0.27690660526E+02  0.51100000000E-03 0. -1.
        -11    1    4    4    0    0 -0.61687429561E+01 -0.45389692886E+01  0.52378813467E+01  0.92785253745E+01  0.51100000000E-03 0.  1.
         12    1    4    4    0    0  0.15135539340E+02 -0.71308005286E+01  0.47701563616E+01  0.17397909616E+02  0.00000000000E+00 0. -1.
</event>
<event>
 8    1  0.1265908E-006  0.9118800E+02  0.7816164E-02  0.1184000E+00
        -11   -1    0    0    0    0  0.00000000000E+00  0.00000000000E+00  0.45593999997E+02  0.45594000000E+02  0.51100000000E-03 0.  1.
         11   -1    0    0    0    0 -0.00000000000E+00 -0.00000000000E+00 -0.45593999997E+02  0.45594000000E+02  0.51100000000E-03 0. -1.
         23    2    1    2    0    0 -0.17763568394E-14  0.00000000000E+00  0.00000000000E+00  0.91188000000E+02  0.91188000000E+02 0.  0.
    9900012    2    3    3    0    0  0.14689714866E+02 -0.28220160982E+02 -0.18536962457E+02  0.54367025192E+02  0.39999865530E+02 0.  0.
        -12    1    3    3    0    0 -0.14689714866E+02  0.28220160982E+02  0.18536962457E+02  0.36820974808E+02  0.00000000000E+00 0.  1.
         11    1    4    4    0    0 -0.13415925765E+01 -0.38662456181E+01  0.30384787728E+01  0.50970657574E+01  0.51100000000E-03 0. -1.
        -11    1    4    4    0    0  0.26837621008E+01 -0.12184465438E+00  0.81983252049E+01  0.86272800789E+01  0.51100000000E-03 0.  1.
         12    1    4    4    0    0  0.13347545341E+02 -0.24232070709E+02 -0.29773766435E+02  0.40642679356E+02  0.00000000000E+00 0. -1.
</event>
<event>
 8    1  0.1265908E-006  0.9118800E+02  0.7816164E-02  0.1184000E+00
        -11   -1    0    0    0    0  0.00000000000E+00  0.00000000000E+00  0.45593999997E+02  0.45594000000E+02  0.51100000000E-03 0.  1.
         11   -1    0    0    0    0 -0.00000000000E+00 -0.00000000000E+00 -0.45593999997E+02  0.45594000000E+02  0.51100000000E-03 0. -1.
         23    2    1    2    0    0 -0.35527136788E-14  0.00000000000E+00  0.00000000000E+00  0.91188000000E+02  0.91188000000E+02 0.  0.
    9900012    2    3    3    0    0  0.17196383623E+02  0.14558106025E+02  0.29122603616E+02  0.54367080646E+02  0.39999991948E+02 0.  0.
         12    1    3    3    0    0 -0.17196383623E+02 -0.14558106025E+02 -0.29122603616E+02  0.36820919354E+02  0.00000000000E+00 0. -1.
         11    1    4    4    0    0  0.86310063875E+01 -0.72027922951E+01 -0.96652081344E-01  0.11242056306E+02  0.51100000000E-03 0. -1.
        -11    1    4    4    0    0  0.34001950854E+01  0.16552845802E+02  0.47112784142E+01  0.17542923797E+02  0.51100000000E-03 0.  1.
         12    1    4    4    0    0  0.51651821501E+01  0.52080525174E+01  0.24507977283E+02  0.25582100543E+02  0.00000000000E+00 0. -1.
</event>
<event>
 8    1  0.1265908E-006  0.9118800E+02  0.7816164E-02  0.1184000E+00
        -11   -1    0    0    0    0  0.00000000000E+00  0.00000000000E+00  0.45593999997E+02  0.45594000000E+02  0.51100000000E-03 0. -1.
         11   -1    0    0    0    0 -0.00000000000E+00 -0.00000000000E+00 -0.45593999997E+02  0.45594000000E+02  0.51100000000E-03 0.  1.
         23    2    1    2    0    0  0.00000000000E+00 -0.35527136788E-14 -0.22204460493E-15  0.91188000000E+02  0.91188000000E+02 0.  0.
    9900012    2    3    3    0    0 -0.33096852099E+02  0.16084621118E+02  0.12896571341E+01  0.54367083785E+02  0.39999999105E+02 0.  0.
        -12    1    3    3    0    0  0.33096852099E+02 -0.16084621118E+02 -0.12896571341E+01  0.36820916215E+02  0.00000000000E+00 0.  1.
         11    1    4    4    0    0 -0.32427340528E+02  0.74319909759E+00 -0.37776211512E-02  0.32435856288E+02  0.51100000000E-03 0. -1.
        -11    1    4    4    0    0  0.60662420291E+01  0.31237528505E+01 -0.28245016489E+01  0.73847771837E+01  0.51100000000E-03 0.  1.
         12    1    4    4    0    0 -0.67357536005E+01  0.12217669170E+02  0.41179364041E+01  0.14546450314E+02  0.00000000000E+00 0. -1.
</event>
<event>
 8    1  0.1265908E-006  0.9118800E+02  0.7816164E-02  0.1184000E+00
        -11   -1    0    0    0    0  0.00000000000E+00  0.00000000000E+00  0.45593999997E+02  0.45594000000E+02  0.51100000000E-03 0.  1.
         11   -1    0    0    0    0 -0.00000000000E+00 -0.00000000000E+00 -0.45593999997E+02  0.45594000000E+02  0.51100000000E-03 0. -1.
         23    2    1    2    0    0 -0.71054273576E-14  0.00000000000E+00 -0.11102230246E-14  0.91188000000E+02  0.91188000000E+02 0.  0.
    9900012    2    3    3    0    0  0.27638811307E+02 -0.24322424516E+02  0.53105790716E+00  0.54367268784E+02  0.40000420844E+02 0.  0.
        -12    1    3    3    0    0 -0.27638811307E+02  0.24322424516E+02 -0.53105790716E+00  0.36820731216E+02  0.00000000000E+00 0.  1.
         11    1    4    4    0    0  0.64247204572E+01 -0.17578791310E+02 -0.13004039013E+02  0.22790260371E+02  0.51100000000E-03 0. -1.
        -11    1    4    4    0    0  0.57841155430E+01  0.79011242412E+00 -0.39671595678E+01  0.70582310500E+01  0.51100000000E-03 0.  1.
        -12    1    4    4    0    0  0.15429975307E+02 -0.75337456304E+01  0.17502256488E+02  0.24518777363E+02  0.00000000000E+00 0.  1.
</event>
<event>
 8    1  0.1265908E-006  0.9118800E+02  0.7816164E-02  0.1184000E+00
        -11   -1    0    0    0    0  0.00000000000E+00  0.00000000000E+00  0.45593999997E+02  0.45594000000E+02  0.51100000000E-03 0.  1.
         11   -1    0    0    0    0 -0.00000000000E+00 -0.00000000000E+00 -0.45593999997E+02  0.45594000000E+02  0.51100000000E-03 0. -1.
         23    2    1    2    0    0  0.71054273576E-14  0.17763568394E-14  0.88817841970E-15  0.91188000000E+02  0.91188000000E+02 0.  0.
    9900012    2    3    3    0    0  0.35903055067E+02  0.81265696462E+01  0.84431824101E+00  0.54367036261E+02  0.39999890764E+02 0.  0.
        -12    1    3    3    0    0 -0.35903055067E+02 -0.81265696462E+01 -0.84431824101E+00  0.36820963739E+02  0.00000000000E+00 0.  1.
         11    1    4    4    0    0  0.16495265263E+02 -0.14756653323E+02 -0.68833970564E+01  0.23178303404E+02  0.51100000000E-03 0. -1.
        -11    1    4    4    0    0  0.13562518368E+02  0.18352799782E+02  0.59125700328E+01  0.23573833990E+02  0.51100000000E-03 0.  1.
         12    1    4    4    0    0  0.58452714364E+01  0.45304231874E+01  0.18151452646E+01  0.76148988669E+01  0.00000000000E+00 0. -1.
</event>
<event>
 8    1  0.1265908E-006  0.9118800E+02  0.7816164E-02  0.1184000E+00
        -11   -1    0    0    0    0  0.00000000000E+00  0.00000000000E+00  0.45593999997E+02  0.45594000000E+02  0.51100000000E-03 0. -1.
         11   -1    0    0    0    0 -0.00000000000E+00 -0.00000000000E+00 -0.45593999997E+02  0.45594000000E+02  0.51100000000E-03 0.  1.
         23    2    1    2    0    0  0.00000000000E+00  0.00000000000E+00 -0.17763568394E-14  0.91188000000E+02  0.91188000000E+02 0.  0.
    9900012    2    3    3    0    0  0.32677471687E+02 -0.16485999760E+02  0.40215133938E+01  0.54367110360E+02  0.40000059687E+02 0.  0.
        -12    1    3    3    0    0 -0.32677471687E+02  0.16485999760E+02 -0.40215133938E+01  0.36820889640E+02  0.00000000000E+00 0.  1.
         11    1    4    4    0    0  0.46697033707E+01 -0.13771831738E+02  0.50976005336E+01  0.15409575284E+02  0.51100000000E-03 0. -1.
        -11    1    4    4    0    0  0.86362507139E+01  0.92437346488E+01 -0.82335856926E+01  0.15093819605E+02  0.51100000000E-03 0.  1.
        -12    1    4    4    0    0  0.19371517602E+02 -0.11957902671E+02  0.71574985528E+01  0.23863715470E+02  0.00000000000E+00 0.  1.
</event>
<event>
 8    1  0.1265908E-006  0.9118800E+02  0.7816164E-02  0.1184000E+00
        -11   -1    0    0    0    0  0.00000000000E+00  0.00000000000E+00  0.45593999997E+02  0.45594000000E+02  0.51100000000E-03 0.  1.
         11   -1    0    0    0    0 -0.00000000000E+00 -0.00000000000E+00 -0.45593999997E+02  0.45594000000E+02  0.51100000000E-03 0. -1.
         23    2    1    2    0    0 -0.17763568394E-14  0.00000000000E+00  0.00000000000E+00  0.91188000000E+02  0.91188000000E+02 0.  0.
    9900012    2    3    3    0    0  0.10510223462E+02  0.54791417833E+01  0.34861075868E+02  0.54367076566E+02  0.39999982647E+02 0.  0.
         12    1    3    3    0    0 -0.10510223462E+02 -0.54791417833E+01 -0.34861075868E+02  0.36820923434E+02  0.00000000000E+00 0. -1.
         11    1    4    4    0    0  0.75676238727E+01  0.58363288722E+00  0.16311573298E+02  0.17991025045E+02  0.51100000000E-03 0. -1.
        -11    1    4    4    0    0 -0.23704291486E+01 -0.26163908272E+01  0.24930342175E+02  0.25179086491E+02  0.51100000000E-03 0.  1.
         12    1    4    4    0    0  0.53130287379E+01  0.75118997233E+01 -0.63808396052E+01  0.11196965030E+02  0.00000000000E+00 0. -1.
</event>
<event>
 8    1  0.1265908E-006  0.9118800E+02  0.7816164E-02  0.1184000E+00
        -11   -1    0    0    0    0  0.00000000000E+00  0.00000000000E+00  0.45593999997E+02  0.45594000000E+02  0.51100000000E-03 0.  1.
         11   -1    0    0    0    0 -0.00000000000E+00 -0.00000000000E+00 -0.45593999997E+02  0.45594000000E+02  0.51100000000E-03 0. -1.
         23    2    1    2    0    0 -0.88817841970E-15  0.00000000000E+00 -0.44408920985E-15  0.91188000000E+02  0.91188000000E+02 0.  0.
    9900012    2    3    3    0    0  0.10626840786E+01  0.36714682717E+02 -0.25850177332E+01  0.54367088263E+02  0.40000009312E+02 0.  0.
        -12    1    3    3    0    0 -0.10626840786E+01 -0.36714682717E+02  0.25850177332E+01  0.36820911737E+02  0.00000000000E+00 0.  1.
         11    1    4    4    0    0 -0.41158506851E+01 -0.15011122603E+01 -0.98266882405E+01  0.10759059760E+02  0.51100000000E-03 0. -1.
        -11    1    4    4    0    0  0.11576929586E+02  0.22579521455E+02  0.82536313806E+01  0.26683000562E+02  0.51100000000E-03 0.  1.
        -12    1    4    4    0    0 -0.63983948223E+01  0.15636273523E+02 -0.10119608732E+01  0.16925027940E+02  0.00000000000E+00 0.  1.
</event>
<event>
 8    1  0.1265908E-006  0.9118800E+02  0.7816164E-02  0.1184000E+00
        -11   -1    0    0    0    0  0.00000000000E+00  0.00000000000E+00  0.45593999997E+02  0.45594000000E+02  0.51100000000E-03 0.  1.
         11   -1    0    0    0    0 -0.00000000000E+00 -0.00000000000E+00 -0.45593999997E+02  0.45594000000E+02  0.51100000000E-03 0. -1.
         23    2    1    2    0    0  0.53290705182E-14  0.00000000000E+00  0.88817841970E-15  0.91188000000E+02  0.91188000000E+02 0.  0.
    9900012    2    3    3    0    0  0.10843405426E+02 -0.34288601234E+02  0.79052748018E+01  0.54367068649E+02  0.39999964600E+02 0.  0.
         12    1    3    3    0    0 -0.10843405426E+02  0.34288601234E+02 -0.79052748018E+01  0.36820931351E+02  0.00000000000E+00 0. -1.
         11    1    4    4    0    0 -0.92431776389E+01 -0.24914810587E+02  0.11711606484E+01  0.26599919868E+02  0.51100000000E-03 0. -1.
        -11    1    4    4    0    0  0.74575264448E+01 -0.11100141012E+02  0.68395071533E+01  0.15020209370E+02  0.51100000000E-03 0.  1.
         12    1    4    4    0    0  0.12629056620E+02  0.17263503641E+01 -0.10539299991E+00  0.12746939412E+02  0.00000000000E+00 0. -1.
</event>
<event>
 8    1  0.1265908E-006  0.9118800E+02  0.7816164E-02  0.1184000E+00
        -11   -1    0    0    0    0  0.00000000000E+00  0.00000000000E+00  0.45593999997E+02  0.45594000000E+02  0.51100000000E-03 0.  1.
         11   -1    0    0    0    0 -0.00000000000E+00 -0.00000000000E+00 -0.45593999997E+02  0.45594000000E+02  0.51100000000E-03 0. -1.
         23    2    1    2    0    0  0.00000000000E+00  0.00000000000E+00  0.00000000000E+00  0.91188000000E+02  0.91188000000E+02 0.  0.
    9900012    2    3    3    0    0  0.30417012284E+02  0.20051612442E+02  0.53401758147E+01  0.54367091870E+02  0.40000017535E+02 0.  0.
         12    1    3    3    0    0 -0.30417012284E+02 -0.20051612442E+02 -0.53401758147E+01  0.36820908130E+02  0.00000000000E+00 0. -1.
         11    1    4    4    0    0  0.23410218241E+02  0.20721338642E+02  0.12022408236E+02  0.33495529452E+02  0.51100000000E-03 0.  1.
        -11    1    4    4    0    0  0.59892411624E+01 -0.61645696555E+01 -0.10892235514E+02  0.13874931477E+02  0.51100000000E-03 0. -1.
        -12    1    4    4    0    0  0.10175528803E+01  0.54948434558E+01  0.42100030930E+01  0.69966309400E+01  0.00000000000E+00 0.  1.
</event>
<event>
 8    1  0.1265908E-006  0.9118800E+02  0.7816164E-02  0.1184000E+00
        -11   -1    0    0    0    0  0.00000000000E+00  0.00000000000E+00  0.45593999997E+02  0.45594000000E+02  0.51100000000E-03 0.  1.
         11   -1    0    0    0    0 -0.00000000000E+00 -0.00000000000E+00 -0.45593999997E+02  0.45594000000E+02  0.51100000000E-03 0. -1.
         23    2    1    2    0    0 -0.35527136788E-14  0.00000000000E+00 -0.35527136788E-14  0.91188000000E+02  0.91188000000E+02 0.  0.
    9900012    2    3    3    0    0  0.23972186256E+02 -0.58977798867E+01 -0.27318870937E+02  0.54367214691E+02  0.40000297530E+02 0.  0.
        -12    1    3    3    0    0 -0.23972186256E+02  0.58977798867E+01  0.27318870937E+02  0.36820785309E+02  0.00000000000E+00 0.  1.
         11    1    4    4    0    0  0.18815705124E+01  0.71179391808E+00 -0.11902773841E+02  0.12071577508E+02  0.51100000000E-03 0. -1.
        -11    1    4    4    0    0  0.11183214487E+02  0.71560746312E+00  0.91298455551E+01  0.14454427019E+02  0.51100000000E-03 0.  1.
        -12    1    4    4    0    0  0.10907401257E+02 -0.73251812679E+01 -0.24545942651E+02  0.27841210164E+02  0.00000000000E+00 0.  1.
</event>
<event>
 8    1  0.1265908E-006  0.9118800E+02  0.7816164E-02  0.1184000E+00
        -11   -1    0    0    0    0  0.00000000000E+00  0.00000000000E+00  0.45593999997E+02  0.45594000000E+02  0.51100000000E-03 0.  1.
         11   -1    0    0    0    0 -0.00000000000E+00 -0.00000000000E+00 -0.45593999997E+02  0.45594000000E+02  0.51100000000E-03 0. -1.
         23    2    1    2    0    0  0.71054273576E-14  0.88817841970E-15 -0.88817841970E-15  0.91188000000E+02  0.91188000000E+02 0.  0.
    9900012    2    3    3    0    0  0.36312197021E+02 -0.56211938912E+01  0.23689040345E+01  0.54367011698E+02  0.39999834767E+02 0.  0.
         12    1    3    3    0    0 -0.36312197021E+02  0.56211938912E+01 -0.23689040345E+01  0.36820988302E+02  0.00000000000E+00 0. -1.
         11    1    4    4    0    0 -0.26529271934E+01  0.66301124244E+01 -0.43424263069E+01  0.83578155008E+01  0.51100000000E-03 0. -1.
        -11    1    4    4    0    0  0.72378046837E+01 -0.94713942252E+01  0.76193993858E+01  0.14147380410E+02  0.51100000000E-03 0.  1.
        -12    1    4    4    0    0  0.31727319531E+02 -0.27799120904E+01 -0.90806904441E+00  0.31861815787E+02  0.00000000000E+00 0.  1.
</event>
<event>
 8    1  0.1265908E-006  0.9118800E+02  0.7816164E-02  0.1184000E+00
        -11   -1    0    0    0    0  0.00000000000E+00  0.00000000000E+00  0.45593999997E+02  0.45594000000E+02  0.51100000000E-03 0. -1.
         11   -1    0    0    0    0 -0.00000000000E+00 -0.00000000000E+00 -0.45593999997E+02  0.45594000000E+02  0.51100000000E-03 0.  1.
         23    2    1    2    0    0  0.00000000000E+00  0.72164496601E-15  0.00000000000E+00  0.91188000000E+02  0.91188000000E+02 0.  0.
    9900012    2    3    3    0    0  0.27435004554E+02 -0.19815273880E+00  0.24557345852E+02  0.54367055217E+02  0.39999933979E+02 0.  0.
        -12    1    3    3    0    0 -0.27435004554E+02  0.19815273880E+00 -0.24557345852E+02  0.36820944783E+02  0.00000000000E+00 0.  1.
         11    1    4    4    0    0  0.13502394584E+02 -0.18108319535E+01  0.39415684644E+01  0.14182021510E+02  0.51100000000E-03 0. -1.
        -11    1    4    4    0    0  0.20673201589E+02  0.94855692684E+01  0.86002270096E+01  0.24317096726E+02  0.51100000000E-03 0.  1.
         12    1    4    4    0    0 -0.67405916193E+01 -0.78728900537E+01  0.12015550378E+02  0.15867936982E+02  0.00000000000E+00 0. -1.
</event>
<event>
 8    1  0.1265908E-006  0.9118800E+02  0.7816164E-02  0.1184000E+00
        -11   -1    0    0    0    0  0.00000000000E+00  0.00000000000E+00  0.45593999997E+02  0.45594000000E+02  0.51100000000E-03 0. -1.
         11   -1    0    0    0    0 -0.00000000000E+00 -0.00000000000E+00 -0.45593999997E+02  0.45594000000E+02  0.51100000000E-03 0.  1.
         23    2    1    2    0    0 -0.26645352591E-14 -0.35527136788E-14  0.00000000000E+00  0.91188000000E+02  0.91188000000E+02 0.  0.
    9900012    2    3    3    0    0  0.67773698440E+01  0.28085225059E+02 -0.22826880617E+02  0.54367094425E+02  0.40000023361E+02 0.  0.
         12    1    3    3    0    0 -0.67773698440E+01 -0.28085225059E+02  0.22826880617E+02  0.36820905575E+02  0.00000000000E+00 0. -1.
         11    1    4    4    0    0 -0.40250245223E+01 -0.78218747640E+01 -0.56191326979E+01  0.10438256548E+02  0.51100000000E-03 0. -1.
        -11    1    4    4    0    0  0.30495787938E+01  0.18472631314E+02 -0.16304563985E+02  0.24826937900E+02  0.51100000000E-03 0.  1.
         12    1    4    4    0    0  0.77528155725E+01  0.17434468509E+02 -0.90318393439E+00  0.19101899977E+02  0.00000000000E+00 0. -1.
</event>
<event>
 8    1  0.1265908E-006  0.9118800E+02  0.7816164E-02  0.1184000E+00
        -11   -1    0    0    0    0  0.00000000000E+00  0.00000000000E+00  0.45593999997E+02  0.45594000000E+02  0.51100000000E-03 0. -1.
         11   -1    0    0    0    0 -0.00000000000E+00 -0.00000000000E+00 -0.45593999997E+02  0.45594000000E+02  0.51100000000E-03 0.  1.
         23    2    1    2    0    0 -0.17763568394E-14  0.44408920985E-15  0.00000000000E+00  0.91188000000E+02  0.91188000000E+02 0.  0.
    9900012    2    3    3    0    0  0.14365998065E+02 -0.39526606678E+01 -0.33671589280E+02  0.54367063681E+02  0.39999953273E+02 0.  0.
         12    1    3    3    0    0 -0.14365998065E+02  0.39526606678E+01  0.33671589280E+02  0.36820936319E+02  0.00000000000E+00 0. -1.
         11    1    4    4    0    0 -0.16815252243E+01 -0.11614696497E+02  0.79287511725E+00  0.11762540244E+02  0.51100000000E-03 0. -1.
        -11    1    4    4    0    0  0.21226423110E+01  0.10380817022E+02 -0.17836494592E+02  0.20746265013E+02  0.51100000000E-03 0.  1.
         12    1    4    4    0    0  0.13924880979E+02 -0.27187811931E+01 -0.16627969806E+02  0.21858258423E+02  0.00000000000E+00 0. -1.
</event>
<event>
 8    1  0.1265908E-006  0.9118800E+02  0.7816164E-02  0.1184000E+00
        -11   -1    0    0    0    0  0.00000000000E+00  0.00000000000E+00  0.45593999997E+02  0.45594000000E+02  0.51100000000E-03 0.  1.
         11   -1    0    0    0    0 -0.00000000000E+00 -0.00000000000E+00 -0.45593999997E+02  0.45594000000E+02  0.51100000000E-03 0. -1.
         23    2    1    2    0    0  0.00000000000E+00 -0.71054273576E-14  0.00000000000E+00  0.91188000000E+02  0.91188000000E+02 0.  0.
    9900012    2    3    3    0    0  0.65613203700E+01  0.27274348468E+02  0.23850348348E+02  0.54367080326E+02  0.39999991219E+02 0.  0.
         12    1    3    3    0    0 -0.65613203700E+01 -0.27274348468E+02 -0.23850348348E+02  0.36820919674E+02  0.00000000000E+00 0. -1.
         11    1    4    4    0    0  0.69599562996E+01  0.70142705621E+01 -0.31408836341E+01  0.10368516455E+02  0.51100000000E-03 0. -1.
        -11    1    4    4    0    0  0.41868258240E+01 -0.12183513918E+00  0.22164588602E+02  0.22556891241E+02  0.51100000000E-03 0.  1.
        -12    1    4    4    0    0 -0.45854617536E+01  0.20381913045E+02  0.48266433795E+01  0.21441672630E+02  0.00000000000E+00 0.  1.
</event>
<event>
 8    1  0.1265908E-006  0.9118800E+02  0.7816164E-02  0.1184000E+00
        -11   -1    0    0    0    0  0.00000000000E+00  0.00000000000E+00  0.45593999997E+02  0.45594000000E+02  0.51100000000E-03 0.  1.
         11   -1    0    0    0    0 -0.00000000000E+00 -0.00000000000E+00 -0.45593999997E+02  0.45594000000E+02  0.51100000000E-03 0. -1.
         23    2    1    2    0    0  0.00000000000E+00  0.00000000000E+00  0.00000000000E+00  0.91188000000E+02  0.91188000000E+02 0.  0.
    9900012    2    3    3    0    0 -0.22157689874E+02 -0.46627550338E+01 -0.29035758743E+02  0.54367084872E+02  0.40000001583E+02 0.  0.
        -12    1    3    3    0    0  0.22157689874E+02  0.46627550338E+01  0.29035758743E+02  0.36820915128E+02  0.00000000000E+00 0.  1.
         11    1    4    4    0    0 -0.89225455002E+01 -0.77712803550E+01 -0.13827576448E+02  0.18199079297E+02  0.51100000000E-03 0. -1.
        -11    1    4    4    0    0 -0.20344368509E+02  0.76154457711E+01 -0.16972961867E+02  0.27567549385E+02  0.51100000000E-03 0.  1.
        -12    1    4    4    0    0  0.71092241351E+01 -0.45069204499E+01  0.17647795718E+01  0.86004561904E+01  0.00000000000E+00 0.  1.
</event>
<event>
 8    1  0.1265908E-006  0.9118800E+02  0.7816164E-02  0.1184000E+00
        -11   -1    0    0    0    0  0.00000000000E+00  0.00000000000E+00  0.45593999997E+02  0.45594000000E+02  0.51100000000E-03 0.  1.
         11   -1    0    0    0    0 -0.00000000000E+00 -0.00000000000E+00 -0.45593999997E+02  0.45594000000E+02  0.51100000000E-03 0. -1.
         23    2    1    2    0    0  0.35527136788E-14 -0.27755575616E-15  0.35527136788E-14  0.91188000000E+02  0.91188000000E+02 0.  0.
    9900012    2    3    3    0    0 -0.22576527816E+02 -0.27821282927E+00  0.29086124358E+02  0.54367086910E+02  0.40000006230E+02 0.  0.
         12    1    3    3    0    0  0.22576527816E+02  0.27821282927E+00 -0.29086124358E+02  0.36820913090E+02  0.00000000000E+00 0. -1.
         11    1    4    4    0    0  0.10145247407E+02  0.41286832957E+01  0.82738591558E+01  0.13726937615E+02  0.51100000000E-03 0. -1.
        -11    1    4    4    0    0 -0.26693084571E+02 -0.14914214653E+01  0.20913259794E+02  0.33942739097E+02  0.51100000000E-03 0.  1.
         12    1    4    4    0    0 -0.60286906513E+01 -0.29154746596E+01 -0.10099459231E+00  0.66974101985E+01  0.00000000000E+00 0. -1.
</event>
<event>
 8    1  0.1265908E-006  0.9118800E+02  0.7816164E-02  0.1184000E+00
        -11   -1    0    0    0    0  0.00000000000E+00  0.00000000000E+00  0.45593999997E+02  0.45594000000E+02  0.51100000000E-03 0.  1.
         11   -1    0    0    0    0 -0.00000000000E+00 -0.00000000000E+00 -0.45593999997E+02  0.45594000000E+02  0.51100000000E-03 0. -1.
         23    2    1    2    0    0  0.44408920985E-15  0.00000000000E+00  0.00000000000E+00  0.91188000000E+02  0.91188000000E+02 0.  0.
    9900012    2    3    3    0    0 -0.36873010187E+01 -0.90229238856E+01 -0.35507379953E+02  0.54367036197E+02  0.39999890618E+02 0.  0.
        -12    1    3    3    0    0  0.36873010187E+01  0.90229238856E+01  0.35507379953E+02  0.36820963803E+02  0.00000000000E+00 0.  1.
         11    1    4    4    0    0  0.24516552441E+01  0.18459084512E+01 -0.22475030584E+02  0.22683584184E+02  0.51100000000E-03 0. -1.
        -11    1    4    4    0    0 -0.41521069388E+01 -0.18575198765E+02 -0.36499592230E+01  0.19380407730E+02  0.51100000000E-03 0.  1.
         12    1    4    4    0    0 -0.19868493239E+01  0.77063664282E+01 -0.93823901466E+01  0.12303044283E+02  0.00000000000E+00 0. -1.
</event>
<event>
 8    1  0.1265908E-006  0.9118800E+02  0.7816164E-02  0.1184000E+00
        -11   -1    0    0    0    0  0.00000000000E+00  0.00000000000E+00  0.45593999997E+02  0.45594000000E+02  0.51100000000E-03 0.  1.
         11   -1    0    0    0    0 -0.00000000000E+00 -0.00000000000E+00 -0.45593999997E+02  0.45594000000E+02  0.51100000000E-03 0. -1.
         23    2    1    2    0    0  0.00000000000E+00  0.35527136788E-14  0.00000000000E+00  0.91188000000E+02  0.91188000000E+02 0.  0.
    9900012    2    3    3    0    0 -0.27252311041E+02 -0.22987369095E+02 -0.92017619329E+01  0.54367081793E+02  0.39999994563E+02 0.  0.
        -12    1    3    3    0    0  0.27252311041E+02  0.22987369095E+02  0.92017619329E+01  0.36820918207E+02  0.00000000000E+00 0.  1.
         11    1    4    4    0    0 -0.25837469251E+02 -0.23809019135E+02 -0.68943071053E+01  0.35804687964E+02  0.51100000000E-03 0. -1.
        -11    1    4    4    0    0 -0.55308255233E+01  0.24639258725E+01  0.63887762227E+01  0.88021260818E+01  0.51100000000E-03 0.  1.
        -12    1    4    4    0    0  0.41159837335E+01 -0.16422758316E+01 -0.86962310503E+01  0.97602677464E+01  0.00000000000E+00 0.  1.
</event>
<event>
 8    1  0.1265908E-006  0.9118800E+02  0.7816164E-02  0.1184000E+00
        -11   -1    0    0    0    0  0.00000000000E+00  0.00000000000E+00  0.45593999997E+02  0.45594000000E+02  0.51100000000E-03 0.  1.
         11   -1    0    0    0    0 -0.00000000000E+00 -0.00000000000E+00 -0.45593999997E+02  0.45594000000E+02  0.51100000000E-03 0. -1.
         23    2    1    2    0    0  0.00000000000E+00  0.00000000000E+00  0.00000000000E+00  0.91188000000E+02  0.91188000000E+02 0.  0.
    9900012    2    3    3    0    0  0.68905017457E+01 -0.25034625447E+02 -0.26106861542E+02  0.54367086036E+02  0.40000004237E+02 0.  0.
         12    1    3    3    0    0 -0.68905017457E+01  0.25034625447E+02  0.26106861542E+02  0.36820913964E+02  0.00000000000E+00 0. -1.
         11    1    4    4    0    0  0.75633928383E+01 -0.55343275992E+01 -0.25821310321E+02  0.27469506005E+02  0.51100000000E-03 0. -1.
        -11    1    4    4    0    0 -0.42650458191E+01 -0.77041298356E+01 -0.83728932736E+01  0.12151114122E+02  0.51100000000E-03 0.  1.
         12    1    4    4    0    0  0.35921547264E+01 -0.11796168012E+02  0.80873420530E+01  0.14746465910E+02  0.00000000000E+00 0. -1.
</event>
<event>
 8    1  0.1265908E-006  0.9118800E+02  0.7816164E-02  0.1184000E+00
        -11   -1    0    0    0    0  0.00000000000E+00  0.00000000000E+00  0.45593999997E+02  0.45594000000E+02  0.51100000000E-03 0.  1.
         11   -1    0    0    0    0 -0.00000000000E+00 -0.00000000000E+00 -0.45593999997E+02  0.45594000000E+02  0.51100000000E-03 0. -1.
         23    2    1    2    0    0  0.22204460493E-15  0.71054273576E-14 -0.17763568394E-14  0.91188000000E+02  0.91188000000E+02 0.  0.
    9900012    2    3    3    0    0 -0.25423223090E+00  0.33329047028E+02 -0.15648968241E+02  0.54367079087E+02  0.39999988395E+02 0.  0.
        -12    1    3    3    0    0  0.25423223090E+00 -0.33329047028E+02  0.15648968241E+02  0.36820920913E+02  0.00000000000E+00 0.  1.
         11    1    4    4    0    0  0.60670195841E+01 -0.62271006065E+01 -0.34603554031E+01  0.93573269887E+01  0.51100000000E-03 0. -1.
        -11    1    4    4    0    0 -0.43259987395E+01  0.27487870108E+01  0.20139269712E+01  0.55069045054E+01  0.51100000000E-03 0.  1.
         12    1    4    4    0    0 -0.19952530755E+01  0.36807360624E+02 -0.14202539809E+02  0.39502847593E+02  0.00000000000E+00 0. -1.
</event>
<event>
 8    1  0.1265908E-006  0.9118800E+02  0.7816164E-02  0.1184000E+00
        -11   -1    0    0    0    0  0.00000000000E+00  0.00000000000E+00  0.45593999997E+02  0.45594000000E+02  0.51100000000E-03 0. -1.
         11   -1    0    0    0    0 -0.00000000000E+00 -0.00000000000E+00 -0.45593999997E+02  0.45594000000E+02  0.51100000000E-03 0.  1.
         23    2    1    2    0    0  0.00000000000E+00  0.00000000000E+00 -0.17763568394E-14  0.91188000000E+02  0.91188000000E+02 0.  0.
    9900012    2    3    3    0    0  0.33967335949E+02 -0.13393632020E+02 -0.47550835814E+01  0.54367080538E+02  0.39999991702E+02 0.  0.
        -12    1    3    3    0    0 -0.33967335949E+02  0.13393632020E+02  0.47550835814E+01  0.36820919462E+02  0.00000000000E+00 0.  1.
         11    1    4    4    0    0 -0.30621103827E+01 -0.30902362733E+01  0.42828863383E+01  0.61048501921E+01  0.51100000000E-03 0. -1.
        -11    1    4    4    0    0  0.31933878439E+02 -0.16484065699E+01 -0.16277896064E+02  0.35881189179E+02  0.51100000000E-03 0.  1.
        -12    1    4    4    0    0  0.50955678925E+01 -0.86549891767E+01  0.72399261438E+01  0.12381041166E+02  0.00000000000E+00 0.  1.
</event>
<event>
 8    1  0.1265908E-006  0.9118800E+02  0.7816164E-02  0.1184000E+00
        -11   -1    0    0    0    0  0.00000000000E+00  0.00000000000E+00  0.45593999997E+02  0.45594000000E+02  0.51100000000E-03 0. -1.
         11   -1    0    0    0    0 -0.00000000000E+00 -0.00000000000E+00 -0.45593999997E+02  0.45594000000E+02  0.51100000000E-03 0.  1.
         23    2    1    2    0    0  0.00000000000E+00  0.35527136788E-14  0.00000000000E+00  0.91188000000E+02  0.91188000000E+02 0.  0.
    9900012    2    3    3    0    0  0.99718347303E+01  0.31859720158E+02  0.15533851023E+02  0.54367084965E+02  0.40000001794E+02 0.  0.
        -12    1    3    3    0    0 -0.99718347303E+01 -0.31859720158E+02 -0.15533851023E+02  0.36820915035E+02  0.00000000000E+00 0.  1.
         11    1    4    4    0    0  0.11613684352E+02  0.10611832097E+02  0.72085625805E+01  0.17304682009E+02  0.51100000000E-03 0. -1.
        -11    1    4    4    0    0  0.90420859577E+01 -0.29648663382E+01  0.80622796799E+00  0.95498562642E+01  0.51100000000E-03 0.  1.
        -12    1    4    4    0    0 -0.10683935580E+02  0.24212754399E+02  0.75190604743E+01  0.27512546692E+02  0.00000000000E+00 0.  1.
</event>
<event>
 8    1  0.1265908E-006  0.9118800E+02  0.7816164E-02  0.1184000E+00
        -11   -1    0    0    0    0  0.00000000000E+00  0.00000000000E+00  0.45593999997E+02  0.45594000000E+02  0.51100000000E-03 0. -1.
         11   -1    0    0    0    0 -0.00000000000E+00 -0.00000000000E+00 -0.45593999997E+02  0.45594000000E+02  0.51100000000E-03 0.  1.
         23    2    1    2    0    0  0.17763568394E-14 -0.44408920985E-15  0.00000000000E+00  0.91188000000E+02  0.91188000000E+02 0.  0.
    9900012    2    3    3    0    0 -0.14473677716E+02  0.22819391897E+01  0.33779949691E+02  0.54367087542E+02  0.40000007670E+02 0.  0.
        -12    1    3    3    0    0  0.14473677716E+02 -0.22819391897E+01 -0.33779949691E+02  0.36820912458E+02  0.00000000000E+00 0.  1.
         11    1    4    4    0    0 -0.58922078465E+01  0.64063620757E+01  0.70015405227E+01  0.11170548702E+02  0.51100000000E-03 0. -1.
        -11    1    4    4    0    0  0.49561420470E+01  0.11846146930E+02  0.11946933582E+02  0.17539206463E+02  0.51100000000E-03 0.  1.
        -12    1    4    4    0    0 -0.13537611916E+02 -0.15970569816E+02  0.14831475586E+02  0.25657332377E+02  0.00000000000E+00 0.  1.
</event>
<event>
 8    1  0.1265908E-006  0.9118800E+02  0.7816164E-02  0.1184000E+00
        -11   -1    0    0    0    0  0.00000000000E+00  0.00000000000E+00  0.45593999997E+02  0.45594000000E+02  0.51100000000E-03 0.  1.
         11   -1    0    0    0    0 -0.00000000000E+00 -0.00000000000E+00 -0.45593999997E+02  0.45594000000E+02  0.51100000000E-03 0. -1.
         23    2    1    2    0    0 -0.88817841970E-15  0.00000000000E+00 -0.66613381478E-15  0.91188000000E+02  0.91188000000E+02 0.  0.
    9900012    2    3    3    0    0 -0.78555730590E+01  0.35921242802E+02  0.19326800496E+01  0.54367068932E+02  0.39999965245E+02 0.  0.
         12    1    3    3    0    0  0.78555730590E+01 -0.35921242802E+02 -0.19326800496E+01  0.36820931068E+02  0.00000000000E+00 0. -1.
         11    1    4    4    0    0  0.81437373780E+00 -0.10153061201E+01  0.24732272463E+01  0.27947995233E+01  0.51100000000E-03 0. -1.
        -11    1    4    4    0    0 -0.15660186371E+02  0.25490714642E+02  0.12904865235E+02  0.32581490406E+02  0.51100000000E-03 0.  1.
        -12    1    4    4    0    0  0.69902395738E+01  0.11445834280E+02 -0.13445412432E+02  0.18990779003E+02  0.00000000000E+00 0.  1.
</event>
<event>
 8    1  0.1265908E-006  0.9118800E+02  0.7816164E-02  0.1184000E+00
        -11   -1    0    0    0    0  0.00000000000E+00  0.00000000000E+00  0.45593999997E+02  0.45594000000E+02  0.51100000000E-03 0.  1.
         11   -1    0    0    0    0 -0.00000000000E+00 -0.00000000000E+00 -0.45593999997E+02  0.45594000000E+02  0.51100000000E-03 0. -1.
         23    2    1    2    0    0  0.00000000000E+00  0.00000000000E+00  0.00000000000E+00  0.91188000000E+02  0.91188000000E+02 0.  0.
    9900012    2    3    3    0    0 -0.18957301818E+02 -0.15453087761E+02  0.27524618105E+02  0.54367057380E+02  0.39999938910E+02 0.  0.
         12    1    3    3    0    0  0.18957301818E+02  0.15453087761E+02 -0.27524618105E+02  0.36820942620E+02  0.00000000000E+00 0. -1.
         11    1    4    4    0    0  0.27667225770E+01  0.74265149458E+00 -0.14938642181E+01  0.32307763190E+01  0.51100000000E-03 0. -1.
        -11    1    4    4    0    0 -0.17635032657E+02 -0.25749226369E+02  0.18167980125E+02  0.36112221442E+02  0.51100000000E-03 0.  1.
        -12    1    4    4    0    0 -0.40889917384E+01  0.95534871138E+01  0.10850502198E+02  0.15024059619E+02  0.00000000000E+00 0.  1.
</event>
<event>
 8    1  0.1265908E-006  0.9118800E+02  0.7816164E-02  0.1184000E+00
        -11   -1    0    0    0    0  0.00000000000E+00  0.00000000000E+00  0.45593999997E+02  0.45594000000E+02  0.51100000000E-03 0. -1.
         11   -1    0    0    0    0 -0.00000000000E+00 -0.00000000000E+00 -0.45593999997E+02  0.45594000000E+02  0.51100000000E-03 0.  1.
         23    2    1    2    0    0  0.00000000000E+00  0.00000000000E+00 -0.13322676296E-14  0.91188000000E+02  0.91188000000E+02 0.  0.
    9900012    2    3    3    0    0 -0.31161645587E+02  0.19319863377E+02 -0.33872867931E+01  0.54367095769E+02  0.40000026425E+02 0.  0.
        -12    1    3    3    0    0  0.31161645587E+02 -0.19319863377E+02  0.33872867931E+01  0.36820904231E+02  0.00000000000E+00 0.  1.
         11    1    4    4    0    0 -0.14771578784E+02  0.82056613317E+01 -0.12348708569E+02  0.20928999528E+02  0.51100000000E-03 0. -1.
        -11    1    4    4    0    0 -0.93627598554E+01  0.13848301063E+02  0.15988027201E+02  0.23131228426E+02  0.51100000000E-03 0.  1.
        -12    1    4    4    0    0 -0.70273069471E+01 -0.27340990177E+01 -0.70266054249E+01  0.10306867815E+02  0.00000000000E+00 0.  1.
</event>
<event>
 8    1  0.1265908E-006  0.9118800E+02  0.7816164E-02  0.1184000E+00
        -11   -1    0    0    0    0  0.00000000000E+00  0.00000000000E+00  0.45593999997E+02  0.45594000000E+02  0.51100000000E-03 0. -1.
         11   -1    0    0    0    0 -0.00000000000E+00 -0.00000000000E+00 -0.45593999997E+02  0.45594000000E+02  0.51100000000E-03 0.  1.
         23    2    1    2    0    0  0.00000000000E+00  0.00000000000E+00  0.00000000000E+00  0.91188000000E+02  0.91188000000E+02 0.  0.
    9900012    2    3    3    0    0 -0.17463771342E+02 -0.16572091965E+02  0.27859680291E+02  0.54367091164E+02  0.40000015927E+02 0.  0.
        -12    1    3    3    0    0  0.17463771342E+02  0.16572091965E+02 -0.27859680291E+02  0.36820908836E+02  0.00000000000E+00 0.  1.
         11    1    4    4    0    0  0.44949249690E+01 -0.60773713405E+01  0.13762153552E+02  0.15701454185E+02  0.51100000000E-03 0. -1.
        -11    1    4    4    0    0  0.50346514570E+01 -0.46101131257E+01 -0.14287527653E+01  0.69743955330E+01  0.51100000000E-03 0.  1.
         12    1    4    4    0    0 -0.26993347768E+02 -0.58846074988E+01  0.15526279504E+02  0.31691241446E+02  0.00000000000E+00 0. -1.
</event>
<event>
 8    1  0.1265908E-006  0.9118800E+02  0.7816164E-02  0.1184000E+00
        -11   -1    0    0    0    0  0.00000000000E+00  0.00000000000E+00  0.45593999997E+02  0.45594000000E+02  0.51100000000E-03 0.  1.
         11   -1    0    0    0    0 -0.00000000000E+00 -0.00000000000E+00 -0.45593999997E+02  0.45594000000E+02  0.51100000000E-03 0. -1.
         23    2    1    2    0    0  0.00000000000E+00  0.35527136788E-14  0.88817841970E-15  0.91188000000E+02  0.91188000000E+02 0.  0.
    9900012    2    3    3    0    0 -0.25150750011E+02  0.26253998178E+02 -0.58263533311E+01  0.54367095074E+02  0.40000024841E+02 0.  0.
        -12    1    3    3    0    0  0.25150750011E+02 -0.26253998178E+02  0.58263533311E+01  0.36820904926E+02  0.00000000000E+00 0.  1.
         11    1    4    4    0    0 -0.63251671990E+01  0.23937118139E+02 -0.61069052766E+01  0.25500738366E+02  0.51100000000E-03 0. -1.
        -11    1    4    4    0    0 -0.46969067405E+01  0.19576875470E+01 -0.10114213238E+02  0.11322136863E+02  0.51100000000E-03 0.  1.
         12    1    4    4    0    0 -0.14128676071E+02  0.35919249185E+00  0.10394765183E+02  0.17544219845E+02  0.00000000000E+00 0. -1.
</event>
<event>
 8    1  0.1265908E-006  0.9118800E+02  0.7816164E-02  0.1184000E+00
        -11   -1    0    0    0    0  0.00000000000E+00  0.00000000000E+00  0.45593999997E+02  0.45594000000E+02  0.51100000000E-03 0.  1.
         11   -1    0    0    0    0 -0.00000000000E+00 -0.00000000000E+00 -0.45593999997E+02  0.45594000000E+02  0.51100000000E-03 0. -1.
         23    2    1    2    0    0  0.44408920985E-14  0.00000000000E+00  0.00000000000E+00  0.91188000000E+02  0.91188000000E+02 0.  0.
    9900012    2    3    3    0    0 -0.69933752000E+01 -0.16290228461E+02 -0.32272245681E+02  0.54367127098E+02  0.40000097845E+02 0.  0.
        -12    1    3    3    0    0  0.69933752000E+01  0.16290228461E+02  0.32272245681E+02  0.36820872902E+02  0.00000000000E+00 0.  1.
         11    1    4    4    0    0  0.59408129076E+01 -0.20460972235E+01 -0.25771653785E+01  0.67912851140E+01  0.51100000000E-03 0. -1.
        -11    1    4    4    0    0 -0.12154372715E+02  0.30074271876E+01  0.78293447214E+00  0.12545372893E+02  0.51100000000E-03 0.  1.
         12    1    4    4    0    0 -0.77981539292E+00 -0.17251558425E+02 -0.30478014774E+02  0.35030469091E+02  0.00000000000E+00 0. -1.
</event>
<event>
 8    1  0.1265908E-006  0.9118800E+02  0.7816164E-02  0.1184000E+00
        -11   -1    0    0    0    0  0.00000000000E+00  0.00000000000E+00  0.45593999997E+02  0.45594000000E+02  0.51100000000E-03 0. -1.
         11   -1    0    0    0    0 -0.00000000000E+00 -0.00000000000E+00 -0.45593999997E+02  0.45594000000E+02  0.51100000000E-03 0.  1.
         23    2    1    2    0    0 -0.35527136788E-14  0.17763568394E-14  0.00000000000E+00  0.91188000000E+02  0.91188000000E+02 0.  0.
    9900012    2    3    3    0    0  0.15484838589E+02 -0.87906239779E+01  0.32229262060E+02  0.54367073491E+02  0.39999975637E+02 0.  0.
        -12    1    3    3    0    0 -0.15484838589E+02  0.87906239779E+01 -0.32229262060E+02  0.36820926509E+02  0.00000000000E+00 0.  1.
         11    1    4    4    0    0 -0.58856616142E+00  0.10422416643E+02  0.15016915578E+02  0.18288819879E+02  0.51100000000E-03 0. -1.
        -11    1    4    4    0    0  0.12005960990E+02 -0.39227484858E+01  0.15749748260E+02  0.20188749973E+02  0.51100000000E-03 0.  1.
        -12    1    4    4    0    0  0.40674437596E+01 -0.15290292135E+02  0.14625982222E+01  0.15889503639E+02  0.00000000000E+00 0.  1.
</event>
<event>
 8    1  0.1265908E-006  0.9118800E+02  0.7816164E-02  0.1184000E+00
        -11   -1    0    0    0    0  0.00000000000E+00  0.00000000000E+00  0.45593999997E+02  0.45594000000E+02  0.51100000000E-03 0.  1.
         11   -1    0    0    0    0 -0.00000000000E+00 -0.00000000000E+00 -0.45593999997E+02  0.45594000000E+02  0.51100000000E-03 0. -1.
         23    2    1    2    0    0 -0.35527136788E-14  0.00000000000E+00 -0.35527136788E-14  0.91188000000E+02  0.91188000000E+02 0.  0.
    9900012    2    3    3    0    0  0.19590117700E+02  0.21981203925E+02  0.22109490491E+02  0.54367141682E+02  0.40000131093E+02 0.  0.
         12    1    3    3    0    0 -0.19590117700E+02 -0.21981203925E+02 -0.22109490491E+02  0.36820858318E+02  0.00000000000E+00 0. -1.
         11    1    4    4    0    0 -0.18391244573E+01  0.11293789734E+02 -0.49990148279E+01  0.12486881710E+02  0.51100000000E-03 0. -1.
        -11    1    4    4    0    0  0.16335480100E+02 -0.31008750659E+01  0.10334735614E+02  0.19577285224E+02  0.51100000000E-03 0.  1.
        -12    1    4    4    0    0  0.50937620574E+01  0.13788289256E+02  0.16773769704E+02  0.22302974748E+02  0.00000000000E+00 0.  1.
</event>
<event>
 8    1  0.1265908E-006  0.9118800E+02  0.7816164E-02  0.1184000E+00
        -11   -1    0    0    0    0  0.00000000000E+00  0.00000000000E+00  0.45593999997E+02  0.45594000000E+02  0.51100000000E-03 0. -1.
         11   -1    0    0    0    0 -0.00000000000E+00 -0.00000000000E+00 -0.45593999997E+02  0.45594000000E+02  0.51100000000E-03 0.  1.
         23    2    1    2    0    0 -0.44408920985E-15 -0.35527136788E-14  0.00000000000E+00  0.91188000000E+02  0.91188000000E+02 0.  0.
    9900012    2    3    3    0    0 -0.31438853095E+01 -0.25119296976E+02  0.26737926462E+02  0.54367084654E+02  0.40000001086E+02 0.  0.
        -12    1    3    3    0    0  0.31438853095E+01  0.25119296976E+02 -0.26737926462E+02  0.36820915346E+02  0.00000000000E+00 0.  1.
         11    1    4    4    0    0  0.76420151139E+01 -0.28232529991E+02  0.15282899374E+02  0.33000653906E+02  0.51100000000E-03 0. -1.
        -11    1    4    4    0    0 -0.10716693910E+02  0.63359468902E+01  0.12816098142E+02  0.17867403930E+02  0.51100000000E-03 0.  1.
        -12    1    4    4    0    0 -0.69206513185E-01 -0.32227138747E+01 -0.13610710534E+01  0.34990268178E+01  0.00000000000E+00 0.  1.
</event>
<event>
 8    1  0.1265908E-006  0.9118800E+02  0.7816164E-02  0.1184000E+00
        -11   -1    0    0    0    0  0.00000000000E+00  0.00000000000E+00  0.45593999997E+02  0.45594000000E+02  0.51100000000E-03 0.  1.
         11   -1    0    0    0    0 -0.00000000000E+00 -0.00000000000E+00 -0.45593999997E+02  0.45594000000E+02  0.51100000000E-03 0. -1.
         23    2    1    2    0    0  0.00000000000E+00  0.00000000000E+00  0.00000000000E+00  0.91188000000E+02  0.91188000000E+02 0.  0.
    9900012    2    3    3    0    0 -0.11304463102E+02 -0.26021630938E+02 -0.23470497060E+02  0.54367076669E+02  0.39999982883E+02 0.  0.
        -12    1    3    3    0    0  0.11304463102E+02  0.26021630938E+02  0.23470497060E+02  0.36820923331E+02  0.00000000000E+00 0.  1.
         11    1    4    4    0    0 -0.11242313659E+02 -0.22552043161E+02 -0.10373898827E+02  0.27250725573E+02  0.51100000000E-03 0. -1.
        -11    1    4    4    0    0 -0.11271945952E+02 -0.20805079306E+01 -0.27257908779E+01  0.11781986885E+02  0.51100000000E-03 0.  1.
         12    1    4    4    0    0  0.11209796508E+02 -0.13890798463E+01 -0.10370807354E+02  0.15334364211E+02  0.00000000000E+00 0. -1.
</event>
<event>
 8    1  0.1265908E-006  0.9118800E+02  0.7816164E-02  0.1184000E+00
        -11   -1    0    0    0    0  0.00000000000E+00  0.00000000000E+00  0.45593999997E+02  0.45594000000E+02  0.51100000000E-03 0. -1.
         11   -1    0    0    0    0 -0.00000000000E+00 -0.00000000000E+00 -0.45593999997E+02  0.45594000000E+02  0.51100000000E-03 0.  1.
         23    2    1    2    0    0 -0.88817841970E-15 -0.71054273576E-14 -0.88817841970E-15  0.91188000000E+02  0.91188000000E+02 0.  0.
    9900012    2    3    3    0    0 -0.46647415058E+01 -0.35988780887E+02  0.62325956787E+01  0.54366845592E+02  0.39999456093E+02 0.  0.
         12    1    3    3    0    0  0.46647415058E+01  0.35988780887E+02 -0.62325956787E+01  0.36821154408E+02  0.00000000000E+00 0. -1.
         11    1    4    4    0    0  0.37810308753E+01 -0.10475024168E+02  0.67105239456E+00  0.11156730586E+02  0.51100000000E-03 0. -1.
        -11    1    4    4    0    0 -0.36951179904E+01 -0.47174454096E+01 -0.13393762450E+02  0.14673140802E+02  0.51100000000E-03 0.  1.
         12    1    4    4    0    0 -0.47506543907E+01 -0.20796311309E+02  0.18955305735E+02  0.28536974204E+02  0.00000000000E+00 0. -1.
</event>
<event>
 8    1  0.1265908E-006  0.9118800E+02  0.7816164E-02  0.1184000E+00
        -11   -1    0    0    0    0  0.00000000000E+00  0.00000000000E+00  0.45593999997E+02  0.45594000000E+02  0.51100000000E-03 0. -1.
         11   -1    0    0    0    0 -0.00000000000E+00 -0.00000000000E+00 -0.45593999997E+02  0.45594000000E+02  0.51100000000E-03 0.  1.
         23    2    1    2    0    0  0.00000000000E+00  0.00000000000E+00  0.00000000000E+00  0.91188000000E+02  0.91188000000E+02 0.  0.
    9900012    2    3    3    0    0  0.15455540173E+02 -0.20839582600E+02  0.26126962925E+02  0.54367080448E+02  0.39999991496E+02 0.  0.
        -12    1    3    3    0    0 -0.15455540173E+02  0.20839582600E+02 -0.26126962925E+02  0.36820919552E+02  0.00000000000E+00 0.  1.
         11    1    4    4    0    0  0.51056976812E+01 -0.21859700135E+01  0.44300424781E+01  0.71043571370E+01  0.51100000000E-03 0.  1.
        -11    1    4    4    0    0  0.17794316224E+02 -0.25228115656E+02  0.20936010239E+02  0.37301635814E+02  0.51100000000E-03 0. -1.
        -12    1    4    4    0    0 -0.74444737320E+01  0.65745030698E+01  0.76091020839E+00  0.99610874962E+01  0.00000000000E+00 0.  1.
</event>
<event>
 8    1  0.1265908E-006  0.9118800E+02  0.7816164E-02  0.1184000E+00
        -11   -1    0    0    0    0  0.00000000000E+00  0.00000000000E+00  0.45593999997E+02  0.45594000000E+02  0.51100000000E-03 0. -1.
         11   -1    0    0    0    0 -0.00000000000E+00 -0.00000000000E+00 -0.45593999997E+02  0.45594000000E+02  0.51100000000E-03 0.  1.
         23    2    1    2    0    0  0.00000000000E+00  0.55511151231E-16  0.00000000000E+00  0.91188000000E+02  0.91188000000E+02 0.  0.
    9900012    2    3    3    0    0  0.35673018127E+02  0.47143216871E+00  0.91100290303E+01  0.54367094260E+02  0.40000022985E+02 0.  0.
        -12    1    3    3    0    0 -0.35673018127E+02 -0.47143216871E+00 -0.91100290303E+01  0.36820905740E+02  0.00000000000E+00 0.  1.
         11    1    4    4    0    0  0.55541030926E+01  0.86247016489E+01  0.13418006917E+02  0.16890128761E+02  0.51100000000E-03 0. -1.
        -11    1    4    4    0    0  0.14629330445E+01  0.79322237288E-01 -0.73615222768E+01  0.75058960560E+01  0.51100000000E-03 0.  1.
         12    1    4    4    0    0  0.28655981990E+02 -0.82325917175E+01  0.30535443903E+01  0.29971069443E+02  0.00000000000E+00 0. -1.
</event>
<event>
 8    1  0.1265908E-006  0.9118800E+02  0.7816164E-02  0.1184000E+00
        -11   -1    0    0    0    0  0.00000000000E+00  0.00000000000E+00  0.45593999997E+02  0.45594000000E+02  0.51100000000E-03 0.  1.
         11   -1    0    0    0    0 -0.00000000000E+00 -0.00000000000E+00 -0.45593999997E+02  0.45594000000E+02  0.51100000000E-03 0. -1.
         23    2    1    2    0    0  0.88817841970E-15 -0.17763568394E-14  0.71054273576E-14  0.91188000000E+02  0.91188000000E+02 0.  0.
    9900012    2    3    3    0    0  0.44990282757E+01 -0.80556601617E+01  0.35646096781E+02  0.54367093822E+02  0.40000021986E+02 0.  0.
         12    1    3    3    0    0 -0.44990282757E+01  0.80556601617E+01 -0.35646096781E+02  0.36820906178E+02  0.00000000000E+00 0. -1.
         11    1    4    4    0    0 -0.41711382383E+01  0.56763033747E+01  0.26344277699E+02  0.27269759477E+02  0.51100000000E-03 0. -1.
        -11    1    4    4    0    0  0.49118904297E+01  0.81739045645E+00  0.10902111525E+02  0.11985442450E+02  0.51100000000E-03 0.  1.
        -12    1    4    4    0    0  0.37582760844E+01 -0.14549353993E+02 -0.16002924433E+01  0.15111891895E+02  0.00000000000E+00 0.  1.
</event>
<event>
 8    1  0.1265908E-006  0.9118800E+02  0.7816164E-02  0.1184000E+00
        -11   -1    0    0    0    0  0.00000000000E+00  0.00000000000E+00  0.45593999997E+02  0.45594000000E+02  0.51100000000E-03 0.  1.
         11   -1    0    0    0    0 -0.00000000000E+00 -0.00000000000E+00 -0.45593999997E+02  0.45594000000E+02  0.51100000000E-03 0. -1.
         23    2    1    2    0    0  0.00000000000E+00 -0.35527136788E-14  0.00000000000E+00  0.91188000000E+02  0.91188000000E+02 0.  0.
    9900012    2    3    3    0    0  0.10348617998E+02  0.21995766244E+02 -0.27656353487E+02  0.54367061455E+02  0.39999948200E+02 0.  0.
        -12    1    3    3    0    0 -0.10348617998E+02 -0.21995766244E+02  0.27656353487E+02  0.36820938545E+02  0.00000000000E+00 0.  1.
         11    1    4    4    0    0 -0.89647383841E+00 -0.75452377382E+01 -0.22973533178E+01  0.79380167799E+01  0.51100000000E-03 0. -1.
        -11    1    4    4    0    0  0.13036699442E+01 -0.27041039897E+01 -0.78702151489E+01  0.84233022302E+01  0.51100000000E-03 0.  1.
         12    1    4    4    0    0  0.99414218919E+01  0.32245107972E+02 -0.17488785020E+02  0.38005742445E+02  0.00000000000E+00 0. -1.
</event>
<event>
 8    1  0.1265908E-006  0.9118800E+02  0.7816164E-02  0.1184000E+00
        -11   -1    0    0    0    0  0.00000000000E+00  0.00000000000E+00  0.45593999997E+02  0.45594000000E+02  0.51100000000E-03 0.  1.
         11   -1    0    0    0    0 -0.00000000000E+00 -0.00000000000E+00 -0.45593999997E+02  0.45594000000E+02  0.51100000000E-03 0. -1.
         23    2    1    2    0    0  0.00000000000E+00  0.88817841970E-15  0.00000000000E+00  0.91188000000E+02  0.91188000000E+02 0.  0.
    9900012    2    3    3    0    0 -0.20766241729E+02  0.39945422558E+01  0.30142773368E+02  0.54367082715E+02  0.39999996666E+02 0.  0.
         12    1    3    3    0    0  0.20766241729E+02 -0.39945422558E+01 -0.30142773368E+02  0.36820917285E+02  0.00000000000E+00 0. -1.
         11    1    4    4    0    0 -0.80820188216E+01  0.14234193656E+02  0.98236915975E+01  0.19090212522E+02  0.51100000000E-03 0. -1.
        -11    1    4    4    0    0 -0.19399494991E+02 -0.75498879167E+01  0.18423565891E+02  0.27798722882E+02  0.51100000000E-03 0.  1.
         12    1    4    4    0    0  0.67152720834E+01 -0.26897634839E+01  0.18955158791E+01  0.74781473108E+01  0.00000000000E+00 0. -1.
</event>
<event>
 8    1  0.1265908E-006  0.9118800E+02  0.7816164E-02  0.1184000E+00
        -11   -1    0    0    0    0  0.00000000000E+00  0.00000000000E+00  0.45593999997E+02  0.45594000000E+02  0.51100000000E-03 0.  1.
         11   -1    0    0    0    0 -0.00000000000E+00 -0.00000000000E+00 -0.45593999997E+02  0.45594000000E+02  0.51100000000E-03 0. -1.
         23    2    1    2    0    0  0.00000000000E+00  0.00000000000E+00  0.00000000000E+00  0.91188000000E+02  0.91188000000E+02 0.  0.
    9900012    2    3    3    0    0 -0.25866638967E+02  0.26188907739E+02 -0.91556282911E+00  0.54367079923E+02  0.39999990301E+02 0.  0.
        -12    1    3    3    0    0  0.25866638967E+02 -0.26188907739E+02  0.91556282911E+00  0.36820920077E+02  0.00000000000E+00 0.  1.
         11    1    4    4    0    0 -0.17575815578E+02  0.12486872430E+02 -0.16280435956E+02  0.27016363032E+02  0.51100000000E-03 0. -1.
        -11    1    4    4    0    0  0.46846021440E+01  0.23457135807E+01  0.49419999718E+01  0.72021686618E+01  0.51100000000E-03 0.  1.
         12    1    4    4    0    0 -0.12975425533E+02  0.11356321728E+02  0.10422873155E+02  0.20148548230E+02  0.00000000000E+00 0. -1.
</event>
<event>
 8    1  0.1265908E-006  0.9118800E+02  0.7816164E-02  0.1184000E+00
        -11   -1    0    0    0    0  0.00000000000E+00  0.00000000000E+00  0.45593999997E+02  0.45594000000E+02  0.51100000000E-03 0.  1.
         11   -1    0    0    0    0 -0.00000000000E+00 -0.00000000000E+00 -0.45593999997E+02  0.45594000000E+02  0.51100000000E-03 0. -1.
         23    2    1    2    0    0  0.88817841970E-15 -0.35527136788E-14  0.71054273576E-14  0.91188000000E+02  0.91188000000E+02 0.  0.
    9900012    2    3    3    0    0 -0.76273725253E+01  0.19978177996E+02 -0.29974635856E+02  0.54367038546E+02  0.39999895973E+02 0.  0.
        -12    1    3    3    0    0  0.76273725253E+01 -0.19978177996E+02  0.29974635856E+02  0.36820961454E+02  0.00000000000E+00 0.  1.
         11    1    4    4    0    0  0.68474681826E+01  0.11733856251E+02 -0.33429171861E+02  0.36084355815E+02  0.51100000000E-03 0. -1.
        -11    1    4    4    0    0 -0.16676904253E+01  0.22935910052E+01  0.30359434081E+01  0.41543596007E+01  0.51100000000E-03 0.  1.
         12    1    4    4    0    0 -0.12807150283E+02  0.59507307401E+01  0.41859259659E+00  0.14128323130E+02  0.00000000000E+00 0. -1.
</event>
<event>
 8    1  0.1265908E-006  0.9118800E+02  0.7816164E-02  0.1184000E+00
        -11   -1    0    0    0    0  0.00000000000E+00  0.00000000000E+00  0.45593999997E+02  0.45594000000E+02  0.51100000000E-03 0. -1.
         11   -1    0    0    0    0 -0.00000000000E+00 -0.00000000000E+00 -0.45593999997E+02  0.45594000000E+02  0.51100000000E-03 0.  1.
         23    2    1    2    0    0  0.35527136788E-14  0.00000000000E+00  0.00000000000E+00  0.91188000000E+02  0.91188000000E+02 0.  0.
    9900012    2    3    3    0    0  0.14410190194E+02 -0.10231905692E+02 -0.32302232850E+02  0.54367085799E+02  0.40000003696E+02 0.  0.
         12    1    3    3    0    0 -0.14410190194E+02  0.10231905692E+02  0.32302232850E+02  0.36820914201E+02  0.00000000000E+00 0. -1.
         11    1    4    4    0    0 -0.39559899884E+01 -0.21520724014E+01  0.68664217154E+01  0.82115175116E+01  0.51100000000E-03 0. -1.
        -11    1    4    4    0    0  0.15920121675E+02 -0.65833369935E+01 -0.39665659490E+02  0.43245290416E+02  0.51100000000E-03 0.  1.
        -12    1    4    4    0    0  0.24460585079E+01 -0.14964962975E+01  0.49700492531E+00  0.29102778713E+01  0.00000000000E+00 0.  1.
</event>
<event>
 8    1  0.1265908E-006  0.9118800E+02  0.7816164E-02  0.1184000E+00
        -11   -1    0    0    0    0  0.00000000000E+00  0.00000000000E+00  0.45593999997E+02  0.45594000000E+02  0.51100000000E-03 0. -1.
         11   -1    0    0    0    0 -0.00000000000E+00 -0.00000000000E+00 -0.45593999997E+02  0.45594000000E+02  0.51100000000E-03 0.  1.
         23    2    1    2    0    0 -0.35527136788E-14  0.00000000000E+00  0.35527136788E-14  0.91188000000E+02  0.91188000000E+02 0.  0.
    9900012    2    3    3    0    0 -0.17559986320E+02 -0.18831861391E+02  0.26320913750E+02  0.54367046405E+02  0.39999913889E+02 0.  0.
        -12    1    3    3    0    0  0.17559986320E+02  0.18831861391E+02 -0.26320913750E+02  0.36820953595E+02  0.00000000000E+00 0.  1.
         11    1    4    4    0    0  0.32988491619E+01 -0.53494459706E+01  0.37089863746E+01  0.72976405895E+01  0.51100000000E-03 0. -1.
        -11    1    4    4    0    0  0.41141768912E+01 -0.13931314162E+02  0.15179170423E+02  0.21009882931E+02  0.51100000000E-03 0.  1.
        -12    1    4    4    0    0 -0.24973012373E+02  0.44889874117E+00  0.74327569528E+01  0.26059522885E+02  0.00000000000E+00 0.  1.
</event>
<event>
 8    1  0.1265908E-006  0.9118800E+02  0.7816164E-02  0.1184000E+00
        -11   -1    0    0    0    0  0.00000000000E+00  0.00000000000E+00  0.45593999997E+02  0.45594000000E+02  0.51100000000E-03 0. -1.
         11   -1    0    0    0    0 -0.00000000000E+00 -0.00000000000E+00 -0.45593999997E+02  0.45594000000E+02  0.51100000000E-03 0.  1.
         23    2    1    2    0    0  0.00000000000E+00  0.35527136788E-14  0.17763568394E-14  0.91188000000E+02  0.91188000000E+02 0.  0.
    9900012    2    3    3    0    0 -0.26604251222E+02 -0.24189787549E+02 -0.79276441848E+01  0.54367088183E+02  0.40000009130E+02 0.  0.
         12    1    3    3    0    0  0.26604251222E+02  0.24189787549E+02  0.79276441848E+01  0.36820911817E+02  0.00000000000E+00 0. -1.
         11    1    4    4    0    0 -0.15195913853E+02 -0.17065036377E+02  0.65660624802E+01  0.23774869950E+02  0.51100000000E-03 0. -1.
        -11    1    4    4    0    0 -0.64470619283E+01 -0.48654922126E+01  0.55633100598E+01  0.98075502069E+01  0.51100000000E-03 0.  1.
         12    1    4    4    0    0 -0.49612754402E+01 -0.22592589593E+01 -0.20057016725E+02  0.20784668026E+02  0.00000000000E+00 0. -1.
</event>
<event>
 8    1  0.1265908E-006  0.9118800E+02  0.7816164E-02  0.1184000E+00
        -11   -1    0    0    0    0  0.00000000000E+00  0.00000000000E+00  0.45593999997E+02  0.45594000000E+02  0.51100000000E-03 0. -1.
         11   -1    0    0    0    0 -0.00000000000E+00 -0.00000000000E+00 -0.45593999997E+02  0.45594000000E+02  0.51100000000E-03 0.  1.
         23    2    1    2    0    0  0.35527136788E-14 -0.88817841970E-15 -0.71054273576E-14  0.91188000000E+02  0.91188000000E+02 0.  0.
    9900012    2    3    3    0    0  0.12971037577E+02  0.42162997852E+01 -0.34201675716E+02  0.54367087172E+02  0.40000006825E+02 0.  0.
         12    1    3    3    0    0 -0.12971037577E+02 -0.42162997852E+01  0.34201675716E+02  0.36820912828E+02  0.00000000000E+00 0. -1.
         11    1    4    4    0    0  0.17260087490E+02  0.74051284965E+01 -0.58033048044E+01  0.19657693027E+02  0.51100000000E-03 0. -1.
        -11    1    4    4    0    0 -0.49164684401E+01  0.74931846376E+01 -0.10022566474E+02  0.13445122422E+02  0.51100000000E-03 0.  1.
        -12    1    4    4    0    0  0.62741852751E+00 -0.10682013349E+02 -0.18375804437E+02  0.21264271723E+02  0.00000000000E+00 0.  1.
</event>
<event>
 8    1  0.1265908E-006  0.9118800E+02  0.7816164E-02  0.1184000E+00
        -11   -1    0    0    0    0  0.00000000000E+00  0.00000000000E+00  0.45593999997E+02  0.45594000000E+02  0.51100000000E-03 0. -1.
         11   -1    0    0    0    0 -0.00000000000E+00 -0.00000000000E+00 -0.45593999997E+02  0.45594000000E+02  0.51100000000E-03 0.  1.
         23    2    1    2    0    0 -0.35527136788E-14 -0.17763568394E-14  0.00000000000E+00  0.91188000000E+02  0.91188000000E+02 0.  0.
    9900012    2    3    3    0    0  0.27236068781E+02  0.84744435692E+01 -0.23284334246E+02  0.54367083964E+02  0.39999999513E+02 0.  0.
        -12    1    3    3    0    0 -0.27236068781E+02 -0.84744435692E+01  0.23284334246E+02  0.36820916036E+02  0.00000000000E+00 0.  1.
         11    1    4    4    0    0  0.99085315464E+01  0.42725965910E+01 -0.10408487588E+02  0.14992354490E+02  0.51100000000E-03 0. -1.
        -11    1    4    4    0    0  0.22903538812E+02 -0.83344385922E+00 -0.18930281760E+02  0.29725784878E+02  0.51100000000E-03 0.  1.
        -12    1    4    4    0    0 -0.55760015783E+01  0.50352908375E+01  0.60544351022E+01  0.96489445965E+01  0.00000000000E+00 0.  1.
</event>
<event>
 8    1  0.1265908E-006  0.9118800E+02  0.7816164E-02  0.1184000E+00
        -11   -1    0    0    0    0  0.00000000000E+00  0.00000000000E+00  0.45593999997E+02  0.45594000000E+02  0.51100000000E-03 0. -1.
         11   -1    0    0    0    0 -0.00000000000E+00 -0.00000000000E+00 -0.45593999997E+02  0.45594000000E+02  0.51100000000E-03 0.  1.
         23    2    1    2    0    0  0.00000000000E+00  0.00000000000E+00  0.00000000000E+00  0.91188000000E+02  0.91188000000E+02 0.  0.
    9900012    2    3    3    0    0  0.22047404828E+02 -0.16934457679E+02  0.24143651672E+02  0.54367084306E+02  0.40000000292E+02 0.  0.
        -12    1    3    3    0    0 -0.22047404828E+02  0.16934457679E+02 -0.24143651672E+02  0.36820915694E+02  0.00000000000E+00 0.  1.
         11    1    4    4    0    0  0.21920982468E+01  0.32349468366E+01  0.10615362734E+01  0.40493252870E+01  0.51100000000E-03 0. -1.
        -11    1    4    4    0    0  0.17552119631E+01  0.44994960290E+01 -0.62725621484E+01  0.79165187877E+01  0.51100000000E-03 0.  1.
         12    1    4    4    0    0  0.18100094618E+02 -0.24668900544E+02  0.29354677547E+02  0.42401240231E+02  0.00000000000E+00 0. -1.
</event>
<event>
 8    1  0.1265908E-006  0.9118800E+02  0.7816164E-02  0.1184000E+00
        -11   -1    0    0    0    0  0.00000000000E+00  0.00000000000E+00  0.45593999997E+02  0.45594000000E+02  0.51100000000E-03 0.  1.
         11   -1    0    0    0    0 -0.00000000000E+00 -0.00000000000E+00 -0.45593999997E+02  0.45594000000E+02  0.51100000000E-03 0. -1.
         23    2    1    2    0    0  0.00000000000E+00 -0.35527136788E-14  0.35527136788E-14  0.91188000000E+02  0.91188000000E+02 0.  0.
    9900012    2    3    3    0    0  0.67364371956E+01 -0.25050034924E+02  0.26132270041E+02  0.54367090543E+02  0.40000014510E+02 0.  0.
         12    1    3    3    0    0 -0.67364371956E+01  0.25050034924E+02 -0.26132270041E+02  0.36820909457E+02  0.00000000000E+00 0. -1.
         11    1    4    4    0    0 -0.47796784689E+01 -0.25516723812E+02  0.17201412317E+02  0.31142207795E+02  0.51100000000E-03 0. -1.
        -11    1    4    4    0    0  0.15163092489E+02 -0.39664154340E+01  0.70322032503E+01  0.17178582829E+02  0.51100000000E-03 0.  1.
        -12    1    4    4    0    0 -0.36469768242E+01  0.44331043228E+01  0.18986544741E+01  0.60462999185E+01  0.00000000000E+00 0.  1.
</event>
<event>
 8    1  0.1265908E-006  0.9118800E+02  0.7816164E-02  0.1184000E+00
        -11   -1    0    0    0    0  0.00000000000E+00  0.00000000000E+00  0.45593999997E+02  0.45594000000E+02  0.51100000000E-03 0.  1.
         11   -1    0    0    0    0 -0.00000000000E+00 -0.00000000000E+00 -0.45593999997E+02  0.45594000000E+02  0.51100000000E-03 0. -1.
         23    2    1    2    0    0  0.00000000000E+00  0.00000000000E+00  0.00000000000E+00  0.91188000000E+02  0.91188000000E+02 0.  0.
    9900012    2    3    3    0    0 -0.27102214238E+02  0.94310452621E+01 -0.23071718159E+02  0.54367098190E+02  0.40000031943E+02 0.  0.
        -12    1    3    3    0    0  0.27102214238E+02 -0.94310452621E+01  0.23071718159E+02  0.36820901810E+02  0.00000000000E+00 0.  1.
         11    1    4    4    0    0 -0.93991819187E+01 -0.41960872999E+01 -0.14641267706E+02  0.17897443663E+02  0.51100000000E-03 0. -1.
        -11    1    4    4    0    0  0.40588183632E+01  0.12177456193E+02 -0.69806667217E+01  0.14611439148E+02  0.51100000000E-03 0.  1.
        -12    1    4    4    0    0 -0.21761850682E+02  0.14496763695E+01 -0.14497837316E+01  0.21858215379E+02  0.00000000000E+00 0.  1.
</event>
<event>
 8    1  0.1265908E-006  0.9118800E+02  0.7816164E-02  0.1184000E+00
        -11   -1    0    0    0    0  0.00000000000E+00  0.00000000000E+00  0.45593999997E+02  0.45594000000E+02  0.51100000000E-03 0.  1.
         11   -1    0    0    0    0 -0.00000000000E+00 -0.00000000000E+00 -0.45593999997E+02  0.45594000000E+02  0.51100000000E-03 0. -1.
         23    2    1    2    0    0 -0.35527136788E-14  0.17763568394E-14  0.00000000000E+00  0.91188000000E+02  0.91188000000E+02 0.  0.
    9900012    2    3    3    0    0 -0.25097173786E+02  0.94531867494E+01 -0.25229907434E+02  0.54367094241E+02  0.40000022942E+02 0.  0.
        -12    1    3    3    0    0  0.25097173786E+02 -0.94531867494E+01  0.25229907434E+02  0.36820905759E+02  0.00000000000E+00 0.  1.
         11    1    4    4    0    0 -0.38325814525E+01 -0.50477350297E+01  0.65605436971E+01  0.91218991105E+01  0.51100000000E-03 0. -1.
        -11    1    4    4    0    0  0.26872450368E+01  0.23785755270E+01  0.61952571571E-01  0.35892542133E+01  0.51100000000E-03 0.  1.
         12    1    4    4    0    0 -0.23951837371E+02  0.12122346252E+02 -0.31852403702E+02  0.41655940917E+02  0.00000000000E+00 0. -1.
</event>
<event>
 8    1  0.1265908E-006  0.9118800E+02  0.7816164E-02  0.1184000E+00
        -11   -1    0    0    0    0  0.00000000000E+00  0.00000000000E+00  0.45593999997E+02  0.45594000000E+02  0.51100000000E-03 0.  1.
         11   -1    0    0    0    0 -0.00000000000E+00 -0.00000000000E+00 -0.45593999997E+02  0.45594000000E+02  0.51100000000E-03 0. -1.
         23    2    1    2    0    0  0.35527136788E-14  0.35527136788E-14 -0.16930901126E-14  0.91188000000E+02  0.91188000000E+02 0.  0.
    9900012    2    3    3    0    0  0.26422912789E+02  0.25642737351E+02 -0.24491426069E+00  0.54367078201E+02  0.39999986376E+02 0.  0.
        -12    1    3    3    0    0 -0.26422912789E+02 -0.25642737351E+02  0.24491426069E+00  0.36820921799E+02  0.00000000000E+00 0.  1.
         11    1    4    4    0    0  0.27842233884E+01  0.27124851404E+02 -0.83156897169E+01  0.28507194869E+02  0.51100000000E-03 0. -1.
        -11    1    4    4    0    0  0.13821114480E+02 -0.79396230068E+00  0.12804108449E+01  0.13902986507E+02  0.51100000000E-03 0.  1.
         12    1    4    4    0    0  0.98175749204E+01 -0.68815175237E+00  0.67903646114E+01  0.11956896826E+02  0.00000000000E+00 0. -1.
</event>
<event>
 8    1  0.1265908E-006  0.9118800E+02  0.7816164E-02  0.1184000E+00
        -11   -1    0    0    0    0  0.00000000000E+00  0.00000000000E+00  0.45593999997E+02  0.45594000000E+02  0.51100000000E-03 0.  1.
         11   -1    0    0    0    0 -0.00000000000E+00 -0.00000000000E+00 -0.45593999997E+02  0.45594000000E+02  0.51100000000E-03 0. -1.
         23    2    1    2    0    0  0.35527136788E-14  0.35527136788E-14  0.00000000000E+00  0.91188000000E+02  0.91188000000E+02 0.  0.
    9900012    2    3    3    0    0 -0.18839679164E+02  0.31354423787E+02 -0.42126682459E+01  0.54367082361E+02  0.39999995857E+02 0.  0.
         12    1    3    3    0    0  0.18839679164E+02 -0.31354423787E+02  0.42126682459E+01  0.36820917639E+02  0.00000000000E+00 0. -1.
         11    1    4    4    0    0 -0.99632507544E+01 -0.40389627876E+01 -0.29145879424E+01  0.11138869293E+02  0.51100000000E-03 0. -1.
        -11    1    4    4    0    0 -0.93579298629E+01  0.49971222515E+01 -0.64196135230E+01  0.12399738713E+02  0.51100000000E-03 0.  1.
        -12    1    4    4    0    0  0.48150145299E+00  0.30396264324E+02  0.51215332195E+01  0.30828474354E+02  0.00000000000E+00 0.  1.
</event>
<event>
 8    1  0.1265908E-006  0.9118800E+02  0.7816164E-02  0.1184000E+00
        -11   -1    0    0    0    0  0.00000000000E+00  0.00000000000E+00  0.45593999997E+02  0.45594000000E+02  0.51100000000E-03 0.  1.
         11   -1    0    0    0    0 -0.00000000000E+00 -0.00000000000E+00 -0.45593999997E+02  0.45594000000E+02  0.51100000000E-03 0. -1.
         23    2    1    2    0    0  0.00000000000E+00 -0.26645352591E-14  0.00000000000E+00  0.91188000000E+02  0.91188000000E+02 0.  0.
    9900012    2    3    3    0    0 -0.49623043063E+01  0.38284117130E+01 -0.36283570095E+02  0.54367100240E+02  0.40000036618E+02 0.  0.
        -12    1    3    3    0    0  0.49623043063E+01 -0.38284117130E+01  0.36283570095E+02  0.36820899760E+02  0.00000000000E+00 0.  1.
         11    1    4    4    0    0 -0.10966141440E+02  0.15583256023E+02 -0.23331844862E+02  0.30124227978E+02  0.51100000000E-03 0. -1.
        -11    1    4    4    0    0 -0.44254218599E+01  0.72011325259E-01 -0.12264748147E+01  0.45927970781E+01  0.51100000000E-03 0.  1.
         12    1    4    4    0    0  0.10429258993E+02 -0.11826855635E+02 -0.11725250418E+02  0.19650075184E+02  0.00000000000E+00 0. -1.
</event>
<event>
 8    1  0.1265908E-006  0.9118800E+02  0.7816164E-02  0.1184000E+00
        -11   -1    0    0    0    0  0.00000000000E+00  0.00000000000E+00  0.45593999997E+02  0.45594000000E+02  0.51100000000E-03 0. -1.
         11   -1    0    0    0    0 -0.00000000000E+00 -0.00000000000E+00 -0.45593999997E+02  0.45594000000E+02  0.51100000000E-03 0.  1.
         23    2    1    2    0    0  0.00000000000E+00  0.00000000000E+00  0.71054273576E-14  0.91188000000E+02  0.91188000000E+02 0.  0.
    9900012    2    3    3    0    0 -0.15396509884E+02  0.92256775842E+01  0.32149882904E+02  0.54367073692E+02  0.39999976095E+02 0.  0.
        -12    1    3    3    0    0  0.15396509884E+02 -0.92256775842E+01 -0.32149882904E+02  0.36820926308E+02  0.00000000000E+00 0.  1.
         11    1    4    4    0    0 -0.16220928194E+02  0.45570327823E-01  0.15523997350E+02  0.22452507257E+02  0.51100000000E-03 0. -1.
        -11    1    4    4    0    0 -0.95358295393E+00 -0.54918459741E+01 -0.37682800348E+01  0.67282707537E+01  0.51100000000E-03 0.  1.
         12    1    4    4    0    0  0.17780012640E+01  0.14671953230E+02  0.20394165588E+02  0.25186295681E+02  0.00000000000E+00 0. -1.
</event>
<event>
 8    1  0.1265908E-006  0.9118800E+02  0.7816164E-02  0.1184000E+00
        -11   -1    0    0    0    0  0.00000000000E+00  0.00000000000E+00  0.45593999997E+02  0.45594000000E+02  0.51100000000E-03 0.  1.
         11   -1    0    0    0    0 -0.00000000000E+00 -0.00000000000E+00 -0.45593999997E+02  0.45594000000E+02  0.51100000000E-03 0. -1.
         23    2    1    2    0    0  0.35527136788E-14  0.35527136788E-14  0.13322676296E-14  0.91188000000E+02  0.91188000000E+02 0.  0.
    9900012    2    3    3    0    0  0.29401631946E+02  0.21872644667E+02  0.35933105552E+01  0.54367076240E+02  0.39999981905E+02 0.  0.
        -12    1    3    3    0    0 -0.29401631946E+02 -0.21872644667E+02 -0.35933105552E+01  0.36820923760E+02  0.00000000000E+00 0.  1.
         11    1    4    4    0    0  0.23287886166E+02  0.19792072623E+02  0.77182883849E+01  0.31521798119E+02  0.51100000000E-03 0. -1.
        -11    1    4    4    0    0  0.33161072865E+01  0.75915939496E+00  0.88632109655E+01  0.94936504782E+01  0.51100000000E-03 0.  1.
         12    1    4    4    0    0  0.27976384930E+01  0.13214126483E+01 -0.12988188795E+02  0.13351627642E+02  0.00000000000E+00 0. -1.
</event>
<event>
 8    1  0.1265908E-006  0.9118800E+02  0.7816164E-02  0.1184000E+00
        -11   -1    0    0    0    0  0.00000000000E+00  0.00000000000E+00  0.45593999997E+02  0.45594000000E+02  0.51100000000E-03 0. -1.
         11   -1    0    0    0    0 -0.00000000000E+00 -0.00000000000E+00 -0.45593999997E+02  0.45594000000E+02  0.51100000000E-03 0.  1.
         23    2    1    2    0    0 -0.35527136788E-14  0.35527136788E-14  0.00000000000E+00  0.91188000000E+02  0.91188000000E+02 0.  0.
    9900012    2    3    3    0    0  0.28922964172E+02 -0.18765991633E+02  0.12925925943E+02  0.54367083934E+02  0.39999999445E+02 0.  0.
        -12    1    3    3    0    0 -0.28922964172E+02  0.18765991633E+02 -0.12925925943E+02  0.36820916066E+02  0.00000000000E+00 0.  1.
         11    1    4    4    0    0  0.11628072145E+02 -0.12461954668E+02  0.11002987275E+02  0.20287387836E+02  0.51100000000E-03 0. -1.
        -11    1    4    4    0    0 -0.28128408096E+01 -0.12858317083E+01  0.11020557061E+02  0.11446314463E+02  0.51100000000E-03 0.  1.
        -12    1    4    4    0    0  0.20107732836E+02 -0.50182052562E+01 -0.90976183932E+01  0.22633381635E+02  0.00000000000E+00 0.  1.
</event>
<event>
 8    1  0.1265908E-006  0.9118800E+02  0.7816164E-02  0.1184000E+00
        -11   -1    0    0    0    0  0.00000000000E+00  0.00000000000E+00  0.45593999997E+02  0.45594000000E+02  0.51100000000E-03 0. -1.
         11   -1    0    0    0    0 -0.00000000000E+00 -0.00000000000E+00 -0.45593999997E+02  0.45594000000E+02  0.51100000000E-03 0.  1.
         23    2    1    2    0    0  0.35527136788E-14  0.00000000000E+00  0.35527136788E-14  0.91188000000E+02  0.91188000000E+02 0.  0.
    9900012    2    3    3    0    0 -0.27409481271E+02 -0.96935724500E+01  0.22595004483E+02  0.54367092380E+02  0.40000018698E+02 0.  0.
        -12    1    3    3    0    0  0.27409481271E+02  0.96935724500E+01 -0.22595004483E+02  0.36820907620E+02  0.00000000000E+00 0.  1.
         11    1    4    4    0    0 -0.67013928957E+01 -0.15377597044E+02  0.12242373134E+02  0.20766676619E+02  0.51100000000E-03 0. -1.
        -11    1    4    4    0    0 -0.17249259578E+02  0.12295922106E+02  0.13901751310E+02  0.25337429747E+02  0.51100000000E-03 0.  1.
        -12    1    4    4    0    0 -0.34588287973E+01 -0.66118975115E+01 -0.35491199614E+01  0.82629860130E+01  0.00000000000E+00 0.  1.
</event>
<event>
 8    1  0.1265908E-006  0.9118800E+02  0.7816164E-02  0.1184000E+00
        -11   -1    0    0    0    0  0.00000000000E+00  0.00000000000E+00  0.45593999997E+02  0.45594000000E+02  0.51100000000E-03 0. -1.
         11   -1    0    0    0    0 -0.00000000000E+00 -0.00000000000E+00 -0.45593999997E+02  0.45594000000E+02  0.51100000000E-03 0.  1.
         23    2    1    2    0    0 -0.22204460493E-15 -0.17763568394E-14  0.00000000000E+00  0.91188000000E+02  0.91188000000E+02 0.  0.
    9900012    2    3    3    0    0 -0.12956839495E+01  0.12586810913E+02  0.34578514087E+02  0.54367078741E+02  0.39999987606E+02 0.  0.
        -12    1    3    3    0    0  0.12956839495E+01 -0.12586810913E+02 -0.34578514087E+02  0.36820921259E+02  0.00000000000E+00 0.  1.
         11    1    4    4    0    0  0.26382598592E+01 -0.80960584616E+01  0.18347730459E+02  0.20227352544E+02  0.51100000000E-03 0. -1.
        -11    1    4    4    0    0 -0.78587079712E+01  0.29613538402E+01 -0.17631264189E+01  0.85812308309E+01  0.51100000000E-03 0.  1.
         12    1    4    4    0    0  0.39247641625E+01  0.17721515535E+02  0.17993910047E+02  0.25558495366E+02  0.00000000000E+00 0. -1.
</event>
<event>
 8    1  0.1265908E-006  0.9118800E+02  0.7816164E-02  0.1184000E+00
        -11   -1    0    0    0    0  0.00000000000E+00  0.00000000000E+00  0.45593999997E+02  0.45594000000E+02  0.51100000000E-03 0.  1.
         11   -1    0    0    0    0 -0.00000000000E+00 -0.00000000000E+00 -0.45593999997E+02  0.45594000000E+02  0.51100000000E-03 0. -1.
         23    2    1    2    0    0  0.88817841970E-15 -0.35527136788E-14  0.35527136788E-14  0.91188000000E+02  0.91188000000E+02 0.  0.
    9900012    2    3    3    0    0 -0.56810498041E+01  0.21974750824E+02 -0.28993377687E+02  0.54367082706E+02  0.39999996645E+02 0.  0.
        -12    1    3    3    0    0  0.56810498041E+01 -0.21974750824E+02  0.28993377687E+02  0.36820917294E+02  0.00000000000E+00 0.  1.
         11    1    4    4    0    0  0.13017865401E+01  0.64733983391E+01  0.26977492759E+00  0.66085030851E+01  0.51100000000E-03 0. -1.
        -11    1    4    4    0    0 -0.15643839235E+02  0.24688252748E+01 -0.27861142547E+02  0.32047902717E+02  0.51100000000E-03 0.  1.
        -12    1    4    4    0    0  0.86610028908E+01  0.13032527210E+02 -0.14020100676E+01  0.15710676904E+02  0.00000000000E+00 0.  1.
</event>
<event>
 8    1  0.1265908E-006  0.9118800E+02  0.7816164E-02  0.1184000E+00
        -11   -1    0    0    0    0  0.00000000000E+00  0.00000000000E+00  0.45593999997E+02  0.45594000000E+02  0.51100000000E-03 0. -1.
         11   -1    0    0    0    0 -0.00000000000E+00 -0.00000000000E+00 -0.45593999997E+02  0.45594000000E+02  0.51100000000E-03 0.  1.
         23    2    1    2    0    0 -0.88817841970E-15  0.00000000000E+00  0.00000000000E+00  0.91188000000E+02  0.91188000000E+02 0.  0.
    9900012    2    3    3    0    0 -0.79847937511E+01  0.12334677565E+02  0.33762089392E+02  0.54367083634E+02  0.39999998760E+02 0.  0.
        -12    1    3    3    0    0  0.79847937511E+01 -0.12334677565E+02 -0.33762089392E+02  0.36820916366E+02  0.00000000000E+00 0.  1.
         11    1    4    4    0    0 -0.80446779922E+01  0.35375902696E+00  0.30706488852E+02  0.31744770394E+02  0.51100000000E-03 0. -1.
        -11    1    4    4    0    0  0.69645703099E+01 -0.14944219406E-01 -0.29129115924E+01  0.75492063913E+01  0.51100000000E-03 0.  1.
        -12    1    4    4    0    0 -0.69046860688E+01  0.11995862758E+02  0.59685121326E+01  0.15073106849E+02  0.00000000000E+00 0.  1.
</event>
<event>
 8    1  0.1265908E-006  0.9118800E+02  0.7816164E-02  0.1184000E+00
        -11   -1    0    0    0    0  0.00000000000E+00  0.00000000000E+00  0.45593999997E+02  0.45594000000E+02  0.51100000000E-03 0. -1.
         11   -1    0    0    0    0 -0.00000000000E+00 -0.00000000000E+00 -0.45593999997E+02  0.45594000000E+02  0.51100000000E-03 0.  1.
         23    2    1    2    0    0  0.35527136788E-14 -0.17763568394E-14 -0.35527136788E-14  0.91188000000E+02  0.91188000000E+02 0.  0.
    9900012    2    3    3    0    0 -0.21622398130E+02  0.14266366172E+02  0.26167168198E+02  0.54367109243E+02  0.40000057140E+02 0.  0.
        -12    1    3    3    0    0  0.21622398130E+02 -0.14266366172E+02 -0.26167168198E+02  0.36820890757E+02  0.00000000000E+00 0.  1.
         11    1    4    4    0    0 -0.24105622074E+02  0.57204822692E+01  0.26587376699E+02  0.36341347429E+02  0.51100000000E-03 0. -1.
        -11    1    4    4    0    0 -0.37082424505E+01 -0.28224575994E+01  0.15934181011E+01  0.49250695912E+01  0.51100000000E-03 0.  1.
         12    1    4    4    0    0  0.61914663943E+01  0.11368341502E+02 -0.20136266015E+01  0.13100692223E+02  0.00000000000E+00 0. -1.
</event>
<event>
 8    1  0.1265908E-006  0.9118800E+02  0.7816164E-02  0.1184000E+00
        -11   -1    0    0    0    0  0.00000000000E+00  0.00000000000E+00  0.45593999997E+02  0.45594000000E+02  0.51100000000E-03 0. -1.
         11   -1    0    0    0    0 -0.00000000000E+00 -0.00000000000E+00 -0.45593999997E+02  0.45594000000E+02  0.51100000000E-03 0.  1.
         23    2    1    2    0    0 -0.71054273576E-14  0.35527136788E-14  0.00000000000E+00  0.91188000000E+02  0.91188000000E+02 0.  0.
    9900012    2    3    3    0    0 -0.24390995134E+02  0.27355437817E+02 -0.35408145624E+01  0.54367109332E+02  0.40000057345E+02 0.  0.
        -12    1    3    3    0    0  0.24390995134E+02 -0.27355437817E+02  0.35408145624E+01  0.36820890668E+02  0.00000000000E+00 0.  1.
         11    1    4    4    0    0 -0.83971464621E+00 -0.28906251697E+01  0.11503618008E+02  0.11890923518E+02  0.51100000000E-03 0. -1.
        -11    1    4    4    0    0 -0.32389814124E+01  0.76273173827E+01  0.55842019788E+00  0.83053479412E+01  0.51100000000E-03 0.  1.
        -12    1    4    4    0    0 -0.20312299076E+02  0.22618745604E+02 -0.15602852769E+02  0.34170837873E+02  0.00000000000E+00 0.  1.
</event>
<event>
 8    1  0.1265908E-006  0.9118800E+02  0.7816164E-02  0.1184000E+00
        -11   -1    0    0    0    0  0.00000000000E+00  0.00000000000E+00  0.45593999997E+02  0.45594000000E+02  0.51100000000E-03 0. -1.
         11   -1    0    0    0    0 -0.00000000000E+00 -0.00000000000E+00 -0.45593999997E+02  0.45594000000E+02  0.51100000000E-03 0.  1.
         23    2    1    2    0    0  0.00000000000E+00  0.00000000000E+00  0.00000000000E+00  0.91188000000E+02  0.91188000000E+02 0.  0.
    9900012    2    3    3    0    0 -0.30039008794E+02 -0.36341650062E+01 -0.20981679588E+02  0.54367080905E+02  0.39999992540E+02 0.  0.
         12    1    3    3    0    0  0.30039008794E+02  0.36341650062E+01  0.20981679588E+02  0.36820919095E+02  0.00000000000E+00 0. -1.
         11    1    4    4    0    0 -0.15595776402E+02  0.60360174057E+01 -0.17720277350E+02  0.24365343776E+02  0.51100000000E-03 0. -1.
        -11    1    4    4    0    0 -0.62823704977E+01 -0.10361045369E+02 -0.12667606091E+02  0.17529623058E+02  0.51100000000E-03 0.  1.
         12    1    4    4    0    0 -0.81608618947E+01  0.69086295709E+00  0.94062038529E+01  0.12472114071E+02  0.00000000000E+00 0. -1.
</event>
<event>
 8    1  0.1265908E-006  0.9118800E+02  0.7816164E-02  0.1184000E+00
        -11   -1    0    0    0    0  0.00000000000E+00  0.00000000000E+00  0.45593999997E+02  0.45594000000E+02  0.51100000000E-03 0.  1.
         11   -1    0    0    0    0 -0.00000000000E+00 -0.00000000000E+00 -0.45593999997E+02  0.45594000000E+02  0.51100000000E-03 0. -1.
         23    2    1    2    0    0  0.00000000000E+00  0.00000000000E+00  0.17763568394E-14  0.91188000000E+02  0.91188000000E+02 0.  0.
    9900012    2    3    3    0    0 -0.12481094722E+02  0.33156700851E+02  0.10031789143E+02  0.54367063969E+02  0.39999953930E+02 0.  0.
        -12    1    3    3    0    0  0.12481094722E+02 -0.33156700851E+02 -0.10031789143E+02  0.36820936031E+02  0.00000000000E+00 0.  1.
         11    1    4    4    0    0 -0.12581774506E+01 -0.42983148173E+01 -0.32902779666E+01  0.55573779900E+01  0.51100000000E-03 0.  1.
        -11    1    4    4    0    0  0.59604615522E+01  0.41829578491E+01  0.82768278876E+01  0.11024069957E+02  0.51100000000E-03 0. -1.
         12    1    4    4    0    0 -0.17183378824E+02  0.33272057819E+02  0.50452392221E+01  0.37785616022E+02  0.00000000000E+00 0. -1.
</event>
<event>
 8    1  0.1265908E-006  0.9118800E+02  0.7816164E-02  0.1184000E+00
        -11   -1    0    0    0    0  0.00000000000E+00  0.00000000000E+00  0.45593999997E+02  0.45594000000E+02  0.51100000000E-03 0.  1.
         11   -1    0    0    0    0 -0.00000000000E+00 -0.00000000000E+00 -0.45593999997E+02  0.45594000000E+02  0.51100000000E-03 0. -1.
         23    2    1    2    0    0 -0.88817841970E-15 -0.17763568394E-14  0.00000000000E+00  0.91188000000E+02  0.91188000000E+02 0.  0.
    9900012    2    3    3    0    0 -0.54679144187E+01 -0.64322067772E+01 -0.35840001528E+02  0.54367121662E+02  0.40000085452E+02 0.  0.
        -12    1    3    3    0    0  0.54679144187E+01  0.64322067772E+01  0.35840001528E+02  0.36820878338E+02  0.00000000000E+00 0.  1.
         11    1    4    4    0    0 -0.67989735912E+01  0.44132844306E+00 -0.68640681958E+01  0.96714138132E+01  0.51100000000E-03 0. -1.
        -11    1    4    4    0    0 -0.73431535333E+01 -0.15514030022E+02 -0.51699079978E+01  0.17925818818E+02  0.51100000000E-03 0.  1.
        -12    1    4    4    0    0  0.86742127058E+01  0.86404948018E+01 -0.23806025334E+02  0.26769889030E+02  0.00000000000E+00 0.  1.
</event>
<event>
 8    1  0.1265908E-006  0.9118800E+02  0.7816164E-02  0.1184000E+00
        -11   -1    0    0    0    0  0.00000000000E+00  0.00000000000E+00  0.45593999997E+02  0.45594000000E+02  0.51100000000E-03 0. -1.
         11   -1    0    0    0    0 -0.00000000000E+00 -0.00000000000E+00 -0.45593999997E+02  0.45594000000E+02  0.51100000000E-03 0.  1.
         23    2    1    2    0    0  0.00000000000E+00  0.00000000000E+00 -0.35527136788E-14  0.91188000000E+02  0.91188000000E+02 0.  0.
    9900012    2    3    3    0    0  0.21753251242E+02 -0.24242933112E+02  0.17171348349E+02  0.54367096296E+02  0.40000027625E+02 0.  0.
         12    1    3    3    0    0 -0.21753251242E+02  0.24242933112E+02 -0.17171348349E+02  0.36820903704E+02  0.00000000000E+00 0. -1.
         11    1    4    4    0    0 -0.26759945512E+01 -0.20912926377E+02  0.11046842273E+02  0.23802188155E+02  0.51100000000E-03 0. -1.
        -11    1    4    4    0    0  0.24880698011E+01 -0.41654562868E+01  0.70846636156E+01  0.85868490275E+01  0.51100000000E-03 0.  1.
         12    1    4    4    0    0  0.21941175992E+02  0.83544955208E+00 -0.96015753961E+00  0.21978059113E+02  0.00000000000E+00 0. -1.
</event>
<event>
 8    1  0.1265908E-006  0.9118800E+02  0.7816164E-02  0.1184000E+00
        -11   -1    0    0    0    0  0.00000000000E+00  0.00000000000E+00  0.45593999997E+02  0.45594000000E+02  0.51100000000E-03 0. -1.
         11   -1    0    0    0    0 -0.00000000000E+00 -0.00000000000E+00 -0.45593999997E+02  0.45594000000E+02  0.51100000000E-03 0.  1.
         23    2    1    2    0    0 -0.17763568394E-14 -0.22204460493E-14  0.00000000000E+00  0.91188000000E+02  0.91188000000E+02 0.  0.
    9900012    2    3    3    0    0 -0.55371884179E+01  0.21773749060E+01  0.36336998117E+02  0.54367097659E+02  0.40000030734E+02 0.  0.
        -12    1    3    3    0    0  0.55371884179E+01 -0.21773749060E+01 -0.36336998117E+02  0.36820902341E+02  0.00000000000E+00 0.  1.
         11    1    4    4    0    0 -0.11721916419E+02 -0.99546627050E+01  0.31297462855E+02  0.34871619055E+02  0.51100000000E-03 0. -1.
        -11    1    4    4    0    0  0.75479103146E+01  0.11582233949E+02  0.81550232708E+01  0.16050654136E+02  0.51100000000E-03 0.  1.
         12    1    4    4    0    0 -0.13631823133E+01  0.54980366182E+00 -0.31154880089E+01  0.34448244686E+01  0.00000000000E+00 0. -1.
</event>
<event>
 8    1  0.1265908E-006  0.9118800E+02  0.7816164E-02  0.1184000E+00
        -11   -1    0    0    0    0  0.00000000000E+00  0.00000000000E+00  0.45593999997E+02  0.45594000000E+02  0.51100000000E-03 0.  1.
         11   -1    0    0    0    0 -0.00000000000E+00 -0.00000000000E+00 -0.45593999997E+02  0.45594000000E+02  0.51100000000E-03 0. -1.
         23    2    1    2    0    0  0.00000000000E+00 -0.35527136788E-14  0.00000000000E+00  0.91188000000E+02  0.91188000000E+02 0.  0.
    9900012    2    3    3    0    0 -0.14521275959E+02 -0.27783387001E+02 -0.19313053817E+02  0.54367107880E+02  0.40000054035E+02 0.  0.
        -12    1    3    3    0    0  0.14521275959E+02  0.27783387001E+02  0.19313053817E+02  0.36820892120E+02  0.00000000000E+00 0.  1.
         11    1    4    4    0    0 -0.86450283915E+01  0.61628908392E+01 -0.56602498513E+01  0.12031465747E+02  0.51100000000E-03 0. -1.
        -11    1    4    4    0    0  0.27899539938E+01  0.14469782868E+01  0.61613113128E+00  0.32026875093E+01  0.51100000000E-03 0.  1.
         12    1    4    4    0    0 -0.86662015609E+01 -0.35393256127E+02 -0.14268935098E+02  0.39132954624E+02  0.00000000000E+00 0. -1.
</event>
<event>
 8    1  0.1265908E-006  0.9118800E+02  0.7816164E-02  0.1184000E+00
        -11   -1    0    0    0    0  0.00000000000E+00  0.00000000000E+00  0.45593999997E+02  0.45594000000E+02  0.51100000000E-03 0.  1.
         11   -1    0    0    0    0 -0.00000000000E+00 -0.00000000000E+00 -0.45593999997E+02  0.45594000000E+02  0.51100000000E-03 0. -1.
         23    2    1    2    0    0 -0.35527136788E-14 -0.35527136788E-14  0.00000000000E+00  0.91188000000E+02  0.91188000000E+02 0.  0.
    9900012    2    3    3    0    0  0.18207649943E+02 -0.25249591255E+02 -0.19665190623E+02  0.54367080712E+02  0.39999992099E+02 0.  0.
        -12    1    3    3    0    0 -0.18207649943E+02  0.25249591255E+02  0.19665190623E+02  0.36820919288E+02  0.00000000000E+00 0.  1.
         11    1    4    4    0    0  0.40246245592E+01  0.11811184570E+01 -0.18240332859E+01  0.45738103744E+01  0.51100000000E-03 0.  1.
        -11    1    4    4    0    0  0.24209190589E+02 -0.10742464896E+02 -0.44440942025E+01  0.26855826827E+02  0.51100000000E-03 0. -1.
         12    1    4    4    0    0 -0.10026165206E+02 -0.15688244815E+02 -0.13397063135E+02  0.22937443510E+02  0.00000000000E+00 0. -1.
</event>
<event>
 8    1  0.1265908E-006  0.9118800E+02  0.7816164E-02  0.1184000E+00
        -11   -1    0    0    0    0  0.00000000000E+00  0.00000000000E+00  0.45593999997E+02  0.45594000000E+02  0.51100000000E-03 0.  1.
         11   -1    0    0    0    0 -0.00000000000E+00 -0.00000000000E+00 -0.45593999997E+02  0.45594000000E+02  0.51100000000E-03 0. -1.
         23    2    1    2    0    0 -0.35527136788E-14 -0.17763568394E-14  0.00000000000E+00  0.91188000000E+02  0.91188000000E+02 0.  0.
    9900012    2    3    3    0    0 -0.19792149005E+02  0.22284750189E+01  0.30969090089E+02  0.54367084692E+02  0.40000001173E+02 0.  0.
         12    1    3    3    0    0  0.19792149005E+02 -0.22284750189E+01 -0.30969090089E+02  0.36820915308E+02  0.00000000000E+00 0. -1.
         11    1    4    4    0    0  0.65791256431E+01  0.21621111537E+01  0.11767115971E+01  0.70245476233E+01  0.51100000000E-03 0. -1.
        -11    1    4    4    0    0 -0.22599344701E+02 -0.10367161600E+02  0.24994060862E+02  0.35254949996E+02  0.51100000000E-03 0.  1.
        -12    1    4    4    0    0 -0.37719299477E+01  0.10433525466E+02  0.47983176297E+01  0.12087587073E+02  0.00000000000E+00 0.  1.
</event>
<event>
 8    1  0.1265908E-006  0.9118800E+02  0.7816164E-02  0.1184000E+00
        -11   -1    0    0    0    0  0.00000000000E+00  0.00000000000E+00  0.45593999997E+02  0.45594000000E+02  0.51100000000E-03 0.  1.
         11   -1    0    0    0    0 -0.00000000000E+00 -0.00000000000E+00 -0.45593999997E+02  0.45594000000E+02  0.51100000000E-03 0. -1.
         23    2    1    2    0    0 -0.71054273576E-14  0.88817841970E-15  0.00000000000E+00  0.91188000000E+02  0.91188000000E+02 0.  0.
    9900012    2    3    3    0    0 -0.32205959158E+02 -0.42547965762E+01  0.17333550549E+02  0.54367094609E+02  0.40000023780E+02 0.  0.
         12    1    3    3    0    0  0.32205959158E+02  0.42547965762E+01 -0.17333550549E+02  0.36820905391E+02  0.00000000000E+00 0. -1.
         11    1    4    4    0    0 -0.25865108059E+02 -0.86971793498E+01  0.15927086018E+02  0.31596151868E+02  0.51100000000E-03 0.  1.
        -11    1    4    4    0    0  0.41848526001E+01  0.94205843790E+01  0.36072474054E+01  0.10921201190E+02  0.51100000000E-03 0. -1.
        -12    1    4    4    0    0 -0.10525703698E+02 -0.49782016055E+01 -0.22007828737E+01  0.11849741551E+02  0.00000000000E+00 0.  1.
</event>
<event>
 8    1  0.1265908E-006  0.9118800E+02  0.7816164E-02  0.1184000E+00
        -11   -1    0    0    0    0  0.00000000000E+00  0.00000000000E+00  0.45593999997E+02  0.45594000000E+02  0.51100000000E-03 0.  1.
         11   -1    0    0    0    0 -0.00000000000E+00 -0.00000000000E+00 -0.45593999997E+02  0.45594000000E+02  0.51100000000E-03 0. -1.
         23    2    1    2    0    0  0.00000000000E+00  0.00000000000E+00  0.00000000000E+00  0.91188000000E+02  0.91188000000E+02 0.  0.
    9900012    2    3    3    0    0  0.34184947151E+02 -0.81638902088E+01  0.10978184512E+02  0.54367078635E+02  0.39999987363E+02 0.  0.
         12    1    3    3    0    0 -0.34184947151E+02  0.81638902088E+01 -0.10978184512E+02  0.36820921365E+02  0.00000000000E+00 0. -1.
         11    1    4    4    0    0  0.70475184718E+01  0.16664044750E+01  0.76206584125E+01  0.10512794842E+02  0.51100000000E-03 0. -1.
        -11    1    4    4    0    0  0.15771110289E+02 -0.10714767000E+02  0.17368176295E+02  0.25791233000E+02  0.51100000000E-03 0.  1.
         12    1    4    4    0    0  0.11366318390E+02  0.88447231636E+00 -0.14010650196E+02  0.18063050792E+02  0.00000000000E+00 0. -1.
</event>
<event>
 8    1  0.1265908E-006  0.9118800E+02  0.7816164E-02  0.1184000E+00
        -11   -1    0    0    0    0  0.00000000000E+00  0.00000000000E+00  0.45593999997E+02  0.45594000000E+02  0.51100000000E-03 0. -1.
         11   -1    0    0    0    0 -0.00000000000E+00 -0.00000000000E+00 -0.45593999997E+02  0.45594000000E+02  0.51100000000E-03 0.  1.
         23    2    1    2    0    0  0.00000000000E+00  0.00000000000E+00  0.35527136788E-14  0.91188000000E+02  0.91188000000E+02 0.  0.
    9900012    2    3    3    0    0 -0.23736106798E+02 -0.72654462278E+01 -0.27195398759E+02  0.54367093052E+02  0.40000020230E+02 0.  0.
         12    1    3    3    0    0  0.23736106798E+02  0.72654462278E+01  0.27195398759E+02  0.36820906948E+02  0.00000000000E+00 0. -1.
         11    1    4    4    0    0 -0.49331766971E+00 -0.68684131887E+01  0.79788619017E+01  0.10539482889E+02  0.51100000000E-03 0. -1.
        -11    1    4    4    0    0 -0.14896371633E+02 -0.49981722194E+00 -0.11808204938E+02  0.19015399265E+02  0.51100000000E-03 0.  1.
        -12    1    4    4    0    0 -0.83464174954E+01  0.10278418287E+00 -0.23366055723E+02  0.24812210898E+02  0.00000000000E+00 0.  1.
</event>
<event>
 8    1  0.1265908E-006  0.9118800E+02  0.7816164E-02  0.1184000E+00
        -11   -1    0    0    0    0  0.00000000000E+00  0.00000000000E+00  0.45593999997E+02  0.45594000000E+02  0.51100000000E-03 0. -1.
         11   -1    0    0    0    0 -0.00000000000E+00 -0.00000000000E+00 -0.45593999997E+02  0.45594000000E+02  0.51100000000E-03 0.  1.
         23    2    1    2    0    0 -0.22204460493E-14  0.00000000000E+00  0.00000000000E+00  0.91188000000E+02  0.91188000000E+02 0.  0.
    9900012    2    3    3    0    0  0.19579228381E+01  0.30708559161E+02  0.20222098414E+02  0.54367050367E+02  0.39999922922E+02 0.  0.
         12    1    3    3    0    0 -0.19579228381E+01 -0.30708559161E+02 -0.20222098414E+02  0.36820949633E+02  0.00000000000E+00 0. -1.
         11    1    4    4    0    0  0.60497525922E-01 -0.22457194180E+01  0.10983010833E+01  0.25006361562E+01  0.51100000000E-03 0. -1.
        -11    1    4    4    0    0  0.15955403587E+02  0.11017166138E+02  0.16892671316E+02  0.25716049420E+02  0.51100000000E-03 0.  1.
        -12    1    4    4    0    0 -0.14057978275E+02  0.21937112441E+02  0.22311260148E+01  0.26150364791E+02  0.00000000000E+00 0.  1.
</event>
<event>
 8    1  0.1265908E-006  0.9118800E+02  0.7816164E-02  0.1184000E+00
        -11   -1    0    0    0    0  0.00000000000E+00  0.00000000000E+00  0.45593999997E+02  0.45594000000E+02  0.51100000000E-03 0. -1.
         11   -1    0    0    0    0 -0.00000000000E+00 -0.00000000000E+00 -0.45593999997E+02  0.45594000000E+02  0.51100000000E-03 0.  1.
         23    2    1    2    0    0  0.71054273576E-14 -0.88817841970E-15 -0.17763568394E-14  0.91188000000E+02  0.91188000000E+02 0.  0.
    9900012    2    3    3    0    0  0.34548102335E+02 -0.22597664884E+01 -0.12534081549E+02  0.54367066826E+02  0.39999960443E+02 0.  0.
         12    1    3    3    0    0 -0.34548102335E+02  0.22597664884E+01  0.12534081549E+02  0.36820933174E+02  0.00000000000E+00 0. -1.
         11    1    4    4    0    0  0.75242637214E+00 -0.14964764832E+02 -0.55970462286E+01  0.15994913524E+02  0.51100000000E-03 0. -1.
        -11    1    4    4    0    0  0.20063128816E+02  0.11622442401E+02 -0.56169145721E+00  0.23193227521E+02  0.51100000000E-03 0.  1.
        -12    1    4    4    0    0  0.13732547146E+02  0.10825559421E+01 -0.63753438629E+01  0.15178925781E+02  0.00000000000E+00 0.  1.
</event>
<event>
 8    1  0.1265908E-006  0.9118800E+02  0.7816164E-02  0.1184000E+00
        -11   -1    0    0    0    0  0.00000000000E+00  0.00000000000E+00  0.45593999997E+02  0.45594000000E+02  0.51100000000E-03 0.  1.
         11   -1    0    0    0    0 -0.00000000000E+00 -0.00000000000E+00 -0.45593999997E+02  0.45594000000E+02  0.51100000000E-03 0. -1.
         23    2    1    2    0    0  0.00000000000E+00  0.88817841970E-15  0.00000000000E+00  0.91188000000E+02  0.91188000000E+02 0.  0.
    9900012    2    3    3    0    0 -0.35552446121E+02  0.38225308625E+01 -0.87858513564E+01  0.54367090840E+02  0.40000015187E+02 0.  0.
        -12    1    3    3    0    0  0.35552446121E+02 -0.38225308625E+01  0.87858513564E+01  0.36820909160E+02  0.00000000000E+00 0.  1.
         11    1    4    4    0    0 -0.25887583624E+01  0.77841025126E+01 -0.16834331097E+02  0.18726682182E+02  0.51100000000E-03 0. -1.
        -11    1    4    4    0    0 -0.14802851126E+02  0.31598710313E+01  0.23482169426E+01  0.15317418499E+02  0.51100000000E-03 0.  1.
         12    1    4    4    0    0 -0.18160836632E+02 -0.71214426814E+01  0.57002627981E+01  0.20322990159E+02  0.00000000000E+00 0. -1.
</event>
<event>
 8    1  0.1265908E-006  0.9118800E+02  0.7816164E-02  0.1184000E+00
        -11   -1    0    0    0    0  0.00000000000E+00  0.00000000000E+00  0.45593999997E+02  0.45594000000E+02  0.51100000000E-03 0. -1.
         11   -1    0    0    0    0 -0.00000000000E+00 -0.00000000000E+00 -0.45593999997E+02  0.45594000000E+02  0.51100000000E-03 0.  1.
         23    2    1    2    0    0  0.35527136788E-14 -0.35527136788E-14 -0.35527136788E-14  0.91188000000E+02  0.91188000000E+02 0.  0.
    9900012    2    3    3    0    0 -0.20339648010E+02  0.21377579421E+02  0.22024444022E+02  0.54367104879E+02  0.40000047192E+02 0.  0.
        -12    1    3    3    0    0  0.20339648010E+02 -0.21377579421E+02 -0.22024444022E+02  0.36820895121E+02  0.00000000000E+00 0.  1.
         11    1    4    4    0    0 -0.15941271216E+02  0.44341609047E+01 -0.56205404531E+01  0.17475021778E+02  0.51100000000E-03 0. -1.
        -11    1    4    4    0    0 -0.10963541236E+02  0.10028016931E+02  0.17802257172E+02  0.23187943434E+02  0.51100000000E-03 0.  1.
        -12    1    4    4    0    0  0.65651644425E+01  0.69154015858E+01  0.98427273027E+01  0.13704139667E+02  0.00000000000E+00 0.  1.
</event>
<event>
 8    1  0.1265908E-006  0.9118800E+02  0.7816164E-02  0.1184000E+00
        -11   -1    0    0    0    0  0.00000000000E+00  0.00000000000E+00  0.45593999997E+02  0.45594000000E+02  0.51100000000E-03 0. -1.
         11   -1    0    0    0    0 -0.00000000000E+00 -0.00000000000E+00 -0.45593999997E+02  0.45594000000E+02  0.51100000000E-03 0.  1.
         23    2    1    2    0    0  0.16653345369E-15 -0.71054273576E-14  0.25652223401E-15  0.91188000000E+02  0.91188000000E+02 0.  0.
    9900012    2    3    3    0    0  0.19961632928E+00 -0.36820417824E+02 -0.90162279337E-03  0.54367041074E+02  0.39999901737E+02 0.  0.
        -12    1    3    3    0    0 -0.19961632928E+00  0.36820417824E+02  0.90162279337E-03  0.36820958926E+02  0.00000000000E+00 0.  1.
         11    1    4    4    0    0 -0.65906448620E+01  0.80829055387E+00 -0.39415070023E+01  0.77217492207E+01  0.51100000000E-03 0. -1.
        -11    1    4    4    0    0 -0.67415857121E-01 -0.35747617295E+01  0.10677733312E+02  0.11260437614E+02  0.51100000000E-03 0.  1.
         12    1    4    4    0    0  0.68576770484E+01 -0.34053946648E+02 -0.67371279321E+01  0.35384854240E+02  0.00000000000E+00 0. -1.
</event>
<event>
 8    1  0.1265908E-006  0.9118800E+02  0.7816164E-02  0.1184000E+00
        -11   -1    0    0    0    0  0.00000000000E+00  0.00000000000E+00  0.45593999997E+02  0.45594000000E+02  0.51100000000E-03 0. -1.
         11   -1    0    0    0    0 -0.00000000000E+00 -0.00000000000E+00 -0.45593999997E+02  0.45594000000E+02  0.51100000000E-03 0.  1.
         23    2    1    2    0    0  0.00000000000E+00 -0.17763568394E-14  0.00000000000E+00  0.91188000000E+02  0.91188000000E+02 0.  0.
    9900012    2    3    3    0    0  0.13170392027E+01 -0.13374983237E+02 -0.34280541262E+02  0.54367078256E+02  0.39999986499E+02 0.  0.
         12    1    3    3    0    0 -0.13170392027E+01  0.13374983237E+02  0.34280541262E+02  0.36820921744E+02  0.00000000000E+00 0. -1.
         11    1    4    4    0    0  0.27806338444E+01 -0.23720057844E+01  0.20264794266E+01  0.41791093723E+01  0.51100000000E-03 0. -1.
        -11    1    4    4    0    0 -0.42605309757E+00  0.11704160360E+02 -0.98159744911E+01  0.15281434699E+02  0.51100000000E-03 0.  1.
         12    1    4    4    0    0 -0.10375415442E+01 -0.22707137813E+02 -0.26491046198E+02  0.34906534185E+02  0.00000000000E+00 0. -1.
</event>
<event>
 8    1  0.1265908E-006  0.9118800E+02  0.7816164E-02  0.1184000E+00
        -11   -1    0    0    0    0  0.00000000000E+00  0.00000000000E+00  0.45593999997E+02  0.45594000000E+02  0.51100000000E-03 0.  1.
         11   -1    0    0    0    0 -0.00000000000E+00 -0.00000000000E+00 -0.45593999997E+02  0.45594000000E+02  0.51100000000E-03 0. -1.
         23    2    1    2    0    0 -0.17763568394E-14  0.00000000000E+00  0.00000000000E+00  0.91188000000E+02  0.91188000000E+02 0.  0.
    9900012    2    3    3    0    0 -0.40064004292E+01  0.33862455464E+02 -0.13895189052E+02  0.54366899891E+02  0.39999579878E+02 0.  0.
        -12    1    3    3    0    0  0.40064004292E+01 -0.33862455464E+02  0.13895189052E+02  0.36821100109E+02  0.00000000000E+00 0.  1.
         11    1    4    4    0    0  0.65746580322E+01  0.84768333591E+01 -0.51766958260E+01  0.11911381615E+02  0.51100000000E-03 0.  1.
        -11    1    4    4    0    0  0.99965151100E+01  0.16151120413E+02 -0.38015958387E+01  0.19371141838E+02  0.51100000000E-03 0. -1.
        -12    1    4    4    0    0 -0.20577573571E+02  0.92345016926E+01 -0.49168973871E+01  0.23084376438E+02  0.00000000000E+00 0.  1.
</event>
<event>
 8    1  0.1265908E-006  0.9118800E+02  0.7816164E-02  0.1184000E+00
        -11   -1    0    0    0    0  0.00000000000E+00  0.00000000000E+00  0.45593999997E+02  0.45594000000E+02  0.51100000000E-03 0. -1.
         11   -1    0    0    0    0 -0.00000000000E+00 -0.00000000000E+00 -0.45593999997E+02  0.45594000000E+02  0.51100000000E-03 0.  1.
         23    2    1    2    0    0  0.00000000000E+00 -0.17763568394E-14  0.00000000000E+00  0.91188000000E+02  0.91188000000E+02 0.  0.
    9900012    2    3    3    0    0  0.52485098504E+01  0.12944348527E+02 -0.34068720813E+02  0.54367071817E+02  0.39999971820E+02 0.  0.
         12    1    3    3    0    0 -0.52485098504E+01 -0.12944348527E+02  0.34068720813E+02  0.36820928183E+02  0.00000000000E+00 0. -1.
         11    1    4    4    0    0  0.78318927943E+01  0.67152729461E+01 -0.48996977596E+01  0.11421053974E+02  0.51100000000E-03 0. -1.
        -11    1    4    4    0    0  0.77795875272E+01  0.15673751174E+02 -0.16352948657E+02  0.23950102045E+02  0.51100000000E-03 0.  1.
        -12    1    4    4    0    0 -0.10362970471E+02 -0.94446755927E+01 -0.12816074397E+02  0.18995915797E+02  0.00000000000E+00 0.  1.
</event>
<event>
 8    1  0.1265908E-006  0.9118800E+02  0.7816164E-02  0.1184000E+00
        -11   -1    0    0    0    0  0.00000000000E+00  0.00000000000E+00  0.45593999997E+02  0.45594000000E+02  0.51100000000E-03 0. -1.
         11   -1    0    0    0    0 -0.00000000000E+00 -0.00000000000E+00 -0.45593999997E+02  0.45594000000E+02  0.51100000000E-03 0.  1.
         23    2    1    2    0    0  0.00000000000E+00  0.00000000000E+00 -0.88817841970E-15  0.91188000000E+02  0.91188000000E+02 0.  0.
    9900012    2    3    3    0    0 -0.26722616321E+02  0.25079478503E+02 -0.35652010905E+01  0.54366958137E+02  0.39999712664E+02 0.  0.
        -12    1    3    3    0    0  0.26722616321E+02 -0.25079478503E+02  0.35652010905E+01  0.36821041863E+02  0.00000000000E+00 0.  1.
         11    1    4    4    0    0 -0.13993375983E+01 -0.13615795335E+01  0.22498031927E+01  0.29788687798E+01  0.51100000000E-03 0. -1.
        -11    1    4    4    0    0 -0.31166987430E+01  0.58773569217E+01  0.13801660790E+02  0.15321324233E+02  0.51100000000E-03 0.  1.
        -12    1    4    4    0    0 -0.22206579980E+02  0.20563701115E+02 -0.19616665073E+02  0.36066765124E+02  0.00000000000E+00 0.  1.
</event>
<event>
 8    1  0.1265908E-006  0.9118800E+02  0.7816164E-02  0.1184000E+00
        -11   -1    0    0    0    0  0.00000000000E+00  0.00000000000E+00  0.45593999997E+02  0.45594000000E+02  0.51100000000E-03 0.  1.
         11   -1    0    0    0    0 -0.00000000000E+00 -0.00000000000E+00 -0.45593999997E+02  0.45594000000E+02  0.51100000000E-03 0. -1.
         23    2    1    2    0    0  0.00000000000E+00  0.00000000000E+00  0.88817841970E-15  0.91188000000E+02  0.91188000000E+02 0.  0.
    9900012    2    3    3    0    0 -0.16716880729E+02  0.32429527360E+02  0.49651343062E+01  0.54367069746E+02  0.39999967099E+02 0.  0.
         12    1    3    3    0    0  0.16716880729E+02 -0.32429527360E+02 -0.49651343062E+01  0.36820930254E+02  0.00000000000E+00 0. -1.
         11    1    4    4    0    0  0.12652958636E+01 -0.22336163437E+01 -0.10299275432E+01  0.27660019158E+01  0.51100000000E-03 0. -1.
        -11    1    4    4    0    0  0.11878053686E+01  0.31768083587E+02  0.50665607618E+01  0.32191490407E+02  0.51100000000E-03 0.  1.
        -12    1    4    4    0    0 -0.19169981961E+02  0.28950601164E+01  0.92850108764E+00  0.19409577423E+02  0.00000000000E+00 0.  1.
</event>
<event>
 8    1  0.1265908E-006  0.9118800E+02  0.7816164E-02  0.1184000E+00
        -11   -1    0    0    0    0  0.00000000000E+00  0.00000000000E+00  0.45593999997E+02  0.45594000000E+02  0.51100000000E-03 0.  1.
         11   -1    0    0    0    0 -0.00000000000E+00 -0.00000000000E+00 -0.45593999997E+02  0.45594000000E+02  0.51100000000E-03 0. -1.
         23    2    1    2    0    0  0.00000000000E+00  0.00000000000E+00  0.00000000000E+00  0.91188000000E+02  0.91188000000E+02 0.  0.
    9900012    2    3    3    0    0  0.17546076205E+02 -0.30005544321E+02 -0.12148322174E+02  0.54367092735E+02  0.40000019508E+02 0.  0.
         12    1    3    3    0    0 -0.17546076205E+02  0.30005544321E+02  0.12148322174E+02  0.36820907265E+02  0.00000000000E+00 0. -1.
         11    1    4    4    0    0 -0.86449150325E+01 -0.62279621162E+01 -0.10306233407E+02  0.14823647167E+02  0.51100000000E-03 0. -1.
        -11    1    4    4    0    0  0.14140802974E+02 -0.19532572954E+02 -0.79389514410E+01  0.25387214601E+02  0.51100000000E-03 0.  1.
        -12    1    4    4    0    0  0.12050188264E+02 -0.42450092507E+01  0.60968626743E+01  0.14156230967E+02  0.00000000000E+00 0.  1.
</event>
<event>
 8    1  0.1265908E-006  0.9118800E+02  0.7816164E-02  0.1184000E+00
        -11   -1    0    0    0    0  0.00000000000E+00  0.00000000000E+00  0.45593999997E+02  0.45594000000E+02  0.51100000000E-03 0.  1.
         11   -1    0    0    0    0 -0.00000000000E+00 -0.00000000000E+00 -0.45593999997E+02  0.45594000000E+02  0.51100000000E-03 0. -1.
         23    2    1    2    0    0  0.00000000000E+00 -0.66613381478E-15  0.00000000000E+00  0.91188000000E+02  0.91188000000E+02 0.  0.
    9900012    2    3    3    0    0  0.25044184526E+02  0.62234021652E+00 -0.26984838877E+02  0.54367081826E+02  0.39999994639E+02 0.  0.
        -12    1    3    3    0    0 -0.25044184526E+02 -0.62234021652E+00  0.26984838877E+02  0.36820918174E+02  0.00000000000E+00 0.  1.
         11    1    4    4    0    0  0.96886801221E+01  0.16678527179E+02 -0.37444706363E+01  0.19648533074E+02  0.51100000000E-03 0. -1.
        -11    1    4    4    0    0  0.46135941595E+01 -0.12273304856E+02 -0.69437799219E+01  0.14836958685E+02  0.51100000000E-03 0.  1.
         12    1    4    4    0    0  0.10741910245E+02 -0.37828821060E+01 -0.16296588319E+02  0.19881590067E+02  0.00000000000E+00 0. -1.
</event>
<event>
 8    1  0.1265908E-006  0.9118800E+02  0.7816164E-02  0.1184000E+00
        -11   -1    0    0    0    0  0.00000000000E+00  0.00000000000E+00  0.45593999997E+02  0.45594000000E+02  0.51100000000E-03 0.  1.
         11   -1    0    0    0    0 -0.00000000000E+00 -0.00000000000E+00 -0.45593999997E+02  0.45594000000E+02  0.51100000000E-03 0. -1.
         23    2    1    2    0    0 -0.13322676296E-14  0.00000000000E+00  0.17763568394E-14  0.91188000000E+02  0.91188000000E+02 0.  0.
    9900012    2    3    3    0    0  0.11347605836E+01  0.33554277839E+02  0.15119600681E+02  0.54367087903E+02  0.40000008493E+02 0.  0.
         12    1    3    3    0    0 -0.11347605836E+01 -0.33554277839E+02 -0.15119600681E+02  0.36820912097E+02  0.00000000000E+00 0. -1.
         11    1    4    4    0    0 -0.97561140060E+01  0.32233217266E+02  0.17073103113E+02  0.37757819137E+02  0.51100000000E-03 0. -1.
        -11    1    4    4    0    0  0.20842662647E+01  0.60958472062E+01 -0.12852331555E+01  0.65692726804E+01  0.51100000000E-03 0.  1.
         12    1    4    4    0    0  0.88066083249E+01 -0.47747866331E+01 -0.66826927616E+00  0.10039996086E+02  0.00000000000E+00 0. -1.
</event>
<event>
 8    1  0.1265908E-006  0.9118800E+02  0.7816164E-02  0.1184000E+00
        -11   -1    0    0    0    0  0.00000000000E+00  0.00000000000E+00  0.45593999997E+02  0.45594000000E+02  0.51100000000E-03 0.  1.
         11   -1    0    0    0    0 -0.00000000000E+00 -0.00000000000E+00 -0.45593999997E+02  0.45594000000E+02  0.51100000000E-03 0. -1.
         23    2    1    2    0    0  0.00000000000E+00 -0.35527136788E-14 -0.17763568394E-14  0.91188000000E+02  0.91188000000E+02 0.  0.
    9900012    2    3    3    0    0  0.21846628277E+02 -0.29519337051E+02  0.26666676674E+01  0.54367115390E+02  0.40000071154E+02 0.  0.
        -12    1    3    3    0    0 -0.21846628277E+02  0.29519337051E+02 -0.26666676674E+01  0.36820884610E+02  0.00000000000E+00 0.  1.
         11    1    4    4    0    0  0.17327302244E+02 -0.86909643293E+01 -0.47558950686E+01  0.19959629310E+02  0.51100000000E-03 0. -1.
        -11    1    4    4    0    0  0.28085571706E+01 -0.12046697679E+02  0.17179570712E+02  0.21169519797E+02  0.51100000000E-03 0.  1.
        -12    1    4    4    0    0  0.17107688624E+01 -0.87816750433E+01 -0.97570079755E+01  0.13237966283E+02  0.00000000000E+00 0.  1.
</event>
<event>
 8    1  0.1265908E-006  0.9118800E+02  0.7816164E-02  0.1184000E+00
        -11   -1    0    0    0    0  0.00000000000E+00  0.00000000000E+00  0.45593999997E+02  0.45594000000E+02  0.51100000000E-03 0. -1.
         11   -1    0    0    0    0 -0.00000000000E+00 -0.00000000000E+00 -0.45593999997E+02  0.45594000000E+02  0.51100000000E-03 0.  1.
         23    2    1    2    0    0  0.00000000000E+00  0.00000000000E+00  0.88817841970E-15  0.91188000000E+02  0.91188000000E+02 0.  0.
    9900012    2    3    3    0    0  0.34468878421E+02 -0.11971337897E+02  0.49358568083E+01  0.54367092989E+02  0.40000020088E+02 0.  0.
        -12    1    3    3    0    0 -0.34468878421E+02  0.11971337897E+02 -0.49358568083E+01  0.36820907011E+02  0.00000000000E+00 0.  1.
         11    1    4    4    0    0  0.88385451162E+01 -0.78107950567E+01  0.19534033925E+02  0.22819002626E+02  0.51100000000E-03 0. -1.
        -11    1    4    4    0    0  0.16140708008E+02  0.23457100473E+01 -0.69320377946E+01  0.17722244747E+02  0.51100000000E-03 0.  1.
         12    1    4    4    0    0  0.94896252968E+01 -0.65062528876E+01 -0.76661393221E+01  0.13825845617E+02  0.00000000000E+00 0. -1.
</event>
<event>
 8    1  0.1265908E-006  0.9118800E+02  0.7816164E-02  0.1184000E+00
        -11   -1    0    0    0    0  0.00000000000E+00  0.00000000000E+00  0.45593999997E+02  0.45594000000E+02  0.51100000000E-03 0. -1.
         11   -1    0    0    0    0 -0.00000000000E+00 -0.00000000000E+00 -0.45593999997E+02  0.45594000000E+02  0.51100000000E-03 0.  1.
         23    2    1    2    0    0  0.35527136788E-14  0.00000000000E+00  0.00000000000E+00  0.91188000000E+02  0.91188000000E+02 0.  0.
    9900012    2    3    3    0    0  0.29507057929E+02 -0.72061018048E+01 -0.20813132895E+02  0.54367070194E+02  0.39999968121E+02 0.  0.
         12    1    3    3    0    0 -0.29507057929E+02  0.72061018048E+01  0.20813132895E+02  0.36820929806E+02  0.00000000000E+00 0. -1.
         11    1    4    4    0    0  0.17580518124E+01 -0.19807102915E+01 -0.50659069664E+01  0.57164126064E+01  0.51100000000E-03 0. -1.
        -11    1    4    4    0    0  0.25521129861E+02  0.83976040710E+01 -0.20771977395E+02  0.33960607601E+02  0.51100000000E-03 0.  1.
         12    1    4    4    0    0  0.22278762563E+01 -0.13622995584E+02  0.50247514657E+01  0.14690049986E+02  0.00000000000E+00 0. -1.
</event>
<event>
 8    1  0.1265908E-006  0.9118800E+02  0.7816164E-02  0.1184000E+00
        -11   -1    0    0    0    0  0.00000000000E+00  0.00000000000E+00  0.45593999997E+02  0.45594000000E+02  0.51100000000E-03 0.  1.
         11   -1    0    0    0    0 -0.00000000000E+00 -0.00000000000E+00 -0.45593999997E+02  0.45594000000E+02  0.51100000000E-03 0. -1.
         23    2    1    2    0    0  0.35527136788E-14  0.17763568394E-14 -0.35527136788E-14  0.91188000000E+02  0.91188000000E+02 0.  0.
    9900012    2    3    3    0    0 -0.25569155850E+02  0.14846157766E+02 -0.21945148160E+02  0.54367086661E+02  0.40000005662E+02 0.  0.
         12    1    3    3    0    0  0.25569155850E+02 -0.14846157766E+02  0.21945148160E+02  0.36820913339E+02  0.00000000000E+00 0. -1.
         11    1    4    4    0    0 -0.17284990554E+01  0.12730948564E+02 -0.11298239468E+02  0.17108915093E+02  0.51100000000E-03 0. -1.
        -11    1    4    4    0    0 -0.30064699095E+00  0.69211754253E+01 -0.11264887817E+02  0.13224626863E+02  0.51100000000E-03 0.  1.
        -12    1    4    4    0    0 -0.23540009804E+02 -0.48059662231E+01  0.61797912440E+00  0.24033544705E+02  0.00000000000E+00 0.  1.
</event>
<event>
 8    1  0.1265908E-006  0.9118800E+02  0.7816164E-02  0.1184000E+00
        -11   -1    0    0    0    0  0.00000000000E+00  0.00000000000E+00  0.45593999997E+02  0.45594000000E+02  0.51100000000E-03 0.  1.
         11   -1    0    0    0    0 -0.00000000000E+00 -0.00000000000E+00 -0.45593999997E+02  0.45594000000E+02  0.51100000000E-03 0. -1.
         23    2    1    2    0    0  0.00000000000E+00 -0.17763568394E-14  0.00000000000E+00  0.91188000000E+02  0.91188000000E+02 0.  0.
    9900012    2    3    3    0    0  0.22464064103E+02 -0.12120401882E+02 -0.26537369623E+02  0.54367213692E+02  0.40000295253E+02 0.  0.
        -12    1    3    3    0    0 -0.22464064103E+02  0.12120401882E+02  0.26537369623E+02  0.36820786308E+02  0.00000000000E+00 0.  1.
         11    1    4    4    0    0  0.17806802251E+02 -0.97066217980E+01 -0.34001659181E+02  0.39590573884E+02  0.51100000000E-03 0. -1.
        -11    1    4    4    0    0  0.70036437325E+00  0.15685115149E+00  0.95789920646E+01  0.96058420648E+01  0.51100000000E-03 0.  1.
         12    1    4    4    0    0  0.39568974788E+01 -0.25706312358E+01 -0.21147025061E+01  0.51707977429E+01  0.00000000000E+00 0. -1.
</event>
<event>
 8    1  0.1265908E-006  0.9118800E+02  0.7816164E-02  0.1184000E+00
        -11   -1    0    0    0    0  0.00000000000E+00  0.00000000000E+00  0.45593999997E+02  0.45594000000E+02  0.51100000000E-03 0. -1.
         11   -1    0    0    0    0 -0.00000000000E+00 -0.00000000000E+00 -0.45593999997E+02  0.45594000000E+02  0.51100000000E-03 0.  1.
         23    2    1    2    0    0  0.00000000000E+00  0.00000000000E+00 -0.35527136788E-14  0.91188000000E+02  0.91188000000E+02 0.  0.
    9900012    2    3    3    0    0 -0.24747741978E+02 -0.55556374111E+01  0.26692058782E+02  0.54367057018E+02  0.39999938084E+02 0.  0.
        -12    1    3    3    0    0  0.24747741978E+02  0.55556374111E+01 -0.26692058782E+02  0.36820942982E+02  0.00000000000E+00 0.  1.
         11    1    4    4    0    0 -0.10997007001E+02 -0.63357257970E+01  0.34254810848E+02  0.36530366147E+02  0.51100000000E-03 0. -1.
        -11    1    4    4    0    0 -0.10562777389E+02 -0.21836577028E+01 -0.23385110180E+01  0.11036723299E+02  0.51100000000E-03 0.  1.
         12    1    4    4    0    0 -0.31879575877E+01  0.29637460887E+01 -0.52242410472E+01  0.67999675719E+01  0.00000000000E+00 0. -1.
</event>
<event>
 8    1  0.1265908E-006  0.9118800E+02  0.7816164E-02  0.1184000E+00
        -11   -1    0    0    0    0  0.00000000000E+00  0.00000000000E+00  0.45593999997E+02  0.45594000000E+02  0.51100000000E-03 0. -1.
         11   -1    0    0    0    0 -0.00000000000E+00 -0.00000000000E+00 -0.45593999997E+02  0.45594000000E+02  0.51100000000E-03 0.  1.
         23    2    1    2    0    0 -0.35527136788E-14  0.00000000000E+00  0.00000000000E+00  0.91188000000E+02  0.91188000000E+02 0.  0.
    9900012    2    3    3    0    0  0.21758298949E+02 -0.29024098289E+02  0.63209052513E+01  0.54367140452E+02  0.40000128289E+02 0.  0.
        -12    1    3    3    0    0 -0.21758298949E+02  0.29024098289E+02 -0.63209052513E+01  0.36820859548E+02  0.00000000000E+00 0.  1.
         11    1    4    4    0    0  0.18406435426E+01  0.80918438027E+01  0.49459141253E+01  0.96606403294E+01  0.51100000000E-03 0. -1.
        -11    1    4    4    0    0  0.24567795584E+01 -0.32657731420E+01  0.49867395451E+01  0.64473724544E+01  0.51100000000E-03 0.  1.
        -12    1    4    4    0    0  0.17460875847E+02 -0.33850168950E+02 -0.36117484191E+01  0.38259127668E+02  0.00000000000E+00 0.  1.
</event>
<event>
 8    1  0.1265908E-006  0.9118800E+02  0.7816164E-02  0.1184000E+00
        -11   -1    0    0    0    0  0.00000000000E+00  0.00000000000E+00  0.45593999997E+02  0.45594000000E+02  0.51100000000E-03 0.  1.
         11   -1    0    0    0    0 -0.00000000000E+00 -0.00000000000E+00 -0.45593999997E+02  0.45594000000E+02  0.51100000000E-03 0. -1.
         23    2    1    2    0    0  0.00000000000E+00  0.00000000000E+00  0.00000000000E+00  0.91188000000E+02  0.91188000000E+02 0.  0.
    9900012    2    3    3    0    0  0.78412287867E+01 -0.13495211150E+02  0.33349286403E+02  0.54367075290E+02  0.39999979739E+02 0.  0.
         12    1    3    3    0    0 -0.78412287867E+01  0.13495211150E+02 -0.33349286403E+02  0.36820924710E+02  0.00000000000E+00 0. -1.
         11    1    4    4    0    0 -0.15565504548E+02 -0.69765064099E+01  0.13659131980E+02  0.21852424585E+02  0.51100000000E-03 0. -1.
        -11    1    4    4    0    0  0.38664889470E+01 -0.30539535730E+01  0.82470679294E+01  0.96067944131E+01  0.51100000000E-03 0.  1.
         12    1    4    4    0    0  0.19540244388E+02 -0.34647511666E+01  0.11443086494E+02  0.22907856292E+02  0.00000000000E+00 0. -1.
</event>
<event>
 8    1  0.1265908E-006  0.9118800E+02  0.7816164E-02  0.1184000E+00
        -11   -1    0    0    0    0  0.00000000000E+00  0.00000000000E+00  0.45593999997E+02  0.45594000000E+02  0.51100000000E-03 0.  1.
         11   -1    0    0    0    0 -0.00000000000E+00 -0.00000000000E+00 -0.45593999997E+02  0.45594000000E+02  0.51100000000E-03 0. -1.
         23    2    1    2    0    0  0.71054273576E-14  0.17763568394E-14 -0.53290705182E-14  0.91188000000E+02  0.91188000000E+02 0.  0.
    9900012    2    3    3    0    0  0.32259174775E+02  0.13188177427E+02 -0.11882609497E+02  0.54367098471E+02  0.40000032583E+02 0.  0.
         12    1    3    3    0    0 -0.32259174775E+02 -0.13188177427E+02  0.11882609497E+02  0.36820901529E+02  0.00000000000E+00 0. -1.
         11    1    4    4    0    0  0.97579712030E+01  0.93817744359E+01 -0.87988934871E+01  0.16144851205E+02  0.51100000000E-03 0. -1.
        -11    1    4    4    0    0  0.12731950127E+02  0.14236185755E+02  0.74169386223E+01  0.20488594820E+02  0.51100000000E-03 0.  1.
        -12    1    4    4    0    0  0.97692534449E+01 -0.10429782764E+02 -0.10500654632E+02  0.17733652446E+02  0.00000000000E+00 0.  1.
</event>
<event>
 8    1  0.1265908E-006  0.9118800E+02  0.7816164E-02  0.1184000E+00
        -11   -1    0    0    0    0  0.00000000000E+00  0.00000000000E+00  0.45593999997E+02  0.45594000000E+02  0.51100000000E-03 0. -1.
         11   -1    0    0    0    0 -0.00000000000E+00 -0.00000000000E+00 -0.45593999997E+02  0.45594000000E+02  0.51100000000E-03 0.  1.
         23    2    1    2    0    0  0.44408920985E-15  0.71054273576E-14 -0.35527136788E-14  0.91188000000E+02  0.91188000000E+02 0.  0.
    9900012    2    3    3    0    0  0.32458690583E+01  0.30992230221E+02 -0.19614404056E+02  0.54367097696E+02  0.40000030818E+02 0.  0.
         12    1    3    3    0    0 -0.32458690583E+01 -0.30992230221E+02  0.19614404056E+02  0.36820902304E+02  0.00000000000E+00 0. -1.
         11    1    4    4    0    0 -0.22496714032E+01  0.22627893490E+01 -0.27471921462E+01  0.42104990214E+01  0.51100000000E-03 0. -1.
        -11    1    4    4    0    0 -0.41295667162E+01 -0.17190597051E+01 -0.17655461085E+02  0.18213286193E+02  0.51100000000E-03 0.  1.
         12    1    4    4    0    0  0.96251071778E+01  0.30448500577E+02  0.78824917599E+00  0.31943312482E+02  0.00000000000E+00 0. -1.
</event>
<event>
 8    1  0.1265908E-006  0.9118800E+02  0.7816164E-02  0.1184000E+00
        -11   -1    0    0    0    0  0.00000000000E+00  0.00000000000E+00  0.45593999997E+02  0.45594000000E+02  0.51100000000E-03 0. -1.
         11   -1    0    0    0    0 -0.00000000000E+00 -0.00000000000E+00 -0.45593999997E+02  0.45594000000E+02  0.51100000000E-03 0.  1.
         23    2    1    2    0    0  0.00000000000E+00  0.00000000000E+00  0.22204460493E-15  0.91188000000E+02  0.91188000000E+02 0.  0.
    9900012    2    3    3    0    0  0.36771008740E+02  0.10104422764E+01  0.16288082555E+01  0.54367067181E+02  0.39999961252E+02 0.  0.
         12    1    3    3    0    0 -0.36771008740E+02 -0.10104422764E+01 -0.16288082555E+01  0.36820932819E+02  0.00000000000E+00 0. -1.
         11    1    4    4    0    0 -0.37223679638E+01 -0.68908258992E+01  0.54651213914E+00  0.78509987014E+01  0.51100000000E-03 0. -1.
        -11    1    4    4    0    0  0.29489925832E+02  0.24039643903E+00 -0.77107475769E+01  0.30482275908E+02  0.51100000000E-03 0.  1.
        -12    1    4    4    0    0  0.11003450871E+02  0.76608717365E+01  0.87930436933E+01  0.16033792572E+02  0.00000000000E+00 0.  1.
</event>
<event>
 8    1  0.1265908E-006  0.9118800E+02  0.7816164E-02  0.1184000E+00
        -11   -1    0    0    0    0  0.00000000000E+00  0.00000000000E+00  0.45593999997E+02  0.45594000000E+02  0.51100000000E-03 0.  1.
         11   -1    0    0    0    0 -0.00000000000E+00 -0.00000000000E+00 -0.45593999997E+02  0.45594000000E+02  0.51100000000E-03 0. -1.
         23    2    1    2    0    0  0.71054273576E-14 -0.44408920985E-15  0.22204460493E-15  0.91188000000E+02  0.91188000000E+02 0.  0.
    9900012    2    3    3    0    0  0.36591264099E+02 -0.37164069574E+01 -0.17473454580E+01  0.54367007276E+02  0.39999824687E+02 0.  0.
         12    1    3    3    0    0 -0.36591264099E+02  0.37164069574E+01  0.17473454580E+01  0.36820992724E+02  0.00000000000E+00 0. -1.
         11    1    4    4    0    0  0.11276852750E+02  0.66435920353E+01 -0.99912129715E+01  0.16465997084E+02  0.51100000000E-03 0. -1.
        -11    1    4    4    0    0  0.24808936064E+02 -0.68338292322E+01 -0.31855186593E+01  0.25929366749E+02  0.51100000000E-03 0.  1.
         12    1    4    4    0    0  0.50547528464E+00 -0.35261697605E+01  0.11429386173E+02  0.11971643443E+02  0.00000000000E+00 0. -1.
</event>
<event>
 8    1  0.1265908E-006  0.9118800E+02  0.7816164E-02  0.1184000E+00
        -11   -1    0    0    0    0  0.00000000000E+00  0.00000000000E+00  0.45593999997E+02  0.45594000000E+02  0.51100000000E-03 0. -1.
         11   -1    0    0    0    0 -0.00000000000E+00 -0.00000000000E+00 -0.45593999997E+02  0.45594000000E+02  0.51100000000E-03 0.  1.
         23    2    1    2    0    0  0.00000000000E+00  0.00000000000E+00 -0.35527136788E-14  0.91188000000E+02  0.91188000000E+02 0.  0.
    9900012    2    3    3    0    0 -0.24984779781E+02  0.16005366626E+02  0.21802931342E+02  0.54367098373E+02  0.40000032360E+02 0.  0.
        -12    1    3    3    0    0  0.24984779781E+02 -0.16005366626E+02 -0.21802931342E+02  0.36820901627E+02  0.00000000000E+00 0.  1.
         11    1    4    4    0    0  0.38781757375E+01  0.13734230754E+01 -0.44110692639E+01  0.60319209467E+01  0.51100000000E-03 0. -1.
        -11    1    4    4    0    0 -0.91032005207E+01  0.15127578389E+02  0.31055831950E+01  0.17926420024E+02  0.51100000000E-03 0.  1.
         12    1    4    4    0    0 -0.19759754998E+02 -0.49563483866E+00  0.23108417411E+02  0.30408757402E+02  0.00000000000E+00 0. -1.
</event>
<event>
 8    1  0.1265908E-006  0.9118800E+02  0.7816164E-02  0.1184000E+00
        -11   -1    0    0    0    0  0.00000000000E+00  0.00000000000E+00  0.45593999997E+02  0.45594000000E+02  0.51100000000E-03 0.  1.
         11   -1    0    0    0    0 -0.00000000000E+00 -0.00000000000E+00 -0.45593999997E+02  0.45594000000E+02  0.51100000000E-03 0. -1.
         23    2    1    2    0    0  0.88817841970E-15  0.00000000000E+00 -0.17763568394E-14  0.91188000000E+02  0.91188000000E+02 0.  0.
    9900012    2    3    3    0    0  0.51541080294E+01  0.34503947266E+02 -0.11776756582E+02  0.54367092867E+02  0.40000019809E+02 0.  0.
         12    1    3    3    0    0 -0.51541080294E+01 -0.34503947266E+02  0.11776756582E+02  0.36820907133E+02  0.00000000000E+00 0. -1.
         11    1    4    4    0    0  0.43304752825E-01  0.59646803495E+01  0.11445138107E+02  0.12906218406E+02  0.51100000000E-03 0. -1.
        -11    1    4    4    0    0  0.39132865608E+01  0.31140261153E+02 -0.20349134056E+02  0.37404771534E+02  0.51100000000E-03 0.  1.
         12    1    4    4    0    0  0.11975167157E+01 -0.26009942371E+01 -0.28727606329E+01  0.40561029277E+01  0.00000000000E+00 0. -1.
</event>
<event>
 8    1  0.1265908E-006  0.9118800E+02  0.7816164E-02  0.1184000E+00
        -11   -1    0    0    0    0  0.00000000000E+00  0.00000000000E+00  0.45593999997E+02  0.45594000000E+02  0.51100000000E-03 0. -1.
         11   -1    0    0    0    0 -0.00000000000E+00 -0.00000000000E+00 -0.45593999997E+02  0.45594000000E+02  0.51100000000E-03 0.  1.
         23    2    1    2    0    0  0.35527136788E-14  0.00000000000E+00  0.00000000000E+00  0.91188000000E+02  0.91188000000E+02 0.  0.
    9900012    2    3    3    0    0 -0.26173593554E+02 -0.19624541515E+02  0.16899676449E+02  0.54367099776E+02  0.40000035560E+02 0.  0.
        -12    1    3    3    0    0  0.26173593554E+02  0.19624541515E+02 -0.16899676449E+02  0.36820900224E+02  0.00000000000E+00 0.  1.
         11    1    4    4    0    0 -0.12051141225E+02 -0.12868767289E+01  0.21670770430E+02  0.24829586139E+02  0.51100000000E-03 0. -1.
        -11    1    4    4    0    0  0.30558127111E+01 -0.79725436949E+01 -0.40790780728E+01  0.94624691534E+01  0.51100000000E-03 0.  1.
        -12    1    4    4    0    0 -0.17178265040E+02 -0.10365121091E+02 -0.69201590765E+00  0.20075044484E+02  0.00000000000E+00 0.  1.
</event>
<event>
 8    1  0.1265908E-006  0.9118800E+02  0.7816164E-02  0.1184000E+00
        -11   -1    0    0    0    0  0.00000000000E+00  0.00000000000E+00  0.45593999997E+02  0.45594000000E+02  0.51100000000E-03 0.  1.
         11   -1    0    0    0    0 -0.00000000000E+00 -0.00000000000E+00 -0.45593999997E+02  0.45594000000E+02  0.51100000000E-03 0. -1.
         23    2    1    2    0    0  0.00000000000E+00  0.00000000000E+00  0.00000000000E+00  0.91188000000E+02  0.91188000000E+02 0.  0.
    9900012    2    3    3    0    0  0.21265011690E+02  0.80670764259E+01 -0.28956876901E+02  0.54367093383E+02  0.40000020986E+02 0.  0.
        -12    1    3    3    0    0 -0.21265011690E+02 -0.80670764259E+01  0.28956876901E+02  0.36820906617E+02  0.00000000000E+00 0.  1.
         11    1    4    4    0    0  0.17492026643E+02  0.43468012444E+01 -0.12609109181E+02  0.21996711385E+02  0.51100000000E-03 0. -1.
        -11    1    4    4    0    0  0.52266266985E+01 -0.10319187870E+02 -0.13835583847E+02  0.18034041300E+02  0.51100000000E-03 0.  1.
         12    1    4    4    0    0 -0.14536416514E+01  0.14039463052E+02 -0.25121838723E+01  0.14336340699E+02  0.00000000000E+00 0. -1.
</event>
<event>
 8    1  0.1265908E-006  0.9118800E+02  0.7816164E-02  0.1184000E+00
        -11   -1    0    0    0    0  0.00000000000E+00  0.00000000000E+00  0.45593999997E+02  0.45594000000E+02  0.51100000000E-03 0.  1.
         11   -1    0    0    0    0 -0.00000000000E+00 -0.00000000000E+00 -0.45593999997E+02  0.45594000000E+02  0.51100000000E-03 0. -1.
         23    2    1    2    0    0 -0.88817841970E-15  0.35527136788E-14  0.35527136788E-14  0.91188000000E+02  0.91188000000E+02 0.  0.
    9900012    2    3    3    0    0  0.60316694417E+01 -0.30845746970E+02 -0.19181728801E+02  0.54367083904E+02  0.39999999375E+02 0.  0.
         12    1    3    3    0    0 -0.60316694417E+01  0.30845746970E+02  0.19181728801E+02  0.36820916096E+02  0.00000000000E+00 0. -1.
         11    1    4    4    0    0 -0.31383049061E+01 -0.85590598832E+01  0.66496793373E+01  0.11283824676E+02  0.51100000000E-03 0. -1.
        -11    1    4    4    0    0  0.33921027597E+00 -0.46972488392E+01  0.47673093003E+01  0.67012273872E+01  0.51100000000E-03 0.  1.
         12    1    4    4    0    0  0.88307640718E+01 -0.17589438248E+02 -0.30598717438E+02  0.36382031840E+02  0.00000000000E+00 0. -1.
</event>
<event>
 8    1  0.1265908E-006  0.9118800E+02  0.7816164E-02  0.1184000E+00
        -11   -1    0    0    0    0  0.00000000000E+00  0.00000000000E+00  0.45593999997E+02  0.45594000000E+02  0.51100000000E-03 0.  1.
         11   -1    0    0    0    0 -0.00000000000E+00 -0.00000000000E+00 -0.45593999997E+02  0.45594000000E+02  0.51100000000E-03 0. -1.
         23    2    1    2    0    0  0.00000000000E+00 -0.17763568394E-14  0.00000000000E+00  0.91188000000E+02  0.91188000000E+02 0.  0.
    9900012    2    3    3    0    0  0.18534846968E+02 -0.10677611583E+02  0.29970482849E+02  0.54367057814E+02  0.39999939899E+02 0.  0.
         12    1    3    3    0    0 -0.18534846968E+02  0.10677611583E+02 -0.29970482849E+02  0.36820942186E+02  0.00000000000E+00 0. -1.
         11    1    4    4    0    0  0.89523198556E+01 -0.72759684442E+00  0.24032094609E+01  0.92977870452E+01  0.51100000000E-03 0. -1.
        -11    1    4    4    0    0 -0.10614305970E+02 -0.10975251065E+02  0.14014917075E+02  0.20725287165E+02  0.51100000000E-03 0.  1.
        -12    1    4    4    0    0  0.20196833082E+02  0.10252363267E+01  0.13552356314E+02  0.24343983604E+02  0.00000000000E+00 0.  1.
</event>
<event>
 8    1  0.1265908E-006  0.9118800E+02  0.7816164E-02  0.1184000E+00
        -11   -1    0    0    0    0  0.00000000000E+00  0.00000000000E+00  0.45593999997E+02  0.45594000000E+02  0.51100000000E-03 0. -1.
         11   -1    0    0    0    0 -0.00000000000E+00 -0.00000000000E+00 -0.45593999997E+02  0.45594000000E+02  0.51100000000E-03 0.  1.
         23    2    1    2    0    0 -0.71054273576E-14  0.00000000000E+00 -0.88817841970E-15  0.91188000000E+02  0.91188000000E+02 0.  0.
    9900012    2    3    3    0    0  0.34195258971E+02 -0.11764945527E+02  0.69318690792E+01  0.54367075402E+02  0.39999979994E+02 0.  0.
        -12    1    3    3    0    0 -0.34195258971E+02  0.11764945527E+02 -0.69318690792E+01  0.36820924598E+02  0.00000000000E+00 0.  1.
         11    1    4    4    0    0  0.23179929064E+02  0.61955815404E+01  0.16098120604E+01  0.24047574455E+02  0.51100000000E-03 0. -1.
        -11    1    4    4    0    0 -0.40336246826E+00 -0.10488748623E+02 -0.64309145825E+01  0.12309882680E+02  0.51100000000E-03 0.  1.
        -12    1    4    4    0    0  0.11418692375E+02 -0.74717784445E+01  0.11752971601E+02  0.18009618267E+02  0.00000000000E+00 0.  1.
</event>
<event>
 8    1  0.1265908E-006  0.9118800E+02  0.7816164E-02  0.1184000E+00
        -11   -1    0    0    0    0  0.00000000000E+00  0.00000000000E+00  0.45593999997E+02  0.45594000000E+02  0.51100000000E-03 0.  1.
         11   -1    0    0    0    0 -0.00000000000E+00 -0.00000000000E+00 -0.45593999997E+02  0.45594000000E+02  0.51100000000E-03 0. -1.
         23    2    1    2    0    0  0.00000000000E+00  0.00000000000E+00  0.00000000000E+00  0.91188000000E+02  0.91188000000E+02 0.  0.
    9900012    2    3    3    0    0  0.64384313845E+01 -0.25601596769E+02  0.25668754101E+02  0.54367080771E+02  0.39999992233E+02 0.  0.
         12    1    3    3    0    0 -0.64384313845E+01  0.25601596769E+02 -0.25668754101E+02  0.36820919229E+02  0.00000000000E+00 0. -1.
         11    1    4    4    0    0 -0.52523717565E+00 -0.97812741254E+01  0.39745091592E+01  0.10570994320E+02  0.51100000000E-03 0.  1.
        -11    1    4    4    0    0  0.11179128782E+02 -0.11289484636E+02  0.29696825163E+02  0.33679768537E+02  0.51100000000E-03 0. -1.
         12    1    4    4    0    0 -0.42154602221E+01 -0.45308380071E+01 -0.80025802209E+01  0.10116317913E+02  0.00000000000E+00 0. -1.
</event>
<event>
 8    1  0.1265908E-006  0.9118800E+02  0.7816164E-02  0.1184000E+00
        -11   -1    0    0    0    0  0.00000000000E+00  0.00000000000E+00  0.45593999997E+02  0.45594000000E+02  0.51100000000E-03 0. -1.
         11   -1    0    0    0    0 -0.00000000000E+00 -0.00000000000E+00 -0.45593999997E+02  0.45594000000E+02  0.51100000000E-03 0.  1.
         23    2    1    2    0    0  0.35527136788E-14 -0.17763568394E-14  0.00000000000E+00  0.91188000000E+02  0.91188000000E+02 0.  0.
    9900012    2    3    3    0    0  0.24309496808E+02 -0.13248364427E+02 -0.24275685428E+02  0.54367086133E+02  0.40000004457E+02 0.  0.
         12    1    3    3    0    0 -0.24309496808E+02  0.13248364427E+02  0.24275685428E+02  0.36820913867E+02  0.00000000000E+00 0. -1.
         11    1    4    4    0    0 -0.83209353893E+01 -0.36196397864E+01 -0.35485427242E+01  0.97433009633E+01  0.51100000000E-03 0.  1.
        -11    1    4    4    0    0  0.12625025556E+02 -0.14090399855E+02 -0.83501717827E+01  0.20679845440E+02  0.51100000000E-03 0. -1.
        -12    1    4    4    0    0  0.20005406641E+02  0.44616752147E+01 -0.12376970921E+02  0.23943939730E+02  0.00000000000E+00 0.  1.
</event>
<event>
 8    1  0.1265908E-006  0.9118800E+02  0.7816164E-02  0.1184000E+00
        -11   -1    0    0    0    0  0.00000000000E+00  0.00000000000E+00  0.45593999997E+02  0.45594000000E+02  0.51100000000E-03 0.  1.
         11   -1    0    0    0    0 -0.00000000000E+00 -0.00000000000E+00 -0.45593999997E+02  0.45594000000E+02  0.51100000000E-03 0. -1.
         23    2    1    2    0    0  0.17763568394E-14  0.00000000000E+00  0.88817841970E-15  0.91188000000E+02  0.91188000000E+02 0.  0.
    9900012    2    3    3    0    0 -0.11461300584E+02 -0.34396749526E+02 -0.64256002293E+01  0.54366998827E+02  0.39999805426E+02 0.  0.
        -12    1    3    3    0    0  0.11461300584E+02  0.34396749526E+02  0.64256002293E+01  0.36821001173E+02  0.00000000000E+00 0.  1.
         11    1    4    4    0    0 -0.95643972595E+01  0.60222711766E+01 -0.64142807173E+01  0.12995708616E+02  0.51100000000E-03 0. -1.
        -11    1    4    4    0    0 -0.46160564950E+00 -0.14580731220E+01  0.17750068490E+01  0.23430122876E+01  0.51100000000E-03 0.  1.
         12    1    4    4    0    0 -0.14352976752E+01 -0.38960947581E+02 -0.17863263610E+01  0.39028277923E+02  0.00000000000E+00 0. -1.
</event>
<event>
 8    1  0.1265908E-006  0.9118800E+02  0.7816164E-02  0.1184000E+00
        -11   -1    0    0    0    0  0.00000000000E+00  0.00000000000E+00  0.45593999997E+02  0.45594000000E+02  0.51100000000E-03 0.  1.
         11   -1    0    0    0    0 -0.00000000000E+00 -0.00000000000E+00 -0.45593999997E+02  0.45594000000E+02  0.51100000000E-03 0. -1.
         23    2    1    2    0    0  0.00000000000E+00  0.00000000000E+00  0.00000000000E+00  0.91188000000E+02  0.91188000000E+02 0.  0.
    9900012    2    3    3    0    0  0.88734883124E+01  0.85954137068E+01  0.34686540523E+02  0.54367136008E+02  0.40000118158E+02 0.  0.
         12    1    3    3    0    0 -0.88734883124E+01 -0.85954137068E+01 -0.34686540523E+02  0.36820863992E+02  0.00000000000E+00 0. -1.
         11    1    4    4    0    0  0.63813508301E+01 -0.28682877165E+01  0.54381307350E+00  0.70174386895E+01  0.51100000000E-03 0. -1.
        -11    1    4    4    0    0  0.45270160880E+01  0.21687829761E+02  0.25727532262E+02  0.33952345294E+02  0.51100000000E-03 0.  1.
        -12    1    4    4    0    0 -0.20348786057E+01 -0.10224128338E+02  0.84151951879E+01  0.13397352024E+02  0.00000000000E+00 0.  1.
</event>
<event>
 8    1  0.1265908E-006  0.9118800E+02  0.7816164E-02  0.1184000E+00
        -11   -1    0    0    0    0  0.00000000000E+00  0.00000000000E+00  0.45593999997E+02  0.45594000000E+02  0.51100000000E-03 0. -1.
         11   -1    0    0    0    0 -0.00000000000E+00 -0.00000000000E+00 -0.45593999997E+02  0.45594000000E+02  0.51100000000E-03 0.  1.
         23    2    1    2    0    0  0.00000000000E+00  0.35527136788E-14 -0.88817841970E-15  0.91188000000E+02  0.91188000000E+02 0.  0.
    9900012    2    3    3    0    0  0.29621510714E+02  0.20802517366E+02 -0.67529654056E+01  0.54367066178E+02  0.39999958966E+02 0.  0.
        -12    1    3    3    0    0 -0.29621510714E+02 -0.20802517366E+02  0.67529654056E+01  0.36820933822E+02  0.00000000000E+00 0.  1.
         11    1    4    4    0    0  0.12678626062E+02 -0.36223128682E+01  0.27985101963E+01  0.13479627922E+02  0.51100000000E-03 0. -1.
        -11    1    4    4    0    0  0.57735333458E+01 -0.53473517030E+01 -0.81985936713E+00  0.79120178951E+01  0.51100000000E-03 0.  1.
         12    1    4    4    0    0  0.11169351306E+02  0.29772181937E+02 -0.87316162347E+01  0.32975420360E+02  0.00000000000E+00 0. -1.
</event>
<event>
 8    1  0.1265908E-006  0.9118800E+02  0.7816164E-02  0.1184000E+00
        -11   -1    0    0    0    0  0.00000000000E+00  0.00000000000E+00  0.45593999997E+02  0.45594000000E+02  0.51100000000E-03 0. -1.
         11   -1    0    0    0    0 -0.00000000000E+00 -0.00000000000E+00 -0.45593999997E+02  0.45594000000E+02  0.51100000000E-03 0.  1.
         23    2    1    2    0    0 -0.44408920985E-15  0.00000000000E+00 -0.35527136788E-14  0.91188000000E+02  0.91188000000E+02 0.  0.
    9900012    2    3    3    0    0  0.12635340625E+01  0.24957134133E+02  0.27043080438E+02  0.54367037737E+02  0.39999894128E+02 0.  0.
        -12    1    3    3    0    0 -0.12635340625E+01 -0.24957134133E+02 -0.27043080438E+02  0.36820962263E+02  0.00000000000E+00 0.  1.
         11    1    4    4    0    0  0.57573967462E-01  0.13269602302E+02  0.21230960155E+02  0.25036759562E+02  0.51100000000E-03 0. -1.
        -11    1    4    4    0    0  0.11651149693E+02  0.15656038476E+01  0.85417581956E+01  0.14531415550E+02  0.51100000000E-03 0.  1.
         12    1    4    4    0    0 -0.10445189598E+02  0.10121927983E+02 -0.27296379130E+01  0.14798862624E+02  0.00000000000E+00 0. -1.
</event>
<event>
 8    1  0.1265908E-006  0.9118800E+02  0.7816164E-02  0.1184000E+00
        -11   -1    0    0    0    0  0.00000000000E+00  0.00000000000E+00  0.45593999997E+02  0.45594000000E+02  0.51100000000E-03 0.  1.
         11   -1    0    0    0    0 -0.00000000000E+00 -0.00000000000E+00 -0.45593999997E+02  0.45594000000E+02  0.51100000000E-03 0. -1.
         23    2    1    2    0    0 -0.35527136788E-14  0.00000000000E+00 -0.88817841970E-15  0.91188000000E+02  0.91188000000E+02 0.  0.
    9900012    2    3    3    0    0 -0.25877898416E+02 -0.25838445359E+02 -0.42995266795E+01  0.54367125287E+02  0.40000093716E+02 0.  0.
        -12    1    3    3    0    0  0.25877898416E+02  0.25838445359E+02  0.42995266795E+01  0.36820874713E+02  0.00000000000E+00 0.  1.
         11    1    4    4    0    0 -0.18616605743E+02 -0.29041069873E+02  0.34140757699E+01  0.34664357233E+02  0.51100000000E-03 0.  1.
        -11    1    4    4    0    0 -0.10873341519E+02  0.36457255576E+01 -0.33222312358E+00  0.11473065985E+02  0.51100000000E-03 0. -1.
         12    1    4    4    0    0  0.36120488457E+01 -0.44310104415E+00 -0.73813793258E+01  0.82297020694E+01  0.00000000000E+00 0. -1.
</event>
<event>
 8    1  0.1265908E-006  0.9118800E+02  0.7816164E-02  0.1184000E+00
        -11   -1    0    0    0    0  0.00000000000E+00  0.00000000000E+00  0.45593999997E+02  0.45594000000E+02  0.51100000000E-03 0.  1.
         11   -1    0    0    0    0 -0.00000000000E+00 -0.00000000000E+00 -0.45593999997E+02  0.45594000000E+02  0.51100000000E-03 0. -1.
         23    2    1    2    0    0 -0.88817841970E-15  0.00000000000E+00  0.35527136788E-14  0.91188000000E+02  0.91188000000E+02 0.  0.
    9900012    2    3    3    0    0 -0.78911940518E+01 -0.29270823439E+02  0.20898026610E+02  0.54367087945E+02  0.40000008588E+02 0.  0.
         12    1    3    3    0    0  0.78911940518E+01  0.29270823439E+02 -0.20898026610E+02  0.36820912055E+02  0.00000000000E+00 0. -1.
         11    1    4    4    0    0  0.32530478021E+01 -0.85691152189E+01  0.69080995193E+01  0.11477538711E+02  0.51100000000E-03 0. -1.
        -11    1    4    4    0    0  0.36073469584E+01 -0.14676292387E+02 -0.69017897580E+01  0.16614488028E+02  0.51100000000E-03 0.  1.
         12    1    4    4    0    0 -0.14751588812E+02 -0.60254158331E+01  0.20891716849E+02  0.26275061205E+02  0.00000000000E+00 0. -1.
</event>
<event>
 8    1  0.1265908E-006  0.9118800E+02  0.7816164E-02  0.1184000E+00
        -11   -1    0    0    0    0  0.00000000000E+00  0.00000000000E+00  0.45593999997E+02  0.45594000000E+02  0.51100000000E-03 0.  1.
         11   -1    0    0    0    0 -0.00000000000E+00 -0.00000000000E+00 -0.45593999997E+02  0.45594000000E+02  0.51100000000E-03 0. -1.
         23    2    1    2    0    0  0.22204460493E-15 -0.35527136788E-14 -0.35527136788E-14  0.91188000000E+02  0.91188000000E+02 0.  0.
    9900012    2    3    3    0    0 -0.88248725499E+00  0.23328430565E+02  0.28474272301E+02  0.54367100507E+02  0.40000037226E+02 0.  0.
         12    1    3    3    0    0  0.88248725499E+00 -0.23328430565E+02 -0.28474272301E+02  0.36820899493E+02  0.00000000000E+00 0. -1.
         11    1    4    4    0    0 -0.76222145148E+00 -0.94653452674E+00  0.59586259286E+01  0.60812936427E+01  0.51100000000E-03 0.  1.
        -11    1    4    4    0    0 -0.10185907408E+02 -0.39540964980E+01  0.21391805699E+00  0.10928556631E+02  0.51100000000E-03 0. -1.
         12    1    4    4    0    0  0.10065641605E+02  0.28229061590E+02  0.22301728315E+02  0.37357250234E+02  0.00000000000E+00 0. -1.
</event>
<event>
 8    1  0.1265908E-006  0.9118800E+02  0.7816164E-02  0.1184000E+00
        -11   -1    0    0    0    0  0.00000000000E+00  0.00000000000E+00  0.45593999997E+02  0.45594000000E+02  0.51100000000E-03 0. -1.
         11   -1    0    0    0    0 -0.00000000000E+00 -0.00000000000E+00 -0.45593999997E+02  0.45594000000E+02  0.51100000000E-03 0.  1.
         23    2    1    2    0    0  0.00000000000E+00  0.00000000000E+00  0.00000000000E+00  0.91188000000E+02  0.91188000000E+02 0.  0.
    9900012    2    3    3    0    0  0.18625247902E+02  0.27743264796E+02 -0.15465859593E+02  0.54367062832E+02  0.39999951339E+02 0.  0.
         12    1    3    3    0    0 -0.18625247902E+02 -0.27743264796E+02  0.15465859593E+02  0.36820937168E+02  0.00000000000E+00 0. -1.
         11    1    4    4    0    0 -0.76185089488E+01  0.33574327665E+01  0.58164809805E+00  0.83457982335E+01  0.51100000000E-03 0. -1.
        -11    1    4    4    0    0  0.13305532756E+02  0.26596795700E+02 -0.13457144347E+02  0.32642326475E+02  0.51100000000E-03 0.  1.
        -12    1    4    4    0    0  0.12938224095E+02 -0.22109636706E+01 -0.25903633437E+01  0.13378938124E+02  0.00000000000E+00 0.  1.
</event>
<event>
 8    1  0.1265908E-006  0.9118800E+02  0.7816164E-02  0.1184000E+00
        -11   -1    0    0    0    0  0.00000000000E+00  0.00000000000E+00  0.45593999997E+02  0.45594000000E+02  0.51100000000E-03 0.  1.
         11   -1    0    0    0    0 -0.00000000000E+00 -0.00000000000E+00 -0.45593999997E+02  0.45594000000E+02  0.51100000000E-03 0. -1.
         23    2    1    2    0    0 -0.44408920985E-15  0.00000000000E+00 -0.35527136788E-14  0.91188000000E+02  0.91188000000E+02 0.  0.
    9900012    2    3    3    0    0 -0.37926777933E+01  0.19955596001E+02 -0.30711065387E+02  0.54367085376E+02  0.40000002731E+02 0.  0.
        -12    1    3    3    0    0  0.37926777933E+01 -0.19955596001E+02  0.30711065387E+02  0.36820914624E+02  0.00000000000E+00 0.  1.
         11    1    4    4    0    0  0.35245312497E+01  0.81921636053E+01 -0.28229230322E+02  0.29604447468E+02  0.51100000000E-03 0. -1.
        -11    1    4    4    0    0 -0.38531154783E+01  0.82986082617E+01 -0.11381685591E+02  0.14603292954E+02  0.51100000000E-03 0.  1.
        -12    1    4    4    0    0 -0.34640935647E+01  0.34648241335E+01  0.88998505254E+01  0.10159344953E+02  0.00000000000E+00 0.  1.
</event>
<event>
 8    1  0.1265908E-006  0.9118800E+02  0.7816164E-02  0.1184000E+00
        -11   -1    0    0    0    0  0.00000000000E+00  0.00000000000E+00  0.45593999997E+02  0.45594000000E+02  0.51100000000E-03 0.  1.
         11   -1    0    0    0    0 -0.00000000000E+00 -0.00000000000E+00 -0.45593999997E+02  0.45594000000E+02  0.51100000000E-03 0. -1.
         23    2    1    2    0    0  0.00000000000E+00  0.00000000000E+00  0.00000000000E+00  0.91188000000E+02  0.91188000000E+02 0.  0.
    9900012    2    3    3    0    0  0.32033807280E+02  0.12327194815E+02 -0.13328709868E+02  0.54367094965E+02  0.40000024592E+02 0.  0.
        -12    1    3    3    0    0 -0.32033807280E+02 -0.12327194815E+02  0.13328709868E+02  0.36820905035E+02  0.00000000000E+00 0.  1.
         11    1    4    4    0    0  0.44602497993E+01  0.29825914668E+01 -0.56265967915E+01  0.77748486702E+01  0.51100000000E-03 0. -1.
        -11    1    4    4    0    0  0.92501611681E+01 -0.39402672964E+01 -0.18849437657E+02  0.21363344501E+02  0.51100000000E-03 0.  1.
        -12    1    4    4    0    0  0.18323396312E+02  0.13284870644E+02  0.11147324581E+02  0.25228901794E+02  0.00000000000E+00 0.  1.
</event>
<event>
 8    1  0.1265908E-006  0.9118800E+02  0.7816164E-02  0.1184000E+00
        -11   -1    0    0    0    0  0.00000000000E+00  0.00000000000E+00  0.45593999997E+02  0.45594000000E+02  0.51100000000E-03 0.  1.
         11   -1    0    0    0    0 -0.00000000000E+00 -0.00000000000E+00 -0.45593999997E+02  0.45594000000E+02  0.51100000000E-03 0. -1.
         23    2    1    2    0    0  0.00000000000E+00  0.00000000000E+00  0.00000000000E+00  0.91188000000E+02  0.91188000000E+02 0.  0.
    9900012    2    3    3    0    0 -0.89803702348E+01 -0.33675558422E+02 -0.11878129785E+02  0.54367078613E+02  0.39999987313E+02 0.  0.
        -12    1    3    3    0    0  0.89803702348E+01  0.33675558422E+02  0.11878129785E+02  0.36820921387E+02  0.00000000000E+00 0.  1.
         11    1    4    4    0    0 -0.83534135932E+01 -0.23393703750E+02  0.11345635272E+01  0.24866284975E+02  0.51100000000E-03 0. -1.
        -11    1    4    4    0    0 -0.93074149210E+01  0.28282531010E+01 -0.11314908604E+01  0.97932252064E+01  0.51100000000E-03 0.  1.
         12    1    4    4    0    0  0.86804582793E+01 -0.13110107773E+02 -0.11881202452E+02  0.19707568431E+02  0.00000000000E+00 0. -1.
</event>
<event>
 8    1  0.1265908E-006  0.9118800E+02  0.7816164E-02  0.1184000E+00
        -11   -1    0    0    0    0  0.00000000000E+00  0.00000000000E+00  0.45593999997E+02  0.45594000000E+02  0.51100000000E-03 0.  1.
         11   -1    0    0    0    0 -0.00000000000E+00 -0.00000000000E+00 -0.45593999997E+02  0.45594000000E+02  0.51100000000E-03 0. -1.
         23    2    1    2    0    0 -0.35527136788E-14  0.00000000000E+00  0.00000000000E+00  0.91188000000E+02  0.91188000000E+02 0.  0.
    9900012    2    3    3    0    0  0.27996179006E+02  0.68949649265E+01  0.22901011208E+02  0.54367042725E+02  0.39999905500E+02 0.  0.
         12    1    3    3    0    0 -0.27996179006E+02 -0.68949649265E+01 -0.22901011208E+02  0.36820957275E+02  0.00000000000E+00 0. -1.
         11    1    4    4    0    0  0.21255497425E+02  0.76777317919E+01  0.12449385712E+01  0.22633903962E+02  0.51100000000E-03 0. -1.
        -11    1    4    4    0    0  0.82805160850E+01  0.24229016798E+01  0.25246231088E+02  0.26679759812E+02  0.51100000000E-03 0.  1.
         12    1    4    4    0    0 -0.15398345039E+01 -0.32056685452E+01 -0.35901584514E+01  0.50533789515E+01  0.00000000000E+00 0. -1.
</event>
<event>
 8    1  0.1265908E-006  0.9118800E+02  0.7816164E-02  0.1184000E+00
        -11   -1    0    0    0    0  0.00000000000E+00  0.00000000000E+00  0.45593999997E+02  0.45594000000E+02  0.51100000000E-03 0.  1.
         11   -1    0    0    0    0 -0.00000000000E+00 -0.00000000000E+00 -0.45593999997E+02  0.45594000000E+02  0.51100000000E-03 0. -1.
         23    2    1    2    0    0 -0.35527136788E-14  0.00000000000E+00 -0.17763568394E-14  0.91188000000E+02  0.91188000000E+02 0.  0.
    9900012    2    3    3    0    0  0.27894643281E+02 -0.23021430318E+02 -0.69052976853E+01  0.54367075055E+02  0.39999979204E+02 0.  0.
         12    1    3    3    0    0 -0.27894643281E+02  0.23021430318E+02  0.69052976853E+01  0.36820924945E+02  0.00000000000E+00 0. -1.
         11    1    4    4    0    0 -0.14659381762E+01 -0.61781816213E+01 -0.91029623671E+01  0.11098775924E+02  0.51100000000E-03 0. -1.
        -11    1    4    4    0    0  0.17320974198E+02 -0.11680038814E+02  0.14393884580E+02  0.25369733294E+02  0.51100000000E-03 0.  1.
         12    1    4    4    0    0  0.12039607259E+02 -0.51632098830E+01 -0.12196219898E+02  0.17898565838E+02  0.00000000000E+00 0. -1.
</event>
<event>
 8    1  0.1265908E-006  0.9118800E+02  0.7816164E-02  0.1184000E+00
        -11   -1    0    0    0    0  0.00000000000E+00  0.00000000000E+00  0.45593999997E+02  0.45594000000E+02  0.51100000000E-03 0.  1.
         11   -1    0    0    0    0 -0.00000000000E+00 -0.00000000000E+00 -0.45593999997E+02  0.45594000000E+02  0.51100000000E-03 0. -1.
         23    2    1    2    0    0  0.00000000000E+00  0.00000000000E+00  0.00000000000E+00  0.91188000000E+02  0.91188000000E+02 0.  0.
    9900012    2    3    3    0    0  0.32064378257E+01 -0.24119111442E+02 -0.27636332453E+02  0.54367086761E+02  0.40000005889E+02 0.  0.
        -12    1    3    3    0    0 -0.32064378257E+01  0.24119111442E+02  0.27636332453E+02  0.36820913239E+02  0.00000000000E+00 0.  1.
         11    1    4    4    0    0 -0.75643184945E+01 -0.25722750908E+02 -0.21767537743E+02  0.34535554552E+02  0.51100000000E-03 0.  1.
        -11    1    4    4    0    0  0.16708619347E+01  0.65622756539E+01  0.17202034659E+01  0.69867260994E+01  0.51100000000E-03 0. -1.
        -12    1    4    4    0    0  0.90998943855E+01 -0.49586361887E+01 -0.75889981763E+01  0.12844806110E+02  0.00000000000E+00 0.  1.
</event>
<event>
 8    1  0.1265908E-006  0.9118800E+02  0.7816164E-02  0.1184000E+00
        -11   -1    0    0    0    0  0.00000000000E+00  0.00000000000E+00  0.45593999997E+02  0.45594000000E+02  0.51100000000E-03 0.  1.
         11   -1    0    0    0    0 -0.00000000000E+00 -0.00000000000E+00 -0.45593999997E+02  0.45594000000E+02  0.51100000000E-03 0. -1.
         23    2    1    2    0    0 -0.35527136788E-14  0.00000000000E+00  0.17763568394E-14  0.91188000000E+02  0.91188000000E+02 0.  0.
    9900012    2    3    3    0    0 -0.22415558193E+02  0.27043291203E+02  0.11044591117E+02  0.54367084189E+02  0.40000000027E+02 0.  0.
        -12    1    3    3    0    0  0.22415558193E+02 -0.27043291203E+02 -0.11044591117E+02  0.36820915811E+02  0.00000000000E+00 0.  1.
         11    1    4    4    0    0 -0.75803118759E+00  0.64408601987E+01 -0.88650304876E+01  0.10983990950E+02  0.51100000000E-03 0. -1.
        -11    1    4    4    0    0 -0.72009091565E+00  0.26461306108E+01  0.15145766493E+02  0.15392036286E+02  0.51100000000E-03 0.  1.
         12    1    4    4    0    0 -0.20937436089E+02  0.17956300394E+02  0.47638551120E+01  0.27991056953E+02  0.00000000000E+00 0. -1.
</event>
<event>
 8    1  0.1265908E-006  0.9118800E+02  0.7816164E-02  0.1184000E+00
        -11   -1    0    0    0    0  0.00000000000E+00  0.00000000000E+00  0.45593999997E+02  0.45594000000E+02  0.51100000000E-03 0.  1.
         11   -1    0    0    0    0 -0.00000000000E+00 -0.00000000000E+00 -0.45593999997E+02  0.45594000000E+02  0.51100000000E-03 0. -1.
         23    2    1    2    0    0  0.00000000000E+00  0.00000000000E+00  0.00000000000E+00  0.91188000000E+02  0.91188000000E+02 0.  0.
    9900012    2    3    3    0    0 -0.28631164405E+02  0.20929177125E+02 -0.98996409486E+01  0.54367123840E+02  0.40000090418E+02 0.  0.
        -12    1    3    3    0    0  0.28631164405E+02 -0.20929177125E+02  0.98996409486E+01  0.36820876160E+02  0.00000000000E+00 0.  1.
         11    1    4    4    0    0 -0.15212106341E+02  0.10143489155E+02 -0.22821266351E+02  0.29242242556E+02  0.51100000000E-03 0. -1.
        -11    1    4    4    0    0 -0.14998602930E+02  0.55920299359E+01  0.85032071530E+01  0.18125490912E+02  0.51100000000E-03 0.  1.
         12    1    4    4    0    0  0.15795448666E+01  0.51936580333E+01  0.44184182491E+01  0.69993903718E+01  0.00000000000E+00 0. -1.
</event>
<event>
 8    1  0.1265908E-006  0.9118800E+02  0.7816164E-02  0.1184000E+00
        -11   -1    0    0    0    0  0.00000000000E+00  0.00000000000E+00  0.45593999997E+02  0.45594000000E+02  0.51100000000E-03 0.  1.
         11   -1    0    0    0    0 -0.00000000000E+00 -0.00000000000E+00 -0.45593999997E+02  0.45594000000E+02  0.51100000000E-03 0. -1.
         23    2    1    2    0    0  0.17763568394E-14 -0.17763568394E-14  0.35527136788E-14  0.91188000000E+02  0.91188000000E+02 0.  0.
    9900012    2    3    3    0    0 -0.13911738120E+02 -0.13231012344E+02 -0.31419497381E+02  0.54367068984E+02  0.39999965363E+02 0.  0.
        -12    1    3    3    0    0  0.13911738120E+02  0.13231012344E+02  0.31419497381E+02  0.36820931016E+02  0.00000000000E+00 0.  1.
         11    1    4    4    0    0 -0.65202775391E+01 -0.19732883372E+02 -0.13527190302E+02  0.24796886561E+02  0.51100000000E-03 0. -1.
        -11    1    4    4    0    0  0.65986847919E+01 -0.11770940899E+01 -0.18765947847E+01  0.69605890359E+01  0.51100000000E-03 0.  1.
         12    1    4    4    0    0 -0.13990145373E+02  0.76789651182E+01 -0.16015712295E+02  0.22609593388E+02  0.00000000000E+00 0. -1.
</event>
<event>
 8    1  0.1265908E-006  0.9118800E+02  0.7816164E-02  0.1184000E+00
        -11   -1    0    0    0    0  0.00000000000E+00  0.00000000000E+00  0.45593999997E+02  0.45594000000E+02  0.51100000000E-03 0. -1.
         11   -1    0    0    0    0 -0.00000000000E+00 -0.00000000000E+00 -0.45593999997E+02  0.45594000000E+02  0.51100000000E-03 0.  1.
         23    2    1    2    0    0  0.35527136788E-14 -0.88817841970E-15  0.00000000000E+00  0.91188000000E+02  0.91188000000E+02 0.  0.
    9900012    2    3    3    0    0 -0.27306443990E+02 -0.12874044970E+01  0.24667407947E+02  0.54367077842E+02  0.39999985557E+02 0.  0.
        -12    1    3    3    0    0  0.27306443990E+02  0.12874044970E+01 -0.24667407947E+02  0.36820922158E+02  0.00000000000E+00 0.  1.
         11    1    4    4    0    0 -0.14249954244E+02 -0.39480422136E+01  0.18967539480E+02  0.24050276245E+02  0.51100000000E-03 0. -1.
        -11    1    4    4    0    0  0.50314018965E+00  0.12760147719E+02  0.12346420785E+01  0.12829608770E+02  0.51100000000E-03 0.  1.
         12    1    4    4    0    0 -0.13559629936E+02 -0.10099510002E+02  0.44652263878E+01  0.17487192828E+02  0.00000000000E+00 0. -1.
</event>
<event>
 8    1  0.1265908E-006  0.9118800E+02  0.7816164E-02  0.1184000E+00
        -11   -1    0    0    0    0  0.00000000000E+00  0.00000000000E+00  0.45593999997E+02  0.45594000000E+02  0.51100000000E-03 0.  1.
         11   -1    0    0    0    0 -0.00000000000E+00 -0.00000000000E+00 -0.45593999997E+02  0.45594000000E+02  0.51100000000E-03 0. -1.
         23    2    1    2    0    0  0.00000000000E+00 -0.11102230246E-15  0.35527136788E-14  0.91188000000E+02  0.91188000000E+02 0.  0.
    9900012    2    3    3    0    0 -0.21422418293E+02  0.13012840993E+00 -0.29947341788E+02  0.54367079057E+02  0.39999988326E+02 0.  0.
        -12    1    3    3    0    0  0.21422418293E+02 -0.13012840993E+00  0.29947341788E+02  0.36820920943E+02  0.00000000000E+00 0.  1.
         11    1    4    4    0    0 -0.14104299320E+02  0.39848039745E+01 -0.32713116063E+02  0.35846309222E+02  0.51100000000E-03 0. -1.
        -11    1    4    4    0    0  0.48662864494E+01 -0.17520155421E+01 -0.15908305803E+01  0.54111962137E+01  0.51100000000E-03 0.  1.
         12    1    4    4    0    0 -0.12184405423E+02 -0.21026600225E+01  0.43566048550E+01  0.13109573621E+02  0.00000000000E+00 0. -1.
</event>
<event>
 8    1  0.1265908E-006  0.9118800E+02  0.7816164E-02  0.1184000E+00
        -11   -1    0    0    0    0  0.00000000000E+00  0.00000000000E+00  0.45593999997E+02  0.45594000000E+02  0.51100000000E-03 0. -1.
         11   -1    0    0    0    0 -0.00000000000E+00 -0.00000000000E+00 -0.45593999997E+02  0.45594000000E+02  0.51100000000E-03 0.  1.
         23    2    1    2    0    0  0.00000000000E+00 -0.35527136788E-14  0.35527136788E-14  0.91188000000E+02  0.91188000000E+02 0.  0.
    9900012    2    3    3    0    0 -0.10737855613E+02  0.31592754463E+02 -0.15568420851E+02  0.54367090105E+02  0.40000013512E+02 0.  0.
         12    1    3    3    0    0  0.10737855613E+02 -0.31592754463E+02  0.15568420851E+02  0.36820909895E+02  0.00000000000E+00 0. -1.
         11    1    4    4    0    0 -0.11689659522E+02  0.29947782282E+00  0.71580534960E+01  0.13710417821E+02  0.51100000000E-03 0. -1.
        -11    1    4    4    0    0 -0.18913597275E+01  0.35979005749E+01 -0.84318189984E+01  0.93604327917E+01  0.51100000000E-03 0.  1.
         12    1    4    4    0    0  0.28431636364E+01  0.27695376065E+02 -0.14294655349E+02  0.31296239493E+02  0.00000000000E+00 0. -1.
</event>
<event>
 8    1  0.1265908E-006  0.9118800E+02  0.7816164E-02  0.1184000E+00
        -11   -1    0    0    0    0  0.00000000000E+00  0.00000000000E+00  0.45593999997E+02  0.45594000000E+02  0.51100000000E-03 0.  1.
         11   -1    0    0    0    0 -0.00000000000E+00 -0.00000000000E+00 -0.45593999997E+02  0.45594000000E+02  0.51100000000E-03 0. -1.
         23    2    1    2    0    0  0.00000000000E+00 -0.88817841970E-15  0.00000000000E+00  0.91188000000E+02  0.91188000000E+02 0.  0.
    9900012    2    3    3    0    0 -0.41956255136E+01  0.10025903096E+01 -0.36567401930E+02  0.54367036613E+02  0.39999891567E+02 0.  0.
        -12    1    3    3    0    0  0.41956255136E+01 -0.10025903096E+01  0.36567401930E+02  0.36820963387E+02  0.00000000000E+00 0.  1.
         11    1    4    4    0    0 -0.71845109315E+00  0.13205346186E+01  0.36457467311E+01  0.39435330784E+01  0.51100000000E-03 0. -1.
        -11    1    4    4    0    0 -0.36742739958E+01  0.88962432698E+01 -0.48176502317E+00  0.96371952098E+01  0.51100000000E-03 0.  1.
         12    1    4    4    0    0  0.19709957534E+00 -0.92141875789E+01 -0.39731383638E+02  0.40786308325E+02  0.00000000000E+00 0. -1.
</event>
<event>
 8    1  0.1265908E-006  0.9118800E+02  0.7816164E-02  0.1184000E+00
        -11   -1    0    0    0    0  0.00000000000E+00  0.00000000000E+00  0.45593999997E+02  0.45594000000E+02  0.51100000000E-03 0. -1.
         11   -1    0    0    0    0 -0.00000000000E+00 -0.00000000000E+00 -0.45593999997E+02  0.45594000000E+02  0.51100000000E-03 0.  1.
         23    2    1    2    0    0  0.00000000000E+00 -0.44408920985E-15  0.00000000000E+00  0.91188000000E+02  0.91188000000E+02 0.  0.
    9900012    2    3    3    0    0 -0.35273406810E+02  0.34365766972E+01 -0.99878151079E+01  0.54367085590E+02  0.40000003219E+02 0.  0.
         12    1    3    3    0    0  0.35273406810E+02 -0.34365766972E+01  0.99878151079E+01  0.36820914410E+02  0.00000000000E+00 0. -1.
         11    1    4    4    0    0 -0.69386742061E+00  0.78819896722E+01  0.41760692101E+01  0.89468859107E+01  0.51100000000E-03 0. -1.
        -11    1    4    4    0    0 -0.26566383678E+02  0.84193612330E+01 -0.74758757451E+01  0.28853892349E+02  0.51100000000E-03 0.  1.
        -12    1    4    4    0    0 -0.80131557116E+01 -0.12864774208E+02 -0.66880085729E+01  0.16566307330E+02  0.00000000000E+00 0.  1.
</event>
<event>
 8    1  0.1265908E-006  0.9118800E+02  0.7816164E-02  0.1184000E+00
        -11   -1    0    0    0    0  0.00000000000E+00  0.00000000000E+00  0.45593999997E+02  0.45594000000E+02  0.51100000000E-03 0.  1.
         11   -1    0    0    0    0 -0.00000000000E+00 -0.00000000000E+00 -0.45593999997E+02  0.45594000000E+02  0.51100000000E-03 0. -1.
         23    2    1    2    0    0  0.00000000000E+00 -0.35527136788E-14  0.00000000000E+00  0.91188000000E+02  0.91188000000E+02 0.  0.
    9900012    2    3    3    0    0 -0.16525182766E+02  0.28448303159E+02  0.16534567770E+02  0.54367088151E+02  0.40000009057E+02 0.  0.
         12    1    3    3    0    0  0.16525182766E+02 -0.28448303159E+02 -0.16534567770E+02  0.36820911849E+02  0.00000000000E+00 0. -1.
         11    1    4    4    0    0 -0.13709053283E+02 -0.44463154906E+01  0.72848979955E+01  0.16148609923E+02  0.51100000000E-03 0. -1.
        -11    1    4    4    0    0  0.39800816867E+01  0.16323157907E+02  0.11214203561E+02  0.20200121189E+02  0.51100000000E-03 0.  1.
         12    1    4    4    0    0 -0.67962111694E+01  0.16571460743E+02 -0.19645337858E+01  0.18018357039E+02  0.00000000000E+00 0. -1.
</event>
<event>
 8    1  0.1265908E-006  0.9118800E+02  0.7816164E-02  0.1184000E+00
        -11   -1    0    0    0    0  0.00000000000E+00  0.00000000000E+00  0.45593999997E+02  0.45594000000E+02  0.51100000000E-03 0.  1.
         11   -1    0    0    0    0 -0.00000000000E+00 -0.00000000000E+00 -0.45593999997E+02  0.45594000000E+02  0.51100000000E-03 0. -1.
         23    2    1    2    0    0  0.00000000000E+00  0.71054273576E-14  0.44408920985E-15  0.91188000000E+02  0.91188000000E+02 0.  0.
    9900012    2    3    3    0    0  0.12914853001E+02 -0.34419165961E+02 -0.20754983563E+01  0.54367080580E+02  0.39999991798E+02 0.  0.
         12    1    3    3    0    0 -0.12914853001E+02  0.34419165961E+02  0.20754983563E+01  0.36820919420E+02  0.00000000000E+00 0. -1.
         11    1    4    4    0    0  0.54766655042E+01  0.74590922792E+01  0.54342173364E+01  0.10731385791E+02  0.51100000000E-03 0. -1.
        -11    1    4    4    0    0  0.72333956057E+01 -0.28585489447E+02 -0.31968313217E+01  0.29659264146E+02  0.51100000000E-03 0.  1.
         12    1    4    4    0    0  0.20479189158E+00 -0.13292768794E+02 -0.43128843711E+01  0.13976430643E+02  0.00000000000E+00 0. -1.
</event>
<event>
 8    1  0.1265908E-006  0.9118800E+02  0.7816164E-02  0.1184000E+00
        -11   -1    0    0    0    0  0.00000000000E+00  0.00000000000E+00  0.45593999997E+02  0.45594000000E+02  0.51100000000E-03 0.  1.
         11   -1    0    0    0    0 -0.00000000000E+00 -0.00000000000E+00 -0.45593999997E+02  0.45594000000E+02  0.51100000000E-03 0. -1.
         23    2    1    2    0    0  0.00000000000E+00 -0.35527136788E-14  0.00000000000E+00  0.91188000000E+02  0.91188000000E+02 0.  0.
    9900012    2    3    3    0    0 -0.29314578404E+02 -0.15099202633E+02  0.16384452072E+02  0.54367072569E+02  0.39999973536E+02 0.  0.
         12    1    3    3    0    0  0.29314578404E+02  0.15099202633E+02 -0.16384452072E+02  0.36820927431E+02  0.00000000000E+00 0. -1.
         11    1    4    4    0    0 -0.61654969811E+01  0.22487441083E+01  0.17559062204E+02  0.18745422610E+02  0.51100000000E-03 0. -1.
        -11    1    4    4    0    0 -0.11953714259E+02 -0.12670479638E+01  0.75263475077E+01  0.14182475178E+02  0.51100000000E-03 0.  1.
         12    1    4    4    0    0 -0.11195367165E+02 -0.16080898777E+02 -0.87009576392E+01  0.21439174781E+02  0.00000000000E+00 0. -1.
</event>
<event>
 8    1  0.1265908E-006  0.9118800E+02  0.7816164E-02  0.1184000E+00
        -11   -1    0    0    0    0  0.00000000000E+00  0.00000000000E+00  0.45593999997E+02  0.45594000000E+02  0.51100000000E-03 0.  1.
         11   -1    0    0    0    0 -0.00000000000E+00 -0.00000000000E+00 -0.45593999997E+02  0.45594000000E+02  0.51100000000E-03 0. -1.
         23    2    1    2    0    0  0.00000000000E+00  0.88817841970E-15  0.00000000000E+00  0.91188000000E+02  0.91188000000E+02 0.  0.
    9900012    2    3    3    0    0 -0.18328069389E+02 -0.30690405694E+01  0.31787458336E+02  0.54367086852E+02  0.40000006097E+02 0.  0.
         12    1    3    3    0    0  0.18328069389E+02  0.30690405694E+01 -0.31787458336E+02  0.36820913148E+02  0.00000000000E+00 0. -1.
         11    1    4    4    0    0 -0.22394738129E+02 -0.32320631346E+01  0.20700031934E+01  0.22721255279E+02  0.51100000000E-03 0. -1.
        -11    1    4    4    0    0  0.31122803061E+00 -0.45836093996E+01  0.16125073443E+02  0.16766762711E+02  0.51100000000E-03 0.  1.
         12    1    4    4    0    0  0.37554407089E+01  0.47466319647E+01  0.13592381700E+02  0.14879068862E+02  0.00000000000E+00 0. -1.
</event>
<event>
 8    1  0.1265908E-006  0.9118800E+02  0.7816164E-02  0.1184000E+00
        -11   -1    0    0    0    0  0.00000000000E+00  0.00000000000E+00  0.45593999997E+02  0.45594000000E+02  0.51100000000E-03 0.  1.
         11   -1    0    0    0    0 -0.00000000000E+00 -0.00000000000E+00 -0.45593999997E+02  0.45594000000E+02  0.51100000000E-03 0. -1.
         23    2    1    2    0    0  0.44408920985E-15  0.00000000000E+00  0.17763568394E-14  0.91188000000E+02  0.91188000000E+02 0.  0.
    9900012    2    3    3    0    0  0.24763978901E+01 -0.34256638549E+02 -0.13271372251E+02  0.54367093539E+02  0.40000021341E+02 0.  0.
        -12    1    3    3    0    0 -0.24763978901E+01  0.34256638549E+02  0.13271372251E+02  0.36820906461E+02  0.00000000000E+00 0.  1.
         11    1    4    4    0    0 -0.65337639238E+01 -0.15177859654E+02 -0.21857122138E+02  0.27400570854E+02  0.51100000000E-03 0. -1.
        -11    1    4    4    0    0  0.46920765332E+01 -0.50229146772E+01  0.10065028623E+02  0.12188111236E+02  0.51100000000E-03 0.  1.
        -12    1    4    4    0    0  0.43180852806E+01 -0.14055864217E+02 -0.14792787367E+01  0.14778411450E+02  0.00000000000E+00 0.  1.
</event>
<event>
 8    1  0.1265908E-006  0.9118800E+02  0.7816164E-02  0.1184000E+00
        -11   -1    0    0    0    0  0.00000000000E+00  0.00000000000E+00  0.45593999997E+02  0.45594000000E+02  0.51100000000E-03 0.  1.
         11   -1    0    0    0    0 -0.00000000000E+00 -0.00000000000E+00 -0.45593999997E+02  0.45594000000E+02  0.51100000000E-03 0. -1.
         23    2    1    2    0    0  0.00000000000E+00  0.44408920985E-15  0.00000000000E+00  0.91188000000E+02  0.91188000000E+02 0.  0.
    9900012    2    3    3    0    0  0.53333150699E+01  0.20185196755E+01  0.36376711176E+02  0.54367030603E+02  0.39999877866E+02 0.  0.
         12    1    3    3    0    0 -0.53333150699E+01 -0.20185196755E+01 -0.36376711176E+02  0.36820969397E+02  0.00000000000E+00 0. -1.
         11    1    4    4    0    0  0.42737207406E+01 -0.11069307109E+01  0.18445312833E+02  0.18966274024E+02  0.51100000000E-03 0.  1.
        -11    1    4    4    0    0  0.25736554109E+01  0.16673069770E+02  0.92649105982E+01  0.19247169308E+02  0.51100000000E-03 0. -1.
         12    1    4    4    0    0 -0.15140610816E+01 -0.13547619383E+02  0.86664877446E+01  0.16153587272E+02  0.00000000000E+00 0. -1.
</event>
<event>
 8    1  0.1265908E-006  0.9118800E+02  0.7816164E-02  0.1184000E+00
        -11   -1    0    0    0    0  0.00000000000E+00  0.00000000000E+00  0.45593999997E+02  0.45594000000E+02  0.51100000000E-03 0.  1.
         11   -1    0    0    0    0 -0.00000000000E+00 -0.00000000000E+00 -0.45593999997E+02  0.45594000000E+02  0.51100000000E-03 0. -1.
         23    2    1    2    0    0  0.00000000000E+00  0.00000000000E+00  0.44408920985E-15  0.91188000000E+02  0.91188000000E+02 0.  0.
    9900012    2    3    3    0    0  0.12670524987E+01 -0.36708592554E+02 -0.25794471234E+01  0.54367085607E+02  0.40000003258E+02 0.  0.
         12    1    3    3    0    0 -0.12670524987E+01  0.36708592554E+02  0.25794471234E+01  0.36820914393E+02  0.00000000000E+00 0. -1.
         11    1    4    4    0    0  0.11205003070E+02 -0.24315992128E+02  0.55194726489E+01  0.27336498414E+02  0.51100000000E-03 0. -1.
        -11    1    4    4    0    0 -0.75609088518E+01 -0.14926046087E+02  0.15227329160E+01  0.16800979443E+02  0.51100000000E-03 0.  1.
        -12    1    4    4    0    0 -0.23770417195E+01  0.25334456612E+01 -0.96216526883E+01  0.10229607750E+02  0.00000000000E+00 0.  1.
</event>
<event>
 8    1  0.1265908E-006  0.9118800E+02  0.7816164E-02  0.1184000E+00
        -11   -1    0    0    0    0  0.00000000000E+00  0.00000000000E+00  0.45593999997E+02  0.45594000000E+02  0.51100000000E-03 0. -1.
         11   -1    0    0    0    0 -0.00000000000E+00 -0.00000000000E+00 -0.45593999997E+02  0.45594000000E+02  0.51100000000E-03 0.  1.
         23    2    1    2    0    0  0.00000000000E+00  0.12212453271E-14  0.00000000000E+00  0.91188000000E+02  0.91188000000E+02 0.  0.
    9900012    2    3    3    0    0  0.26115521560E+02 -0.40418405243E+00 -0.25953756998E+02  0.54367063925E+02  0.39999953831E+02 0.  0.
        -12    1    3    3    0    0 -0.26115521560E+02  0.40418405243E+00  0.25953756998E+02  0.36820936075E+02  0.00000000000E+00 0.  1.
         11    1    4    4    0    0 -0.46616672883E+01 -0.23007525891E+01  0.79864893103E+00  0.52595099352E+01  0.51100000000E-03 0. -1.
        -11    1    4    4    0    0  0.91302387704E+01 -0.11860829947E+02 -0.13866121169E+02  0.20403672796E+02  0.51100000000E-03 0.  1.
         12    1    4    4    0    0  0.21646950078E+02  0.13757398483E+02 -0.12886284760E+02  0.28703881194E+02  0.00000000000E+00 0. -1.
</event>
<event>
 8    1  0.1265908E-006  0.9118800E+02  0.7816164E-02  0.1184000E+00
        -11   -1    0    0    0    0  0.00000000000E+00  0.00000000000E+00  0.45593999997E+02  0.45594000000E+02  0.51100000000E-03 0. -1.
         11   -1    0    0    0    0 -0.00000000000E+00 -0.00000000000E+00 -0.45593999997E+02  0.45594000000E+02  0.51100000000E-03 0.  1.
         23    2    1    2    0    0 -0.35527136788E-14  0.00000000000E+00  0.00000000000E+00  0.91188000000E+02  0.91188000000E+02 0.  0.
    9900012    2    3    3    0    0 -0.18046889816E+02 -0.18730038619E+02  0.26062948272E+02  0.54367056893E+02  0.39999937798E+02 0.  0.
        -12    1    3    3    0    0  0.18046889816E+02  0.18730038619E+02 -0.26062948272E+02  0.36820943107E+02  0.00000000000E+00 0.  1.
         11    1    4    4    0    0  0.66086578927E+01  0.76471388298E+00  0.28409125543E+01  0.72339429683E+01  0.51100000000E-03 0. -1.
        -11    1    4    4    0    0 -0.50003186659E+00 -0.71273382897E+00 -0.52592088499E+01  0.53307878748E+01  0.51100000000E-03 0.  1.
        -12    1    4    4    0    0 -0.24155515843E+02 -0.18782018673E+02  0.28481244567E+02  0.41802326049E+02  0.00000000000E+00 0.  1.
</event>
<event>
 8    1  0.1265908E-006  0.9118800E+02  0.7816164E-02  0.1184000E+00
        -11   -1    0    0    0    0  0.00000000000E+00  0.00000000000E+00  0.45593999997E+02  0.45594000000E+02  0.51100000000E-03 0. -1.
         11   -1    0    0    0    0 -0.00000000000E+00 -0.00000000000E+00 -0.45593999997E+02  0.45594000000E+02  0.51100000000E-03 0.  1.
         23    2    1    2    0    0  0.00000000000E+00  0.00000000000E+00  0.00000000000E+00  0.91188000000E+02  0.91188000000E+02 0.  0.
    9900012    2    3    3    0    0  0.35444685197E+02 -0.83601829193E+01 -0.54364249189E+01  0.54367175959E+02  0.40000209234E+02 0.  0.
         12    1    3    3    0    0 -0.35444685197E+02  0.83601829193E+01  0.54364249189E+01  0.36820824041E+02  0.00000000000E+00 0. -1.
         11    1    4    4    0    0  0.14354702872E+01 -0.51845978036E+01 -0.14173569972E+02  0.15160168711E+02  0.51100000000E-03 0. -1.
        -11    1    4    4    0    0 -0.23817957029E+00 -0.40070803741E+00 -0.28946245992E+01  0.29319188718E+01  0.51100000000E-03 0.  1.
        -12    1    4    4    0    0  0.34247394480E+02 -0.27748770782E+01  0.11631769653E+02  0.36275088376E+02  0.00000000000E+00 0.  1.
</event>
<event>
 8    1  0.1265908E-006  0.9118800E+02  0.7816164E-02  0.1184000E+00
        -11   -1    0    0    0    0  0.00000000000E+00  0.00000000000E+00  0.45593999997E+02  0.45594000000E+02  0.51100000000E-03 0. -1.
         11   -1    0    0    0    0 -0.00000000000E+00 -0.00000000000E+00 -0.45593999997E+02  0.45594000000E+02  0.51100000000E-03 0.  1.
         23    2    1    2    0    0  0.00000000000E+00 -0.77715611724E-15  0.00000000000E+00  0.91188000000E+02  0.91188000000E+02 0.  0.
    9900012    2    3    3    0    0  0.47720154134E+01 -0.64454935445E+00 -0.36504702897E+02  0.54367069694E+02  0.39999966981E+02 0.  0.
         12    1    3    3    0    0 -0.47720154134E+01  0.64454935445E+00  0.36504702897E+02  0.36820930306E+02  0.00000000000E+00 0. -1.
         11    1    4    4    0    0  0.29218931765E+01  0.61706929938E+01 -0.16663528346E+02  0.18008000693E+02  0.51100000000E-03 0. -1.
        -11    1    4    4    0    0 -0.47224552771E+00 -0.66079865792E+01 -0.27534462210E+02  0.28320224433E+02  0.51100000000E-03 0.  1.
         12    1    4    4    0    0  0.23223677646E+01 -0.20725576903E+00  0.76932876588E+01  0.80388445681E+01  0.00000000000E+00 0. -1.
</event>
<event>
 8    1  0.1265908E-006  0.9118800E+02  0.7816164E-02  0.1184000E+00
        -11   -1    0    0    0    0  0.00000000000E+00  0.00000000000E+00  0.45593999997E+02  0.45594000000E+02  0.51100000000E-03 0.  1.
         11   -1    0    0    0    0 -0.00000000000E+00 -0.00000000000E+00 -0.45593999997E+02  0.45594000000E+02  0.51100000000E-03 0. -1.
         23    2    1    2    0    0  0.35527136788E-14  0.35527136788E-14 -0.35527136788E-14  0.91188000000E+02  0.91188000000E+02 0.  0.
    9900012    2    3    3    0    0  0.22347701393E+02  0.24136191095E+02 -0.16547035495E+02  0.54367083909E+02  0.39999999387E+02 0.  0.
        -12    1    3    3    0    0 -0.22347701393E+02 -0.24136191095E+02  0.16547035495E+02  0.36820916091E+02  0.00000000000E+00 0.  1.
         11    1    4    4    0    0  0.54958359296E+01  0.70045997349E+01 -0.73164850850E+01  0.11523870195E+02  0.51100000000E-03 0. -1.
        -11    1    4    4    0    0 -0.10050693767E+02  0.14852124346E+01  0.67759524057E+00  0.10182408200E+02  0.51100000000E-03 0.  1.
         12    1    4    4    0    0  0.26902559230E+02  0.15646378925E+02 -0.99081456506E+01  0.32660805514E+02  0.00000000000E+00 0. -1.
</event>
<event>
 8    1  0.1265908E-006  0.9118800E+02  0.7816164E-02  0.1184000E+00
        -11   -1    0    0    0    0  0.00000000000E+00  0.00000000000E+00  0.45593999997E+02  0.45594000000E+02  0.51100000000E-03 0. -1.
         11   -1    0    0    0    0 -0.00000000000E+00 -0.00000000000E+00 -0.45593999997E+02  0.45594000000E+02  0.51100000000E-03 0.  1.
         23    2    1    2    0    0 -0.71054273576E-14  0.17763568394E-14  0.17763568394E-14  0.91188000000E+02  0.91188000000E+02 0.  0.
    9900012    2    3    3    0    0  0.32424693577E+02 -0.12059673694E+02 -0.12608865607E+02  0.54367082371E+02  0.39999995881E+02 0.  0.
         12    1    3    3    0    0 -0.32424693577E+02  0.12059673694E+02  0.12608865607E+02  0.36820917629E+02  0.00000000000E+00 0. -1.
         11    1    4    4    0    0  0.12731289037E+02 -0.90236135379E+01  0.10350873006E+02  0.18725701430E+02  0.51100000000E-03 0. -1.
        -11    1    4    4    0    0  0.84690469302E+01 -0.88297122982E+01 -0.40244622108E+01  0.12879630100E+02  0.51100000000E-03 0.  1.
        -12    1    4    4    0    0  0.11224357610E+02  0.57936521417E+01 -0.18935276402E+02  0.22761750840E+02  0.00000000000E+00 0.  1.
</event>
<event>
 8    1  0.1265908E-006  0.9118800E+02  0.7816164E-02  0.1184000E+00
        -11   -1    0    0    0    0  0.00000000000E+00  0.00000000000E+00  0.45593999997E+02  0.45594000000E+02  0.51100000000E-03 0. -1.
         11   -1    0    0    0    0 -0.00000000000E+00 -0.00000000000E+00 -0.45593999997E+02  0.45594000000E+02  0.51100000000E-03 0.  1.
         23    2    1    2    0    0  0.55511151231E-15  0.00000000000E+00  0.71054273576E-14  0.91188000000E+02  0.91188000000E+02 0.  0.
    9900012    2    3    3    0    0 -0.61101039878E+00 -0.25796175942E+02 -0.26267154021E+02  0.54367090080E+02  0.40000013456E+02 0.  0.
         12    1    3    3    0    0  0.61101039878E+00  0.25796175942E+02  0.26267154021E+02  0.36820909920E+02  0.00000000000E+00 0. -1.
         11    1    4    4    0    0 -0.10415631431E+02 -0.13619076805E+01 -0.74785263964E+01  0.12894515421E+02  0.51100000000E-03 0. -1.
        -11    1    4    4    0    0  0.34224579699E+01 -0.16074588998E+02  0.35212550534E+01  0.16807881110E+02  0.51100000000E-03 0.  1.
        -12    1    4    4    0    0  0.63821630620E+01 -0.83596792639E+01 -0.22309882678E+02  0.24664693549E+02  0.00000000000E+00 0.  1.
</event>
<event>
 8    1  0.1265908E-006  0.9118800E+02  0.7816164E-02  0.1184000E+00
        -11   -1    0    0    0    0  0.00000000000E+00  0.00000000000E+00  0.45593999997E+02  0.45594000000E+02  0.51100000000E-03 0.  1.
         11   -1    0    0    0    0 -0.00000000000E+00 -0.00000000000E+00 -0.45593999997E+02  0.45594000000E+02  0.51100000000E-03 0. -1.
         23    2    1    2    0    0  0.00000000000E+00  0.88817841970E-15  0.00000000000E+00  0.91188000000E+02  0.91188000000E+02 0.  0.
    9900012    2    3    3    0    0 -0.35448887526E+02  0.48307912476E+01 -0.87076017428E+01  0.54367048097E+02  0.39999917747E+02 0.  0.
         12    1    3    3    0    0  0.35448887526E+02 -0.48307912476E+01  0.87076017428E+01  0.36820951903E+02  0.00000000000E+00 0. -1.
         11    1    4    4    0    0 -0.14221165835E+02  0.75364206998E+01 -0.72872858567E+01  0.17667589821E+02  0.51100000000E-03 0. -1.
        -11    1    4    4    0    0 -0.32861258858E+00 -0.11536874416E+02 -0.67812635580E+01  0.13386298713E+02  0.51100000000E-03 0.  1.
        -12    1    4    4    0    0 -0.20899109102E+02  0.88312449639E+01  0.53609476719E+01  0.23313159563E+02  0.00000000000E+00 0.  1.
</event>
<event>
 8    1  0.1265908E-006  0.9118800E+02  0.7816164E-02  0.1184000E+00
        -11   -1    0    0    0    0  0.00000000000E+00  0.00000000000E+00  0.45593999997E+02  0.45594000000E+02  0.51100000000E-03 0. -1.
         11   -1    0    0    0    0 -0.00000000000E+00 -0.00000000000E+00 -0.45593999997E+02  0.45594000000E+02  0.51100000000E-03 0.  1.
         23    2    1    2    0    0 -0.88817841970E-15  0.00000000000E+00  0.71054273576E-14  0.91188000000E+02  0.91188000000E+02 0.  0.
    9900012    2    3    3    0    0  0.55323961563E+01  0.15453079300E+02  0.32960263807E+02  0.54367026937E+02  0.39999869507E+02 0.  0.
        -12    1    3    3    0    0 -0.55323961563E+01 -0.15453079300E+02 -0.32960263807E+02  0.36820973063E+02  0.00000000000E+00 0.  1.
         11    1    4    4    0    0  0.14199790539E+01  0.28638073504E+01  0.42547973545E+01  0.53217510128E+01  0.51100000000E-03 0. -1.
        -11    1    4    4    0    0 -0.12585677208E+02  0.79379700291E+01 -0.71624047067E+00  0.14897101720E+02  0.51100000000E-03 0.  1.
        -12    1    4    4    0    0  0.16698094311E+02  0.46513019204E+01  0.29421706924E+02  0.34148174204E+02  0.00000000000E+00 0.  1.
</event>
<event>
 8    1  0.1265908E-006  0.9118800E+02  0.7816164E-02  0.1184000E+00
        -11   -1    0    0    0    0  0.00000000000E+00  0.00000000000E+00  0.45593999997E+02  0.45594000000E+02  0.51100000000E-03 0.  1.
         11   -1    0    0    0    0 -0.00000000000E+00 -0.00000000000E+00 -0.45593999997E+02  0.45594000000E+02  0.51100000000E-03 0. -1.
         23    2    1    2    0    0  0.00000000000E+00 -0.10658141036E-13  0.00000000000E+00  0.91188000000E+02  0.91188000000E+02 0.  0.
    9900012    2    3    3    0    0  0.21651922861E+02  0.27838922988E+02  0.10581510195E+02  0.54367085363E+02  0.40000002702E+02 0.  0.
         12    1    3    3    0    0 -0.21651922861E+02 -0.27838922988E+02 -0.10581510195E+02  0.36820914637E+02  0.00000000000E+00 0. -1.
         11    1    4    4    0    0 -0.11852847592E+01 -0.52740131269E+01  0.61743940237E+01  0.82062936971E+01  0.51100000000E-03 0. -1.
        -11    1    4    4    0    0 -0.11653250901E+01 -0.19037702296E+01 -0.22722096886E+01  0.31851625991E+01  0.51100000000E-03 0.  1.
         12    1    4    4    0    0  0.24002532710E+02  0.35016706345E+02  0.66793258599E+01  0.42975629067E+02  0.00000000000E+00 0. -1.
</event>
<event>
 8    1  0.1265908E-006  0.9118800E+02  0.7816164E-02  0.1184000E+00
        -11   -1    0    0    0    0  0.00000000000E+00  0.00000000000E+00  0.45593999997E+02  0.45594000000E+02  0.51100000000E-03 0.  1.
         11   -1    0    0    0    0 -0.00000000000E+00 -0.00000000000E+00 -0.45593999997E+02  0.45594000000E+02  0.51100000000E-03 0. -1.
         23    2    1    2    0    0  0.35527136788E-14  0.17763568394E-14  0.17763568394E-14  0.91188000000E+02  0.91188000000E+02 0.  0.
    9900012    2    3    3    0    0  0.31552042541E+02 -0.13498997300E+02 -0.13342642127E+02  0.54367076389E+02  0.39999982243E+02 0.  0.
        -12    1    3    3    0    0 -0.31552042541E+02  0.13498997300E+02  0.13342642127E+02  0.36820923611E+02  0.00000000000E+00 0.  1.
         11    1    4    4    0    0  0.55627002536E+01  0.30532464694E+00 -0.20237024726E+02  0.20989855342E+02  0.51100000000E-03 0. -1.
        -11    1    4    4    0    0  0.15866235276E+02 -0.62583526532E+00  0.50246259889E+01  0.16654607717E+02  0.51100000000E-03 0.  1.
         12    1    4    4    0    0  0.10123107012E+02 -0.13178486682E+02  0.18697566100E+01  0.16722613330E+02  0.00000000000E+00 0. -1.
</event>
<event>
 8    1  0.1265908E-006  0.9118800E+02  0.7816164E-02  0.1184000E+00
        -11   -1    0    0    0    0  0.00000000000E+00  0.00000000000E+00  0.45593999997E+02  0.45594000000E+02  0.51100000000E-03 0. -1.
         11   -1    0    0    0    0 -0.00000000000E+00 -0.00000000000E+00 -0.45593999997E+02  0.45594000000E+02  0.51100000000E-03 0.  1.
         23    2    1    2    0    0  0.35527136788E-14  0.44408920985E-15  0.35527136788E-14  0.91188000000E+02  0.91188000000E+02 0.  0.
    9900012    2    3    3    0    0  0.19170807120E+02 -0.35344304888E+01  0.31237039587E+02  0.54367289976E+02  0.40000469156E+02 0.  0.
        -12    1    3    3    0    0 -0.19170807120E+02  0.35344304888E+01 -0.31237039587E+02  0.36820710024E+02  0.00000000000E+00 0.  1.
         11    1    4    4    0    0  0.25200998065E+02 -0.11571919436E+02  0.23552337468E+02  0.36382856174E+02  0.51100000000E-03 0. -1.
        -11    1    4    4    0    0 -0.76708701789E+00 -0.29994678984E+01 -0.67958677332E+00  0.31697111241E+01  0.51100000000E-03 0.  1.
        -12    1    4    4    0    0 -0.52631039269E+01  0.11036956846E+02  0.83642888918E+01  0.14814722678E+02  0.00000000000E+00 0.  1.
</event>
<event>
 8    1  0.1265908E-006  0.9118800E+02  0.7816164E-02  0.1184000E+00
        -11   -1    0    0    0    0  0.00000000000E+00  0.00000000000E+00  0.45593999997E+02  0.45594000000E+02  0.51100000000E-03 0.  1.
         11   -1    0    0    0    0 -0.00000000000E+00 -0.00000000000E+00 -0.45593999997E+02  0.45594000000E+02  0.51100000000E-03 0. -1.
         23    2    1    2    0    0 -0.35527136788E-14 -0.17763568394E-14  0.00000000000E+00  0.91188000000E+02  0.91188000000E+02 0.  0.
    9900012    2    3    3    0    0 -0.26724693196E+02 -0.95725216376E+01 -0.23450744394E+02  0.54367084618E+02  0.40000001003E+02 0.  0.
        -12    1    3    3    0    0  0.26724693196E+02  0.95725216376E+01  0.23450744394E+02  0.36820915382E+02  0.00000000000E+00 0.  1.
         11    1    4    4    0    0 -0.29789664625E+02  0.63851274728E+01 -0.19073748651E+02  0.35944427373E+02  0.51100000000E-03 0. -1.
        -11    1    4    4    0    0  0.83167157824E+00 -0.79159148926E+01  0.16489898938E+01  0.81285025763E+01  0.51100000000E-03 0.  1.
         12    1    4    4    0    0  0.22332998500E+01 -0.80417342178E+01 -0.60259856369E+01  0.10294154669E+02  0.00000000000E+00 0. -1.
</event>
<event>
 8    1  0.1265908E-006  0.9118800E+02  0.7816164E-02  0.1184000E+00
        -11   -1    0    0    0    0  0.00000000000E+00  0.00000000000E+00  0.45593999997E+02  0.45594000000E+02  0.51100000000E-03 0. -1.
         11   -1    0    0    0    0 -0.00000000000E+00 -0.00000000000E+00 -0.45593999997E+02  0.45594000000E+02  0.51100000000E-03 0.  1.
         23    2    1    2    0    0 -0.17763568394E-14  0.00000000000E+00 -0.17763568394E-14  0.91188000000E+02  0.91188000000E+02 0.  0.
    9900012    2    3    3    0    0 -0.47183327462E+01 -0.33158325720E+02 -0.15298438055E+02  0.54367089699E+02  0.40000012587E+02 0.  0.
         12    1    3    3    0    0  0.47183327462E+01  0.33158325720E+02  0.15298438055E+02  0.36820910301E+02  0.00000000000E+00 0. -1.
         11    1    4    4    0    0  0.10521893000E+02 -0.14674056770E+02 -0.11068778592E+02  0.21179141488E+02  0.51100000000E-03 0.  1.
        -11    1    4    4    0    0 -0.18915972838E+02 -0.21135913924E+02 -0.32408639624E+01  0.28548976957E+02  0.51100000000E-03 0. -1.
         12    1    4    4    0    0  0.36757470928E+01  0.26516449734E+01 -0.98879550034E+00  0.46389712541E+01  0.00000000000E+00 0. -1.
</event>
<event>
 8    1  0.1265908E-006  0.9118800E+02  0.7816164E-02  0.1184000E+00
        -11   -1    0    0    0    0  0.00000000000E+00  0.00000000000E+00  0.45593999997E+02  0.45594000000E+02  0.51100000000E-03 0.  1.
         11   -1    0    0    0    0 -0.00000000000E+00 -0.00000000000E+00 -0.45593999997E+02  0.45594000000E+02  0.51100000000E-03 0. -1.
         23    2    1    2    0    0  0.00000000000E+00  0.17763568394E-14  0.00000000000E+00  0.91188000000E+02  0.91188000000E+02 0.  0.
    9900012    2    3    3    0    0 -0.24862021674E+02  0.11229836205E+02  0.24729564921E+02  0.54367072199E+02  0.39999972693E+02 0.  0.
         12    1    3    3    0    0  0.24862021674E+02 -0.11229836205E+02 -0.24729564921E+02  0.36820927801E+02  0.00000000000E+00 0. -1.
         11    1    4    4    0    0 -0.18981211908E+02  0.12842987388E+02  0.14992081531E+02  0.27385967929E+02  0.51100000000E-03 0. -1.
        -11    1    4    4    0    0 -0.87297148504E+01  0.20606582973E+00  0.16921420330E+02  0.19041660924E+02  0.51100000000E-03 0.  1.
         12    1    4    4    0    0  0.28489050839E+01 -0.18192170124E+01 -0.71839369392E+01  0.79394433471E+01  0.00000000000E+00 0. -1.
</event>
<event>
 8    1  0.1265908E-006  0.9118800E+02  0.7816164E-02  0.1184000E+00
        -11   -1    0    0    0    0  0.00000000000E+00  0.00000000000E+00  0.45593999997E+02  0.45594000000E+02  0.51100000000E-03 0.  1.
         11   -1    0    0    0    0 -0.00000000000E+00 -0.00000000000E+00 -0.45593999997E+02  0.45594000000E+02  0.51100000000E-03 0. -1.
         23    2    1    2    0    0 -0.44408920985E-15  0.00000000000E+00  0.71054273576E-14  0.91188000000E+02  0.91188000000E+02 0.  0.
    9900012    2    3    3    0    0  0.35276079339E+01  0.15821249644E+02 -0.33060913411E+02  0.54367082662E+02  0.39999996545E+02 0.  0.
        -12    1    3    3    0    0 -0.35276079339E+01 -0.15821249644E+02  0.33060913411E+02  0.36820917338E+02  0.00000000000E+00 0.  1.
         11    1    4    4    0    0  0.39054139297E+01  0.12858235031E+02 -0.31789659944E+01  0.13809137957E+02  0.51100000000E-03 0.  1.
        -11    1    4    4    0    0 -0.44524150273E+01  0.71152672183E+01  0.15985915956E+01  0.85443854380E+01  0.51100000000E-03 0. -1.
         12    1    4    4    0    0  0.40746090315E+01 -0.41522526047E+01 -0.31480539012E+02  0.32013559267E+02  0.00000000000E+00 0. -1.
</event>
<event>
 8    1  0.1265908E-006  0.9118800E+02  0.7816164E-02  0.1184000E+00
        -11   -1    0    0    0    0  0.00000000000E+00  0.00000000000E+00  0.45593999997E+02  0.45594000000E+02  0.51100000000E-03 0.  1.
         11   -1    0    0    0    0 -0.00000000000E+00 -0.00000000000E+00 -0.45593999997E+02  0.45594000000E+02  0.51100000000E-03 0. -1.
         23    2    1    2    0    0  0.00000000000E+00  0.88817841970E-15 -0.35527136788E-14  0.91188000000E+02  0.91188000000E+02 0.  0.
    9900012    2    3    3    0    0 -0.33153171782E+02 -0.64051080847E+01  0.14684075464E+02  0.54367078216E+02  0.39999986410E+02 0.  0.
        -12    1    3    3    0    0  0.33153171782E+02  0.64051080847E+01 -0.14684075464E+02  0.36820921784E+02  0.00000000000E+00 0.  1.
         11    1    4    4    0    0 -0.17347798041E+02  0.33653239791E+01  0.83077559520E+01  0.19526656436E+02  0.51100000000E-03 0. -1.
        -11    1    4    4    0    0 -0.50734086397E+01 -0.11600008936E+02 -0.93318445219E+01  0.15728413937E+02  0.51100000000E-03 0.  1.
        -12    1    4    4    0    0 -0.10731965101E+02  0.18295768720E+01  0.15708164034E+02  0.19112007843E+02  0.00000000000E+00 0.  1.
</event>
<event>
 8    1  0.1265908E-006  0.9118800E+02  0.7816164E-02  0.1184000E+00
        -11   -1    0    0    0    0  0.00000000000E+00  0.00000000000E+00  0.45593999997E+02  0.45594000000E+02  0.51100000000E-03 0. -1.
         11   -1    0    0    0    0 -0.00000000000E+00 -0.00000000000E+00 -0.45593999997E+02  0.45594000000E+02  0.51100000000E-03 0.  1.
         23    2    1    2    0    0  0.00000000000E+00  0.00000000000E+00  0.00000000000E+00  0.91188000000E+02  0.91188000000E+02 0.  0.
    9900012    2    3    3    0    0 -0.35176958982E+02 -0.99286690462E+01  0.44477671761E+01  0.54367088209E+02  0.40000009191E+02 0.  0.
         12    1    3    3    0    0  0.35176958982E+02  0.99286690462E+01 -0.44477671761E+01  0.36820911791E+02  0.00000000000E+00 0. -1.
         11    1    4    4    0    0 -0.35330879045E+02 -0.37864079465E+01  0.88728482165E+01  0.36624245179E+02  0.51100000000E-03 0. -1.
        -11    1    4    4    0    0 -0.12562675666E+01 -0.85064820584E+01  0.35524681090E+01  0.93036807305E+01  0.51100000000E-03 0.  1.
        -12    1    4    4    0    0  0.14101876295E+01  0.23642209587E+01 -0.79775491494E+01  0.84391622999E+01  0.00000000000E+00 0.  1.
</event>
<event>
 8    1  0.1265908E-006  0.9118800E+02  0.7816164E-02  0.1184000E+00
        -11   -1    0    0    0    0  0.00000000000E+00  0.00000000000E+00  0.45593999997E+02  0.45594000000E+02  0.51100000000E-03 0.  1.
         11   -1    0    0    0    0 -0.00000000000E+00 -0.00000000000E+00 -0.45593999997E+02  0.45594000000E+02  0.51100000000E-03 0. -1.
         23    2    1    2    0    0 -0.17763568394E-14  0.00000000000E+00  0.00000000000E+00  0.91188000000E+02  0.91188000000E+02 0.  0.
    9900012    2    3    3    0    0 -0.14126929017E+02 -0.58107087325E+01 -0.33502911979E+02  0.54367087864E+02  0.40000008404E+02 0.  0.
        -12    1    3    3    0    0  0.14126929017E+02  0.58107087325E+01  0.33502911979E+02  0.36820912136E+02  0.00000000000E+00 0.  1.
         11    1    4    4    0    0 -0.47326993685E+01  0.70477924933E+01 -0.16501058659E+02  0.18556798201E+02  0.51100000000E-03 0. -1.
        -11    1    4    4    0    0  0.92722301350E+01 -0.13625910499E+01 -0.31908256152E+01  0.99001148687E+01  0.51100000000E-03 0.  1.
        -12    1    4    4    0    0 -0.18666459784E+02 -0.11495910176E+02 -0.13811027705E+02  0.25910174795E+02  0.00000000000E+00 0.  1.
</event>
<event>
 8    1  0.1265908E-006  0.9118800E+02  0.7816164E-02  0.1184000E+00
        -11   -1    0    0    0    0  0.00000000000E+00  0.00000000000E+00  0.45593999997E+02  0.45594000000E+02  0.51100000000E-03 0.  1.
         11   -1    0    0    0    0 -0.00000000000E+00 -0.00000000000E+00 -0.45593999997E+02  0.45594000000E+02  0.51100000000E-03 0. -1.
         23    2    1    2    0    0  0.35527136788E-14  0.00000000000E+00 -0.35527136788E-14  0.91188000000E+02  0.91188000000E+02 0.  0.
    9900012    2    3    3    0    0  0.24357241067E+02 -0.14118395939E+02 -0.23731327274E+02  0.54367079446E+02  0.39999989212E+02 0.  0.
        -12    1    3    3    0    0 -0.24357241067E+02  0.14118395939E+02  0.23731327274E+02  0.36820920554E+02  0.00000000000E+00 0.  1.
         11    1    4    4    0    0  0.98385568972E+01 -0.12502143892E+02 -0.94357927633E+01  0.18496891335E+02  0.51100000000E-03 0. -1.
        -11    1    4    4    0    0  0.40241153066E+01 -0.88893115087E+01  0.63165071651E+01  0.11623752670E+02  0.51100000000E-03 0.  1.
         12    1    4    4    0    0  0.10494568863E+02  0.72730594618E+01 -0.20612041676E+02  0.24246435441E+02  0.00000000000E+00 0. -1.
</event>
<event>
 8    1  0.1265908E-006  0.9118800E+02  0.7816164E-02  0.1184000E+00
        -11   -1    0    0    0    0  0.00000000000E+00  0.00000000000E+00  0.45593999997E+02  0.45594000000E+02  0.51100000000E-03 0.  1.
         11   -1    0    0    0    0 -0.00000000000E+00 -0.00000000000E+00 -0.45593999997E+02  0.45594000000E+02  0.51100000000E-03 0. -1.
         23    2    1    2    0    0  0.00000000000E+00  0.35527136788E-14  0.35527136788E-14  0.91188000000E+02  0.91188000000E+02 0.  0.
    9900012    2    3    3    0    0  0.11387332784E+02  0.24711086041E+02 -0.24808691187E+02  0.54367078234E+02  0.39999986450E+02 0.  0.
         12    1    3    3    0    0 -0.11387332784E+02 -0.24711086041E+02  0.24808691187E+02  0.36820921766E+02  0.00000000000E+00 0. -1.
         11    1    4    4    0    0 -0.89405577440E+00  0.15331668473E+02 -0.13901713246E+02  0.20715140002E+02  0.51100000000E-03 0. -1.
        -11    1    4    4    0    0  0.13035761797E+02  0.53854847958E+01  0.66764893190E+01  0.15604808297E+02  0.51100000000E-03 0.  1.
        -12    1    4    4    0    0 -0.75437323826E+00  0.39939327724E+01 -0.17583467261E+02  0.18047129935E+02  0.00000000000E+00 0.  1.
</event>
<event>
 8    1  0.1265908E-006  0.9118800E+02  0.7816164E-02  0.1184000E+00
        -11   -1    0    0    0    0  0.00000000000E+00  0.00000000000E+00  0.45593999997E+02  0.45594000000E+02  0.51100000000E-03 0.  1.
         11   -1    0    0    0    0 -0.00000000000E+00 -0.00000000000E+00 -0.45593999997E+02  0.45594000000E+02  0.51100000000E-03 0. -1.
         23    2    1    2    0    0  0.44408920985E-15  0.00000000000E+00 -0.44408920985E-15  0.91188000000E+02  0.91188000000E+02 0.  0.
    9900012    2    3    3    0    0 -0.15032344861E+01  0.36731078980E+02 -0.20852676592E+01  0.54367079070E+02  0.39999988355E+02 0.  0.
         12    1    3    3    0    0  0.15032344861E+01 -0.36731078980E+02  0.20852676592E+01  0.36820920930E+02  0.00000000000E+00 0. -1.
         11    1    4    4    0    0 -0.96726050795E+01  0.12439500822E+02  0.93508417658E+01  0.18323174171E+02  0.51100000000E-03 0. -1.
        -11    1    4    4    0    0  0.28610901185E+01  0.17517060467E+02 -0.17955122121E+02  0.25247171222E+02  0.51100000000E-03 0.  1.
        -12    1    4    4    0    0  0.53082804749E+01  0.67745176909E+01  0.65190126960E+01  0.10796733676E+02  0.00000000000E+00 0.  1.
</event>
<event>
 8    1  0.1265908E-006  0.9118800E+02  0.7816164E-02  0.1184000E+00
        -11   -1    0    0    0    0  0.00000000000E+00  0.00000000000E+00  0.45593999997E+02  0.45594000000E+02  0.51100000000E-03 0.  1.
         11   -1    0    0    0    0 -0.00000000000E+00 -0.00000000000E+00 -0.45593999997E+02  0.45594000000E+02  0.51100000000E-03 0. -1.
         23    2    1    2    0    0 -0.35527136788E-14 -0.17763568394E-14  0.00000000000E+00  0.91188000000E+02  0.91188000000E+02 0.  0.
    9900012    2    3    3    0    0 -0.31764553210E+02 -0.12265680014E+02 -0.14012352200E+02  0.54367085277E+02  0.40000002506E+02 0.  0.
        -12    1    3    3    0    0  0.31764553210E+02  0.12265680014E+02  0.14012352200E+02  0.36820914723E+02  0.00000000000E+00 0.  1.
         11    1    4    4    0    0 -0.15364808480E+02 -0.67905609802E+01 -0.12534651072E+02  0.20959640641E+02  0.51100000000E-03 0. -1.
        -11    1    4    4    0    0 -0.11198473043E+00 -0.17852813321E+01  0.11885054240E+02  0.12018913618E+02  0.51100000000E-03 0.  1.
        -12    1    4    4    0    0 -0.16287760000E+02 -0.36898377018E+01 -0.13362755367E+02  0.21388531018E+02  0.00000000000E+00 0.  1.
</event>
<event>
 8    1  0.1265908E-006  0.9118800E+02  0.7816164E-02  0.1184000E+00
        -11   -1    0    0    0    0  0.00000000000E+00  0.00000000000E+00  0.45593999997E+02  0.45594000000E+02  0.51100000000E-03 0.  1.
         11   -1    0    0    0    0 -0.00000000000E+00 -0.00000000000E+00 -0.45593999997E+02  0.45594000000E+02  0.51100000000E-03 0. -1.
         23    2    1    2    0    0  0.00000000000E+00  0.00000000000E+00  0.00000000000E+00  0.91188000000E+02  0.91188000000E+02 0.  0.
    9900012    2    3    3    0    0  0.14236542799E+02  0.11655971282E+01 -0.33937314048E+02  0.54367094901E+02  0.40000024445E+02 0.  0.
        -12    1    3    3    0    0 -0.14236542799E+02 -0.11655971282E+01  0.33937314048E+02  0.36820905099E+02  0.00000000000E+00 0.  1.
         11    1    4    4    0    0  0.76978959921E+01  0.17708788360E+00 -0.48403266262E+01  0.90949285282E+01  0.51100000000E-03 0. -1.
        -11    1    4    4    0    0  0.15919578359E+02  0.52864517931E+01 -0.27782053231E+01  0.17002881308E+02  0.51100000000E-03 0.  1.
         12    1    4    4    0    0 -0.93809315517E+01 -0.42979425486E+01 -0.26318782099E+02  0.28269285065E+02  0.00000000000E+00 0. -1.
</event>
<event>
 8    1  0.1265908E-006  0.9118800E+02  0.7816164E-02  0.1184000E+00
        -11   -1    0    0    0    0  0.00000000000E+00  0.00000000000E+00  0.45593999997E+02  0.45594000000E+02  0.51100000000E-03 0.  1.
         11   -1    0    0    0    0 -0.00000000000E+00 -0.00000000000E+00 -0.45593999997E+02  0.45594000000E+02  0.51100000000E-03 0. -1.
         23    2    1    2    0    0 -0.88817841970E-15  0.00000000000E+00  0.00000000000E+00  0.91188000000E+02  0.91188000000E+02 0.  0.
    9900012    2    3    3    0    0 -0.79056013457E+01 -0.52538991802E+01  0.35576387407E+02  0.54367063970E+02  0.39999953931E+02 0.  0.
         12    1    3    3    0    0  0.79056013457E+01  0.52538991802E+01 -0.35576387407E+02  0.36820936030E+02  0.00000000000E+00 0. -1.
         11    1    4    4    0    0 -0.10438547822E+02 -0.13373978450E+02  0.78862232198E+01  0.18708797319E+02  0.51100000000E-03 0. -1.
        -11    1    4    4    0    0  0.10349399537E+02  0.63067609313E+01  0.83443443614E+01  0.14714393881E+02  0.51100000000E-03 0.  1.
        -12    1    4    4    0    0 -0.78164530606E+01  0.18133183382E+01  0.19345819826E+02  0.20943872769E+02  0.00000000000E+00 0.  1.
</event>
<event>
 8    1  0.1265908E-006  0.9118800E+02  0.7816164E-02  0.1184000E+00
        -11   -1    0    0    0    0  0.00000000000E+00  0.00000000000E+00  0.45593999997E+02  0.45594000000E+02  0.51100000000E-03 0.  1.
         11   -1    0    0    0    0 -0.00000000000E+00 -0.00000000000E+00 -0.45593999997E+02  0.45594000000E+02  0.51100000000E-03 0. -1.
         23    2    1    2    0    0  0.17763568394E-14 -0.35527136788E-14  0.71054273576E-14  0.91188000000E+02  0.91188000000E+02 0.  0.
    9900012    2    3    3    0    0  0.15838845902E+02  0.22024003249E+02  0.24896858493E+02  0.54367091246E+02  0.40000016114E+02 0.  0.
         12    1    3    3    0    0 -0.15838845902E+02 -0.22024003249E+02 -0.24896858493E+02  0.36820908754E+02  0.00000000000E+00 0. -1.
         11    1    4    4    0    0 -0.84019257385E+00 -0.31488984974E+01 -0.12590930995E+00  0.32614933272E+01  0.51100000000E-03 0. -1.
        -11    1    4    4    0    0  0.76034834567E+01  0.85033928847E-01 -0.63615218139E+01  0.99140885358E+01  0.51100000000E-03 0.  1.
         12    1    4    4    0    0  0.90755550192E+01  0.25087867818E+02  0.31384289617E+02  0.41191509383E+02  0.00000000000E+00 0. -1.
</event>
<event>
 8    1  0.1265908E-006  0.9118800E+02  0.7816164E-02  0.1184000E+00
        -11   -1    0    0    0    0  0.00000000000E+00  0.00000000000E+00  0.45593999997E+02  0.45594000000E+02  0.51100000000E-03 0. -1.
         11   -1    0    0    0    0 -0.00000000000E+00 -0.00000000000E+00 -0.45593999997E+02  0.45594000000E+02  0.51100000000E-03 0.  1.
         23    2    1    2    0    0  0.00000000000E+00  0.35527136788E-14  0.00000000000E+00  0.91188000000E+02  0.91188000000E+02 0.  0.
    9900012    2    3    3    0    0 -0.24897533996E+02  0.25021379910E+02 -0.10479653071E+02  0.54367085017E+02  0.40000001913E+02 0.  0.
        -12    1    3    3    0    0  0.24897533996E+02 -0.25021379910E+02  0.10479653071E+02  0.36820914983E+02  0.00000000000E+00 0.  1.
         11    1    4    4    0    0 -0.16146551436E+02 -0.26174959599E+01  0.40849125810E+01  0.16859683254E+02  0.51100000000E-03 0. -1.
        -11    1    4    4    0    0 -0.30873588528E+01  0.19486750596E+02  0.18260684290E+00  0.19730650749E+02  0.51100000000E-03 0.  1.
         12    1    4    4    0    0 -0.56636237074E+01  0.81521252746E+01 -0.14747172495E+02  0.17776751013E+02  0.00000000000E+00 0. -1.
</event>
<event>
 8    1  0.1265908E-006  0.9118800E+02  0.7816164E-02  0.1184000E+00
        -11   -1    0    0    0    0  0.00000000000E+00  0.00000000000E+00  0.45593999997E+02  0.45594000000E+02  0.51100000000E-03 0.  1.
         11   -1    0    0    0    0 -0.00000000000E+00 -0.00000000000E+00 -0.45593999997E+02  0.45594000000E+02  0.51100000000E-03 0. -1.
         23    2    1    2    0    0 -0.17763568394E-14  0.00000000000E+00  0.44408920985E-15  0.91188000000E+02  0.91188000000E+02 0.  0.
    9900012    2    3    3    0    0  0.89891438863E+01 -0.35561308061E+02 -0.32199661182E+01  0.54367088542E+02  0.40000009949E+02 0.  0.
         12    1    3    3    0    0 -0.89891438863E+01  0.35561308061E+02  0.32199661182E+01  0.36820911458E+02  0.00000000000E+00 0. -1.
         11    1    4    4    0    0  0.86139246292E+01 -0.18049894613E+02 -0.86361363748E+01  0.21784885696E+02  0.51100000000E-03 0. -1.
        -11    1    4    4    0    0 -0.74678105267E+01 -0.21754124168E+02  0.22094954765E+01  0.23106102720E+02  0.51100000000E-03 0.  1.
        -12    1    4    4    0    0  0.78430297837E+01  0.42427107205E+01  0.32066747801E+01  0.94761001257E+01  0.00000000000E+00 0.  1.
</event>
<event>
 8    1  0.1265908E-006  0.9118800E+02  0.7816164E-02  0.1184000E+00
        -11   -1    0    0    0    0  0.00000000000E+00  0.00000000000E+00  0.45593999997E+02  0.45594000000E+02  0.51100000000E-03 0.  1.
         11   -1    0    0    0    0 -0.00000000000E+00 -0.00000000000E+00 -0.45593999997E+02  0.45594000000E+02  0.51100000000E-03 0. -1.
         23    2    1    2    0    0 -0.88817841970E-15  0.00000000000E+00  0.00000000000E+00  0.91188000000E+02  0.91188000000E+02 0.  0.
    9900012    2    3    3    0    0  0.28501869553E+01 -0.21936475264E+02 -0.29435474183E+02  0.54367086743E+02  0.40000005849E+02 0.  0.
        -12    1    3    3    0    0 -0.28501869553E+01  0.21936475264E+02  0.29435474183E+02  0.36820913257E+02  0.00000000000E+00 0.  1.
         11    1    4    4    0    0  0.59677187866E+01 -0.20257263998E+02 -0.65492749253E+01  0.22110255867E+02  0.51100000000E-03 0. -1.
        -11    1    4    4    0    0  0.58298526005E+01  0.77727268073E+01 -0.98666128593E+01  0.13847473161E+02  0.51100000000E-03 0.  1.
        -12    1    4    4    0    0 -0.89473844317E+01 -0.94519380733E+01 -0.13019586398E+02  0.18409357715E+02  0.00000000000E+00 0.  1.
</event>
<event>
 8    1  0.1265908E-006  0.9118800E+02  0.7816164E-02  0.1184000E+00
        -11   -1    0    0    0    0  0.00000000000E+00  0.00000000000E+00  0.45593999997E+02  0.45594000000E+02  0.51100000000E-03 0.  1.
         11   -1    0    0    0    0 -0.00000000000E+00 -0.00000000000E+00 -0.45593999997E+02  0.45594000000E+02  0.51100000000E-03 0. -1.
         23    2    1    2    0    0  0.71054273576E-14 -0.35527136788E-14 -0.44408920985E-15  0.91188000000E+02  0.91188000000E+02 0.  0.
    9900012    2    3    3    0    0 -0.33643032846E+02  0.14570946633E+02  0.34078975754E+01  0.54367083244E+02  0.39999997872E+02 0.  0.
        -12    1    3    3    0    0  0.33643032846E+02 -0.14570946633E+02 -0.34078975754E+01  0.36820916756E+02  0.00000000000E+00 0.  1.
         11    1    4    4    0    0  0.23028079792E+01  0.35429690859E+01 -0.43191549969E+01  0.60424047101E+01  0.51100000000E-03 0. -1.
        -11    1    4    4    0    0  0.44187167084E+01  0.20786658467E+01  0.48460378782E+01  0.68796796749E+01  0.51100000000E-03 0.  1.
        -12    1    4    4    0    0 -0.40364557533E+02  0.89493117005E+01  0.28810146942E+01  0.41444998859E+02  0.00000000000E+00 0.  1.
</event>
<event>
 8    1  0.1265908E-006  0.9118800E+02  0.7816164E-02  0.1184000E+00
        -11   -1    0    0    0    0  0.00000000000E+00  0.00000000000E+00  0.45593999997E+02  0.45594000000E+02  0.51100000000E-03 0.  1.
         11   -1    0    0    0    0 -0.00000000000E+00 -0.00000000000E+00 -0.45593999997E+02  0.45594000000E+02  0.51100000000E-03 0. -1.
         23    2    1    2    0    0  0.13322676296E-14  0.71054273576E-14 -0.71054273576E-14  0.91188000000E+02  0.91188000000E+02 0.  0.
    9900012    2    3    3    0    0 -0.30844403115E+01 -0.20847177501E+02  0.30193844813E+02  0.54366989063E+02  0.39999783167E+02 0.  0.
         12    1    3    3    0    0  0.30844403115E+01  0.20847177501E+02 -0.30193844813E+02  0.36821010937E+02  0.00000000000E+00 0. -1.
         11    1    4    4    0    0  0.15825398680E+01  0.30707031704E+01 -0.26060392226E+01  0.43272498293E+01  0.51100000000E-03 0. -1.
        -11    1    4    4    0    0  0.67636230411E+01  0.24050296581E+01  0.10708956946E+01  0.72579323604E+01  0.51100000000E-03 0.  1.
        -12    1    4    4    0    0 -0.11430603221E+02 -0.26322910329E+02  0.31728988341E+02  0.42781806874E+02  0.00000000000E+00 0.  1.
</event>
<event>
 8    1  0.1265908E-006  0.9118800E+02  0.7816164E-02  0.1184000E+00
        -11   -1    0    0    0    0  0.00000000000E+00  0.00000000000E+00  0.45593999997E+02  0.45594000000E+02  0.51100000000E-03 0.  1.
         11   -1    0    0    0    0 -0.00000000000E+00 -0.00000000000E+00 -0.45593999997E+02  0.45594000000E+02  0.51100000000E-03 0. -1.
         23    2    1    2    0    0  0.00000000000E+00  0.22204460493E-15  0.00000000000E+00  0.91188000000E+02  0.91188000000E+02 0.  0.
    9900012    2    3    3    0    0  0.32121315821E+02  0.86503476446E+00 -0.17979225178E+02  0.54367085383E+02  0.40000002747E+02 0.  0.
        -12    1    3    3    0    0 -0.32121315821E+02 -0.86503476446E+00  0.17979225178E+02  0.36820914617E+02  0.00000000000E+00 0.  1.
         11    1    4    4    0    0  0.18399441526E+02  0.12673506758E+02 -0.12962867822E+02  0.25830082548E+02  0.51100000000E-03 0. -1.
        -11    1    4    4    0    0  0.90150981524E+01 -0.75798907790E+01  0.78806562540E+01  0.14171502467E+02  0.51100000000E-03 0.  1.
        -12    1    4    4    0    0  0.47067761427E+01 -0.42285812148E+01 -0.12897013610E+02  0.14365500367E+02  0.00000000000E+00 0.  1.
</event>
<event>
 8    1  0.1265908E-006  0.9118800E+02  0.7816164E-02  0.1184000E+00
        -11   -1    0    0    0    0  0.00000000000E+00  0.00000000000E+00  0.45593999997E+02  0.45594000000E+02  0.51100000000E-03 0.  1.
         11   -1    0    0    0    0 -0.00000000000E+00 -0.00000000000E+00 -0.45593999997E+02  0.45594000000E+02  0.51100000000E-03 0. -1.
         23    2    1    2    0    0  0.00000000000E+00 -0.22204460493E-14 -0.17763568394E-14  0.91188000000E+02  0.91188000000E+02 0.  0.
    9900012    2    3    3    0    0 -0.36235299293E+02  0.24399687936E+01  0.60678168041E+01  0.54367234618E+02  0.40000342957E+02 0.  0.
         12    1    3    3    0    0  0.36235299293E+02 -0.24399687936E+01 -0.60678168041E+01  0.36820765382E+02  0.00000000000E+00 0. -1.
         11    1    4    4    0    0 -0.14586702215E+02 -0.16071942552E+02 -0.40864799071E+00  0.21708206107E+02  0.51100000000E-03 0. -1.
        -11    1    4    4    0    0 -0.92203049178E+01 -0.46207254263E-01 -0.57145091189E+00  0.92381120525E+01  0.51100000000E-03 0.  1.
         12    1    4    4    0    0 -0.12428292159E+02  0.18558118600E+02  0.70479157067E+01  0.23420916459E+02  0.00000000000E+00 0. -1.
</event>
<event>
 8    1  0.1265908E-006  0.9118800E+02  0.7816164E-02  0.1184000E+00
        -11   -1    0    0    0    0  0.00000000000E+00  0.00000000000E+00  0.45593999997E+02  0.45594000000E+02  0.51100000000E-03 0.  1.
         11   -1    0    0    0    0 -0.00000000000E+00 -0.00000000000E+00 -0.45593999997E+02  0.45594000000E+02  0.51100000000E-03 0. -1.
         23    2    1    2    0    0  0.00000000000E+00  0.00000000000E+00  0.35527136788E-14  0.91188000000E+02  0.91188000000E+02 0.  0.
    9900012    2    3    3    0    0 -0.22541068156E+02 -0.28488792374E+02  0.60056382231E+01  0.54367099210E+02  0.40000034268E+02 0.  0.
         12    1    3    3    0    0  0.22541068156E+02  0.28488792374E+02 -0.60056382231E+01  0.36820900790E+02  0.00000000000E+00 0. -1.
         11    1    4    4    0    0 -0.54183272497E+01 -0.27780884811E+02  0.14958756349E+02  0.32014062892E+02  0.51100000000E-03 0. -1.
        -11    1    4    4    0    0 -0.18474199302E+02  0.66810073091E+00 -0.75530313757E+01  0.19969744156E+02  0.51100000000E-03 0.  1.
        -12    1    4    4    0    0  0.13514583954E+01 -0.13760082938E+01 -0.14000867504E+01  0.23832921616E+01  0.00000000000E+00 0.  1.
</event>
<event>
 8    1  0.1265908E-006  0.9118800E+02  0.7816164E-02  0.1184000E+00
        -11   -1    0    0    0    0  0.00000000000E+00  0.00000000000E+00  0.45593999997E+02  0.45594000000E+02  0.51100000000E-03 0. -1.
         11   -1    0    0    0    0 -0.00000000000E+00 -0.00000000000E+00 -0.45593999997E+02  0.45594000000E+02  0.51100000000E-03 0.  1.
         23    2    1    2    0    0 -0.88817841970E-15 -0.35527136788E-14  0.71054273576E-14  0.91188000000E+02  0.91188000000E+02 0.  0.
    9900012    2    3    3    0    0  0.48948215532E+01  0.22614961041E+02 -0.28642360463E+02  0.54367074511E+02  0.39999977964E+02 0.  0.
         12    1    3    3    0    0 -0.48948215532E+01 -0.22614961041E+02  0.28642360463E+02  0.36820925489E+02  0.00000000000E+00 0. -1.
         11    1    4    4    0    0  0.11797025907E+01  0.20931164894E+01  0.75572695635E+01  0.79300162899E+01  0.51100000000E-03 0. -1.
        -11    1    4    4    0    0 -0.48007138382E+01  0.31165030439E+01 -0.40954648218E+00  0.57382203828E+01  0.51100000000E-03 0.  1.
        -12    1    4    4    0    0  0.85158328007E+01  0.17405341508E+02 -0.35790083545E+02  0.40698837839E+02  0.00000000000E+00 0.  1.
</event>
<event>
 8    1  0.1265908E-006  0.9118800E+02  0.7816164E-02  0.1184000E+00
        -11   -1    0    0    0    0  0.00000000000E+00  0.00000000000E+00  0.45593999997E+02  0.45594000000E+02  0.51100000000E-03 0. -1.
         11   -1    0    0    0    0 -0.00000000000E+00 -0.00000000000E+00 -0.45593999997E+02  0.45594000000E+02  0.51100000000E-03 0.  1.
         23    2    1    2    0    0  0.71054273576E-14  0.00000000000E+00 -0.17763568394E-14  0.91188000000E+02  0.91188000000E+02 0.  0.
    9900012    2    3    3    0    0 -0.34082328574E+02  0.84571066619E+01  0.11074857130E+02  0.54367078847E+02  0.39999987848E+02 0.  0.
        -12    1    3    3    0    0  0.34082328574E+02 -0.84571066619E+01 -0.11074857130E+02  0.36820921153E+02  0.00000000000E+00 0.  1.
         11    1    4    4    0    0 -0.22475656845E+02  0.68583265362E+01 -0.48457042255E+00  0.23503757194E+02  0.51100000000E-03 0. -1.
        -11    1    4    4    0    0  0.43269836374E+01 -0.50634829711E+01 -0.38710919516E+01  0.77037004327E+01  0.51100000000E-03 0.  1.
        -12    1    4    4    0    0 -0.15933655366E+02  0.66622630968E+01  0.15430519504E+02  0.23159621220E+02  0.00000000000E+00 0.  1.
</event>
<event>
 8    1  0.1265908E-006  0.9118800E+02  0.7816164E-02  0.1184000E+00
        -11   -1    0    0    0    0  0.00000000000E+00  0.00000000000E+00  0.45593999997E+02  0.45594000000E+02  0.51100000000E-03 0. -1.
         11   -1    0    0    0    0 -0.00000000000E+00 -0.00000000000E+00 -0.45593999997E+02  0.45594000000E+02  0.51100000000E-03 0.  1.
         23    2    1    2    0    0  0.00000000000E+00  0.00000000000E+00  0.00000000000E+00  0.91188000000E+02  0.91188000000E+02 0.  0.
    9900012    2    3    3    0    0 -0.23361033638E+02  0.55222575100E+01  0.27920361807E+02  0.54367084421E+02  0.40000000554E+02 0.  0.
        -12    1    3    3    0    0  0.23361033638E+02 -0.55222575100E+01 -0.27920361807E+02  0.36820915579E+02  0.00000000000E+00 0.  1.
         11    1    4    4    0    0  0.74770871385E+01  0.59055512380E+01  0.14068628712E+02  0.16991429651E+02  0.51100000000E-03 0. -1.
        -11    1    4    4    0    0 -0.57713575960E+01  0.63063499539E+01  0.16536341432E+01  0.87070732386E+01  0.51100000000E-03 0.  1.
        -12    1    4    4    0    0 -0.25066763181E+02 -0.66896436820E+01  0.12198098953E+02  0.28668581531E+02  0.00000000000E+00 0.  1.
</event>
<event>
 8    1  0.1265908E-006  0.9118800E+02  0.7816164E-02  0.1184000E+00
        -11   -1    0    0    0    0  0.00000000000E+00  0.00000000000E+00  0.45593999997E+02  0.45594000000E+02  0.51100000000E-03 0.  1.
         11   -1    0    0    0    0 -0.00000000000E+00 -0.00000000000E+00 -0.45593999997E+02  0.45594000000E+02  0.51100000000E-03 0. -1.
         23    2    1    2    0    0  0.71054273576E-14 -0.88817841970E-15 -0.88817841970E-15  0.91188000000E+02  0.91188000000E+02 0.  0.
    9900012    2    3    3    0    0 -0.36274257353E+02 -0.44448627057E+01 -0.44947628986E+01  0.54367062417E+02  0.39999950392E+02 0.  0.
        -12    1    3    3    0    0  0.36274257353E+02  0.44448627057E+01  0.44947628986E+01  0.36820937583E+02  0.00000000000E+00 0.  1.
         11    1    4    4    0    0  0.16085038867E+01 -0.90597068221E+01 -0.71423479853E+01  0.11648120340E+02  0.51100000000E-03 0.  1.
        -11    1    4    4    0    0 -0.32006706819E+02  0.90326506165E+01  0.72602784494E+01  0.34040119006E+02  0.51100000000E-03 0. -1.
         12    1    4    4    0    0 -0.58760544207E+01 -0.44178065001E+01 -0.46126933627E+01  0.86788230703E+01  0.00000000000E+00 0. -1.
</event>
<event>
 8    1  0.1265908E-006  0.9118800E+02  0.7816164E-02  0.1184000E+00
        -11   -1    0    0    0    0  0.00000000000E+00  0.00000000000E+00  0.45593999997E+02  0.45594000000E+02  0.51100000000E-03 0.  1.
         11   -1    0    0    0    0 -0.00000000000E+00 -0.00000000000E+00 -0.45593999997E+02  0.45594000000E+02  0.51100000000E-03 0. -1.
         23    2    1    2    0    0  0.00000000000E+00 -0.35527136788E-14  0.00000000000E+00  0.91188000000E+02  0.91188000000E+02 0.  0.
    9900012    2    3    3    0    0  0.21246650491E+02 -0.29864002644E+02  0.35357528485E+01  0.54367077155E+02  0.39999983989E+02 0.  0.
        -12    1    3    3    0    0 -0.21246650491E+02  0.29864002644E+02 -0.35357528485E+01  0.36820922845E+02  0.00000000000E+00 0.  1.
         11    1    4    4    0    0  0.23953170841E+01 -0.11880948123E+02 -0.14562728299E+02  0.18946438399E+02  0.51100000000E-03 0. -1.
        -11    1    4    4    0    0  0.37375040245E+01 -0.58639178529E+01  0.13981558385E+02  0.15615327216E+02  0.51100000000E-03 0.  1.
        -12    1    4    4    0    0  0.15113829382E+02 -0.12119136668E+02  0.41169227624E+01  0.19805311540E+02  0.00000000000E+00 0.  1.
</event>
<event>
 8    1  0.1265908E-006  0.9118800E+02  0.7816164E-02  0.1184000E+00
        -11   -1    0    0    0    0  0.00000000000E+00  0.00000000000E+00  0.45593999997E+02  0.45594000000E+02  0.51100000000E-03 0.  1.
         11   -1    0    0    0    0 -0.00000000000E+00 -0.00000000000E+00 -0.45593999997E+02  0.45594000000E+02  0.51100000000E-03 0. -1.
         23    2    1    2    0    0  0.16930901126E-14  0.00000000000E+00  0.00000000000E+00  0.91188000000E+02  0.91188000000E+02 0.  0.
    9900012    2    3    3    0    0 -0.12077322152E+00 -0.33085630385E+02  0.16158745305E+02  0.54367101397E+02  0.40000039254E+02 0.  0.
         12    1    3    3    0    0  0.12077322152E+00  0.33085630385E+02 -0.16158745305E+02  0.36820898603E+02  0.00000000000E+00 0. -1.
         11    1    4    4    0    0 -0.89043964457E+01 -0.79899336334E+01 -0.56210810533E+01  0.13218315626E+02  0.51100000000E-03 0. -1.
        -11    1    4    4    0    0  0.12886674863E+02 -0.42011754729E+01  0.72619359255E+01  0.15376995091E+02  0.51100000000E-03 0.  1.
        -12    1    4    4    0    0 -0.41030516391E+01 -0.20894521278E+02  0.14517890433E+02  0.25771790679E+02  0.00000000000E+00 0.  1.
</event>
<event>
 8    1  0.1265908E-006  0.9118800E+02  0.7816164E-02  0.1184000E+00
        -11   -1    0    0    0    0  0.00000000000E+00  0.00000000000E+00  0.45593999997E+02  0.45594000000E+02  0.51100000000E-03 0.  1.
         11   -1    0    0    0    0 -0.00000000000E+00 -0.00000000000E+00 -0.45593999997E+02  0.45594000000E+02  0.51100000000E-03 0. -1.
         23    2    1    2    0    0  0.00000000000E+00 -0.35527136788E-14  0.00000000000E+00  0.91188000000E+02  0.91188000000E+02 0.  0.
    9900012    2    3    3    0    0 -0.10930180822E+02  0.30138981566E+02 -0.18109446135E+02  0.54367094227E+02  0.40000022910E+02 0.  0.
        -12    1    3    3    0    0  0.10930180822E+02 -0.30138981566E+02  0.18109446135E+02  0.36820905773E+02  0.00000000000E+00 0.  1.
         11    1    4    4    0    0 -0.42945942572E+01  0.28951636493E+02 -0.18814101877E+02  0.34793838896E+02  0.51100000000E-03 0. -1.
        -11    1    4    4    0    0 -0.37434248630E+01  0.97780407710E+01  0.88054361927E+00  0.10507077060E+02  0.51100000000E-03 0.  1.
        -12    1    4    4    0    0 -0.28921617016E+01 -0.85906956981E+01 -0.17588787693E+00  0.90661782704E+01  0.00000000000E+00 0.  1.
</event>
<event>
 8    1  0.1265908E-006  0.9118800E+02  0.7816164E-02  0.1184000E+00
        -11   -1    0    0    0    0  0.00000000000E+00  0.00000000000E+00  0.45593999997E+02  0.45594000000E+02  0.51100000000E-03 0. -1.
         11   -1    0    0    0    0 -0.00000000000E+00 -0.00000000000E+00 -0.45593999997E+02  0.45594000000E+02  0.51100000000E-03 0.  1.
         23    2    1    2    0    0  0.71054273576E-14  0.71054273576E-14 -0.17763568394E-14  0.91188000000E+02  0.91188000000E+02 0.  0.
    9900012    2    3    3    0    0 -0.18181711055E+02 -0.31633512909E+02  0.49523722508E+01  0.54367085470E+02  0.40000002946E+02 0.  0.
         12    1    3    3    0    0  0.18181711055E+02  0.31633512909E+02 -0.49523722508E+01  0.36820914530E+02  0.00000000000E+00 0. -1.
         11    1    4    4    0    0  0.52548987442E+01 -0.72964313621E+01 -0.24916158704E+01  0.93305959799E+01  0.51100000000E-03 0. -1.
        -11    1    4    4    0    0 -0.42125913795E+01 -0.24637260626E+02  0.21087851165E+01  0.25083610430E+02  0.51100000000E-03 0.  1.
         12    1    4    4    0    0 -0.19224018420E+02  0.30017907832E+00  0.53352030047E+01  0.19952879060E+02  0.00000000000E+00 0. -1.
</event>
<event>
 8    1  0.1265908E-006  0.9118800E+02  0.7816164E-02  0.1184000E+00
        -11   -1    0    0    0    0  0.00000000000E+00  0.00000000000E+00  0.45593999997E+02  0.45594000000E+02  0.51100000000E-03 0.  1.
         11   -1    0    0    0    0 -0.00000000000E+00 -0.00000000000E+00 -0.45593999997E+02  0.45594000000E+02  0.51100000000E-03 0. -1.
         23    2    1    2    0    0  0.00000000000E+00  0.35527136788E-14  0.35527136788E-14  0.91188000000E+02  0.91188000000E+02 0.  0.
    9900012    2    3    3    0    0 -0.11514934177E+02  0.24546015009E+02  0.24913433555E+02  0.54367085652E+02  0.40000003361E+02 0.  0.
         12    1    3    3    0    0  0.11514934177E+02 -0.24546015009E+02 -0.24913433555E+02  0.36820914348E+02  0.00000000000E+00 0. -1.
         11    1    4    4    0    0  0.46711597182E+01  0.29225246601E+01 -0.27234342179E+01  0.61463792351E+01  0.51100000000E-03 0. -1.
        -11    1    4    4    0    0  0.28456311748E+01  0.12091271337E+02 -0.10877575719E+01  0.12469148974E+02  0.51100000000E-03 0.  1.
        -12    1    4    4    0    0 -0.19031725070E+02  0.95322190120E+01  0.28724625345E+02  0.35751557443E+02  0.00000000000E+00 0.  1.
</event>
<event>
 8    1  0.1265908E-006  0.9118800E+02  0.7816164E-02  0.1184000E+00
        -11   -1    0    0    0    0  0.00000000000E+00  0.00000000000E+00  0.45593999997E+02  0.45594000000E+02  0.51100000000E-03 0.  1.
         11   -1    0    0    0    0 -0.00000000000E+00 -0.00000000000E+00 -0.45593999997E+02  0.45594000000E+02  0.51100000000E-03 0. -1.
         23    2    1    2    0    0 -0.71054273576E-14  0.00000000000E+00  0.00000000000E+00  0.91188000000E+02  0.91188000000E+02 0.  0.
    9900012    2    3    3    0    0  0.28405832515E+02  0.11226823440E+02 -0.20563250809E+02  0.54367079733E+02  0.39999989868E+02 0.  0.
        -12    1    3    3    0    0 -0.28405832515E+02 -0.11226823440E+02  0.20563250809E+02  0.36820920267E+02  0.00000000000E+00 0.  1.
         11    1    4    4    0    0 -0.59345957856E+01  0.17781063234E+01 -0.11577536318E+02  0.13130896263E+02  0.51100000000E-03 0. -1.
        -11    1    4    4    0    0  0.17874551758E+02  0.12274653049E+02 -0.11163325602E+02  0.24388246078E+02  0.51100000000E-03 0.  1.
         12    1    4    4    0    0  0.16465876543E+02 -0.28259359324E+01  0.21776111097E+01  0.16847937392E+02  0.00000000000E+00 0. -1.
</event>
<event>
 8    1  0.1265908E-006  0.9118800E+02  0.7816164E-02  0.1184000E+00
        -11   -1    0    0    0    0  0.00000000000E+00  0.00000000000E+00  0.45593999997E+02  0.45594000000E+02  0.51100000000E-03 0.  1.
         11   -1    0    0    0    0 -0.00000000000E+00 -0.00000000000E+00 -0.45593999997E+02  0.45594000000E+02  0.51100000000E-03 0. -1.
         23    2    1    2    0    0  0.00000000000E+00  0.00000000000E+00  0.00000000000E+00  0.91188000000E+02  0.91188000000E+02 0.  0.
    9900012    2    3    3    0    0 -0.30014910282E+02 -0.10417250613E+02  0.18610908276E+02  0.54367083982E+02  0.39999999554E+02 0.  0.
         12    1    3    3    0    0  0.30014910282E+02  0.10417250613E+02 -0.18610908276E+02  0.36820916018E+02  0.00000000000E+00 0. -1.
         11    1    4    4    0    0  0.36113415316E+01  0.87354374788E+01  0.58662853059E+01  0.11124880186E+02  0.51100000000E-03 0. -1.
        -11    1    4    4    0    0 -0.96245649874E+00 -0.60302014607E+01  0.14909926913E+01  0.62859137470E+01  0.51100000000E-03 0.  1.
        -12    1    4    4    0    0 -0.32663795315E+02 -0.13122486631E+02  0.11253630279E+02  0.36956290049E+02  0.00000000000E+00 0.  1.
</event>
<event>
 8    1  0.1265908E-006  0.9118800E+02  0.7816164E-02  0.1184000E+00
        -11   -1    0    0    0    0  0.00000000000E+00  0.00000000000E+00  0.45593999997E+02  0.45594000000E+02  0.51100000000E-03 0.  1.
         11   -1    0    0    0    0 -0.00000000000E+00 -0.00000000000E+00 -0.45593999997E+02  0.45594000000E+02  0.51100000000E-03 0. -1.
         23    2    1    2    0    0  0.44408920985E-15  0.00000000000E+00 -0.71054273576E-14  0.91188000000E+02  0.91188000000E+02 0.  0.
    9900012    2    3    3    0    0 -0.22221748216E+01  0.51602753463E+01  0.36389763898E+02  0.54367062761E+02  0.39999951176E+02 0.  0.
         12    1    3    3    0    0  0.22221748216E+01 -0.51602753463E+01 -0.36389763898E+02  0.36820937239E+02  0.00000000000E+00 0. -1.
         11    1    4    4    0    0 -0.65047089800E+01  0.47058550833E+01  0.53113796669E+01  0.96263734192E+01  0.51100000000E-03 0. -1.
        -11    1    4    4    0    0  0.34175495295E+01  0.10802610374E+02  0.32351923479E+02  0.34278608325E+02  0.51100000000E-03 0.  1.
         12    1    4    4    0    0  0.86498462893E+00 -0.10348190111E+02 -0.12735392473E+01  0.10462081016E+02  0.00000000000E+00 0. -1.
</event>
<event>
 8    1  0.1265908E-006  0.9118800E+02  0.7816164E-02  0.1184000E+00
        -11   -1    0    0    0    0  0.00000000000E+00  0.00000000000E+00  0.45593999997E+02  0.45594000000E+02  0.51100000000E-03 0.  1.
         11   -1    0    0    0    0 -0.00000000000E+00 -0.00000000000E+00 -0.45593999997E+02  0.45594000000E+02  0.51100000000E-03 0. -1.
         23    2    1    2    0    0  0.35527136788E-14 -0.44408920985E-15  0.00000000000E+00  0.91188000000E+02  0.91188000000E+02 0.  0.
    9900012    2    3    3    0    0 -0.27788436604E+02  0.39340492596E+01 -0.23834978724E+02  0.54367079815E+02  0.39999990055E+02 0.  0.
        -12    1    3    3    0    0  0.27788436604E+02 -0.39340492596E+01  0.23834978724E+02  0.36820920185E+02  0.00000000000E+00 0.  1.
         11    1    4    4    0    0 -0.81244428066E+01 -0.93172593244E+01  0.58146657318E+01  0.13661194313E+02  0.51100000000E-03 0. -1.
        -11    1    4    4    0    0 -0.91884577127E+01  0.46367200430E+01 -0.28654234681E+01  0.10683519074E+02  0.51100000000E-03 0.  1.
         12    1    4    4    0    0 -0.10475536085E+02  0.86145885409E+01 -0.26784220988E+02  0.30022366428E+02  0.00000000000E+00 0. -1.
</event>
<event>
 8    1  0.1265908E-006  0.9118800E+02  0.7816164E-02  0.1184000E+00
        -11   -1    0    0    0    0  0.00000000000E+00  0.00000000000E+00  0.45593999997E+02  0.45594000000E+02  0.51100000000E-03 0. -1.
         11   -1    0    0    0    0 -0.00000000000E+00 -0.00000000000E+00 -0.45593999997E+02  0.45594000000E+02  0.51100000000E-03 0.  1.
         23    2    1    2    0    0  0.00000000000E+00  0.00000000000E+00  0.35527136788E-14  0.91188000000E+02  0.91188000000E+02 0.  0.
    9900012    2    3    3    0    0 -0.19669060921E+02 -0.18558698790E+02 -0.24989627884E+02  0.54367098869E+02  0.40000033492E+02 0.  0.
         12    1    3    3    0    0  0.19669060921E+02  0.18558698790E+02  0.24989627884E+02  0.36820901131E+02  0.00000000000E+00 0. -1.
         11    1    4    4    0    0 -0.48855768476E+01 -0.97306740250E+01 -0.79483487782E+01  0.13480768772E+02  0.51100000000E-03 0. -1.
        -11    1    4    4    0    0 -0.65081860297E+01 -0.16581662299E+02 -0.22170512634E+02  0.28440106200E+02  0.51100000000E-03 0.  1.
        -12    1    4    4    0    0 -0.82752980439E+01  0.77536375335E+01  0.51292335275E+01  0.12446223897E+02  0.00000000000E+00 0.  1.
</event>
<event>
 8    1  0.1265908E-006  0.9118800E+02  0.7816164E-02  0.1184000E+00
        -11   -1    0    0    0    0  0.00000000000E+00  0.00000000000E+00  0.45593999997E+02  0.45594000000E+02  0.51100000000E-03 0. -1.
         11   -1    0    0    0    0 -0.00000000000E+00 -0.00000000000E+00 -0.45593999997E+02  0.45594000000E+02  0.51100000000E-03 0.  1.
         23    2    1    2    0    0 -0.17763568394E-14 -0.35527136788E-14  0.00000000000E+00  0.91188000000E+02  0.91188000000E+02 0.  0.
    9900012    2    3    3    0    0 -0.96270839692E+01  0.26365336446E+02 -0.23832092085E+02  0.54367077621E+02  0.39999985054E+02 0.  0.
         12    1    3    3    0    0  0.96270839692E+01 -0.26365336446E+02  0.23832092085E+02  0.36820922379E+02  0.00000000000E+00 0. -1.
         11    1    4    4    0    0  0.75633747485E+01  0.47683926676E+01 -0.15328441434E+02  0.17745515582E+02  0.51100000000E-03 0. -1.
        -11    1    4    4    0    0 -0.18054270019E+02  0.10345384028E+02 -0.12931673763E+02  0.24499220869E+02  0.51100000000E-03 0.  1.
         12    1    4    4    0    0  0.86381130176E+00  0.11251559751E+02  0.44280231114E+01  0.12122341171E+02  0.00000000000E+00 0. -1.
</event>
<event>
 8    1  0.1265908E-006  0.9118800E+02  0.7816164E-02  0.1184000E+00
        -11   -1    0    0    0    0  0.00000000000E+00  0.00000000000E+00  0.45593999997E+02  0.45594000000E+02  0.51100000000E-03 0.  1.
         11   -1    0    0    0    0 -0.00000000000E+00 -0.00000000000E+00 -0.45593999997E+02  0.45594000000E+02  0.51100000000E-03 0. -1.
         23    2    1    2    0    0  0.00000000000E+00  0.00000000000E+00 -0.35527136788E-14  0.91188000000E+02  0.91188000000E+02 0.  0.
    9900012    2    3    3    0    0  0.17216006985E+02  0.25621869450E+02 -0.20072570854E+02  0.54367093014E+02  0.40000020143E+02 0.  0.
         12    1    3    3    0    0 -0.17216006985E+02 -0.25621869450E+02  0.20072570854E+02  0.36820906986E+02  0.00000000000E+00 0. -1.
         11    1    4    4    0    0  0.14858592663E+02  0.12532400802E+02 -0.23309196336E+02  0.30350576269E+02  0.51100000000E-03 0. -1.
        -11    1    4    4    0    0  0.10341421521E+02  0.37221533839E+01  0.39715470670E+01  0.11686428507E+02  0.51100000000E-03 0.  1.
        -12    1    4    4    0    0 -0.79840071987E+01  0.93673152638E+01 -0.73492158517E+00  0.12330088237E+02  0.00000000000E+00 0.  1.
</event>
<event>
 8    1  0.1265908E-006  0.9118800E+02  0.7816164E-02  0.1184000E+00
        -11   -1    0    0    0    0  0.00000000000E+00  0.00000000000E+00  0.45593999997E+02  0.45594000000E+02  0.51100000000E-03 0. -1.
         11   -1    0    0    0    0 -0.00000000000E+00 -0.00000000000E+00 -0.45593999997E+02  0.45594000000E+02  0.51100000000E-03 0.  1.
         23    2    1    2    0    0 -0.44408920985E-15 -0.35527136788E-14  0.00000000000E+00  0.91188000000E+02  0.91188000000E+02 0.  0.
    9900012    2    3    3    0    0 -0.34459194365E+01 -0.25287925069E+02 -0.26541016052E+02  0.54367094958E+02  0.40000024576E+02 0.  0.
         12    1    3    3    0    0  0.34459194365E+01  0.25287925069E+02  0.26541016052E+02  0.36820905042E+02  0.00000000000E+00 0. -1.
         11    1    4    4    0    0 -0.42673137919E+01  0.44985473450E+01 -0.19064294662E+01  0.64870153988E+01  0.51100000000E-03 0. -1.
        -11    1    4    4    0    0 -0.19705507011E+01 -0.63461771040E+01 -0.23308115548E+02  0.24236857976E+02  0.51100000000E-03 0.  1.
        -12    1    4    4    0    0  0.27919450565E+01 -0.23440295310E+02 -0.13264710377E+01  0.23643221583E+02  0.00000000000E+00 0.  1.
</event>
<event>
 8    1  0.1265908E-006  0.9118800E+02  0.7816164E-02  0.1184000E+00
        -11   -1    0    0    0    0  0.00000000000E+00  0.00000000000E+00  0.45593999997E+02  0.45594000000E+02  0.51100000000E-03 0.  1.
         11   -1    0    0    0    0 -0.00000000000E+00 -0.00000000000E+00 -0.45593999997E+02  0.45594000000E+02  0.51100000000E-03 0. -1.
         23    2    1    2    0    0  0.00000000000E+00 -0.17763568394E-14  0.00000000000E+00  0.91188000000E+02  0.91188000000E+02 0.  0.
    9900012    2    3    3    0    0  0.27852132685E+02 -0.11312114908E+02  0.21262051349E+02  0.54367081131E+02  0.39999993054E+02 0.  0.
         12    1    3    3    0    0 -0.27852132685E+02  0.11312114908E+02 -0.21262051349E+02  0.36820918869E+02  0.00000000000E+00 0. -1.
         11    1    4    4    0    0  0.40679110375E+01  0.14097254673E+02  0.81026983548E+01  0.16761092161E+02  0.51100000000E-03 0.  1.
        -11    1    4    4    0    0  0.18969420111E+02 -0.19736985235E+02  0.78918444344E+01  0.28489799830E+02  0.51100000000E-03 0. -1.
        -12    1    4    4    0    0  0.48148015358E+01 -0.56723843466E+01  0.52675085602E+01  0.91161891400E+01  0.00000000000E+00 0.  1.
</event>
<event>
 8    1  0.1265908E-006  0.9118800E+02  0.7816164E-02  0.1184000E+00
        -11   -1    0    0    0    0  0.00000000000E+00  0.00000000000E+00  0.45593999997E+02  0.45594000000E+02  0.51100000000E-03 0.  1.
         11   -1    0    0    0    0 -0.00000000000E+00 -0.00000000000E+00 -0.45593999997E+02  0.45594000000E+02  0.51100000000E-03 0. -1.
         23    2    1    2    0    0  0.35527136788E-14  0.00000000000E+00  0.00000000000E+00  0.91188000000E+02  0.91188000000E+02 0.  0.
    9900012    2    3    3    0    0  0.17223134927E+02  0.32123369272E+02  0.52181411392E+01  0.54367133266E+02  0.40000111907E+02 0.  0.
         12    1    3    3    0    0 -0.17223134927E+02 -0.32123369272E+02 -0.52181411392E+01  0.36820866734E+02  0.00000000000E+00 0. -1.
         11    1    4    4    0    0 -0.33520867481E+01 -0.47314185502E+00 -0.89446237634E+00  0.35014871106E+01  0.51100000000E-03 0. -1.
        -11    1    4    4    0    0 -0.23958635476E+01  0.54652927303E+01  0.13317454568E+02  0.14593292405E+02  0.51100000000E-03 0.  1.
         12    1    4    4    0    0  0.22971085222E+02  0.27131218396E+02 -0.72048510529E+01  0.36272353751E+02  0.00000000000E+00 0. -1.
</event>
<event>
 8    1  0.1265908E-006  0.9118800E+02  0.7816164E-02  0.1184000E+00
        -11   -1    0    0    0    0  0.00000000000E+00  0.00000000000E+00  0.45593999997E+02  0.45594000000E+02  0.51100000000E-03 0. -1.
         11   -1    0    0    0    0 -0.00000000000E+00 -0.00000000000E+00 -0.45593999997E+02  0.45594000000E+02  0.51100000000E-03 0.  1.
         23    2    1    2    0    0  0.00000000000E+00  0.00000000000E+00  0.35527136788E-14  0.91188000000E+02  0.91188000000E+02 0.  0.
    9900012    2    3    3    0    0  0.89470074003E+01  0.20831582239E+02 -0.29013429311E+02  0.54367043462E+02  0.39999907181E+02 0.  0.
         12    1    3    3    0    0 -0.89470074003E+01 -0.20831582239E+02  0.29013429311E+02  0.36820956538E+02  0.00000000000E+00 0. -1.
         11    1    4    4    0    0 -0.53126058600E+00  0.63368070725E+01 -0.23426197857E+02  0.24273938864E+02  0.51100000000E-03 0.  1.
        -11    1    4    4    0    0  0.77195322204E+01  0.10942064344E+02 -0.14863017815E+02  0.20005730395E+02  0.51100000000E-03 0. -1.
         12    1    4    4    0    0  0.17587357658E+01  0.35527108217E+01  0.92757863616E+01  0.10087374203E+02  0.00000000000E+00 0. -1.
</event>
<event>
 8    1  0.1265908E-006  0.9118800E+02  0.7816164E-02  0.1184000E+00
        -11   -1    0    0    0    0  0.00000000000E+00  0.00000000000E+00  0.45593999997E+02  0.45594000000E+02  0.51100000000E-03 0.  1.
         11   -1    0    0    0    0 -0.00000000000E+00 -0.00000000000E+00 -0.45593999997E+02  0.45594000000E+02  0.51100000000E-03 0. -1.
         23    2    1    2    0    0  0.17763568394E-14  0.71054273576E-14  0.17763568394E-14  0.91188000000E+02  0.91188000000E+02 0.  0.
    9900012    2    3    3    0    0  0.73274282121E+01  0.34864862770E+02  0.93022035731E+01  0.54367070469E+02  0.39999968749E+02 0.  0.
         12    1    3    3    0    0 -0.73274282121E+01 -0.34864862770E+02 -0.93022035731E+01  0.36820929531E+02  0.00000000000E+00 0. -1.
         11    1    4    4    0    0 -0.11721622030E+01  0.45809071516E+01  0.33748280949E+01  0.58093148901E+01  0.51100000000E-03 0. -1.
        -11    1    4    4    0    0 -0.67592625491E+01 -0.56567339508E+01 -0.11078361177E+01  0.88833310375E+01  0.51100000000E-03 0.  1.
         12    1    4    4    0    0  0.15258852964E+02  0.35940689569E+02  0.70352115959E+01  0.39674424542E+02  0.00000000000E+00 0. -1.
</event>
<event>
 8    1  0.1265908E-006  0.9118800E+02  0.7816164E-02  0.1184000E+00
        -11   -1    0    0    0    0  0.00000000000E+00  0.00000000000E+00  0.45593999997E+02  0.45594000000E+02  0.51100000000E-03 0.  1.
         11   -1    0    0    0    0 -0.00000000000E+00 -0.00000000000E+00 -0.45593999997E+02  0.45594000000E+02  0.51100000000E-03 0. -1.
         23    2    1    2    0    0  0.00000000000E+00  0.88817841970E-15  0.00000000000E+00  0.91188000000E+02  0.91188000000E+02 0.  0.
    9900012    2    3    3    0    0  0.33522030045E+02  0.31576445131E+01 -0.14902396026E+02  0.54367100709E+02  0.40000037687E+02 0.  0.
        -12    1    3    3    0    0 -0.33522030045E+02 -0.31576445131E+01  0.14902396026E+02  0.36820899291E+02  0.00000000000E+00 0.  1.
         11    1    4    4    0    0  0.17880480758E+01 -0.35130982230E+01  0.96371535836E+01  0.10412190188E+02  0.51100000000E-03 0. -1.
        -11    1    4    4    0    0 -0.38278657627E+00 -0.19407044687E+01 -0.50248397097E+01  0.54001734942E+01  0.51100000000E-03 0.  1.
         12    1    4    4    0    0  0.32116768546E+02  0.86114472049E+01 -0.19514709900E+02  0.38554737028E+02  0.00000000000E+00 0. -1.
</event>
<event>
 8    1  0.1265908E-006  0.9118800E+02  0.7816164E-02  0.1184000E+00
        -11   -1    0    0    0    0  0.00000000000E+00  0.00000000000E+00  0.45593999997E+02  0.45594000000E+02  0.51100000000E-03 0.  1.
         11   -1    0    0    0    0 -0.00000000000E+00 -0.00000000000E+00 -0.45593999997E+02  0.45594000000E+02  0.51100000000E-03 0. -1.
         23    2    1    2    0    0  0.00000000000E+00  0.00000000000E+00  0.88817841970E-15  0.91188000000E+02  0.91188000000E+02 0.  0.
    9900012    2    3    3    0    0  0.35917233361E+02  0.80624096095E+01  0.85627772624E+00  0.54367037050E+02  0.39999892562E+02 0.  0.
         12    1    3    3    0    0 -0.35917233361E+02 -0.80624096095E+01 -0.85627772624E+00  0.36820962950E+02  0.00000000000E+00 0. -1.
         11    1    4    4    0    0  0.73258668208E+01 -0.18447768083E+01 -0.15393918689E+01  0.77098154151E+01  0.51100000000E-03 0. -1.
        -11    1    4    4    0    0  0.32559630314E+02  0.92164165468E+01 -0.86273016733E+01  0.34921371602E+02  0.51100000000E-03 0.  1.
        -12    1    4    4    0    0 -0.39682637735E+01  0.69076987103E+00  0.11022971269E+02  0.11735850032E+02  0.00000000000E+00 0.  1.
</event>
<event>
 8    1  0.1265908E-006  0.9118800E+02  0.7816164E-02  0.1184000E+00
        -11   -1    0    0    0    0  0.00000000000E+00  0.00000000000E+00  0.45593999997E+02  0.45594000000E+02  0.51100000000E-03 0.  1.
         11   -1    0    0    0    0 -0.00000000000E+00 -0.00000000000E+00 -0.45593999997E+02  0.45594000000E+02  0.51100000000E-03 0. -1.
         23    2    1    2    0    0 -0.35527136788E-14  0.00000000000E+00 -0.17763568394E-14  0.91188000000E+02  0.91188000000E+02 0.  0.
    9900012    2    3    3    0    0  0.77217231298E+01  0.34408051863E+02 -0.10594394440E+02  0.54367078846E+02  0.39999987845E+02 0.  0.
        -12    1    3    3    0    0 -0.77217231298E+01 -0.34408051863E+02  0.10594394440E+02  0.36820921154E+02  0.00000000000E+00 0.  1.
         11    1    4    4    0    0  0.12025144050E+02  0.18797625291E+02 -0.43833740476E+01  0.22741345042E+02  0.51100000000E-03 0. -1.
        -11    1    4    4    0    0 -0.15022119087E+02  0.73543765932E+01 -0.68660176423E+01  0.18080185715E+02  0.51100000000E-03 0.  1.
        -12    1    4    4    0    0  0.10718698167E+02  0.82560499785E+01  0.65499725029E+00  0.13545548089E+02  0.00000000000E+00 0.  1.
</event>
<event>
 8    1  0.1265908E-006  0.9118800E+02  0.7816164E-02  0.1184000E+00
        -11   -1    0    0    0    0  0.00000000000E+00  0.00000000000E+00  0.45593999997E+02  0.45594000000E+02  0.51100000000E-03 0.  1.
         11   -1    0    0    0    0 -0.00000000000E+00 -0.00000000000E+00 -0.45593999997E+02  0.45594000000E+02  0.51100000000E-03 0. -1.
         23    2    1    2    0    0  0.00000000000E+00 -0.71054273576E-14 -0.22204460493E-14  0.91188000000E+02  0.91188000000E+02 0.  0.
    9900012    2    3    3    0    0  0.16592984787E+02  0.32814179575E+02  0.19186701801E+01  0.54367098048E+02  0.40000031619E+02 0.  0.
        -12    1    3    3    0    0 -0.16592984787E+02 -0.32814179575E+02 -0.19186701801E+01  0.36820901952E+02  0.00000000000E+00 0.  1.
         11    1    4    4    0    0  0.18942867959E+02  0.24919429076E+02 -0.15567662490E+02  0.34959438034E+02  0.51100000000E-03 0. -1.
        -11    1    4    4    0    0 -0.39388558395E+00  0.23800768641E+01  0.35429780742E+01  0.42863277555E+01  0.51100000000E-03 0.  1.
         12    1    4    4    0    0 -0.19559975876E+01  0.55146736344E+01  0.13943354596E+02  0.15121332258E+02  0.00000000000E+00 0. -1.
</event>
<event>
 8    1  0.1265908E-006  0.9118800E+02  0.7816164E-02  0.1184000E+00
        -11   -1    0    0    0    0  0.00000000000E+00  0.00000000000E+00  0.45593999997E+02  0.45594000000E+02  0.51100000000E-03 0.  1.
         11   -1    0    0    0    0 -0.00000000000E+00 -0.00000000000E+00 -0.45593999997E+02  0.45594000000E+02  0.51100000000E-03 0. -1.
         23    2    1    2    0    0  0.00000000000E+00  0.71054273576E-14 -0.35527136788E-14  0.91188000000E+02  0.91188000000E+02 0.  0.
    9900012    2    3    3    0    0 -0.17604503037E+02  0.19176914268E+02  0.26040489754E+02  0.54367086450E+02  0.40000005180E+02 0.  0.
        -12    1    3    3    0    0  0.17604503037E+02 -0.19176914268E+02 -0.26040489754E+02  0.36820913550E+02  0.00000000000E+00 0.  1.
         11    1    4    4    0    0 -0.21632411770E+02  0.12126354994E+02 -0.23429544214E+00  0.24800496347E+02  0.51100000000E-03 0. -1.
        -11    1    4    4    0    0 -0.36438329166E+01  0.17687766017E+01  0.58167438522E+01  0.70880602632E+01  0.51100000000E-03 0.  1.
        -12    1    4    4    0    0  0.76717416494E+01  0.52817826721E+01  0.20458041344E+02  0.22478529840E+02  0.00000000000E+00 0.  1.
</event>
<event>
 8    1  0.1265908E-006  0.9118800E+02  0.7816164E-02  0.1184000E+00
        -11   -1    0    0    0    0  0.00000000000E+00  0.00000000000E+00  0.45593999997E+02  0.45594000000E+02  0.51100000000E-03 0. -1.
         11   -1    0    0    0    0 -0.00000000000E+00 -0.00000000000E+00 -0.45593999997E+02  0.45594000000E+02  0.51100000000E-03 0.  1.
         23    2    1    2    0    0 -0.35527136788E-14  0.16098233857E-14  0.35527136788E-14  0.91188000000E+02  0.91188000000E+02 0.  0.
    9900012    2    3    3    0    0 -0.19066847876E+02  0.73118671068E-01  0.31499685194E+02  0.54367079295E+02  0.39999988868E+02 0.  0.
        -12    1    3    3    0    0  0.19066847876E+02 -0.73118671068E-01 -0.31499685194E+02  0.36820920705E+02  0.00000000000E+00 0.  1.
         11    1    4    4    0    0 -0.30408540477E+01  0.11978772384E+02  0.17675914144E+02  0.21567932730E+02  0.51100000000E-03 0. -1.
        -11    1    4    4    0    0 -0.34254106107E+01 -0.15505442010E+02  0.38734385423E+01  0.16344898170E+02  0.51100000000E-03 0.  1.
        -12    1    4    4    0    0 -0.12600583218E+02  0.35997882974E+01  0.99503325073E+01  0.16454248394E+02  0.00000000000E+00 0.  1.
</event>
<event>
 8    1  0.1265908E-006  0.9118800E+02  0.7816164E-02  0.1184000E+00
        -11   -1    0    0    0    0  0.00000000000E+00  0.00000000000E+00  0.45593999997E+02  0.45594000000E+02  0.51100000000E-03 0.  1.
         11   -1    0    0    0    0 -0.00000000000E+00 -0.00000000000E+00 -0.45593999997E+02  0.45594000000E+02  0.51100000000E-03 0. -1.
         23    2    1    2    0    0  0.35527136788E-14  0.00000000000E+00 -0.17763568394E-14  0.91188000000E+02  0.91188000000E+02 0.  0.
    9900012    2    3    3    0    0  0.28185234426E+02 -0.18187699967E+02  0.15184288581E+02  0.54367319813E+02  0.40000537174E+02 0.  0.
         12    1    3    3    0    0 -0.28185234426E+02  0.18187699967E+02 -0.15184288581E+02  0.36820680187E+02  0.00000000000E+00 0. -1.
         11    1    4    4    0    0  0.24597125385E+02 -0.79880886186E+01  0.12769534546E+02  0.28842488620E+02  0.51100000000E-03 0.  1.
        -11    1    4    4    0    0  0.93736292428E+01 -0.15063785387E+02  0.60413914994E+00  0.17752395324E+02  0.51100000000E-03 0. -1.
         12    1    4    4    0    0 -0.57855202017E+01  0.48641740386E+01  0.18106148849E+01  0.77724358694E+01  0.00000000000E+00 0. -1.
</event>
<event>
 8    1  0.1265908E-006  0.9118800E+02  0.7816164E-02  0.1184000E+00
        -11   -1    0    0    0    0  0.00000000000E+00  0.00000000000E+00  0.45593999997E+02  0.45594000000E+02  0.51100000000E-03 0. -1.
         11   -1    0    0    0    0 -0.00000000000E+00 -0.00000000000E+00 -0.45593999997E+02  0.45594000000E+02  0.51100000000E-03 0.  1.
         23    2    1    2    0    0 -0.24424906542E-14  0.22204460493E-15  0.71054273576E-14  0.91188000000E+02  0.91188000000E+02 0.  0.
    9900012    2    3    3    0    0  0.87672819002E+00  0.19491602966E+01  0.36758834297E+02  0.54367085060E+02  0.40000002011E+02 0.  0.
        -12    1    3    3    0    0 -0.87672819002E+00 -0.19491602966E+01 -0.36758834297E+02  0.36820914940E+02  0.00000000000E+00 0.  1.
         11    1    4    4    0    0  0.93331065351E+01  0.99502599041E+00  0.21040888322E+02  0.23039443048E+02  0.51100000000E-03 0. -1.
        -11    1    4    4    0    0 -0.50473361566E+00  0.94516268749E+01  0.17163658187E+02  0.19600489004E+02  0.51100000000E-03 0.  1.
         12    1    4    4    0    0 -0.79516447294E+01 -0.84974925687E+01 -0.14457122121E+01  0.11727153007E+02  0.00000000000E+00 0. -1.
</event>
<event>
 8    1  0.1265908E-006  0.9118800E+02  0.7816164E-02  0.1184000E+00
        -11   -1    0    0    0    0  0.00000000000E+00  0.00000000000E+00  0.45593999997E+02  0.45594000000E+02  0.51100000000E-03 0. -1.
         11   -1    0    0    0    0 -0.00000000000E+00 -0.00000000000E+00 -0.45593999997E+02  0.45594000000E+02  0.51100000000E-03 0.  1.
         23    2    1    2    0    0 -0.35527136788E-14 -0.35527136788E-14  0.17763568394E-14  0.91188000000E+02  0.91188000000E+02 0.  0.
    9900012    2    3    3    0    0 -0.11524528502E+02 -0.31707902252E+02  0.14750385220E+02  0.54367086289E+02  0.40000004813E+02 0.  0.
        -12    1    3    3    0    0  0.11524528502E+02  0.31707902252E+02 -0.14750385220E+02  0.36820913711E+02  0.00000000000E+00 0.  1.
         11    1    4    4    0    0 -0.55036601349E+01 -0.21892603191E+01  0.31843815369E+01  0.67248361808E+01  0.51100000000E-03 0. -1.
        -11    1    4    4    0    0  0.11421157057E+02 -0.11812440809E+02 -0.56862898937E+01  0.17387077943E+02  0.51100000000E-03 0.  1.
        -12    1    4    4    0    0 -0.17442025424E+02 -0.17706201123E+02  0.17252293576E+02  0.30255172165E+02  0.00000000000E+00 0.  1.
</event>
<event>
 8    1  0.1265908E-006  0.9118800E+02  0.7816164E-02  0.1184000E+00
        -11   -1    0    0    0    0  0.00000000000E+00  0.00000000000E+00  0.45593999997E+02  0.45594000000E+02  0.51100000000E-03 0.  1.
         11   -1    0    0    0    0 -0.00000000000E+00 -0.00000000000E+00 -0.45593999997E+02  0.45594000000E+02  0.51100000000E-03 0. -1.
         23    2    1    2    0    0  0.35527136788E-14 -0.17763568394E-14  0.00000000000E+00  0.91188000000E+02  0.91188000000E+02 0.  0.
    9900012    2    3    3    0    0 -0.28956498665E+02 -0.97457889161E+01 -0.20550461623E+02  0.54367072670E+02  0.39999973765E+02 0.  0.
        -12    1    3    3    0    0  0.28956498665E+02  0.97457889161E+01  0.20550461623E+02  0.36820927330E+02  0.00000000000E+00 0.  1.
         11    1    4    4    0    0 -0.24322770866E+02  0.10523032897E+02 -0.71301123787E+01  0.27443941167E+02  0.51100000000E-03 0. -1.
        -11    1    4    4    0    0 -0.65625362400E+01 -0.14017746922E+02 -0.50108890451E+01  0.16268777458E+02  0.51100000000E-03 0.  1.
        -12    1    4    4    0    0  0.19288084409E+01 -0.62510748907E+01 -0.84094601988E+01  0.10654354045E+02  0.00000000000E+00 0.  1.
</event>
<event>
 8    1  0.1265908E-006  0.9118800E+02  0.7816164E-02  0.1184000E+00
        -11   -1    0    0    0    0  0.00000000000E+00  0.00000000000E+00  0.45593999997E+02  0.45594000000E+02  0.51100000000E-03 0.  1.
         11   -1    0    0    0    0 -0.00000000000E+00 -0.00000000000E+00 -0.45593999997E+02  0.45594000000E+02  0.51100000000E-03 0. -1.
         23    2    1    2    0    0  0.71054273576E-14  0.00000000000E+00 -0.88817841970E-15  0.91188000000E+02  0.91188000000E+02 0.  0.
    9900012    2    3    3    0    0  0.34063299561E+02  0.12360581557E+02 -0.65334740335E+01  0.54367100549E+02  0.40000037322E+02 0.  0.
         12    1    3    3    0    0 -0.34063299561E+02 -0.12360581557E+02  0.65334740335E+01  0.36820899451E+02  0.00000000000E+00 0. -1.
         11    1    4    4    0    0  0.13930894319E+02  0.12631811342E+02 -0.69315742411E+01  0.20041935935E+02  0.51100000000E-03 0.  1.
        -11    1    4    4    0    0  0.10199498337E+02  0.13661565957E+02  0.18687651499E+01  0.17151105917E+02  0.51100000000E-03 0. -1.
        -12    1    4    4    0    0  0.99329069056E+01 -0.13932795742E+02 -0.14706649422E+01  0.17174058698E+02  0.00000000000E+00 0.  1.
</event>
<event>
 8    1  0.1265908E-006  0.9118800E+02  0.7816164E-02  0.1184000E+00
        -11   -1    0    0    0    0  0.00000000000E+00  0.00000000000E+00  0.45593999997E+02  0.45594000000E+02  0.51100000000E-03 0.  1.
         11   -1    0    0    0    0 -0.00000000000E+00 -0.00000000000E+00 -0.45593999997E+02  0.45594000000E+02  0.51100000000E-03 0. -1.
         23    2    1    2    0    0  0.00000000000E+00 -0.13322676296E-14 -0.88817841970E-15  0.91188000000E+02  0.91188000000E+02 0.  0.
    9900012    2    3    3    0    0  0.36388032619E+02  0.36067244815E+01 -0.43224355360E+01  0.54367070784E+02  0.39999969467E+02 0.  0.
        -12    1    3    3    0    0 -0.36388032619E+02 -0.36067244815E+01  0.43224355360E+01  0.36820929216E+02  0.00000000000E+00 0.  1.
         11    1    4    4    0    0  0.10706718093E+02 -0.19916034445E+01 -0.11615713019E+02  0.15922471096E+02  0.51100000000E-03 0. -1.
        -11    1    4    4    0    0  0.22562296838E+02 -0.50960389786E+01  0.12338166344E+02  0.26215590797E+02  0.51100000000E-03 0.  1.
        -12    1    4    4    0    0  0.31190176873E+01  0.10694366905E+02 -0.50448888605E+01  0.12229008890E+02  0.00000000000E+00 0.  1.
</event>
<event>
 8    1  0.1265908E-006  0.9118800E+02  0.7816164E-02  0.1184000E+00
        -11   -1    0    0    0    0  0.00000000000E+00  0.00000000000E+00  0.45593999997E+02  0.45594000000E+02  0.51100000000E-03 0.  1.
         11   -1    0    0    0    0 -0.00000000000E+00 -0.00000000000E+00 -0.45593999997E+02  0.45594000000E+02  0.51100000000E-03 0. -1.
         23    2    1    2    0    0  0.17763568394E-14  0.35527136788E-14 -0.35527136788E-14  0.91188000000E+02  0.91188000000E+02 0.  0.
    9900012    2    3    3    0    0 -0.13715521869E+02  0.27612790328E+02 -0.20129442161E+02  0.54367134020E+02  0.40000113625E+02 0.  0.
        -12    1    3    3    0    0  0.13715521869E+02 -0.27612790328E+02  0.20129442161E+02  0.36820865980E+02  0.00000000000E+00 0.  1.
         11    1    4    4    0    0 -0.15921899214E-01  0.19158778311E+02 -0.15209404868E+02  0.24461909913E+02  0.51100000000E-03 0. -1.
        -11    1    4    4    0    0 -0.31366387356E+01  0.15980678895E+02 -0.83534562322E+00  0.16307004725E+02  0.51100000000E-03 0.  1.
        -12    1    4    4    0    0 -0.10562961234E+02 -0.75266668786E+01 -0.40846916698E+01  0.13598219382E+02  0.00000000000E+00 0.  1.
</event>
<event>
 8    1  0.1265908E-006  0.9118800E+02  0.7816164E-02  0.1184000E+00
        -11   -1    0    0    0    0  0.00000000000E+00  0.00000000000E+00  0.45593999997E+02  0.45594000000E+02  0.51100000000E-03 0.  1.
         11   -1    0    0    0    0 -0.00000000000E+00 -0.00000000000E+00 -0.45593999997E+02  0.45594000000E+02  0.51100000000E-03 0. -1.
         23    2    1    2    0    0 -0.71054273576E-14  0.00000000000E+00 -0.88817841970E-15  0.91188000000E+02  0.91188000000E+02 0.  0.
    9900012    2    3    3    0    0 -0.33188337823E+02  0.15424656310E+02  0.40483679713E+01  0.54367148937E+02  0.40000147632E+02 0.  0.
         12    1    3    3    0    0  0.33188337823E+02 -0.15424656310E+02 -0.40483679713E+01  0.36820851063E+02  0.00000000000E+00 0. -1.
         11    1    4    4    0    0 -0.13386936201E+02  0.71426314580E+01 -0.10425095057E+02  0.18409504398E+02  0.51100000000E-03 0. -1.
        -11    1    4    4    0    0  0.27002818559E+01 -0.22748404192E+01  0.10127736139E+02  0.10725551762E+02  0.51100000000E-03 0.  1.
        -12    1    4    4    0    0 -0.22501683478E+02  0.10556865271E+02  0.43457268892E+01  0.25232092777E+02  0.00000000000E+00 0.  1.
</event>
<event>
 8    1  0.1265908E-006  0.9118800E+02  0.7816164E-02  0.1184000E+00
        -11   -1    0    0    0    0  0.00000000000E+00  0.00000000000E+00  0.45593999997E+02  0.45594000000E+02  0.51100000000E-03 0.  1.
         11   -1    0    0    0    0 -0.00000000000E+00 -0.00000000000E+00 -0.45593999997E+02  0.45594000000E+02  0.51100000000E-03 0. -1.
         23    2    1    2    0    0 -0.71054273576E-14  0.00000000000E+00 -0.17763568394E-14  0.91188000000E+02  0.91188000000E+02 0.  0.
    9900012    2    3    3    0    0  0.33843147683E+02  0.31904494597E+01  0.14150834760E+02  0.54367031283E+02  0.39999879417E+02 0.  0.
         12    1    3    3    0    0 -0.33843147683E+02 -0.31904494597E+01 -0.14150834760E+02  0.36820968717E+02  0.00000000000E+00 0. -1.
         11    1    4    4    0    0  0.86867778199E+01  0.76861852680E+01  0.59221523413E+01  0.13023418963E+02  0.51100000000E-03 0. -1.
        -11    1    4    4    0    0  0.10890351576E+02 -0.36197764711E+01  0.19845783919E+02  0.22925044793E+02  0.51100000000E-03 0.  1.
         12    1    4    4    0    0  0.14266018287E+02 -0.87595933720E+00 -0.11617101500E+02  0.18418567528E+02  0.00000000000E+00 0. -1.
</event>
<event>
 8    1  0.1265908E-006  0.9118800E+02  0.7816164E-02  0.1184000E+00
        -11   -1    0    0    0    0  0.00000000000E+00  0.00000000000E+00  0.45593999997E+02  0.45594000000E+02  0.51100000000E-03 0. -1.
         11   -1    0    0    0    0 -0.00000000000E+00 -0.00000000000E+00 -0.45593999997E+02  0.45594000000E+02  0.51100000000E-03 0.  1.
         23    2    1    2    0    0  0.00000000000E+00  0.00000000000E+00  0.00000000000E+00  0.91188000000E+02  0.91188000000E+02 0.  0.
    9900012    2    3    3    0    0 -0.10463254231E+02 -0.16846518381E+02  0.31024104147E+02  0.54367083271E+02  0.39999997932E+02 0.  0.
        -12    1    3    3    0    0  0.10463254231E+02  0.16846518381E+02 -0.31024104147E+02  0.36820916729E+02  0.00000000000E+00 0.  1.
         11    1    4    4    0    0 -0.10462825831E+02 -0.20474969031E+02  0.13085561568E+02  0.26456133561E+02  0.51100000000E-03 0. -1.
        -11    1    4    4    0    0 -0.67056429499E+01 -0.25312475845E+01 -0.66552469250E+00  0.71983182121E+01  0.51100000000E-03 0.  1.
         12    1    4    4    0    0  0.67052145501E+01  0.61596982348E+01  0.18604067271E+02  0.20712631497E+02  0.00000000000E+00 0. -1.
</event>
<event>
 8    1  0.1265908E-006  0.9118800E+02  0.7816164E-02  0.1184000E+00
        -11   -1    0    0    0    0  0.00000000000E+00  0.00000000000E+00  0.45593999997E+02  0.45594000000E+02  0.51100000000E-03 0. -1.
         11   -1    0    0    0    0 -0.00000000000E+00 -0.00000000000E+00 -0.45593999997E+02  0.45594000000E+02  0.51100000000E-03 0.  1.
         23    2    1    2    0    0 -0.17763568394E-14  0.00000000000E+00  0.00000000000E+00  0.91188000000E+02  0.91188000000E+02 0.  0.
    9900012    2    3    3    0    0  0.12776828616E+02 -0.28056599578E+02 -0.20133612021E+02  0.54367048595E+02  0.39999918883E+02 0.  0.
         12    1    3    3    0    0 -0.12776828616E+02  0.28056599578E+02  0.20133612021E+02  0.36820951405E+02  0.00000000000E+00 0. -1.
         11    1    4    4    0    0 -0.81707647586E+01 -0.89343408019E+01 -0.61213467745E+01  0.13566677150E+02  0.51100000000E-03 0. -1.
        -11    1    4    4    0    0  0.55485606077E+01 -0.10694994824E+02  0.65905334748E+01  0.13733337935E+02  0.51100000000E-03 0.  1.
        -12    1    4    4    0    0  0.15399032767E+02 -0.84272639516E+01 -0.20602798721E+02  0.27067033510E+02  0.00000000000E+00 0.  1.
</event>
<event>
 8    1  0.1265908E-006  0.9118800E+02  0.7816164E-02  0.1184000E+00
        -11   -1    0    0    0    0  0.00000000000E+00  0.00000000000E+00  0.45593999997E+02  0.45594000000E+02  0.51100000000E-03 0. -1.
         11   -1    0    0    0    0 -0.00000000000E+00 -0.00000000000E+00 -0.45593999997E+02  0.45594000000E+02  0.51100000000E-03 0.  1.
         23    2    1    2    0    0  0.35527136788E-14  0.00000000000E+00  0.35527136788E-14  0.91188000000E+02  0.91188000000E+02 0.  0.
    9900012    2    3    3    0    0 -0.20670482463E+02 -0.13288863470E+02  0.27421107945E+02  0.54367083411E+02  0.39999998251E+02 0.  0.
        -12    1    3    3    0    0  0.20670482463E+02  0.13288863470E+02 -0.27421107945E+02  0.36820916589E+02  0.00000000000E+00 0.  1.
         11    1    4    4    0    0 -0.33391591470E+01 -0.83730919841E+00  0.96693899326E+01  0.10263925781E+02  0.51100000000E-03 0. -1.
        -11    1    4    4    0    0 -0.17317748289E+01  0.11555846390E+02  0.62236902833E+01  0.13238993574E+02  0.51100000000E-03 0.  1.
         12    1    4    4    0    0 -0.15599548487E+02 -0.24007400662E+02  0.11528027729E+02  0.30864164056E+02  0.00000000000E+00 0. -1.
</event>
<event>
 8    1  0.1265908E-006  0.9118800E+02  0.7816164E-02  0.1184000E+00
        -11   -1    0    0    0    0  0.00000000000E+00  0.00000000000E+00  0.45593999997E+02  0.45594000000E+02  0.51100000000E-03 0.  1.
         11   -1    0    0    0    0 -0.00000000000E+00 -0.00000000000E+00 -0.45593999997E+02  0.45594000000E+02  0.51100000000E-03 0. -1.
         23    2    1    2    0    0  0.17763568394E-14  0.00000000000E+00  0.35527136788E-14  0.91188000000E+02  0.91188000000E+02 0.  0.
    9900012    2    3    3    0    0 -0.14722544443E+02  0.17429160175E+02 -0.28900708247E+02  0.54367083709E+02  0.39999998932E+02 0.  0.
        -12    1    3    3    0    0  0.14722544443E+02 -0.17429160175E+02  0.28900708247E+02  0.36820916291E+02  0.00000000000E+00 0.  1.
         11    1    4    4    0    0 -0.71374411133E+01  0.24299813588E+01 -0.31178483911E+01  0.81589738265E+01  0.51100000000E-03 0. -1.
        -11    1    4    4    0    0 -0.16209298874E+02 -0.27931237073E+01 -0.42787187541E+01  0.16995597797E+02  0.51100000000E-03 0.  1.
        -12    1    4    4    0    0  0.86241955436E+01  0.17792302523E+02 -0.21504141102E+02  0.29212512086E+02  0.00000000000E+00 0.  1.
</event>
<event>
 8    1  0.1265908E-006  0.9118800E+02  0.7816164E-02  0.1184000E+00
        -11   -1    0    0    0    0  0.00000000000E+00  0.00000000000E+00  0.45593999997E+02  0.45594000000E+02  0.51100000000E-03 0.  1.
         11   -1    0    0    0    0 -0.00000000000E+00 -0.00000000000E+00 -0.45593999997E+02  0.45594000000E+02  0.51100000000E-03 0. -1.
         23    2    1    2    0    0  0.44408920985E-15 -0.71054273576E-14 -0.27755575616E-14  0.91188000000E+02  0.91188000000E+02 0.  0.
    9900012    2    3    3    0    0  0.39606842193E+01 -0.36606972479E+02  0.14891656503E+00  0.54367087060E+02  0.40000006571E+02 0.  0.
        -12    1    3    3    0    0 -0.39606842193E+01  0.36606972479E+02 -0.14891656503E+00  0.36820912940E+02  0.00000000000E+00 0.  1.
         11    1    4    4    0    0 -0.26727311413E+00 -0.32234292278E+02  0.15666572316E+02  0.35840794103E+02  0.51100000000E-03 0. -1.
        -11    1    4    4    0    0  0.31264086698E+01  0.15957174617E+01 -0.87935006858E+01  0.94681782810E+01  0.51100000000E-03 0.  1.
         12    1    4    4    0    0  0.11015486637E+01 -0.59683976635E+01 -0.67241550656E+01  0.90581146755E+01  0.00000000000E+00 0. -1.
</event>
<event>
 8    1  0.1265908E-006  0.9118800E+02  0.7816164E-02  0.1184000E+00
        -11   -1    0    0    0    0  0.00000000000E+00  0.00000000000E+00  0.45593999997E+02  0.45594000000E+02  0.51100000000E-03 0. -1.
         11   -1    0    0    0    0 -0.00000000000E+00 -0.00000000000E+00 -0.45593999997E+02  0.45594000000E+02  0.51100000000E-03 0.  1.
         23    2    1    2    0    0 -0.26645352591E-14  0.00000000000E+00  0.00000000000E+00  0.91188000000E+02  0.91188000000E+02 0.  0.
    9900012    2    3    3    0    0 -0.53855552839E+01  0.10916111593E+02 -0.34750698608E+02  0.54367126141E+02  0.40000095663E+02 0.  0.
         12    1    3    3    0    0  0.53855552839E+01 -0.10916111593E+02  0.34750698608E+02  0.36820873859E+02  0.00000000000E+00 0. -1.
         11    1    4    4    0    0  0.12486358894E+02 -0.26478528700E+01 -0.75400949158E+01  0.14824753450E+02  0.51100000000E-03 0. -1.
        -11    1    4    4    0    0 -0.12846166016E+02  0.62282304387E+00 -0.20308605545E+02  0.24038538835E+02  0.51100000000E-03 0.  1.
         12    1    4    4    0    0 -0.50257481621E+01  0.12941141420E+02 -0.69019981464E+01  0.15503833856E+02  0.00000000000E+00 0. -1.
</event>
<event>
 8    1  0.1265908E-006  0.9118800E+02  0.7816164E-02  0.1184000E+00
        -11   -1    0    0    0    0  0.00000000000E+00  0.00000000000E+00  0.45593999997E+02  0.45594000000E+02  0.51100000000E-03 0. -1.
         11   -1    0    0    0    0 -0.00000000000E+00 -0.00000000000E+00 -0.45593999997E+02  0.45594000000E+02  0.51100000000E-03 0.  1.
         23    2    1    2    0    0  0.00000000000E+00  0.00000000000E+00  0.00000000000E+00  0.91188000000E+02  0.91188000000E+02 0.  0.
    9900012    2    3    3    0    0 -0.25706545566E+02 -0.11126768684E+02  0.23898737049E+02  0.54367067111E+02  0.39999961093E+02 0.  0.
        -12    1    3    3    0    0  0.25706545566E+02  0.11126768684E+02 -0.23898737049E+02  0.36820932889E+02  0.00000000000E+00 0.  1.
         11    1    4    4    0    0 -0.95728227011E+01 -0.20582271647E+02  0.81034057589E+01  0.24102573012E+02  0.51100000000E-03 0. -1.
        -11    1    4    4    0    0  0.13187122886E+01  0.80504543557E+01  0.65665745718E+01  0.10472283385E+02  0.51100000000E-03 0.  1.
         12    1    4    4    0    0 -0.17452435153E+02  0.14050486077E+01  0.92287567185E+01  0.19792210714E+02  0.00000000000E+00 0. -1.
</event>
<event>
 8    1  0.1265908E-006  0.9118800E+02  0.7816164E-02  0.1184000E+00
        -11   -1    0    0    0    0  0.00000000000E+00  0.00000000000E+00  0.45593999997E+02  0.45594000000E+02  0.51100000000E-03 0. -1.
         11   -1    0    0    0    0 -0.00000000000E+00 -0.00000000000E+00 -0.45593999997E+02  0.45594000000E+02  0.51100000000E-03 0.  1.
         23    2    1    2    0    0  0.35527136788E-14  0.00000000000E+00  0.00000000000E+00  0.91188000000E+02  0.91188000000E+02 0.  0.
    9900012    2    3    3    0    0 -0.28303598765E+02  0.23422749004E+02  0.24617037753E+01  0.54367097520E+02  0.40000030416E+02 0.  0.
        -12    1    3    3    0    0  0.28303598765E+02 -0.23422749004E+02 -0.24617037753E+01  0.36820902480E+02  0.00000000000E+00 0.  1.
         11    1    4    4    0    0 -0.58728485373E+00  0.45475680062E+01  0.86631979162E+01  0.98018506756E+01  0.51100000000E-03 0. -1.
        -11    1    4    4    0    0 -0.15134074174E+02  0.24439721602E+02  0.15245034773E+01  0.28786529909E+02  0.51100000000E-03 0.  1.
        -12    1    4    4    0    0 -0.12582239737E+02 -0.55645406040E+01 -0.77259976181E+01  0.15778716936E+02  0.00000000000E+00 0.  1.
</event>
<event>
 8    1  0.1265908E-006  0.9118800E+02  0.7816164E-02  0.1184000E+00
        -11   -1    0    0    0    0  0.00000000000E+00  0.00000000000E+00  0.45593999997E+02  0.45594000000E+02  0.51100000000E-03 0. -1.
         11   -1    0    0    0    0 -0.00000000000E+00 -0.00000000000E+00 -0.45593999997E+02  0.45594000000E+02  0.51100000000E-03 0.  1.
         23    2    1    2    0    0 -0.88817841970E-15 -0.35527136788E-14  0.00000000000E+00  0.91188000000E+02  0.91188000000E+02 0.  0.
    9900012    2    3    3    0    0 -0.45806091733E+01 -0.28623736146E+02 -0.22704184400E+02  0.54367078765E+02  0.39999987660E+02 0.  0.
         12    1    3    3    0    0  0.45806091733E+01  0.28623736146E+02  0.22704184400E+02  0.36820921235E+02  0.00000000000E+00 0. -1.
         11    1    4    4    0    0 -0.15299516148E+02 -0.20597403726E+02 -0.74618583057E+01  0.26720919974E+02  0.51100000000E-03 0. -1.
        -11    1    4    4    0    0  0.62993464243E+01  0.11800176806E+01 -0.16168162963E+02  0.17392058560E+02  0.51100000000E-03 0.  1.
        -12    1    4    4    0    0  0.44195605507E+01 -0.92063500998E+01  0.92583686871E+00  0.10254100230E+02  0.00000000000E+00 0.  1.
</event>
<event>
 8    1  0.1265908E-006  0.9118800E+02  0.7816164E-02  0.1184000E+00
        -11   -1    0    0    0    0  0.00000000000E+00  0.00000000000E+00  0.45593999997E+02  0.45594000000E+02  0.51100000000E-03 0. -1.
         11   -1    0    0    0    0 -0.00000000000E+00 -0.00000000000E+00 -0.45593999997E+02  0.45594000000E+02  0.51100000000E-03 0.  1.
         23    2    1    2    0    0  0.00000000000E+00  0.35527136788E-14 -0.71054273576E-14  0.91188000000E+02  0.91188000000E+02 0.  0.
    9900012    2    3    3    0    0  0.29296373197E+01 -0.21560482240E+02 -0.29704266830E+02  0.54367073379E+02  0.39999975383E+02 0.  0.
         12    1    3    3    0    0 -0.29296373197E+01  0.21560482240E+02  0.29704266830E+02  0.36820926621E+02  0.00000000000E+00 0. -1.
         11    1    4    4    0    0  0.17793930927E+02 -0.21689106588E+02 -0.19301997703E+02  0.34053023918E+02  0.51100000000E-03 0. -1.
        -11    1    4    4    0    0 -0.47724890024E+00  0.13291472379E+01  0.11521718168E+01  0.18226077607E+01  0.51100000000E-03 0.  1.
        -12    1    4    4    0    0 -0.14387044707E+02 -0.12005228903E+01 -0.11554440945E+02  0.18491441700E+02  0.00000000000E+00 0.  1.
</event>
<event>
 8    1  0.1265908E-006  0.9118800E+02  0.7816164E-02  0.1184000E+00
        -11   -1    0    0    0    0  0.00000000000E+00  0.00000000000E+00  0.45593999997E+02  0.45594000000E+02  0.51100000000E-03 0.  1.
         11   -1    0    0    0    0 -0.00000000000E+00 -0.00000000000E+00 -0.45593999997E+02  0.45594000000E+02  0.51100000000E-03 0. -1.
         23    2    1    2    0    0  0.35527136788E-14 -0.35527136788E-14  0.00000000000E+00  0.91188000000E+02  0.91188000000E+02 0.  0.
    9900012    2    3    3    0    0  0.30070362453E+02 -0.21053622354E+02 -0.28806337410E+01  0.54367085250E+02  0.40000002444E+02 0.  0.
        -12    1    3    3    0    0 -0.30070362453E+02  0.21053622354E+02  0.28806337410E+01  0.36820914750E+02  0.00000000000E+00 0.  1.
         11    1    4    4    0    0  0.10168161137E+02 -0.69721613867E+01 -0.14483736778E+02  0.19020545907E+02  0.51100000000E-03 0. -1.
        -11    1    4    4    0    0  0.89084930037E+01  0.55993321405E+01  0.14465492606E+01  0.10621029754E+02  0.51100000000E-03 0.  1.
         12    1    4    4    0    0  0.10993708313E+02 -0.19680793108E+02  0.10156553776E+02  0.24725509589E+02  0.00000000000E+00 0. -1.
</event>
<event>
 8    1  0.1265908E-006  0.9118800E+02  0.7816164E-02  0.1184000E+00
        -11   -1    0    0    0    0  0.00000000000E+00  0.00000000000E+00  0.45593999997E+02  0.45594000000E+02  0.51100000000E-03 0.  1.
         11   -1    0    0    0    0 -0.00000000000E+00 -0.00000000000E+00 -0.45593999997E+02  0.45594000000E+02  0.51100000000E-03 0. -1.
         23    2    1    2    0    0  0.88817841970E-15 -0.71054273576E-14  0.00000000000E+00  0.91188000000E+02  0.91188000000E+02 0.  0.
    9900012    2    3    3    0    0 -0.29826893479E+01  0.34016086855E+02 -0.13776419461E+02  0.54367077499E+02  0.39999984774E+02 0.  0.
        -12    1    3    3    0    0  0.29826893479E+01 -0.34016086855E+02  0.13776419461E+02  0.36820922501E+02  0.00000000000E+00 0.  1.
         11    1    4    4    0    0  0.12129531011E+02  0.83539744082E+01 -0.26552829043E+01  0.14965458179E+02  0.51100000000E-03 0. -1.
        -11    1    4    4    0    0 -0.15771574217E+02  0.44948360059E+01 -0.69789292333E+01  0.17822781980E+02  0.51100000000E-03 0.  1.
         12    1    4    4    0    0  0.65935385799E+00  0.21167276441E+02 -0.41422073232E+01  0.21578837340E+02  0.00000000000E+00 0. -1.
</event>
<event>
 8    1  0.1265908E-006  0.9118800E+02  0.7816164E-02  0.1184000E+00
        -11   -1    0    0    0    0  0.00000000000E+00  0.00000000000E+00  0.45593999997E+02  0.45594000000E+02  0.51100000000E-03 0. -1.
         11   -1    0    0    0    0 -0.00000000000E+00 -0.00000000000E+00 -0.45593999997E+02  0.45594000000E+02  0.51100000000E-03 0.  1.
         23    2    1    2    0    0  0.00000000000E+00  0.00000000000E+00 -0.17763568394E-14  0.91188000000E+02  0.91188000000E+02 0.  0.
    9900012    2    3    3    0    0 -0.32497433704E+01  0.33823409720E+02 -0.14184457002E+02  0.54367045402E+02  0.39999911602E+02 0.  0.
         12    1    3    3    0    0  0.32497433704E+01 -0.33823409720E+02  0.14184457002E+02  0.36820954598E+02  0.00000000000E+00 0. -1.
         11    1    4    4    0    0 -0.15330152453E+02  0.12794260233E+02 -0.18063182730E+02  0.26925549943E+02  0.51100000000E-03 0. -1.
        -11    1    4    4    0    0 -0.12362389418E+01  0.41051441308E+01 -0.25237593856E+01  0.49749227887E+01  0.51100000000E-03 0.  1.
        -12    1    4    4    0    0  0.13316648025E+02  0.16924005356E+02  0.64024851131E+01  0.22466572670E+02  0.00000000000E+00 0.  1.
</event>
<event>
 8    1  0.1265908E-006  0.9118800E+02  0.7816164E-02  0.1184000E+00
        -11   -1    0    0    0    0  0.00000000000E+00  0.00000000000E+00  0.45593999997E+02  0.45594000000E+02  0.51100000000E-03 0.  1.
         11   -1    0    0    0    0 -0.00000000000E+00 -0.00000000000E+00 -0.45593999997E+02  0.45594000000E+02  0.51100000000E-03 0. -1.
         23    2    1    2    0    0 -0.71054273576E-14 -0.88817841970E-15  0.44408920985E-15  0.91188000000E+02  0.91188000000E+02 0.  0.
    9900012    2    3    3    0    0 -0.36608153236E+02 -0.26330943920E+01  0.29478509283E+01  0.54367083464E+02  0.39999998374E+02 0.  0.
        -12    1    3    3    0    0  0.36608153236E+02  0.26330943920E+01 -0.29478509283E+01  0.36820916536E+02  0.00000000000E+00 0.  1.
         11    1    4    4    0    0  0.24397840559E+01  0.49539712229E+01  0.45292600268E-01  0.55223571776E+01  0.51100000000E-03 0.  1.
        -11    1    4    4    0    0 -0.54610906142E+01  0.53244718829E+01 -0.81891814623E+01  0.11190898302E+02  0.51100000000E-03 0. -1.
         12    1    4    4    0    0 -0.33586846678E+02 -0.12911537498E+02  0.11091739790E+02  0.37653827984E+02  0.00000000000E+00 0. -1.
</event>
<event>
 8    1  0.1265908E-006  0.9118800E+02  0.7816164E-02  0.1184000E+00
        -11   -1    0    0    0    0  0.00000000000E+00  0.00000000000E+00  0.45593999997E+02  0.45594000000E+02  0.51100000000E-03 0.  1.
         11   -1    0    0    0    0 -0.00000000000E+00 -0.00000000000E+00 -0.45593999997E+02  0.45594000000E+02  0.51100000000E-03 0. -1.
         23    2    1    2    0    0  0.35527136788E-14  0.00000000000E+00  0.00000000000E+00  0.91188000000E+02  0.91188000000E+02 0.  0.
    9900012    2    3    3    0    0  0.22816247606E+02 -0.52365400488E+01  0.28421445885E+02  0.54367067195E+02  0.39999961283E+02 0.  0.
         12    1    3    3    0    0 -0.22816247606E+02  0.52365400488E+01 -0.28421445885E+02  0.36820932805E+02  0.00000000000E+00 0. -1.
         11    1    4    4    0    0 -0.39873067579E+01 -0.71969329825E+01 -0.86914747526E+00  0.82734440912E+01  0.51100000000E-03 0. -1.
        -11    1    4    4    0    0  0.10677446795E+01  0.86159728082E+01  0.46563539765E+01  0.98517358241E+01  0.51100000000E-03 0.  1.
        -12    1    4    4    0    0  0.25735809684E+02 -0.66555798745E+01  0.24634239384E+02  0.36241887279E+02  0.00000000000E+00 0.  1.
</event>
<event>
 8    1  0.1265908E-006  0.9118800E+02  0.7816164E-02  0.1184000E+00
        -11   -1    0    0    0    0  0.00000000000E+00  0.00000000000E+00  0.45593999997E+02  0.45594000000E+02  0.51100000000E-03 0. -1.
         11   -1    0    0    0    0 -0.00000000000E+00 -0.00000000000E+00 -0.45593999997E+02  0.45594000000E+02  0.51100000000E-03 0.  1.
         23    2    1    2    0    0  0.35527136788E-14  0.00000000000E+00  0.22204460493E-15  0.91188000000E+02  0.91188000000E+02 0.  0.
    9900012    2    3    3    0    0 -0.17957853741E+02  0.32143383984E+02  0.31337179847E+00  0.54367084112E+02  0.39999999850E+02 0.  0.
        -12    1    3    3    0    0  0.17957853741E+02 -0.32143383984E+02 -0.31337179847E+00  0.36820915888E+02  0.00000000000E+00 0.  1.
         11    1    4    4    0    0 -0.15215366505E+01  0.14299903261E+01  0.69516470161E+01  0.72584669600E+01  0.51100000000E-03 0. -1.
        -11    1    4    4    0    0 -0.28113708331E+01 -0.63863280521E+01 -0.23082318944E+01  0.73496208535E+01  0.51100000000E-03 0.  1.
         12    1    4    4    0    0 -0.13624946258E+02  0.37099721710E+02 -0.43300433232E+01  0.39758996299E+02  0.00000000000E+00 0. -1.
</event>
<event>
 8    1  0.1265908E-006  0.9118800E+02  0.7816164E-02  0.1184000E+00
        -11   -1    0    0    0    0  0.00000000000E+00  0.00000000000E+00  0.45593999997E+02  0.45594000000E+02  0.51100000000E-03 0.  1.
         11   -1    0    0    0    0 -0.00000000000E+00 -0.00000000000E+00 -0.45593999997E+02  0.45594000000E+02  0.51100000000E-03 0. -1.
         23    2    1    2    0    0 -0.19428902931E-15  0.71054273576E-14  0.71054273576E-14  0.91188000000E+02  0.91188000000E+02 0.  0.
    9900012    2    3    3    0    0 -0.44718597459E-01  0.26156870492E+02  0.25915203009E+02  0.54367060025E+02  0.39999944938E+02 0.  0.
         12    1    3    3    0    0  0.44718597459E-01 -0.26156870492E+02 -0.25915203009E+02  0.36820939975E+02  0.00000000000E+00 0. -1.
         11    1    4    4    0    0 -0.86396932588E+01  0.14399786830E+02  0.42452390558E+01  0.17321091630E+02  0.51100000000E-03 0. -1.
        -11    1    4    4    0    0 -0.82779715422E+00 -0.62773996676E-01 -0.57102057315E+01  0.57702372967E+01  0.51100000000E-03 0.  1.
        -12    1    4    4    0    0  0.94227718156E+01  0.11819857659E+02  0.27380169685E+02  0.31275731098E+02  0.00000000000E+00 0.  1.
</event>
<event>
 8    1  0.1265908E-006  0.9118800E+02  0.7816164E-02  0.1184000E+00
        -11   -1    0    0    0    0  0.00000000000E+00  0.00000000000E+00  0.45593999997E+02  0.45594000000E+02  0.51100000000E-03 0. -1.
         11   -1    0    0    0    0 -0.00000000000E+00 -0.00000000000E+00 -0.45593999997E+02  0.45594000000E+02  0.51100000000E-03 0.  1.
         23    2    1    2    0    0  0.00000000000E+00  0.17763568394E-14 -0.71054273576E-14  0.91188000000E+02  0.91188000000E+02 0.  0.
    9900012    2    3    3    0    0  0.22568901502E+01 -0.50748684381E+01  0.36399611914E+02  0.54367087596E+02  0.40000007792E+02 0.  0.
        -12    1    3    3    0    0 -0.22568901502E+01  0.50748684381E+01 -0.36399611914E+02  0.36820912404E+02  0.00000000000E+00 0.  1.
         11    1    4    4    0    0  0.13819732364E+01  0.56060202901E+01  0.84553318929E+01  0.10238649872E+02  0.51100000000E-03 0. -1.
        -11    1    4    4    0    0 -0.75783284698E+01  0.84489737319E+01  0.17222518379E+02  0.20625987470E+02  0.51100000000E-03 0.  1.
        -12    1    4    4    0    0  0.84532453836E+01 -0.19129862460E+02  0.10721761642E+02  0.23502450254E+02  0.00000000000E+00 0.  1.
</event>
<event>
 8    1  0.1265908E-006  0.9118800E+02  0.7816164E-02  0.1184000E+00
        -11   -1    0    0    0    0  0.00000000000E+00  0.00000000000E+00  0.45593999997E+02  0.45594000000E+02  0.51100000000E-03 0.  1.
         11   -1    0    0    0    0 -0.00000000000E+00 -0.00000000000E+00 -0.45593999997E+02  0.45594000000E+02  0.51100000000E-03 0. -1.
         23    2    1    2    0    0  0.00000000000E+00  0.00000000000E+00  0.35527136788E-14  0.91188000000E+02  0.91188000000E+02 0.  0.
    9900012    2    3    3    0    0 -0.23552600447E+02  0.86375477336E+01 -0.26952704402E+02  0.54367075334E+02  0.39999979838E+02 0.  0.
        -12    1    3    3    0    0  0.23552600447E+02 -0.86375477336E+01  0.26952704402E+02  0.36820924666E+02  0.00000000000E+00 0.  1.
         11    1    4    4    0    0 -0.76424203558E+01  0.85951837962E+00 -0.34055210426E+02  0.34912787316E+02  0.51100000000E-03 0. -1.
        -11    1    4    4    0    0 -0.96075381783E+01  0.49978733096E+01  0.62745434746E+01  0.12516126539E+02  0.51100000000E-03 0.  1.
         12    1    4    4    0    0 -0.63026419132E+01  0.27801560443E+01  0.82796254934E+00  0.69381614784E+01  0.00000000000E+00 0. -1.
</event>
<event>
 8    1  0.1265908E-006  0.9118800E+02  0.7816164E-02  0.1184000E+00
        -11   -1    0    0    0    0  0.00000000000E+00  0.00000000000E+00  0.45593999997E+02  0.45594000000E+02  0.51100000000E-03 0.  1.
         11   -1    0    0    0    0 -0.00000000000E+00 -0.00000000000E+00 -0.45593999997E+02  0.45594000000E+02  0.51100000000E-03 0. -1.
         23    2    1    2    0    0  0.00000000000E+00  0.00000000000E+00 -0.17763568394E-14  0.91188000000E+02  0.91188000000E+02 0.  0.
    9900012    2    3    3    0    0  0.29711441896E+02  0.19718103344E+02 -0.91766028347E+01  0.54367035610E+02  0.39999889279E+02 0.  0.
        -12    1    3    3    0    0 -0.29711441896E+02 -0.19718103344E+02  0.91766028347E+01  0.36820964390E+02  0.00000000000E+00 0.  1.
         11    1    4    4    0    0  0.10020884921E+02  0.15971038659E+01 -0.20961379314E+01  0.10361595912E+02  0.51100000000E-03 0. -1.
        -11    1    4    4    0    0  0.23991329205E+02  0.22746667154E+02  0.17982473624E+01  0.33109340638E+02  0.51100000000E-03 0.  1.
         12    1    4    4    0    0 -0.43007722295E+01 -0.46256676761E+01 -0.88787122657E+01  0.10896099060E+02  0.00000000000E+00 0. -1.
</event>
<event>
 8    1  0.1265908E-006  0.9118800E+02  0.7816164E-02  0.1184000E+00
        -11   -1    0    0    0    0  0.00000000000E+00  0.00000000000E+00  0.45593999997E+02  0.45594000000E+02  0.51100000000E-03 0. -1.
         11   -1    0    0    0    0 -0.00000000000E+00 -0.00000000000E+00 -0.45593999997E+02  0.45594000000E+02  0.51100000000E-03 0.  1.
         23    2    1    2    0    0  0.00000000000E+00  0.88817841970E-15  0.00000000000E+00  0.91188000000E+02  0.91188000000E+02 0.  0.
    9900012    2    3    3    0    0 -0.27261357523E+02 -0.10766428694E+01 -0.24727323036E+02  0.54367064673E+02  0.39999955534E+02 0.  0.
         12    1    3    3    0    0  0.27261357523E+02  0.10766428694E+01  0.24727323036E+02  0.36820935327E+02  0.00000000000E+00 0. -1.
         11    1    4    4    0    0 -0.17864448868E+02  0.46718912764E+01 -0.16431523325E+02  0.24717606286E+02  0.51100000000E-03 0. -1.
        -11    1    4    4    0    0  0.23793612431E+01  0.75237686299E+01 -0.89014378667E+01  0.11895547515E+02  0.51100000000E-03 0.  1.
         12    1    4    4    0    0 -0.11776269898E+02 -0.13272302776E+02  0.60563815608E+00  0.17753910872E+02  0.00000000000E+00 0. -1.
</event>
<event>
 8    1  0.1265908E-006  0.9118800E+02  0.7816164E-02  0.1184000E+00
        -11   -1    0    0    0    0  0.00000000000E+00  0.00000000000E+00  0.45593999997E+02  0.45594000000E+02  0.51100000000E-03 0.  1.
         11   -1    0    0    0    0 -0.00000000000E+00 -0.00000000000E+00 -0.45593999997E+02  0.45594000000E+02  0.51100000000E-03 0. -1.
         23    2    1    2    0    0 -0.35527136788E-14  0.35527136788E-14 -0.35527136788E-14  0.91188000000E+02  0.91188000000E+02 0.  0.
    9900012    2    3    3    0    0  0.17006147155E+02 -0.25861235217E+02  0.19944103549E+02  0.54367084825E+02  0.40000001475E+02 0.  0.
         12    1    3    3    0    0 -0.17006147155E+02  0.25861235217E+02 -0.19944103549E+02  0.36820915175E+02  0.00000000000E+00 0. -1.
         11    1    4    4    0    0  0.75807117977E+01 -0.18139126610E+01  0.92446726682E+01  0.12092205899E+02  0.51100000000E-03 0. -1.
        -11    1    4    4    0    0  0.16411214039E+02 -0.62985865999E+00  0.51953426387E+01  0.17225453653E+02  0.51100000000E-03 0.  1.
         12    1    4    4    0    0 -0.69857786817E+01 -0.23417463896E+02  0.55040882418E+01  0.25049425273E+02  0.00000000000E+00 0. -1.
</event>
<event>
 8    1  0.1265908E-006  0.9118800E+02  0.7816164E-02  0.1184000E+00
        -11   -1    0    0    0    0  0.00000000000E+00  0.00000000000E+00  0.45593999997E+02  0.45594000000E+02  0.51100000000E-03 0.  1.
         11   -1    0    0    0    0 -0.00000000000E+00 -0.00000000000E+00 -0.45593999997E+02  0.45594000000E+02  0.51100000000E-03 0. -1.
         23    2    1    2    0    0  0.00000000000E+00  0.00000000000E+00  0.00000000000E+00  0.91188000000E+02  0.91188000000E+02 0.  0.
    9900012    2    3    3    0    0  0.12897648067E+02 -0.11104140532E+02 -0.32651619943E+02  0.54367088176E+02  0.40000009115E+02 0.  0.
        -12    1    3    3    0    0 -0.12897648067E+02  0.11104140532E+02  0.32651619943E+02  0.36820911824E+02  0.00000000000E+00 0.  1.
         11    1    4    4    0    0  0.17814242698E+01 -0.32543363224E+01  0.17637052890E+01  0.41078989686E+01  0.51100000000E-03 0. -1.
        -11    1    4    4    0    0  0.16128220998E+02  0.55632959423E+01 -0.31236028646E+02  0.35591561642E+02  0.51100000000E-03 0.  1.
         12    1    4    4    0    0 -0.50119972007E+01 -0.13413100152E+02 -0.31792965867E+01  0.14667627566E+02  0.00000000000E+00 0. -1.
</event>
<event>
 8    1  0.1265908E-006  0.9118800E+02  0.7816164E-02  0.1184000E+00
        -11   -1    0    0    0    0  0.00000000000E+00  0.00000000000E+00  0.45593999997E+02  0.45594000000E+02  0.51100000000E-03 0. -1.
         11   -1    0    0    0    0 -0.00000000000E+00 -0.00000000000E+00 -0.45593999997E+02  0.45594000000E+02  0.51100000000E-03 0.  1.
         23    2    1    2    0    0  0.00000000000E+00  0.88817841970E-15  0.17763568394E-14  0.91188000000E+02  0.91188000000E+02 0.  0.
    9900012    2    3    3    0    0 -0.34967442092E+02 -0.53094289092E+01 -0.10240445276E+02  0.54367098854E+02  0.40000033457E+02 0.  0.
         12    1    3    3    0    0  0.34967442092E+02  0.53094289092E+01  0.10240445276E+02  0.36820901146E+02  0.00000000000E+00 0. -1.
         11    1    4    4    0    0 -0.22686687949E+02 -0.77872810214E+01 -0.28549145582E+01  0.24155291205E+02  0.51100000000E-03 0. -1.
        -11    1    4    4    0    0 -0.14050349305E+02  0.12065743508E+02 -0.85392590677E+01  0.20393955665E+02  0.51100000000E-03 0.  1.
         12    1    4    4    0    0  0.17695951628E+01 -0.95878913957E+01  0.11537283503E+01  0.98178519832E+01  0.00000000000E+00 0. -1.
</event>
<event>
 8    1  0.1265908E-006  0.9118800E+02  0.7816164E-02  0.1184000E+00
        -11   -1    0    0    0    0  0.00000000000E+00  0.00000000000E+00  0.45593999997E+02  0.45594000000E+02  0.51100000000E-03 0.  1.
         11   -1    0    0    0    0 -0.00000000000E+00 -0.00000000000E+00 -0.45593999997E+02  0.45594000000E+02  0.51100000000E-03 0. -1.
         23    2    1    2    0    0  0.00000000000E+00  0.00000000000E+00 -0.35527136788E-14  0.91188000000E+02  0.91188000000E+02 0.  0.
    9900012    2    3    3    0    0  0.10667175106E+02  0.24870021102E+02 -0.24969441834E+02  0.54367087466E+02  0.40000007495E+02 0.  0.
        -12    1    3    3    0    0 -0.10667175106E+02 -0.24870021102E+02  0.24969441834E+02  0.36820912534E+02  0.00000000000E+00 0.  1.
         11    1    4    4    0    0 -0.21490748994E+01  0.26942261359E+02 -0.20474453358E+02  0.33907332697E+02  0.51100000000E-03 0. -1.
        -11    1    4    4    0    0 -0.22046275247E+01 -0.25870457933E+01  0.21550310927E+01  0.40245928653E+01  0.51100000000E-03 0.  1.
         12    1    4    4    0    0  0.15020877531E+02  0.51480553664E+00 -0.66500195681E+01  0.16435161903E+02  0.00000000000E+00 0. -1.
</event>
<event>
 8    1  0.1265908E-006  0.9118800E+02  0.7816164E-02  0.1184000E+00
        -11   -1    0    0    0    0  0.00000000000E+00  0.00000000000E+00  0.45593999997E+02  0.45594000000E+02  0.51100000000E-03 0.  1.
         11   -1    0    0    0    0 -0.00000000000E+00 -0.00000000000E+00 -0.45593999997E+02  0.45594000000E+02  0.51100000000E-03 0. -1.
         23    2    1    2    0    0  0.00000000000E+00  0.35527136788E-14 -0.17763568394E-14  0.91188000000E+02  0.91188000000E+02 0.  0.
    9900012    2    3    3    0    0  0.28484221057E+02 -0.20245339005E+02 -0.11599794001E+02  0.54367084455E+02  0.40000000633E+02 0.  0.
        -12    1    3    3    0    0 -0.28484221057E+02  0.20245339005E+02  0.11599794001E+02  0.36820915545E+02  0.00000000000E+00 0.  1.
         11    1    4    4    0    0  0.49751355402E+01 -0.47846909384E+01  0.13363806866E+02  0.15041162696E+02  0.51100000000E-03 0. -1.
        -11    1    4    4    0    0  0.92157478145E+01 -0.36168035020E+00 -0.49499691839E+01  0.10467235339E+02  0.51100000000E-03 0.  1.
         12    1    4    4    0    0  0.14293337702E+02 -0.15098967717E+02 -0.20013631683E+02  0.28858686421E+02  0.00000000000E+00 0. -1.
</event>
<event>
 8    1  0.1265908E-006  0.9118800E+02  0.7816164E-02  0.1184000E+00
        -11   -1    0    0    0    0  0.00000000000E+00  0.00000000000E+00  0.45593999997E+02  0.45594000000E+02  0.51100000000E-03 0. -1.
         11   -1    0    0    0    0 -0.00000000000E+00 -0.00000000000E+00 -0.45593999997E+02  0.45594000000E+02  0.51100000000E-03 0.  1.
         23    2    1    2    0    0  0.35527136788E-14 -0.71054273576E-14 -0.26645352591E-14  0.91188000000E+02  0.91188000000E+02 0.  0.
    9900012    2    3    3    0    0 -0.22936738429E+02  0.28018001955E+02  0.66841844050E+01  0.54367072194E+02  0.39999972681E+02 0.  0.
         12    1    3    3    0    0  0.22936738429E+02 -0.28018001955E+02 -0.66841844050E+01  0.36820927806E+02  0.00000000000E+00 0. -1.
         11    1    4    4    0    0 -0.16451955684E+02  0.11611467530E+02  0.99531228083E+01  0.22462361361E+02  0.51100000000E-03 0. -1.
        -11    1    4    4    0    0 -0.29584462580E+01 -0.15049442710E+01  0.92113009025E+01  0.97910840104E+01  0.51100000000E-03 0.  1.
        -12    1    4    4    0    0 -0.35263364875E+01  0.17911478696E+02 -0.12480239306E+02  0.22113626823E+02  0.00000000000E+00 0.  1.
</event>
<event>
 8    1  0.1265908E-006  0.9118800E+02  0.7816164E-02  0.1184000E+00
        -11   -1    0    0    0    0  0.00000000000E+00  0.00000000000E+00  0.45593999997E+02  0.45594000000E+02  0.51100000000E-03 0.  1.
         11   -1    0    0    0    0 -0.00000000000E+00 -0.00000000000E+00 -0.45593999997E+02  0.45594000000E+02  0.51100000000E-03 0. -1.
         23    2    1    2    0    0  0.00000000000E+00  0.00000000000E+00  0.35527136788E-14  0.91188000000E+02  0.91188000000E+02 0.  0.
    9900012    2    3    3    0    0  0.15137776568E+01  0.32968824959E+02 -0.16325996638E+02  0.54367175618E+02  0.40000208455E+02 0.  0.
        -12    1    3    3    0    0 -0.15137776568E+01 -0.32968824959E+02  0.16325996638E+02  0.36820824382E+02  0.00000000000E+00 0.  1.
         11    1    4    4    0    0  0.52473463702E+01  0.19141446731E+01 -0.89332201747E+01  0.10535702004E+02  0.51100000000E-03 0. -1.
        -11    1    4    4    0    0  0.16022636405E+01  0.21749249448E+02 -0.18347449040E+02  0.28499578714E+02  0.51100000000E-03 0.  1.
        -12    1    4    4    0    0 -0.53358323539E+01  0.93054308374E+01  0.10954672576E+02  0.15331894900E+02  0.00000000000E+00 0.  1.
</event>
<event>
 8    1  0.1265908E-006  0.9118800E+02  0.7816164E-02  0.1184000E+00
        -11   -1    0    0    0    0  0.00000000000E+00  0.00000000000E+00  0.45593999997E+02  0.45594000000E+02  0.51100000000E-03 0. -1.
         11   -1    0    0    0    0 -0.00000000000E+00 -0.00000000000E+00 -0.45593999997E+02  0.45594000000E+02  0.51100000000E-03 0.  1.
         23    2    1    2    0    0  0.17763568394E-14  0.00000000000E+00 -0.35527136788E-14  0.91188000000E+02  0.91188000000E+02 0.  0.
    9900012    2    3    3    0    0 -0.14617281445E+02  0.24681476272E+02  0.23085471451E+02  0.54367093168E+02  0.40000020496E+02 0.  0.
        -12    1    3    3    0    0  0.14617281445E+02 -0.24681476272E+02 -0.23085471451E+02  0.36820906832E+02  0.00000000000E+00 0.  1.
         11    1    4    4    0    0 -0.63512608541E+01  0.12442425508E+01 -0.90685650777E+01  0.11141163619E+02  0.51100000000E-03 0. -1.
        -11    1    4    4    0    0 -0.54438502636E+01  0.16870405295E+02  0.10918319234E+02  0.20819600757E+02  0.51100000000E-03 0.  1.
         12    1    4    4    0    0 -0.28221703275E+01  0.65668284261E+01  0.21235717294E+02  0.22406328792E+02  0.00000000000E+00 0. -1.
</event>
<event>
 8    1  0.1265908E-006  0.9118800E+02  0.7816164E-02  0.1184000E+00
        -11   -1    0    0    0    0  0.00000000000E+00  0.00000000000E+00  0.45593999997E+02  0.45594000000E+02  0.51100000000E-03 0.  1.
         11   -1    0    0    0    0 -0.00000000000E+00 -0.00000000000E+00 -0.45593999997E+02  0.45594000000E+02  0.51100000000E-03 0. -1.
         23    2    1    2    0    0 -0.13322676296E-14  0.00000000000E+00  0.71054273576E-14  0.91188000000E+02  0.91188000000E+02 0.  0.
    9900012    2    3    3    0    0 -0.28467315834E+01  0.15629304546E+02  0.33217483584E+02  0.54367078542E+02  0.39999987153E+02 0.  0.
         12    1    3    3    0    0  0.28467315834E+01 -0.15629304546E+02 -0.33217483584E+02  0.36820921458E+02  0.00000000000E+00 0. -1.
         11    1    4    4    0    0  0.87627352809E+01  0.33182571795E+01 -0.35324346383E+01  0.10013713350E+02  0.51100000000E-03 0. -1.
        -11    1    4    4    0    0  0.25621842582E+01  0.67850389213E+01  0.22002662260E+02  0.23167189905E+02  0.51100000000E-03 0.  1.
         12    1    4    4    0    0 -0.14171651122E+02  0.55260084455E+01  0.14747255963E+02  0.21186175288E+02  0.00000000000E+00 0. -1.
</event>
<event>
 8    1  0.1265908E-006  0.9118800E+02  0.7816164E-02  0.1184000E+00
        -11   -1    0    0    0    0  0.00000000000E+00  0.00000000000E+00  0.45593999997E+02  0.45594000000E+02  0.51100000000E-03 0. -1.
         11   -1    0    0    0    0 -0.00000000000E+00 -0.00000000000E+00 -0.45593999997E+02  0.45594000000E+02  0.51100000000E-03 0.  1.
         23    2    1    2    0    0  0.00000000000E+00 -0.35527136788E-14  0.00000000000E+00  0.91188000000E+02  0.91188000000E+02 0.  0.
    9900012    2    3    3    0    0 -0.13784926911E+02  0.26104503255E+02 -0.22007057631E+02  0.54367083584E+02  0.39999998647E+02 0.  0.
         12    1    3    3    0    0  0.13784926911E+02 -0.26104503255E+02  0.22007057631E+02  0.36820916416E+02  0.00000000000E+00 0. -1.
         11    1    4    4    0    0 -0.15736175825E+02 -0.25166268176E+01 -0.15286229206E+02  0.22082333295E+02  0.51100000000E-03 0. -1.
        -11    1    4    4    0    0  0.13611123784E+01  0.26887318715E+02 -0.98432778536E+01  0.28664798163E+02  0.51100000000E-03 0.  1.
         12    1    4    4    0    0  0.59013653648E+00  0.17338113575E+01  0.31224494291E+01  0.36199521257E+01  0.00000000000E+00 0. -1.
</event>
<event>
 8    1  0.1265908E-006  0.9118800E+02  0.7816164E-02  0.1184000E+00
        -11   -1    0    0    0    0  0.00000000000E+00  0.00000000000E+00  0.45593999997E+02  0.45594000000E+02  0.51100000000E-03 0.  1.
         11   -1    0    0    0    0 -0.00000000000E+00 -0.00000000000E+00 -0.45593999997E+02  0.45594000000E+02  0.51100000000E-03 0. -1.
         23    2    1    2    0    0  0.88817841970E-15  0.00000000000E+00  0.00000000000E+00  0.91188000000E+02  0.91188000000E+02 0.  0.
    9900012    2    3    3    0    0  0.63768852818E+01 -0.32148645134E+02  0.16780333825E+02  0.54367086743E+02  0.40000005847E+02 0.  0.
         12    1    3    3    0    0 -0.63768852818E+01  0.32148645134E+02 -0.16780333825E+02  0.36820913257E+02  0.00000000000E+00 0. -1.
         11    1    4    4    0    0  0.21902241457E+01 -0.83177090943E+01  0.60157093046E+01  0.10496195743E+02  0.51100000000E-03 0. -1.
        -11    1    4    4    0    0 -0.10213312744E+02 -0.23581351037E+02  0.13775437030E+02  0.29157409685E+02  0.51100000000E-03 0.  1.
         12    1    4    4    0    0  0.14399973880E+02 -0.24958500190E+00 -0.30108125093E+01  0.14713481314E+02  0.00000000000E+00 0. -1.
</event>
<event>
 8    1  0.1265908E-006  0.9118800E+02  0.7816164E-02  0.1184000E+00
        -11   -1    0    0    0    0  0.00000000000E+00  0.00000000000E+00  0.45593999997E+02  0.45594000000E+02  0.51100000000E-03 0.  1.
         11   -1    0    0    0    0 -0.00000000000E+00 -0.00000000000E+00 -0.45593999997E+02  0.45594000000E+02  0.51100000000E-03 0. -1.
         23    2    1    2    0    0 -0.35527136788E-14  0.00000000000E+00  0.00000000000E+00  0.91188000000E+02  0.91188000000E+02 0.  0.
    9900012    2    3    3    0    0 -0.17295263869E+02 -0.32489447203E+02  0.10442761425E+01  0.54367070565E+02  0.39999968966E+02 0.  0.
         12    1    3    3    0    0  0.17295263869E+02  0.32489447203E+02 -0.10442761425E+01  0.36820929435E+02  0.00000000000E+00 0. -1.
         11    1    4    4    0    0  0.88843853008E+01 -0.62272448109E+01 -0.42297348541E+01  0.11644807311E+02  0.51100000000E-03 0. -1.
        -11    1    4    4    0    0  0.10430518636E+00 -0.10729334015E+02  0.57797544759E+01  0.12187495642E+02  0.51100000000E-03 0.  1.
        -12    1    4    4    0    0 -0.26283954356E+02 -0.15532868377E+02 -0.50574347928E+00  0.30534767611E+02  0.00000000000E+00 0.  1.
</event>
<event>
 8    1  0.1265908E-006  0.9118800E+02  0.7816164E-02  0.1184000E+00
        -11   -1    0    0    0    0  0.00000000000E+00  0.00000000000E+00  0.45593999997E+02  0.45594000000E+02  0.51100000000E-03 0.  1.
         11   -1    0    0    0    0 -0.00000000000E+00 -0.00000000000E+00 -0.45593999997E+02  0.45594000000E+02  0.51100000000E-03 0. -1.
         23    2    1    2    0    0  0.00000000000E+00 -0.17763568394E-14  0.00000000000E+00  0.91188000000E+02  0.91188000000E+02 0.  0.
    9900012    2    3    3    0    0  0.12737609066E+02  0.82279353374E+01  0.33553461880E+02  0.54367076482E+02  0.39999982456E+02 0.  0.
         12    1    3    3    0    0 -0.12737609066E+02 -0.82279353374E+01 -0.33553461880E+02  0.36820923518E+02  0.00000000000E+00 0. -1.
         11    1    4    4    0    0  0.49181890654E+01 -0.73619641227E+01 -0.44618988713E+01  0.99144158288E+01  0.51100000000E-03 0. -1.
        -11    1    4    4    0    0 -0.97888153954E+00  0.13293175189E+02  0.17380979948E+02  0.21903542633E+02  0.51100000000E-03 0.  1.
         12    1    4    4    0    0  0.87983015397E+01  0.22967242715E+01  0.20634380803E+02  0.22549118020E+02  0.00000000000E+00 0. -1.
</event>
<event>
 8    1  0.1265908E-006  0.9118800E+02  0.7816164E-02  0.1184000E+00
        -11   -1    0    0    0    0  0.00000000000E+00  0.00000000000E+00  0.45593999997E+02  0.45594000000E+02  0.51100000000E-03 0. -1.
         11   -1    0    0    0    0 -0.00000000000E+00 -0.00000000000E+00 -0.45593999997E+02  0.45594000000E+02  0.51100000000E-03 0.  1.
         23    2    1    2    0    0  0.00000000000E+00  0.00000000000E+00  0.35527136788E-14  0.91188000000E+02  0.91188000000E+02 0.  0.
    9900012    2    3    3    0    0 -0.13221399810E+02 -0.30322429080E+02 -0.16171738410E+02  0.54367078754E+02  0.39999987635E+02 0.  0.
        -12    1    3    3    0    0  0.13221399810E+02  0.30322429080E+02  0.16171738410E+02  0.36820921246E+02  0.00000000000E+00 0.  1.
         11    1    4    4    0    0 -0.12907158917E+02 -0.89691964320E+01  0.81365887631E+01  0.17698737608E+02  0.51100000000E-03 0. -1.
        -11    1    4    4    0    0 -0.43502291528E+01  0.12140468745E+01 -0.36173345072E+01  0.57864939898E+01  0.51100000000E-03 0.  1.
        -12    1    4    4    0    0  0.40359882606E+01 -0.22567279522E+02 -0.20690992666E+02  0.30881847156E+02  0.00000000000E+00 0.  1.
</event>
<event>
 8    1  0.1265908E-006  0.9118800E+02  0.7816164E-02  0.1184000E+00
        -11   -1    0    0    0    0  0.00000000000E+00  0.00000000000E+00  0.45593999997E+02  0.45594000000E+02  0.51100000000E-03 0.  1.
         11   -1    0    0    0    0 -0.00000000000E+00 -0.00000000000E+00 -0.45593999997E+02  0.45594000000E+02  0.51100000000E-03 0. -1.
         23    2    1    2    0    0  0.88817841970E-15  0.00000000000E+00  0.00000000000E+00  0.91188000000E+02  0.91188000000E+02 0.  0.
    9900012    2    3    3    0    0 -0.64300151899E+01  0.15560737182E+02  0.32745937330E+02  0.54367108531E+02  0.40000055518E+02 0.  0.
         12    1    3    3    0    0  0.64300151899E+01 -0.15560737182E+02 -0.32745937330E+02  0.36820891469E+02  0.00000000000E+00 0. -1.
         11    1    4    4    0    0 -0.10557182155E+02  0.10840121029E+02  0.43639325908E+01  0.15748213451E+02  0.51100000000E-03 0. -1.
        -11    1    4    4    0    0 -0.37080397382E+01 -0.21030071325E+01  0.27893548328E+02  0.28217410162E+02  0.51100000000E-03 0.  1.
        -12    1    4    4    0    0  0.78352067036E+01  0.68236232858E+01  0.48845641115E+00  0.10401484918E+02  0.00000000000E+00 0.  1.
</event>
<event>
 8    1  0.1265908E-006  0.9118800E+02  0.7816164E-02  0.1184000E+00
        -11   -1    0    0    0    0  0.00000000000E+00  0.00000000000E+00  0.45593999997E+02  0.45594000000E+02  0.51100000000E-03 0.  1.
         11   -1    0    0    0    0 -0.00000000000E+00 -0.00000000000E+00 -0.45593999997E+02  0.45594000000E+02  0.51100000000E-03 0. -1.
         23    2    1    2    0    0  0.00000000000E+00 -0.17763568394E-14  0.00000000000E+00  0.91188000000E+02  0.91188000000E+02 0.  0.
    9900012    2    3    3    0    0 -0.61064231545E+01 -0.67441097769E+01  0.35679225478E+02  0.54367101707E+02  0.40000039961E+02 0.  0.
         12    1    3    3    0    0  0.61064231545E+01  0.67441097769E+01 -0.35679225478E+02  0.36820898293E+02  0.00000000000E+00 0. -1.
         11    1    4    4    0    0 -0.11049519967E+02 -0.10857789138E+02  0.96806360125E+01  0.18267407871E+02  0.51100000000E-03 0. -1.
        -11    1    4    4    0    0  0.13290602141E+02 -0.31852824347E-02  0.22547335002E+02  0.26172933182E+02  0.51100000000E-03 0.  1.
         12    1    4    4    0    0 -0.83475053284E+01  0.41168646434E+01  0.34512544636E+01  0.99267606535E+01  0.00000000000E+00 0. -1.
</event>
<event>
 8    1  0.1265908E-006  0.9118800E+02  0.7816164E-02  0.1184000E+00
        -11   -1    0    0    0    0  0.00000000000E+00  0.00000000000E+00  0.45593999997E+02  0.45594000000E+02  0.51100000000E-03 0.  1.
         11   -1    0    0    0    0 -0.00000000000E+00 -0.00000000000E+00 -0.45593999997E+02  0.45594000000E+02  0.51100000000E-03 0. -1.
         23    2    1    2    0    0  0.71054273576E-14  0.17763568394E-14  0.00000000000E+00  0.91188000000E+02  0.91188000000E+02 0.  0.
    9900012    2    3    3    0    0 -0.33390512742E+02 -0.10651362507E+02 -0.11287091454E+02  0.54367132304E+02  0.40000109713E+02 0.  0.
         12    1    3    3    0    0  0.33390512742E+02  0.10651362507E+02  0.11287091454E+02  0.36820867696E+02  0.00000000000E+00 0. -1.
         11    1    4    4    0    0 -0.47141288286E+01  0.35286650793E+01 -0.76991957215E+01  0.96928892944E+01  0.51100000000E-03 0. -1.
        -11    1    4    4    0    0 -0.12630001339E+02 -0.80128993051E+01 -0.17165767088E+02  0.22768114746E+02  0.51100000000E-03 0.  1.
        -12    1    4    4    0    0 -0.16046382574E+02 -0.61671282812E+01  0.13577871355E+02  0.21906128264E+02  0.00000000000E+00 0.  1.
</event>
<event>
 8    1  0.1265908E-006  0.9118800E+02  0.7816164E-02  0.1184000E+00
        -11   -1    0    0    0    0  0.00000000000E+00  0.00000000000E+00  0.45593999997E+02  0.45594000000E+02  0.51100000000E-03 0.  1.
         11   -1    0    0    0    0 -0.00000000000E+00 -0.00000000000E+00 -0.45593999997E+02  0.45594000000E+02  0.51100000000E-03 0. -1.
         23    2    1    2    0    0  0.00000000000E+00  0.44408920985E-15  0.00000000000E+00  0.91188000000E+02  0.91188000000E+02 0.  0.
    9900012    2    3    3    0    0 -0.16999372563E+02 -0.84426178340E+00 -0.32651025231E+02  0.54367069891E+02  0.39999967430E+02 0.  0.
        -12    1    3    3    0    0  0.16999372563E+02  0.84426178340E+00  0.32651025231E+02  0.36820930109E+02  0.00000000000E+00 0.  1.
         11    1    4    4    0    0 -0.13374817500E+02 -0.28863421606E+01 -0.62363699423E+01  0.15036922044E+02  0.51100000000E-03 0. -1.
        -11    1    4    4    0    0  0.11925579902E+02 -0.28670736084E+01 -0.75857051498E+01  0.14421598038E+02  0.51100000000E-03 0.  1.
        -12    1    4    4    0    0 -0.15550134965E+02  0.49091539856E+01 -0.18828950139E+02  0.24908549810E+02  0.00000000000E+00 0.  1.
</event>
<event>
 8    1  0.1265908E-006  0.9118800E+02  0.7816164E-02  0.1184000E+00
        -11   -1    0    0    0    0  0.00000000000E+00  0.00000000000E+00  0.45593999997E+02  0.45594000000E+02  0.51100000000E-03 0. -1.
         11   -1    0    0    0    0 -0.00000000000E+00 -0.00000000000E+00 -0.45593999997E+02  0.45594000000E+02  0.51100000000E-03 0.  1.
         23    2    1    2    0    0  0.88817841970E-15 -0.35527136788E-14 -0.71054273576E-14  0.91188000000E+02  0.91188000000E+02 0.  0.
    9900012    2    3    3    0    0 -0.40637868225E+01  0.17257491901E+02  0.32271420768E+02  0.54367082189E+02  0.39999995467E+02 0.  0.
        -12    1    3    3    0    0  0.40637868225E+01 -0.17257491901E+02 -0.32271420768E+02  0.36820917811E+02  0.00000000000E+00 0.  1.
         11    1    4    4    0    0 -0.92675270668E+01 -0.14449868695E+01  0.41547113193E+01  0.10258492647E+02  0.51100000000E-03 0.  1.
        -11    1    4    4    0    0  0.13873601245E+02  0.19807823708E+02  0.15373248547E+02  0.28655949866E+02  0.51100000000E-03 0. -1.
         12    1    4    4    0    0 -0.86698610008E+01 -0.11053449376E+01  0.12743460902E+02  0.15452639676E+02  0.00000000000E+00 0. -1.
</event>
<event>
 8    1  0.1265908E-006  0.9118800E+02  0.7816164E-02  0.1184000E+00
        -11   -1    0    0    0    0  0.00000000000E+00  0.00000000000E+00  0.45593999997E+02  0.45594000000E+02  0.51100000000E-03 0.  1.
         11   -1    0    0    0    0 -0.00000000000E+00 -0.00000000000E+00 -0.45593999997E+02  0.45594000000E+02  0.51100000000E-03 0. -1.
         23    2    1    2    0    0  0.00000000000E+00  0.00000000000E+00  0.00000000000E+00  0.91188000000E+02  0.91188000000E+02 0.  0.
    9900012    2    3    3    0    0 -0.20677145612E+02 -0.24362243233E+02  0.18295065501E+02  0.54367181600E+02  0.40000222092E+02 0.  0.
         12    1    3    3    0    0  0.20677145612E+02  0.24362243233E+02 -0.18295065501E+02  0.36820818400E+02  0.00000000000E+00 0. -1.
         11    1    4    4    0    0  0.91835282913E+01  0.18262529437E+01  0.69358508737E+01  0.11652399723E+02  0.51100000000E-03 0. -1.
        -11    1    4    4    0    0 -0.21144337953E+02 -0.13533843549E+02  0.31738057456E+01  0.25304564644E+02  0.51100000000E-03 0.  1.
        -12    1    4    4    0    0 -0.87163359500E+01 -0.12654652628E+02  0.81854088819E+01  0.17410217233E+02  0.00000000000E+00 0.  1.
</event>
<event>
 8    1  0.1265908E-006  0.9118800E+02  0.7816164E-02  0.1184000E+00
        -11   -1    0    0    0    0  0.00000000000E+00  0.00000000000E+00  0.45593999997E+02  0.45594000000E+02  0.51100000000E-03 0.  1.
         11   -1    0    0    0    0 -0.00000000000E+00 -0.00000000000E+00 -0.45593999997E+02  0.45594000000E+02  0.51100000000E-03 0. -1.
         23    2    1    2    0    0 -0.35527136788E-14 -0.17763568394E-14  0.00000000000E+00  0.91188000000E+02  0.91188000000E+02 0.  0.
    9900012    2    3    3    0    0 -0.26756963156E+02 -0.13078409532E+02 -0.21651783023E+02  0.54367087718E+02  0.40000008071E+02 0.  0.
        -12    1    3    3    0    0  0.26756963156E+02  0.13078409532E+02  0.21651783023E+02  0.36820912282E+02  0.00000000000E+00 0.  1.
         11    1    4    4    0    0  0.65459001774E+01  0.17283782639E+01 -0.11472172577E+02  0.13320917553E+02  0.51100000000E-03 0. -1.
        -11    1    4    4    0    0 -0.12506046970E+02  0.17490700593E+01 -0.13158738254E+00  0.12628450910E+02  0.51100000000E-03 0.  1.
         12    1    4    4    0    0 -0.20796816363E+02 -0.16555857855E+02 -0.10048023064E+02  0.28417719255E+02  0.00000000000E+00 0. -1.
</event>
<event>
 8    1  0.1265908E-006  0.9118800E+02  0.7816164E-02  0.1184000E+00
        -11   -1    0    0    0    0  0.00000000000E+00  0.00000000000E+00  0.45593999997E+02  0.45594000000E+02  0.51100000000E-03 0. -1.
         11   -1    0    0    0    0 -0.00000000000E+00 -0.00000000000E+00 -0.45593999997E+02  0.45594000000E+02  0.51100000000E-03 0.  1.
         23    2    1    2    0    0  0.35527136788E-14 -0.35527136788E-14 -0.13322676296E-14  0.91188000000E+02  0.91188000000E+02 0.  0.
    9900012    2    3    3    0    0  0.25446932496E+02 -0.26487013234E+02 -0.25829379084E+01  0.54367084588E+02  0.40000000936E+02 0.  0.
         12    1    3    3    0    0 -0.25446932496E+02  0.26487013234E+02  0.25829379084E+01  0.36820915412E+02  0.00000000000E+00 0. -1.
         11    1    4    4    0    0  0.43000605668E+01 -0.15777817785E+02 -0.82093908762E+01  0.18298200834E+02  0.51100000000E-03 0. -1.
        -11    1    4    4    0    0  0.34301707230E+01 -0.16502605833E+02  0.11230064771E+01  0.16892697069E+02  0.51100000000E-03 0.  1.
         12    1    4    4    0    0  0.17716701206E+02  0.57934103837E+01  0.45034464908E+01  0.19176186685E+02  0.00000000000E+00 0. -1.
</event>
<event>
 8    1  0.1265908E-006  0.9118800E+02  0.7816164E-02  0.1184000E+00
        -11   -1    0    0    0    0  0.00000000000E+00  0.00000000000E+00  0.45593999997E+02  0.45594000000E+02  0.51100000000E-03 0.  1.
         11   -1    0    0    0    0 -0.00000000000E+00 -0.00000000000E+00 -0.45593999997E+02  0.45594000000E+02  0.51100000000E-03 0. -1.
         23    2    1    2    0    0  0.00000000000E+00  0.35527136788E-14  0.00000000000E+00  0.91188000000E+02  0.91188000000E+02 0.  0.
    9900012    2    3    3    0    0  0.49487416383E+01 -0.17375658914E+02  0.32083896295E+02  0.54367082467E+02  0.39999996101E+02 0.  0.
         12    1    3    3    0    0 -0.49487416383E+01  0.17375658914E+02 -0.32083896295E+02  0.36820917533E+02  0.00000000000E+00 0. -1.
         11    1    4    4    0    0 -0.42603976120E+01 -0.12477502373E+02  0.15656700299E+02  0.20468788870E+02  0.51100000000E-03 0. -1.
        -11    1    4    4    0    0  0.59568277039E+01 -0.16062463171E+02  0.56373819146E+01  0.18035148864E+02  0.51100000000E-03 0.  1.
         12    1    4    4    0    0  0.32523115464E+01  0.11164306631E+02  0.10789814082E+02  0.15863144734E+02  0.00000000000E+00 0. -1.
</event>
<event>
 8    1  0.1265908E-006  0.9118800E+02  0.7816164E-02  0.1184000E+00
        -11   -1    0    0    0    0  0.00000000000E+00  0.00000000000E+00  0.45593999997E+02  0.45594000000E+02  0.51100000000E-03 0.  1.
         11   -1    0    0    0    0 -0.00000000000E+00 -0.00000000000E+00 -0.45593999997E+02  0.45594000000E+02  0.51100000000E-03 0. -1.
         23    2    1    2    0    0 -0.35527136788E-14 -0.35527136788E-14 -0.17763568394E-14  0.91188000000E+02  0.91188000000E+02 0.  0.
    9900012    2    3    3    0    0 -0.31935419415E+02 -0.18203933847E+02  0.21274291819E+01  0.54367079647E+02  0.39999989671E+02 0.  0.
         12    1    3    3    0    0  0.31935419415E+02  0.18203933847E+02 -0.21274291819E+01  0.36820920353E+02  0.00000000000E+00 0. -1.
         11    1    4    4    0    0 -0.29900857178E+02 -0.31886653829E+01 -0.78853227725E+01  0.31087089964E+02  0.51100000000E-03 0. -1.
        -11    1    4    4    0    0 -0.37841459122E+01 -0.10424196101E+02  0.13338965607E+02  0.17346804558E+02  0.51100000000E-03 0.  1.
         12    1    4    4    0    0  0.17495836754E+01 -0.45910723626E+01 -0.33262136521E+01  0.59331851257E+01  0.00000000000E+00 0. -1.
</event>
<event>
 8    1  0.1265908E-006  0.9118800E+02  0.7816164E-02  0.1184000E+00
        -11   -1    0    0    0    0  0.00000000000E+00  0.00000000000E+00  0.45593999997E+02  0.45594000000E+02  0.51100000000E-03 0. -1.
         11   -1    0    0    0    0 -0.00000000000E+00 -0.00000000000E+00 -0.45593999997E+02  0.45594000000E+02  0.51100000000E-03 0.  1.
         23    2    1    2    0    0  0.00000000000E+00  0.44408920985E-15 -0.13322676296E-14  0.91188000000E+02  0.91188000000E+02 0.  0.
    9900012    2    3    3    0    0  0.36528047539E+02 -0.30900876445E+01  0.34539675956E+01  0.54367125611E+02  0.40000094454E+02 0.  0.
         12    1    3    3    0    0 -0.36528047539E+02  0.30900876445E+01 -0.34539675956E+01  0.36820874389E+02  0.00000000000E+00 0. -1.
         11    1    4    4    0    0  0.18862698469E+02 -0.91919758786E+01 -0.45778101237E+01  0.21476735317E+02  0.51100000000E-03 0. -1.
        -11    1    4    4    0    0  0.16352843657E+02  0.60930814677E+01  0.16681570544E+02  0.24141581007E+02  0.51100000000E-03 0.  1.
         12    1    4    4    0    0  0.13125054135E+01  0.88067663845E-02 -0.86497928251E+01  0.87488092868E+01  0.00000000000E+00 0. -1.
</event>
<event>
 8    1  0.1265908E-006  0.9118800E+02  0.7816164E-02  0.1184000E+00
        -11   -1    0    0    0    0  0.00000000000E+00  0.00000000000E+00  0.45593999997E+02  0.45594000000E+02  0.51100000000E-03 0.  1.
         11   -1    0    0    0    0 -0.00000000000E+00 -0.00000000000E+00 -0.45593999997E+02  0.45594000000E+02  0.51100000000E-03 0. -1.
         23    2    1    2    0    0  0.35527136788E-14  0.35527136788E-14  0.22204460493E-15  0.91188000000E+02  0.91188000000E+02 0.  0.
    9900012    2    3    3    0    0  0.18321312923E+02 -0.31889305428E+02  0.17838462027E+01  0.54367076394E+02  0.39999982256E+02 0.  0.
         12    1    3    3    0    0 -0.18321312923E+02  0.31889305428E+02 -0.17838462027E+01  0.36820923606E+02  0.00000000000E+00 0. -1.
         11    1    4    4    0    0  0.46891553309E+01  0.19129257010E+01 -0.14015153477E+01  0.52546843850E+01  0.51100000000E-03 0. -1.
        -11    1    4    4    0    0  0.12797671153E+02 -0.12116664896E+02 -0.13117321708E+02  0.21969480745E+02  0.51100000000E-03 0.  1.
         12    1    4    4    0    0  0.83448643887E+00 -0.21685566233E+02  0.16302683258E+02  0.27142911264E+02  0.00000000000E+00 0. -1.
</event>
<event>
 8    1  0.1265908E-006  0.9118800E+02  0.7816164E-02  0.1184000E+00
        -11   -1    0    0    0    0  0.00000000000E+00  0.00000000000E+00  0.45593999997E+02  0.45594000000E+02  0.51100000000E-03 0. -1.
         11   -1    0    0    0    0 -0.00000000000E+00 -0.00000000000E+00 -0.45593999997E+02  0.45594000000E+02  0.51100000000E-03 0.  1.
         23    2    1    2    0    0  0.00000000000E+00  0.00000000000E+00  0.00000000000E+00  0.91188000000E+02  0.91188000000E+02 0.  0.
    9900012    2    3    3    0    0 -0.22446643283E+02 -0.73454785250E+01  0.28248410989E+02  0.54367074254E+02  0.39999977376E+02 0.  0.
        -12    1    3    3    0    0  0.22446643283E+02  0.73454785250E+01 -0.28248410989E+02  0.36820925746E+02  0.00000000000E+00 0.  1.
         11    1    4    4    0    0 -0.15443482871E+02 -0.75541577475E+01  0.75318354795E+01  0.18769523393E+02  0.51100000000E-03 0. -1.
        -11    1    4    4    0    0  0.56213496350E+01 -0.97611828778E+01  0.14477851450E+02  0.18343621392E+02  0.51100000000E-03 0.  1.
         12    1    4    4    0    0 -0.12624510047E+02  0.99698621004E+01  0.62387240596E+01  0.17253929469E+02  0.00000000000E+00 0. -1.
</event>
<event>
 8    1  0.1265908E-006  0.9118800E+02  0.7816164E-02  0.1184000E+00
        -11   -1    0    0    0    0  0.00000000000E+00  0.00000000000E+00  0.45593999997E+02  0.45594000000E+02  0.51100000000E-03 0. -1.
         11   -1    0    0    0    0 -0.00000000000E+00 -0.00000000000E+00 -0.45593999997E+02  0.45594000000E+02  0.51100000000E-03 0.  1.
         23    2    1    2    0    0  0.00000000000E+00  0.00000000000E+00  0.12212453271E-14  0.91188000000E+02  0.91188000000E+02 0.  0.
    9900012    2    3    3    0    0 -0.11160820131E+02 -0.35077946754E+02 -0.86735915926E+00  0.54367101499E+02  0.40000039487E+02 0.  0.
         12    1    3    3    0    0  0.11160820131E+02  0.35077946754E+02  0.86735915926E+00  0.36820898501E+02  0.00000000000E+00 0. -1.
         11    1    4    4    0    0  0.38601411748E+01 -0.22654973813E+02 -0.34357134669E+01  0.23236881367E+02  0.51100000000E-03 0. -1.
        -11    1    4    4    0    0 -0.14016451458E+02 -0.69839774468E+01 -0.91747712109E+01  0.18149745990E+02  0.51100000000E-03 0.  1.
         12    1    4    4    0    0 -0.10045098477E+01 -0.54389954944E+01  0.11743125518E+02  0.12980474143E+02  0.00000000000E+00 0. -1.
</event>
<event>
 8    1  0.1265908E-006  0.9118800E+02  0.7816164E-02  0.1184000E+00
        -11   -1    0    0    0    0  0.00000000000E+00  0.00000000000E+00  0.45593999997E+02  0.45594000000E+02  0.51100000000E-03 0.  1.
         11   -1    0    0    0    0 -0.00000000000E+00 -0.00000000000E+00 -0.45593999997E+02  0.45594000000E+02  0.51100000000E-03 0. -1.
         23    2    1    2    0    0  0.00000000000E+00  0.00000000000E+00  0.00000000000E+00  0.91188000000E+02  0.91188000000E+02 0.  0.
    9900012    2    3    3    0    0  0.31437461089E+02  0.10765411778E+02 -0.15861009086E+02  0.54367086654E+02  0.40000005644E+02 0.  0.
        -12    1    3    3    0    0 -0.31437461089E+02 -0.10765411778E+02  0.15861009086E+02  0.36820913346E+02  0.00000000000E+00 0.  1.
         11    1    4    4    0    0  0.32608428359E+02  0.10741802049E+02 -0.86659700643E+01  0.35408967066E+02  0.51100000000E-03 0. -1.
        -11    1    4    4    0    0 -0.84349634101E+01 -0.38383757801E+01 -0.31280564038E+01  0.97809239587E+01  0.51100000000E-03 0.  1.
        -12    1    4    4    0    0  0.72639961400E+01  0.38619855092E+01 -0.40669826179E+01  0.91771956288E+01  0.00000000000E+00 0.  1.
</event>
<event>
 8    1  0.1265908E-006  0.9118800E+02  0.7816164E-02  0.1184000E+00
        -11   -1    0    0    0    0  0.00000000000E+00  0.00000000000E+00  0.45593999997E+02  0.45594000000E+02  0.51100000000E-03 0.  1.
         11   -1    0    0    0    0 -0.00000000000E+00 -0.00000000000E+00 -0.45593999997E+02  0.45594000000E+02  0.51100000000E-03 0. -1.
         23    2    1    2    0    0  0.00000000000E+00  0.35527136788E-14  0.00000000000E+00  0.91188000000E+02  0.91188000000E+02 0.  0.
    9900012    2    3    3    0    0 -0.44564913409E+01 -0.24730224711E+02 -0.26913483623E+02  0.54367082982E+02  0.39999997274E+02 0.  0.
        -12    1    3    3    0    0  0.44564913409E+01  0.24730224711E+02  0.26913483623E+02  0.36820917018E+02  0.00000000000E+00 0.  1.
         11    1    4    4    0    0  0.78948741201E+00 -0.31055726475E+01 -0.21304809321E+02  0.21544437154E+02  0.51100000000E-03 0. -1.
        -11    1    4    4    0    0 -0.12055657960E+02 -0.36182405595E+01  0.58294580043E+00  0.12600411885E+02  0.51100000000E-03 0.  1.
        -12    1    4    4    0    0  0.68096792071E+01 -0.18006411504E+02 -0.61916201031E+01  0.20222233943E+02  0.00000000000E+00 0.  1.
</event>
<event>
 8    1  0.1265908E-006  0.9118800E+02  0.7816164E-02  0.1184000E+00
        -11   -1    0    0    0    0  0.00000000000E+00  0.00000000000E+00  0.45593999997E+02  0.45594000000E+02  0.51100000000E-03 0. -1.
         11   -1    0    0    0    0 -0.00000000000E+00 -0.00000000000E+00 -0.45593999997E+02  0.45594000000E+02  0.51100000000E-03 0.  1.
         23    2    1    2    0    0  0.00000000000E+00  0.00000000000E+00  0.00000000000E+00  0.91188000000E+02  0.91188000000E+02 0.  0.
    9900012    2    3    3    0    0  0.15348795159E+02  0.20477159371E+02 -0.26474156160E+02  0.54367075064E+02  0.39999979224E+02 0.  0.
         12    1    3    3    0    0 -0.15348795159E+02 -0.20477159371E+02  0.26474156160E+02  0.36820924936E+02  0.00000000000E+00 0. -1.
         11    1    4    4    0    0 -0.24819490685E+01  0.57982822288E+01 -0.13060981620E+02  0.14504116282E+02  0.51100000000E-03 0. -1.
        -11    1    4    4    0    0  0.23238771269E+02  0.29588038283E+01 -0.13333474871E+02  0.26955084170E+02  0.51100000000E-03 0.  1.
        -12    1    4    4    0    0 -0.54080270417E+01  0.11720073314E+02 -0.79699668858E-01  0.12907874612E+02  0.00000000000E+00 0.  1.
</event>
<event>
 8    1  0.1265908E-006  0.9118800E+02  0.7816164E-02  0.1184000E+00
        -11   -1    0    0    0    0  0.00000000000E+00  0.00000000000E+00  0.45593999997E+02  0.45594000000E+02  0.51100000000E-03 0.  1.
         11   -1    0    0    0    0 -0.00000000000E+00 -0.00000000000E+00 -0.45593999997E+02  0.45594000000E+02  0.51100000000E-03 0. -1.
         23    2    1    2    0    0  0.00000000000E+00  0.00000000000E+00  0.00000000000E+00  0.91188000000E+02  0.91188000000E+02 0.  0.
    9900012    2    3    3    0    0  0.16474899133E+02  0.26489580545E+02  0.19561888650E+02  0.54366977928E+02  0.39999757781E+02 0.  0.
         12    1    3    3    0    0 -0.16474899133E+02 -0.26489580545E+02 -0.19561888650E+02  0.36821022072E+02  0.00000000000E+00 0. -1.
         11    1    4    4    0    0 -0.20811310739E+01  0.16937521600E+02  0.11138356432E+02  0.20378266088E+02  0.51100000000E-03 0. -1.
        -11    1    4    4    0    0  0.95748274589E+01  0.87667582910E+01  0.17104519651E+02  0.21473191765E+02  0.51100000000E-03 0.  1.
        -12    1    4    4    0    0  0.89812027477E+01  0.78530065472E+00 -0.86809874341E+01  0.12515520075E+02  0.00000000000E+00 0.  1.
</event>
<event>
 8    1  0.1265908E-006  0.9118800E+02  0.7816164E-02  0.1184000E+00
        -11   -1    0    0    0    0  0.00000000000E+00  0.00000000000E+00  0.45593999997E+02  0.45594000000E+02  0.51100000000E-03 0.  1.
         11   -1    0    0    0    0 -0.00000000000E+00 -0.00000000000E+00 -0.45593999997E+02  0.45594000000E+02  0.51100000000E-03 0. -1.
         23    2    1    2    0    0 -0.17763568394E-14 -0.35527136788E-14  0.00000000000E+00  0.91188000000E+02  0.91188000000E+02 0.  0.
    9900012    2    3    3    0    0  0.14319885694E+02  0.18719725685E+02 -0.28289463217E+02  0.54367068655E+02  0.39999964613E+02 0.  0.
        -12    1    3    3    0    0 -0.14319885694E+02 -0.18719725685E+02  0.28289463217E+02  0.36820931345E+02  0.00000000000E+00 0.  1.
         11    1    4    4    0    0  0.90175238146E+00  0.50582552888E+01 -0.43037378809E+01  0.67023327232E+01  0.51100000000E-03 0. -1.
        -11    1    4    4    0    0 -0.10778007922E+02 -0.10546275231E+01 -0.13859827303E+02  0.17588988234E+02  0.51100000000E-03 0.  1.
         12    1    4    4    0    0  0.24196141235E+02  0.14716097919E+02 -0.10125898033E+02  0.30075747698E+02  0.00000000000E+00 0. -1.
</event>
<event>
 8    1  0.1265908E-006  0.9118800E+02  0.7816164E-02  0.1184000E+00
        -11   -1    0    0    0    0  0.00000000000E+00  0.00000000000E+00  0.45593999997E+02  0.45594000000E+02  0.51100000000E-03 0. -1.
         11   -1    0    0    0    0 -0.00000000000E+00 -0.00000000000E+00 -0.45593999997E+02  0.45594000000E+02  0.51100000000E-03 0.  1.
         23    2    1    2    0    0 -0.35527136788E-14  0.71054273576E-14 -0.17763568394E-14  0.91188000000E+02  0.91188000000E+02 0.  0.
    9900012    2    3    3    0    0 -0.28486089332E+02 -0.21673151231E+02 -0.86365873330E+01  0.54367171513E+02  0.40000199098E+02 0.  0.
        -12    1    3    3    0    0  0.28486089332E+02  0.21673151231E+02  0.86365873330E+01  0.36820828487E+02  0.00000000000E+00 0.  1.
         11    1    4    4    0    0 -0.25314199004E+01  0.35960866442E+01 -0.43544850531E+00  0.44192240865E+01  0.51100000000E-03 0.  1.
        -11    1    4    4    0    0 -0.94136823292E+01 -0.45551764611E+01  0.12512051692E+02  0.16307007248E+02  0.51100000000E-03 0. -1.
        -12    1    4    4    0    0 -0.16540987102E+02 -0.20714061414E+02 -0.20713190520E+02  0.33640940178E+02  0.00000000000E+00 0.  1.
</event>
<event>
 8    1  0.1265908E-006  0.9118800E+02  0.7816164E-02  0.1184000E+00
        -11   -1    0    0    0    0  0.00000000000E+00  0.00000000000E+00  0.45593999997E+02  0.45594000000E+02  0.51100000000E-03 0. -1.
         11   -1    0    0    0    0 -0.00000000000E+00 -0.00000000000E+00 -0.45593999997E+02  0.45594000000E+02  0.51100000000E-03 0.  1.
         23    2    1    2    0    0 -0.35527136788E-14  0.88817841970E-15  0.00000000000E+00  0.91188000000E+02  0.91188000000E+02 0.  0.
    9900012    2    3    3    0    0  0.29492475061E+02  0.53164692640E+01 -0.21394119316E+02  0.54367091918E+02  0.40000017646E+02 0.  0.
         12    1    3    3    0    0 -0.29492475061E+02 -0.53164692640E+01  0.21394119316E+02  0.36820908082E+02  0.00000000000E+00 0. -1.
         11    1    4    4    0    0 -0.23288585803E+01 -0.63908238079E+01  0.64207423150E+01  0.93537235029E+01  0.51100000000E-03 0. -1.
        -11    1    4    4    0    0  0.16986798153E+02  0.51356037210E+01 -0.20786835812E+02  0.27331635158E+02  0.51100000000E-03 0.  1.
         12    1    4    4    0    0  0.14834535488E+02  0.65716893510E+01 -0.70280258193E+01  0.17681733257E+02  0.00000000000E+00 0. -1.
</event>
<event>
 8    1  0.1265908E-006  0.9118800E+02  0.7816164E-02  0.1184000E+00
        -11   -1    0    0    0    0  0.00000000000E+00  0.00000000000E+00  0.45593999997E+02  0.45594000000E+02  0.51100000000E-03 0.  1.
         11   -1    0    0    0    0 -0.00000000000E+00 -0.00000000000E+00 -0.45593999997E+02  0.45594000000E+02  0.51100000000E-03 0. -1.
         23    2    1    2    0    0  0.00000000000E+00 -0.22204460493E-15  0.00000000000E+00  0.91188000000E+02  0.91188000000E+02 0.  0.
    9900012    2    3    3    0    0 -0.17457375189E+02  0.10973157584E+01 -0.32400879819E+02  0.54367067592E+02  0.39999962189E+02 0.  0.
        -12    1    3    3    0    0  0.17457375189E+02 -0.10973157584E+01  0.32400879819E+02  0.36820932408E+02  0.00000000000E+00 0.  1.
         11    1    4    4    0    0  0.23119138066E+00  0.36090580277E+01  0.36111184950E+01  0.51106678965E+01  0.51100000000E-03 0. -1.
        -11    1    4    4    0    0 -0.20622304659E+02  0.16005099261E+01 -0.10401310858E+02  0.23152286050E+02  0.51100000000E-03 0.  1.
         12    1    4    4    0    0  0.29337380899E+01 -0.41122521954E+01 -0.25610687455E+02  0.26104113646E+02  0.00000000000E+00 0. -1.
</event>
<event>
 8    1  0.1265908E-006  0.9118800E+02  0.7816164E-02  0.1184000E+00
        -11   -1    0    0    0    0  0.00000000000E+00  0.00000000000E+00  0.45593999997E+02  0.45594000000E+02  0.51100000000E-03 0.  1.
         11   -1    0    0    0    0 -0.00000000000E+00 -0.00000000000E+00 -0.45593999997E+02  0.45594000000E+02  0.51100000000E-03 0. -1.
         23    2    1    2    0    0  0.00000000000E+00 -0.35527136788E-14  0.00000000000E+00  0.91188000000E+02  0.91188000000E+02 0.  0.
    9900012    2    3    3    0    0 -0.21443297945E+02 -0.26342718620E+02 -0.14213582227E+02  0.54367085144E+02  0.40000002203E+02 0.  0.
        -12    1    3    3    0    0  0.21443297945E+02  0.26342718620E+02  0.14213582227E+02  0.36820914856E+02  0.00000000000E+00 0.  1.
         11    1    4    4    0    0 -0.20591618020E+02 -0.16174533388E+02 -0.28770732224E+01  0.26342130012E+02  0.51100000000E-03 0. -1.
        -11    1    4    4    0    0 -0.35423795807E+01 -0.13817789179E+02  0.15646462831E+01  0.14350187077E+02  0.51100000000E-03 0.  1.
        -12    1    4    4    0    0  0.26906996549E+01  0.36496039468E+01 -0.12901155288E+02  0.13674768055E+02  0.00000000000E+00 0.  1.
</event>
<event>
 8    1  0.1265908E-006  0.9118800E+02  0.7816164E-02  0.1184000E+00
        -11   -1    0    0    0    0  0.00000000000E+00  0.00000000000E+00  0.45593999997E+02  0.45594000000E+02  0.51100000000E-03 0.  1.
         11   -1    0    0    0    0 -0.00000000000E+00 -0.00000000000E+00 -0.45593999997E+02  0.45594000000E+02  0.51100000000E-03 0. -1.
         23    2    1    2    0    0  0.17763568394E-14 -0.17763568394E-14  0.00000000000E+00  0.91188000000E+02  0.91188000000E+02 0.  0.
    9900012    2    3    3    0    0  0.10617415883E+02 -0.15043479556E+02  0.31886420847E+02  0.54367087034E+02  0.40000006512E+02 0.  0.
         12    1    3    3    0    0 -0.10617415883E+02  0.15043479556E+02 -0.31886420847E+02  0.36820912966E+02  0.00000000000E+00 0. -1.
         11    1    4    4    0    0 -0.84723173357E+01  0.30871520475E+01 -0.28040901093E+01  0.94431769232E+01  0.51100000000E-03 0. -1.
        -11    1    4    4    0    0  0.17256429357E+01 -0.56354075567E+01  0.13877873977E+02  0.15077501393E+02  0.51100000000E-03 0.  1.
         12    1    4    4    0    0  0.17364090283E+02 -0.12495224047E+02  0.20812636980E+02  0.29846408718E+02  0.00000000000E+00 0. -1.
</event>
<event>
 8    1  0.1265908E-006  0.9118800E+02  0.7816164E-02  0.1184000E+00
        -11   -1    0    0    0    0  0.00000000000E+00  0.00000000000E+00  0.45593999997E+02  0.45594000000E+02  0.51100000000E-03 0. -1.
         11   -1    0    0    0    0 -0.00000000000E+00 -0.00000000000E+00 -0.45593999997E+02  0.45594000000E+02  0.51100000000E-03 0.  1.
         23    2    1    2    0    0  0.00000000000E+00 -0.88817841970E-15  0.00000000000E+00  0.91188000000E+02  0.91188000000E+02 0.  0.
    9900012    2    3    3    0    0  0.34356827918E+02 -0.79976246850E+01  0.10555771945E+02  0.54367109916E+02  0.40000058676E+02 0.  0.
        -12    1    3    3    0    0 -0.34356827918E+02  0.79976246850E+01 -0.10555771945E+02  0.36820890084E+02  0.00000000000E+00 0.  1.
         11    1    4    4    0    0  0.15693526181E+02 -0.37118999440E+01  0.15474941793E+02  0.22350364403E+02  0.51100000000E-03 0. -1.
        -11    1    4    4    0    0  0.12767246159E+02 -0.12234681993E+01 -0.15129991396E+02  0.19834719278E+02  0.51100000000E-03 0.  1.
         12    1    4    4    0    0  0.58960555774E+01 -0.30622565417E+01  0.10210821549E+02  0.12182026236E+02  0.00000000000E+00 0. -1.
</event>
<event>
 8    1  0.1265908E-006  0.9118800E+02  0.7816164E-02  0.1184000E+00
        -11   -1    0    0    0    0  0.00000000000E+00  0.00000000000E+00  0.45593999997E+02  0.45594000000E+02  0.51100000000E-03 0. -1.
         11   -1    0    0    0    0 -0.00000000000E+00 -0.00000000000E+00 -0.45593999997E+02  0.45594000000E+02  0.51100000000E-03 0.  1.
         23    2    1    2    0    0  0.00000000000E+00 -0.22204460493E-14  0.00000000000E+00  0.91188000000E+02  0.91188000000E+02 0.  0.
    9900012    2    3    3    0    0  0.36272242685E+02  0.21618051216E+01  0.59523514413E+01  0.54367089114E+02  0.40000011254E+02 0.  0.
         12    1    3    3    0    0 -0.36272242685E+02 -0.21618051216E+01 -0.59523514413E+01  0.36820910886E+02  0.00000000000E+00 0. -1.
         11    1    4    4    0    0  0.31276027957E+01 -0.45070257846E+01  0.52257394968E+01  0.75765120089E+01  0.51100000000E-03 0. -1.
        -11    1    4    4    0    0  0.18545912047E+02 -0.10614664130E+02  0.83127259105E+01  0.22928658063E+02  0.51100000000E-03 0.  1.
        -12    1    4    4    0    0  0.14598727842E+02  0.17283495036E+02 -0.75861139659E+01  0.23861919042E+02  0.00000000000E+00 0.  1.
</event>
<event>
 8    1  0.1265908E-006  0.9118800E+02  0.7816164E-02  0.1184000E+00
        -11   -1    0    0    0    0  0.00000000000E+00  0.00000000000E+00  0.45593999997E+02  0.45594000000E+02  0.51100000000E-03 0.  1.
         11   -1    0    0    0    0 -0.00000000000E+00 -0.00000000000E+00 -0.45593999997E+02  0.45594000000E+02  0.51100000000E-03 0. -1.
         23    2    1    2    0    0 -0.66613381478E-15  0.88817841970E-15 -0.71054273576E-14  0.91188000000E+02  0.91188000000E+02 0.  0.
    9900012    2    3    3    0    0 -0.10556195892E+01  0.42546898612E+01 -0.36559029540E+02  0.54367090731E+02  0.40000014938E+02 0.  0.
        -12    1    3    3    0    0  0.10556195892E+01 -0.42546898612E+01  0.36559029540E+02  0.36820909269E+02  0.00000000000E+00 0.  1.
         11    1    4    4    0    0  0.59424876380E+01  0.14164279862E+02 -0.25562751218E+02  0.29822713381E+02  0.51100000000E-03 0. -1.
        -11    1    4    4    0    0 -0.94692804440E+01  0.16971448614E-04 -0.10753421002E+02  0.14328410088E+02  0.51100000000E-03 0.  1.
         12    1    4    4    0    0  0.24711732168E+01 -0.99096069721E+01 -0.24285731948E+00  0.10215967261E+02  0.00000000000E+00 0. -1.
</event>
<event>
 8    1  0.1265908E-006  0.9118800E+02  0.7816164E-02  0.1184000E+00
        -11   -1    0    0    0    0  0.00000000000E+00  0.00000000000E+00  0.45593999997E+02  0.45594000000E+02  0.51100000000E-03 0.  1.
         11   -1    0    0    0    0 -0.00000000000E+00 -0.00000000000E+00 -0.45593999997E+02  0.45594000000E+02  0.51100000000E-03 0. -1.
         23    2    1    2    0    0  0.00000000000E+00 -0.22204460493E-15 -0.71054273576E-14  0.91188000000E+02  0.91188000000E+02 0.  0.
    9900012    2    3    3    0    0 -0.13757799716E+02  0.19887159659E+01  0.34096153899E+02  0.54367085360E+02  0.40000002696E+02 0.  0.
         12    1    3    3    0    0  0.13757799716E+02 -0.19887159659E+01 -0.34096153899E+02  0.36820914640E+02  0.00000000000E+00 0. -1.
         11    1    4    4    0    0  0.24762706406E+01  0.29615280048E+01  0.30469563745E+01  0.49179780213E+01  0.51100000000E-03 0. -1.
        -11    1    4    4    0    0  0.41355136800E+01  0.12704437597E+02  0.15212298304E+02  0.20246462111E+02  0.51100000000E-03 0.  1.
        -12    1    4    4    0    0 -0.20369584037E+02 -0.13677249636E+02  0.15836899220E+02  0.29202645228E+02  0.00000000000E+00 0.  1.
</event>
<event>
 8    1  0.1265908E-006  0.9118800E+02  0.7816164E-02  0.1184000E+00
        -11   -1    0    0    0    0  0.00000000000E+00  0.00000000000E+00  0.45593999997E+02  0.45594000000E+02  0.51100000000E-03 0.  1.
         11   -1    0    0    0    0 -0.00000000000E+00 -0.00000000000E+00 -0.45593999997E+02  0.45594000000E+02  0.51100000000E-03 0. -1.
         23    2    1    2    0    0  0.00000000000E+00  0.00000000000E+00  0.17763568394E-14  0.91188000000E+02  0.91188000000E+02 0.  0.
    9900012    2    3    3    0    0 -0.30603525495E+02 -0.18604612016E+02  0.85481360413E+01  0.54367109316E+02  0.40000057308E+02 0.  0.
         12    1    3    3    0    0  0.30603525495E+02  0.18604612016E+02 -0.85481360413E+01  0.36820890684E+02  0.00000000000E+00 0. -1.
         11    1    4    4    0    0 -0.60152414513E+01 -0.35766907737E+00  0.10908553016E+02  0.12462246428E+02  0.51100000000E-03 0. -1.
        -11    1    4    4    0    0 -0.49838140376E+00 -0.68291698948E+01 -0.11784497619E+02  0.13629392132E+02  0.51100000000E-03 0.  1.
        -12    1    4    4    0    0 -0.24089902640E+02 -0.11417773044E+02  0.94240806450E+01  0.28275470756E+02  0.00000000000E+00 0.  1.
</event>
<event>
 8    1  0.1265908E-006  0.9118800E+02  0.7816164E-02  0.1184000E+00
        -11   -1    0    0    0    0  0.00000000000E+00  0.00000000000E+00  0.45593999997E+02  0.45594000000E+02  0.51100000000E-03 0.  1.
         11   -1    0    0    0    0 -0.00000000000E+00 -0.00000000000E+00 -0.45593999997E+02  0.45594000000E+02  0.51100000000E-03 0. -1.
         23    2    1    2    0    0  0.00000000000E+00  0.00000000000E+00 -0.35527136788E-14  0.91188000000E+02  0.91188000000E+02 0.  0.
    9900012    2    3    3    0    0 -0.59696162244E+01  0.22483106764E+02 -0.28542103645E+02  0.54367107994E+02  0.40000054294E+02 0.  0.
        -12    1    3    3    0    0  0.59696162244E+01 -0.22483106764E+02  0.28542103645E+02  0.36820892006E+02  0.00000000000E+00 0.  1.
         11    1    4    4    0    0 -0.18567546061E+02  0.16752788269E+02 -0.78709835497E+01  0.26217590732E+02  0.51100000000E-03 0. -1.
        -11    1    4    4    0    0  0.14943687397E+02  0.39209510121E+01 -0.13995786249E+02  0.20846334998E+02  0.51100000000E-03 0.  1.
        -12    1    4    4    0    0 -0.23457575601E+01  0.18093674836E+01 -0.66753338461E+01  0.73031822638E+01  0.00000000000E+00 0.  1.
</event>
<event>
 8    1  0.1265908E-006  0.9118800E+02  0.7816164E-02  0.1184000E+00
        -11   -1    0    0    0    0  0.00000000000E+00  0.00000000000E+00  0.45593999997E+02  0.45594000000E+02  0.51100000000E-03 0. -1.
         11   -1    0    0    0    0 -0.00000000000E+00 -0.00000000000E+00 -0.45593999997E+02  0.45594000000E+02  0.51100000000E-03 0.  1.
         23    2    1    2    0    0  0.00000000000E+00  0.35527136788E-14  0.00000000000E+00  0.91188000000E+02  0.91188000000E+02 0.  0.
    9900012    2    3    3    0    0  0.22104289021E+02 -0.27527314926E+02  0.10460896271E+02  0.54367041145E+02  0.39999901899E+02 0.  0.
        -12    1    3    3    0    0 -0.22104289021E+02  0.27527314926E+02 -0.10460896271E+02  0.36820958855E+02  0.00000000000E+00 0.  1.
         11    1    4    4    0    0  0.31535479748E+01  0.12163609937E+01  0.35336108826E+01  0.48898675879E+01  0.51100000000E-03 0. -1.
        -11    1    4    4    0    0 -0.15710868665E+01  0.68806477947E+01  0.43356114265E+01  0.82830643315E+01  0.51100000000E-03 0.  1.
         12    1    4    4    0    0  0.20521827913E+02 -0.35624323714E+02  0.25916739620E+01  0.41194109226E+02  0.00000000000E+00 0. -1.
</event>
<event>
 8    1  0.1265908E-006  0.9118800E+02  0.7816164E-02  0.1184000E+00
        -11   -1    0    0    0    0  0.00000000000E+00  0.00000000000E+00  0.45593999997E+02  0.45594000000E+02  0.51100000000E-03 0.  1.
         11   -1    0    0    0    0 -0.00000000000E+00 -0.00000000000E+00 -0.45593999997E+02  0.45594000000E+02  0.51100000000E-03 0. -1.
         23    2    1    2    0    0 -0.88817841970E-15 -0.17763568394E-14  0.00000000000E+00  0.91188000000E+02  0.91188000000E+02 0.  0.
    9900012    2    3    3    0    0  0.26737080136E+01  0.80978642676E+01 -0.35819763349E+02  0.54367087917E+02  0.40000008525E+02 0.  0.
        -12    1    3    3    0    0 -0.26737080136E+01 -0.80978642676E+01  0.35819763349E+02  0.36820912083E+02  0.00000000000E+00 0.  1.
         11    1    4    4    0    0 -0.45800859191E+01  0.16343120404E+02 -0.35380045201E+02  0.39240570463E+02  0.51100000000E-03 0. -1.
        -11    1    4    4    0    0 -0.12969518176E+01  0.15565660974E+01  0.49488927440E+00  0.20856408339E+01  0.51100000000E-03 0.  1.
        -12    1    4    4    0    0  0.85507457503E+01 -0.98018222342E+01 -0.93460742259E+00  0.13040876621E+02  0.00000000000E+00 0.  1.
</event>
<event>
 8    1  0.1265908E-006  0.9118800E+02  0.7816164E-02  0.1184000E+00
        -11   -1    0    0    0    0  0.00000000000E+00  0.00000000000E+00  0.45593999997E+02  0.45594000000E+02  0.51100000000E-03 0.  1.
         11   -1    0    0    0    0 -0.00000000000E+00 -0.00000000000E+00 -0.45593999997E+02  0.45594000000E+02  0.51100000000E-03 0. -1.
         23    2    1    2    0    0  0.00000000000E+00  0.00000000000E+00  0.00000000000E+00  0.91188000000E+02  0.91188000000E+02 0.  0.
    9900012    2    3    3    0    0  0.24022668740E+02 -0.25594834696E+02 -0.11117295280E+02  0.54367103340E+02  0.40000043684E+02 0.  0.
         12    1    3    3    0    0 -0.24022668740E+02  0.25594834696E+02  0.11117295280E+02  0.36820896660E+02  0.00000000000E+00 0. -1.
         11    1    4    4    0    0  0.10561119208E+02 -0.67754676271E+01 -0.15261384454E+02  0.19757379791E+02  0.51100000000E-03 0. -1.
        -11    1    4    4    0    0 -0.69136243569E+01 -0.36436172254E+01 -0.27508331831E+01  0.82850004041E+01  0.51100000000E-03 0.  1.
        -12    1    4    4    0    0  0.20375173889E+02 -0.15175749843E+02  0.68949223575E+01  0.26324723145E+02  0.00000000000E+00 0.  1.
</event>
<event>
 8    1  0.1265908E-006  0.9118800E+02  0.7816164E-02  0.1184000E+00
        -11   -1    0    0    0    0  0.00000000000E+00  0.00000000000E+00  0.45593999997E+02  0.45594000000E+02  0.51100000000E-03 0.  1.
         11   -1    0    0    0    0 -0.00000000000E+00 -0.00000000000E+00 -0.45593999997E+02  0.45594000000E+02  0.51100000000E-03 0. -1.
         23    2    1    2    0    0  0.71054273576E-14 -0.44408920985E-15  0.00000000000E+00  0.91188000000E+02  0.91188000000E+02 0.  0.
    9900012    2    3    3    0    0  0.32707323786E+02  0.21473088368E+01  0.16774989286E+02  0.54367078909E+02  0.39999987988E+02 0.  0.
         12    1    3    3    0    0 -0.32707323786E+02 -0.21473088368E+01 -0.16774989286E+02  0.36820921091E+02  0.00000000000E+00 0. -1.
         11    1    4    4    0    0  0.25134693739E+02  0.50380534282E+01  0.20232089595E+02  0.32656886889E+02  0.51100000000E-03 0.  1.
        -11    1    4    4    0    0  0.73971973496E+01  0.63007896341E+01 -0.68739912952E+01  0.11902530623E+02  0.51100000000E-03 0. -1.
        -12    1    4    4    0    0  0.17543269764E+00 -0.91915342256E+01  0.34168909865E+01  0.98076613963E+01  0.00000000000E+00 0.  1.
</event>
<event>
 8    1  0.1265908E-006  0.9118800E+02  0.7816164E-02  0.1184000E+00
        -11   -1    0    0    0    0  0.00000000000E+00  0.00000000000E+00  0.45593999997E+02  0.45594000000E+02  0.51100000000E-03 0.  1.
         11   -1    0    0    0    0 -0.00000000000E+00 -0.00000000000E+00 -0.45593999997E+02  0.45594000000E+02  0.51100000000E-03 0. -1.
         23    2    1    2    0    0 -0.44408920985E-15  0.00000000000E+00  0.00000000000E+00  0.91188000000E+02  0.91188000000E+02 0.  0.
    9900012    2    3    3    0    0 -0.27882104370E+01 -0.54573435310E+01 -0.36307259553E+02  0.54367166059E+02  0.40000186664E+02 0.  0.
        -12    1    3    3    0    0  0.27882104370E+01  0.54573435310E+01  0.36307259553E+02  0.36820833941E+02  0.00000000000E+00 0.  1.
         11    1    4    4    0    0 -0.11828462800E+01  0.51594851094E+01 -0.32841089765E+02  0.33264945350E+02  0.51100000000E-03 0. -1.
        -11    1    4    4    0    0 -0.94802017998E+01 -0.82921638425E+01 -0.17814173340E+01  0.12720363805E+02  0.51100000000E-03 0.  1.
        -12    1    4    4    0    0  0.78748376428E+01 -0.23246647978E+01 -0.16847524543E+01  0.83818569037E+01  0.00000000000E+00 0.  1.
</event>
<event>
 8    1  0.1265908E-006  0.9118800E+02  0.7816164E-02  0.1184000E+00
        -11   -1    0    0    0    0  0.00000000000E+00  0.00000000000E+00  0.45593999997E+02  0.45594000000E+02  0.51100000000E-03 0.  1.
         11   -1    0    0    0    0 -0.00000000000E+00 -0.00000000000E+00 -0.45593999997E+02  0.45594000000E+02  0.51100000000E-03 0. -1.
         23    2    1    2    0    0  0.35527136788E-14  0.35527136788E-14  0.00000000000E+00  0.91188000000E+02  0.91188000000E+02 0.  0.
    9900012    2    3    3    0    0  0.19024804317E+02 -0.25697181551E+02 -0.18261765279E+02  0.54367076735E+02  0.39999983032E+02 0.  0.
        -12    1    3    3    0    0 -0.19024804317E+02  0.25697181551E+02  0.18261765279E+02  0.36820923265E+02  0.00000000000E+00 0.  1.
         11    1    4    4    0    0  0.18733176039E+02 -0.10671021070E+02  0.60831918393E+01  0.22401066903E+02  0.51100000000E-03 0. -1.
        -11    1    4    4    0    0  0.46656374589E+00 -0.49303247386E+00 -0.14258845562E+02  0.14274993512E+02  0.51100000000E-03 0.  1.
        -12    1    4    4    0    0 -0.17493546746E+00 -0.14533128008E+02 -0.10086111557E+02  0.17691016320E+02  0.00000000000E+00 0.  1.
</event>
<event>
 8    1  0.1265908E-006  0.9118800E+02  0.7816164E-02  0.1184000E+00
        -11   -1    0    0    0    0  0.00000000000E+00  0.00000000000E+00  0.45593999997E+02  0.45594000000E+02  0.51100000000E-03 0. -1.
         11   -1    0    0    0    0 -0.00000000000E+00 -0.00000000000E+00 -0.45593999997E+02  0.45594000000E+02  0.51100000000E-03 0.  1.
         23    2    1    2    0    0  0.00000000000E+00  0.00000000000E+00  0.00000000000E+00  0.91188000000E+02  0.91188000000E+02 0.  0.
    9900012    2    3    3    0    0  0.19979597072E+02  0.24929348156E+02 -0.18306334264E+02  0.54367101412E+02  0.40000039288E+02 0.  0.
         12    1    3    3    0    0 -0.19979597072E+02 -0.24929348156E+02  0.18306334264E+02  0.36820898588E+02  0.00000000000E+00 0. -1.
         11    1    4    4    0    0  0.55541445514E+01  0.60501809350E+01 -0.46278965562E+01  0.94271224581E+01  0.51100000000E-03 0. -1.
        -11    1    4    4    0    0  0.54301460419E+01  0.98519795563E+01 -0.25302857956E+02  0.27690839789E+02  0.51100000000E-03 0.  1.
        -12    1    4    4    0    0  0.89953064789E+01  0.90271876651E+01  0.11624420249E+02  0.17249139164E+02  0.00000000000E+00 0.  1.
</event>
<event>
 8    1  0.1265908E-006  0.9118800E+02  0.7816164E-02  0.1184000E+00
        -11   -1    0    0    0    0  0.00000000000E+00  0.00000000000E+00  0.45593999997E+02  0.45594000000E+02  0.51100000000E-03 0.  1.
         11   -1    0    0    0    0 -0.00000000000E+00 -0.00000000000E+00 -0.45593999997E+02  0.45594000000E+02  0.51100000000E-03 0. -1.
         23    2    1    2    0    0  0.00000000000E+00  0.00000000000E+00  0.17763568394E-14  0.91188000000E+02  0.91188000000E+02 0.  0.
    9900012    2    3    3    0    0 -0.34895834600E+02 -0.10884291521E+01  0.11699532481E+02  0.54367041149E+02  0.39999901907E+02 0.  0.
         12    1    3    3    0    0  0.34895834600E+02  0.10884291521E+01 -0.11699532481E+02  0.36820958851E+02  0.00000000000E+00 0. -1.
         11    1    4    4    0    0 -0.22146244157E+02  0.63433909472E+01 -0.91194729607E+00  0.23054856041E+02  0.51100000000E-03 0.  1.
        -11    1    4    4    0    0 -0.19019812754E+02 -0.67634681295E+01  0.14354553829E+02  0.24769961531E+02  0.51100000000E-03 0. -1.
         12    1    4    4    0    0  0.62702223108E+01 -0.66835196978E+00 -0.17430740514E+01  0.65422235770E+01  0.00000000000E+00 0. -1.
</event>
<event>
 8    1  0.1265908E-006  0.9118800E+02  0.7816164E-02  0.1184000E+00
        -11   -1    0    0    0    0  0.00000000000E+00  0.00000000000E+00  0.45593999997E+02  0.45594000000E+02  0.51100000000E-03 0.  1.
         11   -1    0    0    0    0 -0.00000000000E+00 -0.00000000000E+00 -0.45593999997E+02  0.45594000000E+02  0.51100000000E-03 0. -1.
         23    2    1    2    0    0  0.00000000000E+00  0.26645352591E-14  0.26645352591E-14  0.91188000000E+02  0.91188000000E+02 0.  0.
    9900012    2    3    3    0    0 -0.36187408748E+02 -0.60625027915E+01  0.30817163163E+01  0.54367089264E+02  0.40000011595E+02 0.  0.
        -12    1    3    3    0    0  0.36187408748E+02  0.60625027915E+01 -0.30817163163E+01  0.36820910736E+02  0.00000000000E+00 0.  1.
         11    1    4    4    0    0 -0.14768640194E+02 -0.16881041532E+02  0.41579321604E+01  0.22811635112E+02  0.51100000000E-03 0. -1.
        -11    1    4    4    0    0 -0.22871198791E+02  0.95549506306E+01 -0.66459669226E+01  0.25662378929E+02  0.51100000000E-03 0.  1.
        -12    1    4    4    0    0  0.14524302375E+01  0.12635881098E+01  0.55697510785E+01  0.58930752229E+01  0.00000000000E+00 0.  1.
</event>
<event>
 8    1  0.1265908E-006  0.9118800E+02  0.7816164E-02  0.1184000E+00
        -11   -1    0    0    0    0  0.00000000000E+00  0.00000000000E+00  0.45593999997E+02  0.45594000000E+02  0.51100000000E-03 0. -1.
         11   -1    0    0    0    0 -0.00000000000E+00 -0.00000000000E+00 -0.45593999997E+02  0.45594000000E+02  0.51100000000E-03 0.  1.
         23    2    1    2    0    0  0.13322676296E-14  0.00000000000E+00  0.00000000000E+00  0.91188000000E+02  0.91188000000E+02 0.  0.
    9900012    2    3    3    0    0  0.29416785374E+01 -0.27006663848E+02  0.24854896693E+02  0.54367092156E+02  0.40000018187E+02 0.  0.
        -12    1    3    3    0    0 -0.29416785374E+01  0.27006663848E+02 -0.24854896693E+02  0.36820907844E+02  0.00000000000E+00 0.  1.
         11    1    4    4    0    0 -0.15400016177E+02 -0.14064349703E+02  0.81894543693E+01  0.22406106176E+02  0.51100000000E-03 0. -1.
        -11    1    4    4    0    0  0.77023072054E+01 -0.86031179001E+01 -0.20526050803E+00  0.11549082476E+02  0.51100000000E-03 0.  1.
         12    1    4    4    0    0  0.10639387509E+02 -0.43391962452E+01  0.16870702832E+02  0.20411903504E+02  0.00000000000E+00 0. -1.
</event>
<event>
 8    1  0.1265908E-006  0.9118800E+02  0.7816164E-02  0.1184000E+00
        -11   -1    0    0    0    0  0.00000000000E+00  0.00000000000E+00  0.45593999997E+02  0.45594000000E+02  0.51100000000E-03 0.  1.
         11   -1    0    0    0    0 -0.00000000000E+00 -0.00000000000E+00 -0.45593999997E+02  0.45594000000E+02  0.51100000000E-03 0. -1.
         23    2    1    2    0    0  0.17763568394E-14  0.00000000000E+00 -0.66613381478E-15  0.91188000000E+02  0.91188000000E+02 0.  0.
    9900012    2    3    3    0    0 -0.12813848314E+02 -0.34485642426E+02  0.15250812254E+01  0.54367080472E+02  0.39999991551E+02 0.  0.
        -12    1    3    3    0    0  0.12813848314E+02  0.34485642426E+02 -0.15250812254E+01  0.36820919528E+02  0.00000000000E+00 0.  1.
         11    1    4    4    0    0  0.15670061999E+01 -0.10618746141E+02 -0.89580618249E+01  0.13980706347E+02  0.51100000000E-03 0. -1.
        -11    1    4    4    0    0 -0.31790195229E+01 -0.18158867365E+02  0.17977711816E+02  0.25749733038E+02  0.51100000000E-03 0.  1.
         12    1    4    4    0    0 -0.11201834991E+02 -0.57080289203E+01 -0.74945687662E+01  0.14636641087E+02  0.00000000000E+00 0. -1.
</event>
<event>
 8    1  0.1265908E-006  0.9118800E+02  0.7816164E-02  0.1184000E+00
        -11   -1    0    0    0    0  0.00000000000E+00  0.00000000000E+00  0.45593999997E+02  0.45594000000E+02  0.51100000000E-03 0. -1.
         11   -1    0    0    0    0 -0.00000000000E+00 -0.00000000000E+00 -0.45593999997E+02  0.45594000000E+02  0.51100000000E-03 0.  1.
         23    2    1    2    0    0  0.00000000000E+00  0.00000000000E+00  0.00000000000E+00  0.91188000000E+02  0.91188000000E+02 0.  0.
    9900012    2    3    3    0    0  0.11284399121E+02  0.30892087181E+02 -0.16556634497E+02  0.54367070357E+02  0.39999968493E+02 0.  0.
         12    1    3    3    0    0 -0.11284399121E+02 -0.30892087181E+02  0.16556634497E+02  0.36820929643E+02  0.00000000000E+00 0. -1.
         11    1    4    4    0    0  0.13616448874E+02  0.69397804908E+01 -0.30253815953E+01  0.15579511137E+02  0.51100000000E-03 0. -1.
        -11    1    4    4    0    0 -0.10879584902E+02  0.74751638436E+00 -0.77873438841E+01  0.13400256468E+02  0.51100000000E-03 0.  1.
        -12    1    4    4    0    0  0.85475351477E+01  0.23204790306E+02 -0.57439090179E+01  0.25387302752E+02  0.00000000000E+00 0.  1.
</event>
<event>
 8    1  0.1265908E-006  0.9118800E+02  0.7816164E-02  0.1184000E+00
        -11   -1    0    0    0    0  0.00000000000E+00  0.00000000000E+00  0.45593999997E+02  0.45594000000E+02  0.51100000000E-03 0. -1.
         11   -1    0    0    0    0 -0.00000000000E+00 -0.00000000000E+00 -0.45593999997E+02  0.45594000000E+02  0.51100000000E-03 0.  1.
         23    2    1    2    0    0  0.00000000000E+00  0.00000000000E+00 -0.15543122345E-14  0.91188000000E+02  0.91188000000E+02 0.  0.
    9900012    2    3    3    0    0  0.17136793321E+02 -0.32583955078E+02 -0.62776572653E+00  0.54367110499E+02  0.40000060005E+02 0.  0.
        -12    1    3    3    0    0 -0.17136793321E+02  0.32583955078E+02  0.62776572653E+00  0.36820889501E+02  0.00000000000E+00 0.  1.
         11    1    4    4    0    0  0.37586513964E+01 -0.23997528199E+01  0.11742932095E+02  0.12561159515E+02  0.51100000000E-03 0. -1.
        -11    1    4    4    0    0  0.72305873664E+01 -0.33322505872E+01  0.48471664611E+01  0.93209608197E+01  0.51100000000E-03 0.  1.
        -12    1    4    4    0    0  0.61475545584E+01 -0.26851951671E+02 -0.17217864282E+02  0.32484990165E+02  0.00000000000E+00 0.  1.
</event>
<event>
 8    1  0.1265908E-006  0.9118800E+02  0.7816164E-02  0.1184000E+00
        -11   -1    0    0    0    0  0.00000000000E+00  0.00000000000E+00  0.45593999997E+02  0.45594000000E+02  0.51100000000E-03 0. -1.
         11   -1    0    0    0    0 -0.00000000000E+00 -0.00000000000E+00 -0.45593999997E+02  0.45594000000E+02  0.51100000000E-03 0.  1.
         23    2    1    2    0    0  0.35527136788E-14 -0.35527136788E-14  0.35527136788E-14  0.91188000000E+02  0.91188000000E+02 0.  0.
    9900012    2    3    3    0    0  0.20635976838E+02 -0.18793440778E+02  0.24015313125E+02  0.54367187667E+02  0.40000235924E+02 0.  0.
        -12    1    3    3    0    0 -0.20635976838E+02  0.18793440778E+02 -0.24015313125E+02  0.36820812333E+02  0.00000000000E+00 0.  1.
         11    1    4    4    0    0  0.12734481001E+02 -0.39701516046E+01  0.16279513193E+02  0.21046416802E+02  0.51100000000E-03 0. -1.
        -11    1    4    4    0    0  0.57843692779E+01 -0.23117127532E+02  0.51633995999E+01  0.24382805601E+02  0.51100000000E-03 0.  1.
        -12    1    4    4    0    0  0.21171265596E+01  0.82938383594E+01  0.25724003323E+01  0.89379652646E+01  0.00000000000E+00 0.  1.
</event>
<event>
 8    1  0.1265908E-006  0.9118800E+02  0.7816164E-02  0.1184000E+00
        -11   -1    0    0    0    0  0.00000000000E+00  0.00000000000E+00  0.45593999997E+02  0.45594000000E+02  0.51100000000E-03 0. -1.
         11   -1    0    0    0    0 -0.00000000000E+00 -0.00000000000E+00 -0.45593999997E+02  0.45594000000E+02  0.51100000000E-03 0.  1.
         23    2    1    2    0    0 -0.17763568394E-14 -0.35527136788E-14 -0.17763568394E-14  0.91188000000E+02  0.91188000000E+02 0.  0.
    9900012    2    3    3    0    0 -0.12832550950E+02 -0.31401492795E+02 -0.14319617417E+02  0.54367088053E+02  0.40000008835E+02 0.  0.
         12    1    3    3    0    0  0.12832550950E+02  0.31401492795E+02  0.14319617417E+02  0.36820911947E+02  0.00000000000E+00 0. -1.
         11    1    4    4    0    0  0.14736993468E+01 -0.25464197423E+02  0.45370252118E+01  0.25907175419E+02  0.51100000000E-03 0. -1.
        -11    1    4    4    0    0  0.17249596943E+01 -0.34423792932E+01 -0.37695413688E+00  0.38687925543E+01  0.51100000000E-03 0.  1.
         12    1    4    4    0    0 -0.16031209991E+02 -0.24949160786E+01 -0.18479688491E+02  0.24591120080E+02  0.00000000000E+00 0. -1.
</event>
<event>
 8    1  0.1265908E-006  0.9118800E+02  0.7816164E-02  0.1184000E+00
        -11   -1    0    0    0    0  0.00000000000E+00  0.00000000000E+00  0.45593999997E+02  0.45594000000E+02  0.51100000000E-03 0.  1.
         11   -1    0    0    0    0 -0.00000000000E+00 -0.00000000000E+00 -0.45593999997E+02  0.45594000000E+02  0.51100000000E-03 0. -1.
         23    2    1    2    0    0  0.17763568394E-14  0.00000000000E+00  0.00000000000E+00  0.91188000000E+02  0.91188000000E+02 0.  0.
    9900012    2    3    3    0    0 -0.13015036260E+02  0.28816537270E+02  0.18867841215E+02  0.54367089891E+02  0.40000013025E+02 0.  0.
         12    1    3    3    0    0  0.13015036260E+02 -0.28816537270E+02 -0.18867841215E+02  0.36820910109E+02  0.00000000000E+00 0. -1.
         11    1    4    4    0    0  0.51044426596E+01  0.24330528101E+02  0.67939164259E+01  0.25771830226E+02  0.51100000000E-03 0. -1.
        -11    1    4    4    0    0 -0.15010231715E+02  0.10933830762E+02  0.10236963637E+02  0.21204979039E+02  0.51100000000E-03 0.  1.
         12    1    4    4    0    0 -0.31092472050E+01 -0.64478215923E+01  0.18369611521E+01  0.73902806268E+01  0.00000000000E+00 0. -1.
</event>
<event>
 8    1  0.1265908E-006  0.9118800E+02  0.7816164E-02  0.1184000E+00
        -11   -1    0    0    0    0  0.00000000000E+00  0.00000000000E+00  0.45593999997E+02  0.45594000000E+02  0.51100000000E-03 0. -1.
         11   -1    0    0    0    0 -0.00000000000E+00 -0.00000000000E+00 -0.45593999997E+02  0.45594000000E+02  0.51100000000E-03 0.  1.
         23    2    1    2    0    0  0.88817841970E-15 -0.71054273576E-14  0.17763568394E-14  0.91188000000E+02  0.91188000000E+02 0.  0.
    9900012    2    3    3    0    0 -0.58157943081E+01  0.34986960044E+02  0.98929840174E+01  0.54367055290E+02  0.39999934144E+02 0.  0.
         12    1    3    3    0    0  0.58157943081E+01 -0.34986960044E+02 -0.98929840174E+01  0.36820944710E+02  0.00000000000E+00 0. -1.
         11    1    4    4    0    0  0.23198662369E+01  0.14212338749E+02  0.61717448566E+01  0.15667252053E+02  0.51100000000E-03 0. -1.
        -11    1    4    4    0    0  0.91692401824E+01  0.91167289815E+01 -0.75618719415E+01  0.14979039367E+02  0.51100000000E-03 0.  1.
         12    1    4    4    0    0 -0.17304900727E+02  0.11657892314E+02  0.11283111102E+02  0.23720763869E+02  0.00000000000E+00 0. -1.
</event>
<event>
 8    1  0.1265908E-006  0.9118800E+02  0.7816164E-02  0.1184000E+00
        -11   -1    0    0    0    0  0.00000000000E+00  0.00000000000E+00  0.45593999997E+02  0.45594000000E+02  0.51100000000E-03 0.  1.
         11   -1    0    0    0    0 -0.00000000000E+00 -0.00000000000E+00 -0.45593999997E+02  0.45594000000E+02  0.51100000000E-03 0. -1.
         23    2    1    2    0    0  0.35527136788E-14  0.00000000000E+00  0.35527136788E-14  0.91188000000E+02  0.91188000000E+02 0.  0.
    9900012    2    3    3    0    0 -0.31040548695E+02 -0.63244546760E+01 -0.18768738263E+02  0.54367083033E+02  0.39999997391E+02 0.  0.
         12    1    3    3    0    0  0.31040548695E+02  0.63244546760E+01  0.18768738263E+02  0.36820916967E+02  0.00000000000E+00 0. -1.
         11    1    4    4    0    0 -0.42865235605E+01 -0.62237273368E+01 -0.37849900409E+01  0.84519356403E+01  0.51100000000E-03 0. -1.
        -11    1    4    4    0    0 -0.17066572725E+02  0.13373831391E+02 -0.19012635003E+02  0.28837606709E+02  0.51100000000E-03 0.  1.
         12    1    4    4    0    0 -0.96874524093E+01 -0.13474558730E+02  0.40288867804E+01  0.17077540685E+02  0.00000000000E+00 0. -1.
</event>
<event>
 8    1  0.1265908E-006  0.9118800E+02  0.7816164E-02  0.1184000E+00
        -11   -1    0    0    0    0  0.00000000000E+00  0.00000000000E+00  0.45593999997E+02  0.45594000000E+02  0.51100000000E-03 0. -1.
         11   -1    0    0    0    0 -0.00000000000E+00 -0.00000000000E+00 -0.45593999997E+02  0.45594000000E+02  0.51100000000E-03 0.  1.
         23    2    1    2    0    0  0.00000000000E+00  0.35527136788E-14 -0.35527136788E-14  0.91188000000E+02  0.91188000000E+02 0.  0.
    9900012    2    3    3    0    0  0.25989560038E+02  0.18319725424E+02 -0.18566391146E+02  0.54367075911E+02  0.39999981154E+02 0.  0.
        -12    1    3    3    0    0 -0.25989560038E+02 -0.18319725424E+02  0.18566391146E+02  0.36820924089E+02  0.00000000000E+00 0.  1.
         11    1    4    4    0    0  0.37758669506E+01  0.86626363178E+01 -0.91607765894E+01  0.13161241096E+02  0.51100000000E-03 0. -1.
        -11    1    4    4    0    0  0.61548839719E+00  0.15632819218E+02  0.24784886099E+01  0.15840036892E+02  0.51100000000E-03 0.  1.
        -12    1    4    4    0    0  0.21598204690E+02 -0.59757301124E+01 -0.11884103167E+02  0.25365797924E+02  0.00000000000E+00 0.  1.
</event>
<event>
 8    1  0.1265908E-006  0.9118800E+02  0.7816164E-02  0.1184000E+00
        -11   -1    0    0    0    0  0.00000000000E+00  0.00000000000E+00  0.45593999997E+02  0.45594000000E+02  0.51100000000E-03 0. -1.
         11   -1    0    0    0    0 -0.00000000000E+00 -0.00000000000E+00 -0.45593999997E+02  0.45594000000E+02  0.51100000000E-03 0.  1.
         23    2    1    2    0    0  0.00000000000E+00  0.00000000000E+00 -0.44408920985E-15  0.91188000000E+02  0.91188000000E+02 0.  0.
    9900012    2    3    3    0    0  0.14076413503E+02  0.33937460756E+02 -0.24255210701E+01  0.54367084583E+02  0.40000000925E+02 0.  0.
        -12    1    3    3    0    0 -0.14076413503E+02 -0.33937460756E+02  0.24255210701E+01  0.36820915417E+02  0.00000000000E+00 0.  1.
         11    1    4    4    0    0  0.13747567366E+02 -0.17355064611E+01  0.16366222426E+01  0.13952996947E+02  0.51100000000E-03 0. -1.
        -11    1    4    4    0    0 -0.41073148181E+01  0.14237691726E-02 -0.15143189105E+01  0.43775791330E+01  0.51100000000E-03 0.  1.
         12    1    4    4    0    0  0.44361609545E+01  0.35671543448E+02 -0.25478244022E+01  0.36036508504E+02  0.00000000000E+00 0. -1.
</event>
<event>
 8    1  0.1265908E-006  0.9118800E+02  0.7816164E-02  0.1184000E+00
        -11   -1    0    0    0    0  0.00000000000E+00  0.00000000000E+00  0.45593999997E+02  0.45594000000E+02  0.51100000000E-03 0. -1.
         11   -1    0    0    0    0 -0.00000000000E+00 -0.00000000000E+00 -0.45593999997E+02  0.45594000000E+02  0.51100000000E-03 0.  1.
         23    2    1    2    0    0  0.35527136788E-14 -0.35527136788E-14 -0.17763568394E-14  0.91188000000E+02  0.91188000000E+02 0.  0.
    9900012    2    3    3    0    0  0.28917192624E+02 -0.20973425224E+02  0.89270464300E+01  0.54367071809E+02  0.39999971803E+02 0.  0.
        -12    1    3    3    0    0 -0.28917192624E+02  0.20973425224E+02 -0.89270464300E+01  0.36820928191E+02  0.00000000000E+00 0.  1.
         11    1    4    4    0    0  0.27983577767E+01 -0.13137537555E+02  0.10904458566E+02  0.17301240307E+02  0.51100000000E-03 0. -1.
        -11    1    4    4    0    0 -0.17118372867E+01  0.41266295881E+01 -0.49018205882E+01  0.66322925142E+01  0.51100000000E-03 0.  1.
        -12    1    4    4    0    0  0.27830672134E+02 -0.11962517257E+02  0.29244084519E+01  0.30433538988E+02  0.00000000000E+00 0.  1.
</event>
<event>
 8    1  0.1265908E-006  0.9118800E+02  0.7816164E-02  0.1184000E+00
        -11   -1    0    0    0    0  0.00000000000E+00  0.00000000000E+00  0.45593999997E+02  0.45594000000E+02  0.51100000000E-03 0. -1.
         11   -1    0    0    0    0 -0.00000000000E+00 -0.00000000000E+00 -0.45593999997E+02  0.45594000000E+02  0.51100000000E-03 0.  1.
         23    2    1    2    0    0  0.00000000000E+00  0.00000000000E+00 -0.71054273576E-14  0.91188000000E+02  0.91188000000E+02 0.  0.
    9900012    2    3    3    0    0  0.66113374115E+01 -0.12963107695E+02  0.33823484148E+02  0.54367081714E+02  0.39999994384E+02 0.  0.
        -12    1    3    3    0    0 -0.66113374115E+01  0.12963107695E+02 -0.33823484148E+02  0.36820918286E+02  0.00000000000E+00 0.  1.
         11    1    4    4    0    0 -0.62549409108E+00 -0.15826617150E+02  0.10426669671E+02  0.18962818724E+02  0.51100000000E-03 0.  1.
        -11    1    4    4    0    0  0.14649531930E+02  0.61691382275E+01  0.75447357353E+01  0.17595172344E+02  0.51100000000E-03 0. -1.
         12    1    4    4    0    0 -0.74127004277E+01 -0.33056287731E+01  0.15852078741E+02  0.17809090646E+02  0.00000000000E+00 0. -1.
</event>
<event>
 8    1  0.1265908E-006  0.9118800E+02  0.7816164E-02  0.1184000E+00
        -11   -1    0    0    0    0  0.00000000000E+00  0.00000000000E+00  0.45593999997E+02  0.45594000000E+02  0.51100000000E-03 0.  1.
         11   -1    0    0    0    0 -0.00000000000E+00 -0.00000000000E+00 -0.45593999997E+02  0.45594000000E+02  0.51100000000E-03 0. -1.
         23    2    1    2    0    0  0.00000000000E+00  0.00000000000E+00  0.00000000000E+00  0.91188000000E+02  0.91188000000E+02 0.  0.
    9900012    2    3    3    0    0 -0.16717650180E+02  0.31595163167E+02  0.88344041181E+01  0.54367070365E+02  0.39999968510E+02 0.  0.
         12    1    3    3    0    0  0.16717650180E+02 -0.31595163167E+02 -0.88344041181E+01  0.36820929635E+02  0.00000000000E+00 0. -1.
         11    1    4    4    0    0 -0.18425461922E+02  0.24138134849E+02  0.11826583703E+02  0.32588575964E+02  0.51100000000E-03 0. -1.
        -11    1    4    4    0    0 -0.54375309546E+01  0.34175655988E+01  0.65625377832E+01  0.91822328397E+01  0.51100000000E-03 0.  1.
         12    1    4    4    0    0  0.71453426972E+01  0.40394627194E+01 -0.95547173680E+01  0.12596261561E+02  0.00000000000E+00 0. -1.
</event>
<event>
 8    1  0.1265908E-006  0.9118800E+02  0.7816164E-02  0.1184000E+00
        -11   -1    0    0    0    0  0.00000000000E+00  0.00000000000E+00  0.45593999997E+02  0.45594000000E+02  0.51100000000E-03 0.  1.
         11   -1    0    0    0    0 -0.00000000000E+00 -0.00000000000E+00 -0.45593999997E+02  0.45594000000E+02  0.51100000000E-03 0. -1.
         23    2    1    2    0    0  0.44408920985E-15  0.00000000000E+00  0.00000000000E+00  0.91188000000E+02  0.91188000000E+02 0.  0.
    9900012    2    3    3    0    0 -0.33850635799E+01  0.25338058883E+02  0.26501029024E+02  0.54367076291E+02  0.39999982021E+02 0.  0.
         12    1    3    3    0    0  0.33850635799E+01 -0.25338058883E+02 -0.26501029024E+02  0.36820923709E+02  0.00000000000E+00 0. -1.
         11    1    4    4    0    0 -0.20591881710E+01  0.25477465699E+01  0.79809863555E-01  0.32768335911E+01  0.51100000000E-03 0. -1.
        -11    1    4    4    0    0  0.16663043473E+01 -0.10305837603E+02  0.74480489660E+01  0.12824207287E+02  0.51100000000E-03 0.  1.
        -12    1    4    4    0    0 -0.29921797562E+01  0.33096149917E+02  0.18973170195E+02  0.38266035413E+02  0.00000000000E+00 0.  1.
</event>
<event>
 8    1  0.1265908E-006  0.9118800E+02  0.7816164E-02  0.1184000E+00
        -11   -1    0    0    0    0  0.00000000000E+00  0.00000000000E+00  0.45593999997E+02  0.45594000000E+02  0.51100000000E-03 0.  1.
         11   -1    0    0    0    0 -0.00000000000E+00 -0.00000000000E+00 -0.45593999997E+02  0.45594000000E+02  0.51100000000E-03 0. -1.
         23    2    1    2    0    0 -0.35527136788E-14  0.00000000000E+00  0.00000000000E+00  0.91188000000E+02  0.91188000000E+02 0.  0.
    9900012    2    3    3    0    0 -0.19649263474E+02  0.91208872253E+01 -0.29774074463E+02  0.54367086799E+02  0.40000005976E+02 0.  0.
        -12    1    3    3    0    0  0.19649263474E+02 -0.91208872253E+01  0.29774074463E+02  0.36820913201E+02  0.00000000000E+00 0.  1.
         11    1    4    4    0    0 -0.90454502742E+01  0.14055671604E+02 -0.19920767862E+02  0.26004212493E+02  0.51100000000E-03 0. -1.
        -11    1    4    4    0    0 -0.76598033243E+01  0.78395655709E+01 -0.10579698441E+02  0.15233561457E+02  0.51100000000E-03 0.  1.
        -12    1    4    4    0    0 -0.29440098752E+01 -0.12774349949E+02  0.72639184043E+00  0.13129312849E+02  0.00000000000E+00 0.  1.
</event>
<event>
 8    1  0.1265908E-006  0.9118800E+02  0.7816164E-02  0.1184000E+00
        -11   -1    0    0    0    0  0.00000000000E+00  0.00000000000E+00  0.45593999997E+02  0.45594000000E+02  0.51100000000E-03 0.  1.
         11   -1    0    0    0    0 -0.00000000000E+00 -0.00000000000E+00 -0.45593999997E+02  0.45594000000E+02  0.51100000000E-03 0. -1.
         23    2    1    2    0    0  0.00000000000E+00  0.00000000000E+00  0.35527136788E-14  0.91188000000E+02  0.91188000000E+02 0.  0.
    9900012    2    3    3    0    0 -0.22897839474E+02  0.39540694038E+01 -0.28562805346E+02  0.54367087917E+02  0.40000008523E+02 0.  0.
        -12    1    3    3    0    0  0.22897839474E+02 -0.39540694038E+01  0.28562805346E+02  0.36820912083E+02  0.00000000000E+00 0.  1.
         11    1    4    4    0    0  0.91931622058E+00  0.11745218728E+01  0.93215254408E+00  0.17588497860E+01  0.51100000000E-03 0.  1.
        -11    1    4    4    0    0 -0.24242398300E+02  0.64107321744E+01 -0.36746596053E+02  0.44487118181E+02  0.51100000000E-03 0. -1.
        -12    1    4    4    0    0  0.42524260511E+00 -0.36311846434E+01  0.72516381629E+01  0.81211199494E+01  0.00000000000E+00 0.  1.
</event>
<event>
 8    1  0.1265908E-006  0.9118800E+02  0.7816164E-02  0.1184000E+00
        -11   -1    0    0    0    0  0.00000000000E+00  0.00000000000E+00  0.45593999997E+02  0.45594000000E+02  0.51100000000E-03 0. -1.
         11   -1    0    0    0    0 -0.00000000000E+00 -0.00000000000E+00 -0.45593999997E+02  0.45594000000E+02  0.51100000000E-03 0.  1.
         23    2    1    2    0    0  0.00000000000E+00  0.35527136788E-14 -0.35527136788E-14  0.91188000000E+02  0.91188000000E+02 0.  0.
    9900012    2    3    3    0    0 -0.53619721084E+01  0.29616138250E+02  0.21211147218E+02  0.54367093493E+02  0.40000021235E+02 0.  0.
        -12    1    3    3    0    0  0.53619721084E+01 -0.29616138250E+02 -0.21211147218E+02  0.36820906507E+02  0.00000000000E+00 0.  1.
         11    1    4    4    0    0 -0.22018340102E+01  0.58439758943E+01 -0.11152623644E+02  0.12782063279E+02  0.51100000000E-03 0. -1.
        -11    1    4    4    0    0  0.79710980224E+00 -0.79131111680E+00  0.73117271402E+00  0.13402130873E+01  0.51100000000E-03 0.  1.
         12    1    4    4    0    0 -0.39572479004E+01  0.24563473472E+02  0.31632598148E+02  0.40244817127E+02  0.00000000000E+00 0. -1.
</event>
<event>
 8    1  0.1265908E-006  0.9118800E+02  0.7816164E-02  0.1184000E+00
        -11   -1    0    0    0    0  0.00000000000E+00  0.00000000000E+00  0.45593999997E+02  0.45594000000E+02  0.51100000000E-03 0. -1.
         11   -1    0    0    0    0 -0.00000000000E+00 -0.00000000000E+00 -0.45593999997E+02  0.45594000000E+02  0.51100000000E-03 0.  1.
         23    2    1    2    0    0  0.35527136788E-14  0.00000000000E+00  0.88817841970E-15  0.91188000000E+02  0.91188000000E+02 0.  0.
    9900012    2    3    3    0    0 -0.28018465571E+02  0.22856921796E+02 -0.69500468557E+01  0.54367130398E+02  0.40000105369E+02 0.  0.
         12    1    3    3    0    0  0.28018465571E+02 -0.22856921796E+02  0.69500468557E+01  0.36820869602E+02  0.00000000000E+00 0. -1.
         11    1    4    4    0    0 -0.12439628508E+02 -0.45193378320E+01 -0.33092510459E+01  0.13642577271E+02  0.51100000000E-03 0. -1.
        -11    1    4    4    0    0  0.69001838322E+01  0.79043536895E+01  0.13151613878E+01  0.10574544619E+02  0.51100000000E-03 0.  1.
        -12    1    4    4    0    0 -0.22479020896E+02  0.19471905938E+02 -0.49559571976E+01  0.30150008508E+02  0.00000000000E+00 0.  1.
</event>
<event>
 8    1  0.1265908E-006  0.9118800E+02  0.7816164E-02  0.1184000E+00
        -11   -1    0    0    0    0  0.00000000000E+00  0.00000000000E+00  0.45593999997E+02  0.45594000000E+02  0.51100000000E-03 0.  1.
         11   -1    0    0    0    0 -0.00000000000E+00 -0.00000000000E+00 -0.45593999997E+02  0.45594000000E+02  0.51100000000E-03 0. -1.
         23    2    1    2    0    0  0.88817841970E-15 -0.35527136788E-14  0.35527136788E-14  0.91188000000E+02  0.91188000000E+02 0.  0.
    9900012    2    3    3    0    0 -0.11859443686E+01  0.23966020970E+02 -0.27928533003E+02  0.54367087724E+02  0.40000008083E+02 0.  0.
        -12    1    3    3    0    0  0.11859443686E+01 -0.23966020970E+02  0.27928533003E+02  0.36820912276E+02  0.00000000000E+00 0.  1.
         11    1    4    4    0    0  0.17785094145E+02  0.11483395942E+02 -0.11595028615E+02  0.24137577446E+02  0.51100000000E-03 0. -1.
        -11    1    4    4    0    0 -0.11796060345E+02  0.92040474928E+01 -0.38282133692E+01  0.15443987431E+02  0.51100000000E-03 0.  1.
         12    1    4    4    0    0 -0.71749781688E+01  0.32785775353E+01 -0.12505291019E+02  0.14785522847E+02  0.00000000000E+00 0. -1.
</event>
<event>
 8    1  0.1265908E-006  0.9118800E+02  0.7816164E-02  0.1184000E+00
        -11   -1    0    0    0    0  0.00000000000E+00  0.00000000000E+00  0.45593999997E+02  0.45594000000E+02  0.51100000000E-03 0. -1.
         11   -1    0    0    0    0 -0.00000000000E+00 -0.00000000000E+00 -0.45593999997E+02  0.45594000000E+02  0.51100000000E-03 0.  1.
         23    2    1    2    0    0  0.00000000000E+00  0.00000000000E+00  0.00000000000E+00  0.91188000000E+02  0.91188000000E+02 0.  0.
    9900012    2    3    3    0    0  0.39062796099E+01  0.34481319568E+02 -0.12310958315E+02  0.54367080481E+02  0.39999991573E+02 0.  0.
         12    1    3    3    0    0 -0.39062796099E+01 -0.34481319568E+02  0.12310958315E+02  0.36820919519E+02  0.00000000000E+00 0. -1.
         11    1    4    4    0    0 -0.10347623830E+02  0.83561026543E+01  0.29777381048E+01  0.13629552266E+02  0.51100000000E-03 0. -1.
        -11    1    4    4    0    0  0.10116923616E+01  0.20581355986E+02 -0.12277744805E+01  0.20642750933E+02  0.51100000000E-03 0.  1.
         12    1    4    4    0    0  0.13242211078E+02  0.55438609283E+01 -0.14060921939E+02  0.20094777282E+02  0.00000000000E+00 0. -1.
</event>
<event>
 8    1  0.1265908E-006  0.9118800E+02  0.7816164E-02  0.1184000E+00
        -11   -1    0    0    0    0  0.00000000000E+00  0.00000000000E+00  0.45593999997E+02  0.45594000000E+02  0.51100000000E-03 0. -1.
         11   -1    0    0    0    0 -0.00000000000E+00 -0.00000000000E+00 -0.45593999997E+02  0.45594000000E+02  0.51100000000E-03 0.  1.
         23    2    1    2    0    0 -0.88817841970E-15  0.71054273576E-14  0.00000000000E+00  0.91188000000E+02  0.91188000000E+02 0.  0.
    9900012    2    3    3    0    0 -0.32301770893E+01 -0.34312681697E+02  0.12960920810E+02  0.54367086955E+02  0.40000006331E+02 0.  0.
         12    1    3    3    0    0  0.32301770893E+01  0.34312681697E+02 -0.12960920810E+02  0.36820913045E+02  0.00000000000E+00 0. -1.
         11    1    4    4    0    0  0.30341157844E+01 -0.17771165473E+01  0.58622148261E+01  0.68359026283E+01  0.51100000000E-03 0. -1.
        -11    1    4    4    0    0 -0.10067039575E+02 -0.48611992966E+01  0.14806519494E+02  0.18552885603E+02  0.51100000000E-03 0.  1.
        -12    1    4    4    0    0  0.38027467014E+01 -0.27674365853E+02 -0.77078135098E+01  0.28978298724E+02  0.00000000000E+00 0.  1.
</event>
<event>
 8    1  0.1265908E-006  0.9118800E+02  0.7816164E-02  0.1184000E+00
        -11   -1    0    0    0    0  0.00000000000E+00  0.00000000000E+00  0.45593999997E+02  0.45594000000E+02  0.51100000000E-03 0.  1.
         11   -1    0    0    0    0 -0.00000000000E+00 -0.00000000000E+00 -0.45593999997E+02  0.45594000000E+02  0.51100000000E-03 0. -1.
         23    2    1    2    0    0  0.13322676296E-14  0.35527136788E-14  0.00000000000E+00  0.91188000000E+02  0.91188000000E+02 0.  0.
    9900012    2    3    3    0    0  0.38451429605E+01  0.25487047229E+02  0.26294496824E+02  0.54367146343E+02  0.40000141717E+02 0.  0.
         12    1    3    3    0    0 -0.38451429605E+01 -0.25487047229E+02 -0.26294496824E+02  0.36820853657E+02  0.00000000000E+00 0. -1.
         11    1    4    4    0    0  0.71218057506E+00  0.22201188856E+01  0.17537666687E+01  0.29175035265E+01  0.51100000000E-03 0. -1.
        -11    1    4    4    0    0 -0.84687126659E+01 -0.80880559406E+01  0.50730092557E+01  0.12762098820E+02  0.51100000000E-03 0.  1.
        -12    1    4    4    0    0  0.11601675051E+02  0.31354984284E+02  0.19467720899E+02  0.38687543996E+02  0.00000000000E+00 0.  1.
</event>
<event>
 8    1  0.1265908E-006  0.9118800E+02  0.7816164E-02  0.1184000E+00
        -11   -1    0    0    0    0  0.00000000000E+00  0.00000000000E+00  0.45593999997E+02  0.45594000000E+02  0.51100000000E-03 0. -1.
         11   -1    0    0    0    0 -0.00000000000E+00 -0.00000000000E+00 -0.45593999997E+02  0.45594000000E+02  0.51100000000E-03 0.  1.
         23    2    1    2    0    0  0.35527136788E-14  0.44408920985E-15  0.00000000000E+00  0.91188000000E+02  0.91188000000E+02 0.  0.
    9900012    2    3    3    0    0  0.30550230420E+02  0.34033572995E+01 -0.20270112600E+02  0.54367124339E+02  0.40000091555E+02 0.  0.
         12    1    3    3    0    0 -0.30550230420E+02 -0.34033572995E+01  0.20270112600E+02  0.36820875661E+02  0.00000000000E+00 0. -1.
         11    1    4    4    0    0  0.82976376485E+01 -0.64745618806E+01 -0.34385358356E+01  0.11072229723E+02  0.51100000000E-03 0. -1.
        -11    1    4    4    0    0  0.29477107423E+02  0.80051450587E+01 -0.18413669236E+02  0.35665745814E+02  0.51100000000E-03 0.  1.
        -12    1    4    4    0    0 -0.72245146510E+01  0.18727741214E+01  0.15820924719E+01  0.76291488019E+01  0.00000000000E+00 0.  1.
</event>
<event>
 8    1  0.1265908E-006  0.9118800E+02  0.7816164E-02  0.1184000E+00
        -11   -1    0    0    0    0  0.00000000000E+00  0.00000000000E+00  0.45593999997E+02  0.45594000000E+02  0.51100000000E-03 0. -1.
         11   -1    0    0    0    0 -0.00000000000E+00 -0.00000000000E+00 -0.45593999997E+02  0.45594000000E+02  0.51100000000E-03 0.  1.
         23    2    1    2    0    0  0.00000000000E+00  0.17763568394E-14  0.00000000000E+00  0.91188000000E+02  0.91188000000E+02 0.  0.
    9900012    2    3    3    0    0 -0.34040556602E+02 -0.91756277982E+01 -0.10622075050E+02  0.54367080434E+02  0.39999991466E+02 0.  0.
         12    1    3    3    0    0  0.34040556602E+02  0.91756277982E+01  0.10622075050E+02  0.36820919566E+02  0.00000000000E+00 0. -1.
         11    1    4    4    0    0 -0.13537268148E+02  0.44880389425E+01  0.37769353590E-01  0.14261891503E+02  0.51100000000E-03 0. -1.
        -11    1    4    4    0    0  0.33477111458E+01 -0.14414076168E+02 -0.42802917570E+01  0.15404338982E+02  0.51100000000E-03 0.  1.
        -12    1    4    4    0    0 -0.23850999600E+02  0.75040942733E+00 -0.63795526470E+01  0.24700849949E+02  0.00000000000E+00 0.  1.
</event>
<event>
 8    1  0.1265908E-006  0.9118800E+02  0.7816164E-02  0.1184000E+00
        -11   -1    0    0    0    0  0.00000000000E+00  0.00000000000E+00  0.45593999997E+02  0.45594000000E+02  0.51100000000E-03 0.  1.
         11   -1    0    0    0    0 -0.00000000000E+00 -0.00000000000E+00 -0.45593999997E+02  0.45594000000E+02  0.51100000000E-03 0. -1.
         23    2    1    2    0    0 -0.17763568394E-14 -0.17763568394E-14  0.35527136788E-14  0.91188000000E+02  0.91188000000E+02 0.  0.
    9900012    2    3    3    0    0 -0.11064556067E+02 -0.15905048709E+02 -0.31311101065E+02  0.54367081688E+02  0.39999994324E+02 0.  0.
        -12    1    3    3    0    0  0.11064556067E+02  0.15905048709E+02  0.31311101065E+02  0.36820918312E+02  0.00000000000E+00 0.  1.
         11    1    4    4    0    0 -0.15246163041E+02  0.62931129805E+01 -0.63234189144E+01  0.17664495053E+02  0.51100000000E-03 0. -1.
        -11    1    4    4    0    0 -0.29562647388E+01 -0.53172173868E+01 -0.14168656580E+02  0.15419569757E+02  0.51100000000E-03 0.  1.
        -12    1    4    4    0    0  0.71378717125E+01 -0.16880944303E+02 -0.10819025571E+02  0.21283016878E+02  0.00000000000E+00 0.  1.
</event>
<event>
 8    1  0.1265908E-006  0.9118800E+02  0.7816164E-02  0.1184000E+00
        -11   -1    0    0    0    0  0.00000000000E+00  0.00000000000E+00  0.45593999997E+02  0.45594000000E+02  0.51100000000E-03 0.  1.
         11   -1    0    0    0    0 -0.00000000000E+00 -0.00000000000E+00 -0.45593999997E+02  0.45594000000E+02  0.51100000000E-03 0. -1.
         23    2    1    2    0    0  0.00000000000E+00  0.35527136788E-14  0.00000000000E+00  0.91188000000E+02  0.91188000000E+02 0.  0.
    9900012    2    3    3    0    0 -0.18049970580E+02  0.30760512911E+02  0.91525340582E+01  0.54367089200E+02  0.40000011449E+02 0.  0.
        -12    1    3    3    0    0  0.18049970580E+02 -0.30760512911E+02 -0.91525340582E+01  0.36820910800E+02  0.00000000000E+00 0.  1.
         11    1    4    4    0    0 -0.35402136542E+01 -0.25445660382E+01  0.21847361168E+01  0.48765767913E+01  0.51100000000E-03 0. -1.
        -11    1    4    4    0    0  0.30173504094E+01  0.38195719724E+00  0.11521048658E+02  0.11915739894E+02  0.51100000000E-03 0.  1.
         12    1    4    4    0    0 -0.17527107335E+02  0.32923121752E+02 -0.45532507162E+01  0.37574772514E+02  0.00000000000E+00 0. -1.
</event>
<event>
 8    1  0.1265908E-006  0.9118800E+02  0.7816164E-02  0.1184000E+00
        -11   -1    0    0    0    0  0.00000000000E+00  0.00000000000E+00  0.45593999997E+02  0.45594000000E+02  0.51100000000E-03 0.  1.
         11   -1    0    0    0    0 -0.00000000000E+00 -0.00000000000E+00 -0.45593999997E+02  0.45594000000E+02  0.51100000000E-03 0. -1.
         23    2    1    2    0    0  0.00000000000E+00  0.88817841970E-15  0.00000000000E+00  0.91188000000E+02  0.91188000000E+02 0.  0.
    9900012    2    3    3    0    0  0.36237731821E+02 -0.40725654649E+01 -0.51009391499E+01  0.54367101352E+02  0.40000039152E+02 0.  0.
         12    1    3    3    0    0 -0.36237731821E+02  0.40725654649E+01  0.51009391499E+01  0.36820898648E+02  0.00000000000E+00 0. -1.
         11    1    4    4    0    0 -0.42273941582E+01  0.59319783068E+01 -0.24522233058E+01  0.76858719351E+01  0.51100000000E-03 0. -1.
        -11    1    4    4    0    0  0.37031255684E+02 -0.16554338348E+01 -0.48632317994E+01  0.37385898177E+02  0.51100000000E-03 0.  1.
        -12    1    4    4    0    0  0.34338702958E+01 -0.83491099368E+01  0.22145159553E+01  0.92953312401E+01  0.00000000000E+00 0.  1.
</event>
<event>
 8    1  0.1265908E-006  0.9118800E+02  0.7816164E-02  0.1184000E+00
        -11   -1    0    0    0    0  0.00000000000E+00  0.00000000000E+00  0.45593999997E+02  0.45594000000E+02  0.51100000000E-03 0.  1.
         11   -1    0    0    0    0 -0.00000000000E+00 -0.00000000000E+00 -0.45593999997E+02  0.45594000000E+02  0.51100000000E-03 0. -1.
         23    2    1    2    0    0  0.00000000000E+00  0.17763568394E-14  0.71054273576E-14  0.91188000000E+02  0.91188000000E+02 0.  0.
    9900012    2    3    3    0    0  0.31411308491E+01 -0.49284751351E+01 -0.36354138396E+02  0.54367082729E+02  0.39999996698E+02 0.  0.
        -12    1    3    3    0    0 -0.31411308491E+01  0.49284751351E+01  0.36354138396E+02  0.36820917271E+02  0.00000000000E+00 0.  1.
         11    1    4    4    0    0  0.16956219685E+01 -0.10828019315E+02 -0.10014248906E+02  0.14846087618E+02  0.51100000000E-03 0. -1.
        -11    1    4    4    0    0 -0.59324383232E+01 -0.42382520197E+01 -0.25973452776E+02  0.26977339639E+02  0.51100000000E-03 0.  1.
        -12    1    4    4    0    0  0.73779472039E+01  0.10137796200E+02 -0.36643671373E+00  0.12543655472E+02  0.00000000000E+00 0.  1.
</event>
<event>
 8    1  0.1265908E-006  0.9118800E+02  0.7816164E-02  0.1184000E+00
        -11   -1    0    0    0    0  0.00000000000E+00  0.00000000000E+00  0.45593999997E+02  0.45594000000E+02  0.51100000000E-03 0.  1.
         11   -1    0    0    0    0 -0.00000000000E+00 -0.00000000000E+00 -0.45593999997E+02  0.45594000000E+02  0.51100000000E-03 0. -1.
         23    2    1    2    0    0  0.71054273576E-14  0.00000000000E+00  0.00000000000E+00  0.91188000000E+02  0.91188000000E+02 0.  0.
    9900012    2    3    3    0    0  0.32872117473E+02 -0.29954752511E+01  0.16316666671E+02  0.54367046856E+02  0.39999914918E+02 0.  0.
         12    1    3    3    0    0 -0.32872117473E+02  0.29954752511E+01 -0.16316666671E+02  0.36820953144E+02  0.00000000000E+00 0. -1.
         11    1    4    4    0    0  0.63452187833E+00 -0.36316264182E-01  0.15897113864E+02  0.15909813524E+02  0.51100000000E-03 0. -1.
        -11    1    4    4    0    0  0.45211175915E+01 -0.56263624708E+01 -0.65576237442E+01  0.97518658913E+01  0.51100000000E-03 0.  1.
         12    1    4    4    0    0  0.27716478003E+02  0.26672034839E+01  0.69771765515E+01  0.28705367442E+02  0.00000000000E+00 0. -1.
</event>
<event>
 8    1  0.1265908E-006  0.9118800E+02  0.7816164E-02  0.1184000E+00
        -11   -1    0    0    0    0  0.00000000000E+00  0.00000000000E+00  0.45593999997E+02  0.45594000000E+02  0.51100000000E-03 0. -1.
         11   -1    0    0    0    0 -0.00000000000E+00 -0.00000000000E+00 -0.45593999997E+02  0.45594000000E+02  0.51100000000E-03 0.  1.
         23    2    1    2    0    0 -0.71054273576E-14  0.00000000000E+00  0.35527136788E-14  0.91188000000E+02  0.91188000000E+02 0.  0.
    9900012    2    3    3    0    0 -0.28610158227E+02  0.46624559713E+01  0.22704630673E+02  0.54367083343E+02  0.39999998097E+02 0.  0.
        -12    1    3    3    0    0  0.28610158227E+02 -0.46624559713E+01 -0.22704630673E+02  0.36820916657E+02  0.00000000000E+00 0.  1.
         11    1    4    4    0    0 -0.24170311727E+02 -0.39982330338E+01  0.56937376142E+01  0.25151709378E+02  0.51100000000E-03 0. -1.
        -11    1    4    4    0    0 -0.83024542313E+01  0.11187565736E+02  0.27162843420E+01  0.14194033050E+02  0.51100000000E-03 0.  1.
        -12    1    4    4    0    0  0.38626077312E+01 -0.25268767306E+01  0.14294608717E+02  0.15021340915E+02  0.00000000000E+00 0.  1.
</event>
<event>
 8    1  0.1265908E-006  0.9118800E+02  0.7816164E-02  0.1184000E+00
        -11   -1    0    0    0    0  0.00000000000E+00  0.00000000000E+00  0.45593999997E+02  0.45594000000E+02  0.51100000000E-03 0. -1.
         11   -1    0    0    0    0 -0.00000000000E+00 -0.00000000000E+00 -0.45593999997E+02  0.45594000000E+02  0.51100000000E-03 0.  1.
         23    2    1    2    0    0  0.11102230246E-15 -0.35527136788E-14  0.00000000000E+00  0.91188000000E+02  0.91188000000E+02 0.  0.
    9900012    2    3    3    0    0  0.51678764670E+00  0.30209325949E+02  0.21045427253E+02  0.54367075894E+02  0.39999981116E+02 0.  0.
        -12    1    3    3    0    0 -0.51678764670E+00 -0.30209325949E+02 -0.21045427253E+02  0.36820924106E+02  0.00000000000E+00 0.  1.
         11    1    4    4    0    0 -0.81575285955E+01  0.13114050928E+01  0.53824612805E+01  0.98608288597E+01  0.51100000000E-03 0. -1.
        -11    1    4    4    0    0 -0.10467959761E+02  0.12055340737E+02  0.81477904361E+01  0.17924729039E+02  0.51100000000E-03 0.  1.
        -12    1    4    4    0    0  0.19142276003E+02  0.16842580118E+02  0.75151755362E+01  0.26581517996E+02  0.00000000000E+00 0.  1.
</event>
<event>
 8    1  0.1265908E-006  0.9118800E+02  0.7816164E-02  0.1184000E+00
        -11   -1    0    0    0    0  0.00000000000E+00  0.00000000000E+00  0.45593999997E+02  0.45594000000E+02  0.51100000000E-03 0. -1.
         11   -1    0    0    0    0 -0.00000000000E+00 -0.00000000000E+00 -0.45593999997E+02  0.45594000000E+02  0.51100000000E-03 0.  1.
         23    2    1    2    0    0 -0.17763568394E-14  0.00000000000E+00  0.00000000000E+00  0.91188000000E+02  0.91188000000E+02 0.  0.
    9900012    2    3    3    0    0 -0.12230901447E+02  0.10143365051E+02 -0.33215917028E+02  0.54367082728E+02  0.39999996694E+02 0.  0.
         12    1    3    3    0    0  0.12230901447E+02 -0.10143365051E+02  0.33215917028E+02  0.36820917272E+02  0.00000000000E+00 0. -1.
         11    1    4    4    0    0  0.50337787999E+01  0.85588395137E+01 -0.47425408364E+00  0.99407031957E+01  0.51100000000E-03 0. -1.
        -11    1    4    4    0    0 -0.13324502602E+02  0.12592277644E+02 -0.20305847419E+02  0.27357544946E+02  0.51100000000E-03 0.  1.
         12    1    4    4    0    0 -0.39401776455E+01 -0.11007752107E+02 -0.12435815526E+02  0.17068834586E+02  0.00000000000E+00 0. -1.
</event>
<event>
 8    1  0.1265908E-006  0.9118800E+02  0.7816164E-02  0.1184000E+00
        -11   -1    0    0    0    0  0.00000000000E+00  0.00000000000E+00  0.45593999997E+02  0.45594000000E+02  0.51100000000E-03 0.  1.
         11   -1    0    0    0    0 -0.00000000000E+00 -0.00000000000E+00 -0.45593999997E+02  0.45594000000E+02  0.51100000000E-03 0. -1.
         23    2    1    2    0    0 -0.22204460493E-15 -0.17763568394E-14  0.00000000000E+00  0.91188000000E+02  0.91188000000E+02 0.  0.
    9900012    2    3    3    0    0  0.15200035002E+01  0.12299269009E+02  0.34672686749E+02  0.54367114144E+02  0.40000068315E+02 0.  0.
         12    1    3    3    0    0 -0.15200035002E+01 -0.12299269009E+02 -0.34672686749E+02  0.36820885856E+02  0.00000000000E+00 0. -1.
         11    1    4    4    0    0  0.65859471365E+01 -0.10314637585E+02  0.71603052884E+01  0.14178731265E+02  0.51100000000E-03 0. -1.
        -11    1    4    4    0    0 -0.89035968094E+01  0.10337909653E+02  0.55339830547E+01  0.14723157978E+02  0.51100000000E-03 0.  1.
        -12    1    4    4    0    0  0.38376531731E+01  0.12275996941E+02  0.21978398406E+02  0.25465224901E+02  0.00000000000E+00 0.  1.
</event>
<event>
 8    1  0.1265908E-006  0.9118800E+02  0.7816164E-02  0.1184000E+00
        -11   -1    0    0    0    0  0.00000000000E+00  0.00000000000E+00  0.45593999997E+02  0.45594000000E+02  0.51100000000E-03 0. -1.
         11   -1    0    0    0    0 -0.00000000000E+00 -0.00000000000E+00 -0.45593999997E+02  0.45594000000E+02  0.51100000000E-03 0.  1.
         23    2    1    2    0    0 -0.17763568394E-14  0.35527136788E-14  0.00000000000E+00  0.91188000000E+02  0.91188000000E+02 0.  0.
    9900012    2    3    3    0    0  0.13222055212E+02  0.11054726003E+02 -0.32538434617E+02  0.54367089659E+02  0.40000012495E+02 0.  0.
         12    1    3    3    0    0 -0.13222055212E+02 -0.11054726003E+02  0.32538434617E+02  0.36820910341E+02  0.00000000000E+00 0. -1.
         11    1    4    4    0    0 -0.27946784001E+01 -0.74343878913E+01 -0.21194245334E+01  0.82202379097E+01  0.51100000000E-03 0. -1.
        -11    1    4    4    0    0  0.17738147459E+01  0.19590319983E+02 -0.12818325549E+02  0.23478426820E+02  0.51100000000E-03 0.  1.
         12    1    4    4    0    0  0.14242918866E+02 -0.11012060893E+01 -0.17600684535E+02  0.22668424929E+02  0.00000000000E+00 0. -1.
</event>
<event>
 8    1  0.1265908E-006  0.9118800E+02  0.7816164E-02  0.1184000E+00
        -11   -1    0    0    0    0  0.00000000000E+00  0.00000000000E+00  0.45593999997E+02  0.45594000000E+02  0.51100000000E-03 0. -1.
         11   -1    0    0    0    0 -0.00000000000E+00 -0.00000000000E+00 -0.45593999997E+02  0.45594000000E+02  0.51100000000E-03 0.  1.
         23    2    1    2    0    0  0.00000000000E+00  0.00000000000E+00  0.17763568394E-14  0.91188000000E+02  0.91188000000E+02 0.  0.
    9900012    2    3    3    0    0 -0.19334723363E+02  0.29135147840E+02  0.11536796095E+02  0.54367000132E+02  0.39999808400E+02 0.  0.
        -12    1    3    3    0    0  0.19334723363E+02 -0.29135147840E+02 -0.11536796095E+02  0.36820999868E+02  0.00000000000E+00 0.  1.
         11    1    4    4    0    0 -0.28642716139E+01  0.12399112585E+02 -0.11121139086E+02  0.16900348505E+02  0.51100000000E-03 0. -1.
        -11    1    4    4    0    0 -0.48461942915E+01 -0.30616092520E+01  0.92441232618E+01  0.10877171758E+02  0.51100000000E-03 0.  1.
         12    1    4    4    0    0 -0.11624257458E+02  0.19797644507E+02  0.13413811919E+02  0.26589479868E+02  0.00000000000E+00 0. -1.
</event>
<event>
 8    1  0.1265908E-006  0.9118800E+02  0.7816164E-02  0.1184000E+00
        -11   -1    0    0    0    0  0.00000000000E+00  0.00000000000E+00  0.45593999997E+02  0.45594000000E+02  0.51100000000E-03 0. -1.
         11   -1    0    0    0    0 -0.00000000000E+00 -0.00000000000E+00 -0.45593999997E+02  0.45594000000E+02  0.51100000000E-03 0.  1.
         23    2    1    2    0    0  0.88817841970E-15 -0.71054273576E-14  0.00000000000E+00  0.91188000000E+02  0.91188000000E+02 0.  0.
    9900012    2    3    3    0    0  0.78894729640E+01 -0.33876173414E+02 -0.12080570163E+02  0.54367094467E+02  0.40000023455E+02 0.  0.
         12    1    3    3    0    0 -0.78894729640E+01  0.33876173414E+02  0.12080570163E+02  0.36820905533E+02  0.00000000000E+00 0. -1.
         11    1    4    4    0    0  0.17895905401E+01  0.40305204765E+01  0.91033296479E+01  0.10115252866E+02  0.51100000000E-03 0. -1.
        -11    1    4    4    0    0  0.46036721786E+01 -0.12592467853E+02 -0.87399201345E+01  0.16004694573E+02  0.51100000000E-03 0.  1.
         12    1    4    4    0    0  0.14962102453E+01 -0.25314226038E+02 -0.12443979676E+02  0.28247147027E+02  0.00000000000E+00 0. -1.
</event>
<event>
 8    1  0.1265908E-006  0.9118800E+02  0.7816164E-02  0.1184000E+00
        -11   -1    0    0    0    0  0.00000000000E+00  0.00000000000E+00  0.45593999997E+02  0.45594000000E+02  0.51100000000E-03 0.  1.
         11   -1    0    0    0    0 -0.00000000000E+00 -0.00000000000E+00 -0.45593999997E+02  0.45594000000E+02  0.51100000000E-03 0. -1.
         23    2    1    2    0    0  0.00000000000E+00  0.00000000000E+00 -0.17763568394E-14  0.91188000000E+02  0.91188000000E+02 0.  0.
    9900012    2    3    3    0    0  0.28005945762E+02 -0.21239902471E+02  0.10968793592E+02  0.54367069975E+02  0.39999967623E+02 0.  0.
         12    1    3    3    0    0 -0.28005945762E+02  0.21239902471E+02 -0.10968793592E+02  0.36820930025E+02  0.00000000000E+00 0. -1.
         11    1    4    4    0    0  0.23202475498E+02 -0.10304060122E+02  0.22035337437E+02  0.33616731257E+02  0.51100000000E-03 0. -1.
        -11    1    4    4    0    0  0.43281471752E+01 -0.15970618467E+01  0.17077304128E+01  0.49193300292E+01  0.51100000000E-03 0.  1.
         12    1    4    4    0    0  0.47532308966E+00 -0.93387805021E+01 -0.12774274257E+02  0.15831008689E+02  0.00000000000E+00 0. -1.
</event>
<event>
 8    1  0.1265908E-006  0.9118800E+02  0.7816164E-02  0.1184000E+00
        -11   -1    0    0    0    0  0.00000000000E+00  0.00000000000E+00  0.45593999997E+02  0.45594000000E+02  0.51100000000E-03 0. -1.
         11   -1    0    0    0    0 -0.00000000000E+00 -0.00000000000E+00 -0.45593999997E+02  0.45594000000E+02  0.51100000000E-03 0.  1.
         23    2    1    2    0    0 -0.88817841970E-15 -0.17763568394E-14  0.00000000000E+00  0.91188000000E+02  0.91188000000E+02 0.  0.
    9900012    2    3    3    0    0  0.40081164118E+01 -0.83169200258E+01  0.35644894239E+02  0.54366883216E+02  0.39999541865E+02 0.  0.
        -12    1    3    3    0    0 -0.40081164118E+01  0.83169200258E+01 -0.35644894239E+02  0.36821116784E+02  0.00000000000E+00 0.  1.
         11    1    4    4    0    0  0.75043418263E+01 -0.36424565580E+01  0.54300783786E+01  0.99533103780E+01  0.51100000000E-03 0. -1.
        -11    1    4    4    0    0 -0.14737547333E+02 -0.11216468514E+02  0.23035356004E+02  0.29557268037E+02  0.51100000000E-03 0.  1.
        -12    1    4    4    0    0  0.11241321919E+02  0.65420050464E+01  0.71794598566E+01  0.14856304801E+02  0.00000000000E+00 0.  1.
</event>
<event>
 8    1  0.1265908E-006  0.9118800E+02  0.7816164E-02  0.1184000E+00
        -11   -1    0    0    0    0  0.00000000000E+00  0.00000000000E+00  0.45593999997E+02  0.45594000000E+02  0.51100000000E-03 0.  1.
         11   -1    0    0    0    0 -0.00000000000E+00 -0.00000000000E+00 -0.45593999997E+02  0.45594000000E+02  0.51100000000E-03 0. -1.
         23    2    1    2    0    0  0.00000000000E+00  0.00000000000E+00  0.17763568394E-14  0.91188000000E+02  0.91188000000E+02 0.  0.
    9900012    2    3    3    0    0 -0.31823156851E+02 -0.15135927333E+02  0.10675728677E+02  0.54367071292E+02  0.39999970624E+02 0.  0.
         12    1    3    3    0    0  0.31823156851E+02  0.15135927333E+02 -0.10675728677E+02  0.36820928708E+02  0.00000000000E+00 0. -1.
         11    1    4    4    0    0 -0.52853089949E+00  0.41999566987E+01 -0.33037360487E+01  0.53696976938E+01  0.51100000000E-03 0. -1.
        -11    1    4    4    0    0 -0.29596350634E+02 -0.80199904461E+01 -0.34250578266E+00  0.30665640839E+02  0.51100000000E-03 0.  1.
        -12    1    4    4    0    0 -0.16982753170E+01 -0.11315893585E+02  0.14321970508E+02  0.18331732758E+02  0.00000000000E+00 0.  1.
</event>
<event>
 8    1  0.1265908E-006  0.9118800E+02  0.7816164E-02  0.1184000E+00
        -11   -1    0    0    0    0  0.00000000000E+00  0.00000000000E+00  0.45593999997E+02  0.45594000000E+02  0.51100000000E-03 0.  1.
         11   -1    0    0    0    0 -0.00000000000E+00 -0.00000000000E+00 -0.45593999997E+02  0.45594000000E+02  0.51100000000E-03 0. -1.
         23    2    1    2    0    0 -0.71054273576E-14 -0.71054273576E-14 -0.25535129566E-14  0.91188000000E+02  0.91188000000E+02 0.  0.
    9900012    2    3    3    0    0 -0.29848974037E+02 -0.21558153675E+02  0.25918965386E+00  0.54367049168E+02  0.39999920188E+02 0.  0.
        -12    1    3    3    0    0  0.29848974037E+02  0.21558153675E+02 -0.25918965386E+00  0.36820950832E+02  0.00000000000E+00 0.  1.
         11    1    4    4    0    0 -0.33577424061E+01 -0.95699730945E+00 -0.13182748330E+02  0.13637269951E+02  0.51100000000E-03 0. -1.
        -11    1    4    4    0    0 -0.34111829653E+01 -0.10206443475E+02  0.10854787630E+02  0.15285093143E+02  0.51100000000E-03 0.  1.
        -12    1    4    4    0    0 -0.23080048665E+02 -0.10394712890E+02  0.25871503544E+01  0.25444686074E+02  0.00000000000E+00 0.  1.
</event>
<event>
 8    1  0.1265908E-006  0.9118800E+02  0.7816164E-02  0.1184000E+00
        -11   -1    0    0    0    0  0.00000000000E+00  0.00000000000E+00  0.45593999997E+02  0.45594000000E+02  0.51100000000E-03 0. -1.
         11   -1    0    0    0    0 -0.00000000000E+00 -0.00000000000E+00 -0.45593999997E+02  0.45594000000E+02  0.51100000000E-03 0.  1.
         23    2    1    2    0    0 -0.17763568394E-14  0.00000000000E+00  0.00000000000E+00  0.91188000000E+02  0.91188000000E+02 0.  0.
    9900012    2    3    3    0    0 -0.14822335532E+02 -0.28086047445E+02 -0.18634688852E+02  0.54367091262E+02  0.40000016149E+02 0.  0.
        -12    1    3    3    0    0  0.14822335532E+02  0.28086047445E+02  0.18634688852E+02  0.36820908738E+02  0.00000000000E+00 0.  1.
         11    1    4    4    0    0  0.24170073956E+01 -0.25720349521E+02 -0.65609343651E+01  0.26653783301E+02  0.51100000000E-03 0. -1.
        -11    1    4    4    0    0 -0.25105265784E+01  0.70363430578E+01 -0.35539900738E+01  0.82730715598E+01  0.51100000000E-03 0.  1.
        -12    1    4    4    0    0 -0.14728816349E+02 -0.94020409815E+01 -0.85197644135E+01  0.19440236401E+02  0.00000000000E+00 0.  1.
</event>
<event>
 8    1  0.1265908E-006  0.9118800E+02  0.7816164E-02  0.1184000E+00
        -11   -1    0    0    0    0  0.00000000000E+00  0.00000000000E+00  0.45593999997E+02  0.45594000000E+02  0.51100000000E-03 0.  1.
         11   -1    0    0    0    0 -0.00000000000E+00 -0.00000000000E+00 -0.45593999997E+02  0.45594000000E+02  0.51100000000E-03 0. -1.
         23    2    1    2    0    0  0.00000000000E+00  0.00000000000E+00 -0.35527136788E-14  0.91188000000E+02  0.91188000000E+02 0.  0.
    9900012    2    3    3    0    0  0.31503250919E+02 -0.27990171651E+01 -0.18854432844E+02  0.54367096244E+02  0.40000027506E+02 0.  0.
        -12    1    3    3    0    0 -0.31503250919E+02  0.27990171651E+01  0.18854432844E+02  0.36820903756E+02  0.00000000000E+00 0.  1.
         11    1    4    4    0    0 -0.29226577418E+01 -0.94872490127E+01 -0.16597205464E+01  0.10065013396E+02  0.51100000000E-03 0. -1.
        -11    1    4    4    0    0  0.19227214066E+02  0.76276523739E+01  0.83554042901E+00  0.20701810779E+02  0.51100000000E-03 0.  1.
         12    1    4    4    0    0  0.15198694595E+02 -0.93942052631E+00 -0.18030252727E+02  0.23600272069E+02  0.00000000000E+00 0. -1.
</event>
<event>
 8    1  0.1265908E-006  0.9118800E+02  0.7816164E-02  0.1184000E+00
        -11   -1    0    0    0    0  0.00000000000E+00  0.00000000000E+00  0.45593999997E+02  0.45594000000E+02  0.51100000000E-03 0.  1.
         11   -1    0    0    0    0 -0.00000000000E+00 -0.00000000000E+00 -0.45593999997E+02  0.45594000000E+02  0.51100000000E-03 0. -1.
         23    2    1    2    0    0  0.17763568394E-14  0.44408920985E-15  0.71054273576E-14  0.91188000000E+02  0.91188000000E+02 0.  0.
    9900012    2    3    3    0    0  0.65143759071E+01  0.34492682621E+01  0.36075551053E+02  0.54367082999E+02  0.39999997313E+02 0.  0.
         12    1    3    3    0    0 -0.65143759071E+01 -0.34492682621E+01 -0.36075551053E+02  0.36820917001E+02  0.00000000000E+00 0. -1.
         11    1    4    4    0    0 -0.26981681247E+01  0.46452999142E+01  0.15105019512E+01  0.55803708594E+01  0.51100000000E-03 0. -1.
        -11    1    4    4    0    0 -0.91225442840E+01  0.87315283978E+01  0.77384231488E+01  0.14810253052E+02  0.51100000000E-03 0.  1.
        -12    1    4    4    0    0  0.18335088316E+02 -0.99275600499E+01  0.26826625953E+02  0.33976459087E+02  0.00000000000E+00 0.  1.
</event>
<event>
 8    1  0.1265908E-006  0.9118800E+02  0.7816164E-02  0.1184000E+00
        -11   -1    0    0    0    0  0.00000000000E+00  0.00000000000E+00  0.45593999997E+02  0.45594000000E+02  0.51100000000E-03 0. -1.
         11   -1    0    0    0    0 -0.00000000000E+00 -0.00000000000E+00 -0.45593999997E+02  0.45594000000E+02  0.51100000000E-03 0.  1.
         23    2    1    2    0    0  0.00000000000E+00  0.44408920985E-15  0.00000000000E+00  0.91188000000E+02  0.91188000000E+02 0.  0.
    9900012    2    3    3    0    0 -0.14535750675E+02  0.81840503165E+00  0.33820451073E+02  0.54367071912E+02  0.39999972039E+02 0.  0.
        -12    1    3    3    0    0  0.14535750675E+02 -0.81840503165E+00 -0.33820451073E+02  0.36820928088E+02  0.00000000000E+00 0.  1.
         11    1    4    4    0    0 -0.33751969927E+00 -0.63464312841E+01  0.36026599533E+01  0.73054957800E+01  0.51100000000E-03 0. -1.
        -11    1    4    4    0    0  0.95321631879E+01  0.69969361639E+01  0.13964393200E+02  0.18298183747E+02  0.51100000000E-03 0.  1.
         12    1    4    4    0    0 -0.23730394163E+02  0.16790015176E+00  0.16253397919E+02  0.28763392386E+02  0.00000000000E+00 0. -1.
</event>
<event>
 8    1  0.1265908E-006  0.9118800E+02  0.7816164E-02  0.1184000E+00
        -11   -1    0    0    0    0  0.00000000000E+00  0.00000000000E+00  0.45593999997E+02  0.45594000000E+02  0.51100000000E-03 0.  1.
         11   -1    0    0    0    0 -0.00000000000E+00 -0.00000000000E+00 -0.45593999997E+02  0.45594000000E+02  0.51100000000E-03 0. -1.
         23    2    1    2    0    0  0.00000000000E+00 -0.35527136788E-14  0.00000000000E+00  0.91188000000E+02  0.91188000000E+02 0.  0.
    9900012    2    3    3    0    0  0.20401171055E+02 -0.24938082866E+02 -0.17823144101E+02  0.54367079002E+02  0.39999988202E+02 0.  0.
        -12    1    3    3    0    0 -0.20401171055E+02  0.24938082866E+02  0.17823144101E+02  0.36820920998E+02  0.00000000000E+00 0.  1.
         11    1    4    4    0    0  0.12320719781E+02 -0.30031275447E+02 -0.12830851062E+01  0.32485749931E+02  0.51100000000E-03 0. -1.
        -11    1    4    4    0    0  0.73403126484E+01  0.40220069157E+01 -0.40050040949E+01  0.92788354586E+01  0.51100000000E-03 0.  1.
         12    1    4    4    0    0  0.74013862564E+00  0.10711856655E+01 -0.12535054900E+02  0.12602493613E+02  0.00000000000E+00 0. -1.
</event>
<event>
 8    1  0.1265908E-006  0.9118800E+02  0.7816164E-02  0.1184000E+00
        -11   -1    0    0    0    0  0.00000000000E+00  0.00000000000E+00  0.45593999997E+02  0.45594000000E+02  0.51100000000E-03 0.  1.
         11   -1    0    0    0    0 -0.00000000000E+00 -0.00000000000E+00 -0.45593999997E+02  0.45594000000E+02  0.51100000000E-03 0. -1.
         23    2    1    2    0    0  0.17763568394E-14  0.00000000000E+00  0.17763568394E-14  0.91188000000E+02  0.91188000000E+02 0.  0.
    9900012    2    3    3    0    0  0.15201751185E+02  0.30823961963E+02  0.13212505994E+02  0.54367079522E+02  0.39999989387E+02 0.  0.
         12    1    3    3    0    0 -0.15201751185E+02 -0.30823961963E+02 -0.13212505994E+02  0.36820920478E+02  0.00000000000E+00 0. -1.
         11    1    4    4    0    0 -0.59718676235E+01  0.12724195612E+01 -0.27963689239E+01  0.67157973370E+01  0.51100000000E-03 0. -1.
        -11    1    4    4    0    0  0.25790807987E+02  0.29446504873E+02  0.17386686846E+02  0.42831755808E+02  0.51100000000E-03 0.  1.
        -12    1    4    4    0    0 -0.46171891783E+01  0.10503752929E+00 -0.13778119286E+01  0.48195263773E+01  0.00000000000E+00 0.  1.
</event>
<event>
 8    1  0.1265908E-006  0.9118800E+02  0.7816164E-02  0.1184000E+00
        -11   -1    0    0    0    0  0.00000000000E+00  0.00000000000E+00  0.45593999997E+02  0.45594000000E+02  0.51100000000E-03 0.  1.
         11   -1    0    0    0    0 -0.00000000000E+00 -0.00000000000E+00 -0.45593999997E+02  0.45594000000E+02  0.51100000000E-03 0. -1.
         23    2    1    2    0    0  0.00000000000E+00  0.00000000000E+00  0.00000000000E+00  0.91188000000E+02  0.91188000000E+02 0.  0.
    9900012    2    3    3    0    0 -0.25836203895E+02  0.15722335013E+02  0.21001911301E+02  0.54367061279E+02  0.39999947798E+02 0.  0.
         12    1    3    3    0    0  0.25836203895E+02 -0.15722335013E+02 -0.21001911301E+02  0.36820938721E+02  0.00000000000E+00 0. -1.
         11    1    4    4    0    0  0.69907381790E+00  0.38705671817E+01  0.96917398480E+01  0.10459436699E+02  0.51100000000E-03 0. -1.
        -11    1    4    4    0    0  0.60816000164E+01  0.70090157362E+01  0.87215664640E+00  0.93205588795E+01  0.51100000000E-03 0.  1.
         12    1    4    4    0    0 -0.32616877730E+02  0.48427520956E+01  0.10438014807E+02  0.34587065701E+02  0.00000000000E+00 0. -1.
</event>
<event>
 8    1  0.1265908E-006  0.9118800E+02  0.7816164E-02  0.1184000E+00
        -11   -1    0    0    0    0  0.00000000000E+00  0.00000000000E+00  0.45593999997E+02  0.45594000000E+02  0.51100000000E-03 0.  1.
         11   -1    0    0    0    0 -0.00000000000E+00 -0.00000000000E+00 -0.45593999997E+02  0.45594000000E+02  0.51100000000E-03 0. -1.
         23    2    1    2    0    0  0.00000000000E+00  0.00000000000E+00  0.00000000000E+00  0.91188000000E+02  0.91188000000E+02 0.  0.
    9900012    2    3    3    0    0  0.27977690784E+02  0.68238448462E+01 -0.22944791997E+02  0.54367088552E+02  0.40000009971E+02 0.  0.
        -12    1    3    3    0    0 -0.27977690784E+02 -0.68238448462E+01  0.22944791997E+02  0.36820911448E+02  0.00000000000E+00 0.  1.
         11    1    4    4    0    0  0.61037700173E+00 -0.10492495343E+02 -0.19469434688E+01  0.10689041479E+02  0.51100000000E-03 0.  1.
        -11    1    4    4    0    0  0.28042928961E+02  0.12824436628E+02 -0.23239341733E+02  0.38612679834E+02  0.51100000000E-03 0. -1.
        -12    1    4    4    0    0 -0.67561517822E+00  0.44919035618E+01  0.22414932047E+01  0.50653672388E+01  0.00000000000E+00 0.  1.
</event>
<event>
 8    1  0.1265908E-006  0.9118800E+02  0.7816164E-02  0.1184000E+00
        -11   -1    0    0    0    0  0.00000000000E+00  0.00000000000E+00  0.45593999997E+02  0.45594000000E+02  0.51100000000E-03 0. -1.
         11   -1    0    0    0    0 -0.00000000000E+00 -0.00000000000E+00 -0.45593999997E+02  0.45594000000E+02  0.51100000000E-03 0.  1.
         23    2    1    2    0    0 -0.35527136788E-14  0.00000000000E+00  0.88817841970E-15  0.91188000000E+02  0.91188000000E+02 0.  0.
    9900012    2    3    3    0    0  0.31140043517E+02 -0.18235840489E+02 -0.73167219476E+01  0.54367046609E+02  0.39999914354E+02 0.  0.
        -12    1    3    3    0    0 -0.31140043517E+02  0.18235840489E+02  0.73167219476E+01  0.36820953391E+02  0.00000000000E+00 0.  1.
         11    1    4    4    0    0  0.20577298087E+02 -0.11988910600E+02  0.77706005498E+01  0.25050776577E+02  0.51100000000E-03 0.  1.
        -11    1    4    4    0    0  0.13137484132E+02 -0.94315547509E+01 -0.28625973049E+01  0.16423829575E+02  0.51100000000E-03 0. -1.
        -12    1    4    4    0    0 -0.25747387019E+01  0.31846248620E+01 -0.12224725192E+02  0.12892440457E+02  0.00000000000E+00 0.  1.
</event>
<event>
 8    1  0.1265908E-006  0.9118800E+02  0.7816164E-02  0.1184000E+00
        -11   -1    0    0    0    0  0.00000000000E+00  0.00000000000E+00  0.45593999997E+02  0.45594000000E+02  0.51100000000E-03 0. -1.
         11   -1    0    0    0    0 -0.00000000000E+00 -0.00000000000E+00 -0.45593999997E+02  0.45594000000E+02  0.51100000000E-03 0.  1.
         23    2    1    2    0    0  0.88817841970E-15  0.35527136788E-14 -0.71054273576E-14  0.91188000000E+02  0.91188000000E+02 0.  0.
    9900012    2    3    3    0    0 -0.59307453414E+01  0.26664740571E+02 -0.24689961071E+02  0.54367132171E+02  0.40000109410E+02 0.  0.
        -12    1    3    3    0    0  0.59307453414E+01 -0.26664740571E+02  0.24689961071E+02  0.36820867829E+02  0.00000000000E+00 0.  1.
         11    1    4    4    0    0 -0.12871500435E+02  0.47266068866E+01 -0.36955338327E+01  0.14201172722E+02  0.51100000000E-03 0. -1.
        -11    1    4    4    0    0 -0.10534119241E+01  0.15451250751E+02  0.13681631666E+01  0.15547433780E+02  0.51100000000E-03 0.  1.
        -12    1    4    4    0    0  0.79941670174E+01  0.64868829336E+01 -0.22362590405E+02  0.24618525669E+02  0.00000000000E+00 0.  1.
</event>
<event>
 8    1  0.1265908E-006  0.9118800E+02  0.7816164E-02  0.1184000E+00
        -11   -1    0    0    0    0  0.00000000000E+00  0.00000000000E+00  0.45593999997E+02  0.45594000000E+02  0.51100000000E-03 0.  1.
         11   -1    0    0    0    0 -0.00000000000E+00 -0.00000000000E+00 -0.45593999997E+02  0.45594000000E+02  0.51100000000E-03 0. -1.
         23    2    1    2    0    0  0.00000000000E+00 -0.35527136788E-14  0.00000000000E+00  0.91188000000E+02  0.91188000000E+02 0.  0.
    9900012    2    3    3    0    0 -0.33708334494E+01  0.27141378994E+02 -0.24652900630E+02  0.54367048338E+02  0.39999918296E+02 0.  0.
        -12    1    3    3    0    0  0.33708334494E+01 -0.27141378994E+02  0.24652900630E+02  0.36820951662E+02  0.00000000000E+00 0.  1.
         11    1    4    4    0    0  0.96372488222E+01  0.11584042066E+02 -0.46258935956E+01  0.15762788055E+02  0.51100000000E-03 0. -1.
        -11    1    4    4    0    0 -0.78052772238E+01  0.22732822632E+02 -0.13239603371E+02  0.27440675557E+02  0.51100000000E-03 0.  1.
        -12    1    4    4    0    0 -0.52028050477E+01 -0.71754857037E+01 -0.67874036625E+01  0.11163584726E+02  0.00000000000E+00 0.  1.
</event>
<event>
 8    1  0.1265908E-006  0.9118800E+02  0.7816164E-02  0.1184000E+00
        -11   -1    0    0    0    0  0.00000000000E+00  0.00000000000E+00  0.45593999997E+02  0.45594000000E+02  0.51100000000E-03 0. -1.
         11   -1    0    0    0    0 -0.00000000000E+00 -0.00000000000E+00 -0.45593999997E+02  0.45594000000E+02  0.51100000000E-03 0.  1.
         23    2    1    2    0    0  0.10658141036E-13 -0.11102230246E-15  0.35527136788E-14  0.91188000000E+02  0.91188000000E+02 0.  0.
    9900012    2    3    3    0    0 -0.31565371762E+02  0.65248989513E+00  0.18946805680E+02  0.54367083621E+02  0.39999998731E+02 0.  0.
        -12    1    3    3    0    0  0.31565371762E+02 -0.65248989513E+00 -0.18946805680E+02  0.36820916379E+02  0.00000000000E+00 0.  1.
         11    1    4    4    0    0  0.60482996632E+01  0.44968899577E+01  0.59175282514E+01  0.95823321261E+01  0.51100000000E-03 0. -1.
        -11    1    4    4    0    0 -0.16656616658E+02  0.40597955551E-01 -0.44265845994E+01  0.17234824576E+02  0.51100000000E-03 0.  1.
         12    1    4    4    0    0 -0.20957054767E+02 -0.38849980182E+01  0.17455862028E+02  0.27549926919E+02  0.00000000000E+00 0. -1.
</event>
<event>
 8    1  0.1265908E-006  0.9118800E+02  0.7816164E-02  0.1184000E+00
        -11   -1    0    0    0    0  0.00000000000E+00  0.00000000000E+00  0.45593999997E+02  0.45594000000E+02  0.51100000000E-03 0.  1.
         11   -1    0    0    0    0 -0.00000000000E+00 -0.00000000000E+00 -0.45593999997E+02  0.45594000000E+02  0.51100000000E-03 0. -1.
         23    2    1    2    0    0  0.00000000000E+00 -0.17763568394E-14  0.00000000000E+00  0.91188000000E+02  0.91188000000E+02 0.  0.
    9900012    2    3    3    0    0  0.97725780236E+01  0.94971196919E+01  0.34206462654E+02  0.54367073192E+02  0.39999974957E+02 0.  0.
         12    1    3    3    0    0 -0.97725780236E+01 -0.94971196919E+01 -0.34206462654E+02  0.36820926808E+02  0.00000000000E+00 0. -1.
         11    1    4    4    0    0  0.11539503285E+01 -0.91288534180E+01 -0.44467417841E+01  0.10219641816E+02  0.51100000000E-03 0. -1.
        -11    1    4    4    0    0  0.61435299380E+01  0.86582942240E+01  0.15163030073E+02  0.18510172885E+02  0.51100000000E-03 0.  1.
         12    1    4    4    0    0  0.24750977572E+01  0.99676788859E+01  0.23490174365E+02  0.25637258492E+02  0.00000000000E+00 0. -1.
</event>
<event>
 8    1  0.1265908E-006  0.9118800E+02  0.7816164E-02  0.1184000E+00
        -11   -1    0    0    0    0  0.00000000000E+00  0.00000000000E+00  0.45593999997E+02  0.45594000000E+02  0.51100000000E-03 0.  1.
         11   -1    0    0    0    0 -0.00000000000E+00 -0.00000000000E+00 -0.45593999997E+02  0.45594000000E+02  0.51100000000E-03 0. -1.
         23    2    1    2    0    0  0.00000000000E+00  0.00000000000E+00 -0.35527136788E-14  0.91188000000E+02  0.91188000000E+02 0.  0.
    9900012    2    3    3    0    0 -0.15586648334E+02  0.10241110131E+02  0.31748314018E+02  0.54367090370E+02  0.40000014116E+02 0.  0.
         12    1    3    3    0    0  0.15586648334E+02 -0.10241110131E+02 -0.31748314018E+02  0.36820909630E+02  0.00000000000E+00 0. -1.
         11    1    4    4    0    0 -0.44395737081E+01 -0.71534595401E+01  0.63490662878E+01  0.10544782648E+02  0.51100000000E-03 0. -1.
        -11    1    4    4    0    0 -0.60675220075E+01  0.14228294458E+02 -0.21622012445E+01  0.15618396236E+02  0.51100000000E-03 0.  1.
        -12    1    4    4    0    0 -0.50795526188E+01  0.31662752129E+01  0.27561448975E+02  0.28203911486E+02  0.00000000000E+00 0.  1.
</event>
<event>
 8    1  0.1265908E-006  0.9118800E+02  0.7816164E-02  0.1184000E+00
        -11   -1    0    0    0    0  0.00000000000E+00  0.00000000000E+00  0.45593999997E+02  0.45594000000E+02  0.51100000000E-03 0.  1.
         11   -1    0    0    0    0 -0.00000000000E+00 -0.00000000000E+00 -0.45593999997E+02  0.45594000000E+02  0.51100000000E-03 0. -1.
         23    2    1    2    0    0  0.00000000000E+00  0.35527136788E-14  0.00000000000E+00  0.91188000000E+02  0.91188000000E+02 0.  0.
    9900012    2    3    3    0    0  0.86463865619E+01 -0.21953150777E+02 -0.28267950926E+02  0.54367110831E+02  0.40000060762E+02 0.  0.
        -12    1    3    3    0    0 -0.86463865619E+01  0.21953150777E+02  0.28267950926E+02  0.36820889169E+02  0.00000000000E+00 0.  1.
         11    1    4    4    0    0  0.14759613477E+02 -0.27206244597E+02 -0.12646159127E+02  0.33435778381E+02  0.51100000000E-03 0. -1.
        -11    1    4    4    0    0 -0.46159318430E+01 -0.20219694091E+01 -0.20110357366E+01  0.54258134935E+01  0.51100000000E-03 0.  1.
         12    1    4    4    0    0 -0.14972950720E+01  0.72750632290E+01 -0.13610756062E+02  0.15505518956E+02  0.00000000000E+00 0. -1.
</event>
<event>
 8    1  0.1265908E-006  0.9118800E+02  0.7816164E-02  0.1184000E+00
        -11   -1    0    0    0    0  0.00000000000E+00  0.00000000000E+00  0.45593999997E+02  0.45594000000E+02  0.51100000000E-03 0.  1.
         11   -1    0    0    0    0 -0.00000000000E+00 -0.00000000000E+00 -0.45593999997E+02  0.45594000000E+02  0.51100000000E-03 0. -1.
         23    2    1    2    0    0  0.00000000000E+00  0.00000000000E+00  0.00000000000E+00  0.91188000000E+02  0.91188000000E+02 0.  0.
    9900012    2    3    3    0    0  0.16176535926E+02 -0.69997237040E+01  0.32328062853E+02  0.54367080751E+02  0.39999992189E+02 0.  0.
         12    1    3    3    0    0 -0.16176535926E+02  0.69997237040E+01 -0.32328062853E+02  0.36820919249E+02  0.00000000000E+00 0. -1.
         11    1    4    4    0    0  0.35888572104E+00  0.10302934293E+02  0.10898897993E+02  0.15002174233E+02  0.51100000000E-03 0. -1.
        -11    1    4    4    0    0  0.15677259515E+02  0.40362546026E-01  0.10124444550E+02  0.18662327635E+02  0.51100000000E-03 0.  1.
         12    1    4    4    0    0  0.14039068938E+00 -0.17343020543E+02  0.11304720310E+02  0.20702578883E+02  0.00000000000E+00 0. -1.
</event>
<event>
 8    1  0.1265908E-006  0.9118800E+02  0.7816164E-02  0.1184000E+00
        -11   -1    0    0    0    0  0.00000000000E+00  0.00000000000E+00  0.45593999997E+02  0.45594000000E+02  0.51100000000E-03 0.  1.
         11   -1    0    0    0    0 -0.00000000000E+00 -0.00000000000E+00 -0.45593999997E+02  0.45594000000E+02  0.51100000000E-03 0. -1.
         23    2    1    2    0    0 -0.17763568394E-14  0.00000000000E+00  0.00000000000E+00  0.91188000000E+02  0.91188000000E+02 0.  0.
    9900012    2    3    3    0    0  0.11521476369E+02  0.26740396277E+02  0.22538659813E+02  0.54367022325E+02  0.39999858994E+02 0.  0.
         12    1    3    3    0    0 -0.11521476369E+02 -0.26740396277E+02 -0.22538659813E+02  0.36820977675E+02  0.00000000000E+00 0. -1.
         11    1    4    4    0    0 -0.98961599368E+00 -0.79059697963E+01  0.52397430484E+01  0.95361735360E+01  0.51100000000E-03 0. -1.
        -11    1    4    4    0    0 -0.44015151949E+01  0.13064514172E+02  0.76310115011E+01  0.15757131825E+02  0.51100000000E-03 0.  1.
        -12    1    4    4    0    0  0.16912607558E+02  0.21581851901E+02  0.96679052635E+01  0.29073716963E+02  0.00000000000E+00 0.  1.
</event>
<event>
 8    1  0.1265908E-006  0.9118800E+02  0.7816164E-02  0.1184000E+00
        -11   -1    0    0    0    0  0.00000000000E+00  0.00000000000E+00  0.45593999997E+02  0.45594000000E+02  0.51100000000E-03 0. -1.
         11   -1    0    0    0    0 -0.00000000000E+00 -0.00000000000E+00 -0.45593999997E+02  0.45594000000E+02  0.51100000000E-03 0.  1.
         23    2    1    2    0    0  0.71054273576E-14 -0.17763568394E-14 -0.66613381478E-15  0.91188000000E+02  0.91188000000E+02 0.  0.
    9900012    2    3    3    0    0  0.36065826730E+02 -0.73968633070E+01  0.56735488809E+00  0.54367091048E+02  0.40000015663E+02 0.  0.
        -12    1    3    3    0    0 -0.36065826730E+02  0.73968633070E+01 -0.56735488809E+00  0.36820908952E+02  0.00000000000E+00 0.  1.
         11    1    4    4    0    0  0.13847202909E+02  0.55416619624E+01 -0.81174847272E+01  0.16980830494E+02  0.51100000000E-03 0. -1.
        -11    1    4    4    0    0  0.11625825050E+01 -0.12550067198E+02 -0.34672881927E+01  0.13072026332E+02  0.51100000000E-03 0.  1.
         12    1    4    4    0    0  0.21056041316E+02 -0.38845807173E+00  0.12152127808E+02  0.24314234222E+02  0.00000000000E+00 0. -1.
</event>
<event>
 8    1  0.1265908E-006  0.9118800E+02  0.7816164E-02  0.1184000E+00
        -11   -1    0    0    0    0  0.00000000000E+00  0.00000000000E+00  0.45593999997E+02  0.45594000000E+02  0.51100000000E-03 0.  1.
         11   -1    0    0    0    0 -0.00000000000E+00 -0.00000000000E+00 -0.45593999997E+02  0.45594000000E+02  0.51100000000E-03 0. -1.
         23    2    1    2    0    0  0.00000000000E+00  0.35527136788E-14  0.00000000000E+00  0.91188000000E+02  0.91188000000E+02 0.  0.
    9900012    2    3    3    0    0 -0.23225096026E+02  0.19925568137E+02  0.20477967944E+02  0.54367074942E+02  0.39999978946E+02 0.  0.
         12    1    3    3    0    0  0.23225096026E+02 -0.19925568137E+02 -0.20477967944E+02  0.36820925058E+02  0.00000000000E+00 0. -1.
         11    1    4    4    0    0 -0.16150868814E+02  0.90513603245E+01 -0.58876264874E+01  0.19427862288E+02  0.51100000000E-03 0. -1.
        -11    1    4    4    0    0 -0.55612411121E+01  0.12050672842E+01  0.24273170917E+02  0.24931233754E+02  0.51100000000E-03 0.  1.
        -12    1    4    4    0    0 -0.15129860992E+01  0.96691405287E+01  0.20924235136E+01  0.10007978900E+02  0.00000000000E+00 0.  1.
</event>
<event>
 8    1  0.1265908E-006  0.9118800E+02  0.7816164E-02  0.1184000E+00
        -11   -1    0    0    0    0  0.00000000000E+00  0.00000000000E+00  0.45593999997E+02  0.45594000000E+02  0.51100000000E-03 0.  1.
         11   -1    0    0    0    0 -0.00000000000E+00 -0.00000000000E+00 -0.45593999997E+02  0.45594000000E+02  0.51100000000E-03 0. -1.
         23    2    1    2    0    0 -0.35527136788E-14  0.29420910153E-14  0.00000000000E+00  0.91188000000E+02  0.91188000000E+02 0.  0.
    9900012    2    3    3    0    0 -0.31778814473E+02  0.10376536840E+00  0.18597727597E+02  0.54367091696E+02  0.40000017139E+02 0.  0.
         12    1    3    3    0    0  0.31778814473E+02 -0.10376536840E+00 -0.18597727597E+02  0.36820908304E+02  0.00000000000E+00 0. -1.
         11    1    4    4    0    0 -0.76873962957E+01 -0.12259438012E+02  0.17846142396E+02  0.22975523517E+02  0.51100000000E-03 0. -1.
        -11    1    4    4    0    0 -0.20854348128E+02  0.97238269517E+01 -0.57005473475E+01  0.23705545486E+02  0.51100000000E-03 0.  1.
         12    1    4    4    0    0 -0.32370700489E+01  0.26393764285E+01  0.64521325481E+01  0.76860226939E+01  0.00000000000E+00 0. -1.
</event>
<event>
 8    1  0.1265908E-006  0.9118800E+02  0.7816164E-02  0.1184000E+00
        -11   -1    0    0    0    0  0.00000000000E+00  0.00000000000E+00  0.45593999997E+02  0.45594000000E+02  0.51100000000E-03 0. -1.
         11   -1    0    0    0    0 -0.00000000000E+00 -0.00000000000E+00 -0.45593999997E+02  0.45594000000E+02  0.51100000000E-03 0.  1.
         23    2    1    2    0    0  0.00000000000E+00  0.35527136788E-14 -0.17763568394E-14  0.91188000000E+02  0.91188000000E+02 0.  0.
    9900012    2    3    3    0    0  0.18197519892E+02 -0.30770078358E+02  0.88222077321E+01  0.54367098305E+02  0.40000032206E+02 0.  0.
         12    1    3    3    0    0 -0.18197519892E+02  0.30770078358E+02 -0.88222077321E+01  0.36820901695E+02  0.00000000000E+00 0. -1.
         11    1    4    4    0    0  0.80642565858E+01  0.63725309334E+01  0.11400995743E+01  0.10341238421E+02  0.51100000000E-03 0.  1.
        -11    1    4    4    0    0  0.16096788987E+02 -0.24599969899E+02  0.40977298389E+01  0.29682596329E+02  0.51100000000E-03 0. -1.
        -12    1    4    4    0    0 -0.59635256811E+01 -0.12542639393E+02  0.35843783190E+01  0.14343263555E+02  0.00000000000E+00 0.  1.
</event>
<event>
 8    1  0.1265908E-006  0.9118800E+02  0.7816164E-02  0.1184000E+00
        -11   -1    0    0    0    0  0.00000000000E+00  0.00000000000E+00  0.45593999997E+02  0.45594000000E+02  0.51100000000E-03 0.  1.
         11   -1    0    0    0    0 -0.00000000000E+00 -0.00000000000E+00 -0.45593999997E+02  0.45594000000E+02  0.51100000000E-03 0. -1.
         23    2    1    2    0    0  0.00000000000E+00  0.88817841970E-15 -0.35527136788E-14  0.91188000000E+02  0.91188000000E+02 0.  0.
    9900012    2    3    3    0    0 -0.25210936156E+02 -0.54549562185E+01 -0.26276072957E+02  0.54367083943E+02  0.39999999465E+02 0.  0.
        -12    1    3    3    0    0  0.25210936156E+02  0.54549562185E+01  0.26276072957E+02  0.36820916057E+02  0.00000000000E+00 0.  1.
         11    1    4    4    0    0 -0.35223345841E+01 -0.18283261586E+02 -0.27289030902E+01  0.18818379512E+02  0.51100000000E-03 0. -1.
        -11    1    4    4    0    0 -0.41001605653E+01  0.69796184773E+01 -0.69927318418E+01  0.10696947678E+02  0.51100000000E-03 0.  1.
         12    1    4    4    0    0 -0.17588441007E+02  0.58486868897E+01 -0.16554438025E+02  0.24851756753E+02  0.00000000000E+00 0. -1.
</event>
<event>
 8    1  0.1265908E-006  0.9118800E+02  0.7816164E-02  0.1184000E+00
        -11   -1    0    0    0    0  0.00000000000E+00  0.00000000000E+00  0.45593999997E+02  0.45594000000E+02  0.51100000000E-03 0. -1.
         11   -1    0    0    0    0 -0.00000000000E+00 -0.00000000000E+00 -0.45593999997E+02  0.45594000000E+02  0.51100000000E-03 0.  1.
         23    2    1    2    0    0  0.00000000000E+00  0.00000000000E+00  0.00000000000E+00  0.91188000000E+02  0.91188000000E+02 0.  0.
    9900012    2    3    3    0    0  0.15604283524E+02 -0.10102081089E+02  0.31784188919E+02  0.54367076983E+02  0.39999983597E+02 0.  0.
        -12    1    3    3    0    0 -0.15604283524E+02  0.10102081089E+02 -0.31784188919E+02  0.36820923017E+02  0.00000000000E+00 0.  1.
         11    1    4    4    0    0  0.58968303909E+00 -0.11174474936E+02  0.13571241920E+02  0.17589633984E+02  0.51100000000E-03 0. -1.
        -11    1    4    4    0    0  0.11460436537E+02 -0.11961251458E+02  0.37463866092E+01  0.16983773283E+02  0.51100000000E-03 0.  1.
        -12    1    4    4    0    0  0.35541639483E+01  0.13033645305E+02  0.14466560389E+02  0.19793669715E+02  0.00000000000E+00 0.  1.
</event>
<event>
 8    1  0.1265908E-006  0.9118800E+02  0.7816164E-02  0.1184000E+00
        -11   -1    0    0    0    0  0.00000000000E+00  0.00000000000E+00  0.45593999997E+02  0.45594000000E+02  0.51100000000E-03 0. -1.
         11   -1    0    0    0    0 -0.00000000000E+00 -0.00000000000E+00 -0.45593999997E+02  0.45594000000E+02  0.51100000000E-03 0.  1.
         23    2    1    2    0    0  0.00000000000E+00 -0.17763568394E-14 -0.17763568394E-14  0.91188000000E+02  0.91188000000E+02 0.  0.
    9900012    2    3    3    0    0 -0.33956815299E+02 -0.12430693662E+02  0.69420816308E+01  0.54367082744E+02  0.39999996732E+02 0.  0.
        -12    1    3    3    0    0  0.33956815299E+02  0.12430693662E+02 -0.69420816308E+01  0.36820917256E+02  0.00000000000E+00 0.  1.
         11    1    4    4    0    0 -0.32875745656E+01 -0.49974714705E+01 -0.11981347474E+02  0.13391622575E+02  0.51100000000E-03 0. -1.
        -11    1    4    4    0    0 -0.18333414891E+02  0.27558861332E+01  0.37293420748E+01  0.18910764197E+02  0.51100000000E-03 0.  1.
         12    1    4    4    0    0 -0.12335825843E+02 -0.10189108325E+02  0.15194087030E+02  0.22064695973E+02  0.00000000000E+00 0. -1.
</event>
<event>
 8    1  0.1265908E-006  0.9118800E+02  0.7816164E-02  0.1184000E+00
        -11   -1    0    0    0    0  0.00000000000E+00  0.00000000000E+00  0.45593999997E+02  0.45594000000E+02  0.51100000000E-03 0.  1.
         11   -1    0    0    0    0 -0.00000000000E+00 -0.00000000000E+00 -0.45593999997E+02  0.45594000000E+02  0.51100000000E-03 0. -1.
         23    2    1    2    0    0  0.35527136788E-14  0.00000000000E+00  0.00000000000E+00  0.91188000000E+02  0.91188000000E+02 0.  0.
    9900012    2    3    3    0    0 -0.20577335902E+02  0.92615071081E+01 -0.29095995403E+02  0.54367092689E+02  0.40000019403E+02 0.  0.
        -12    1    3    3    0    0  0.20577335902E+02 -0.92615071081E+01  0.29095995403E+02  0.36820907311E+02  0.00000000000E+00 0.  1.
         11    1    4    4    0    0 -0.18740202961E+01 -0.13690365662E+02 -0.56790007792E+01  0.14939515191E+02  0.51100000000E-03 0.  1.
        -11    1    4    4    0    0 -0.12059382943E+02  0.87323133572E+01 -0.61943272386E+01  0.16126118681E+02  0.51100000000E-03 0. -1.
        -12    1    4    4    0    0 -0.66439326638E+01  0.14219559413E+02 -0.17222667385E+02  0.23301458817E+02  0.00000000000E+00 0.  1.
</event>
<event>
 8    1  0.1265908E-006  0.9118800E+02  0.7816164E-02  0.1184000E+00
        -11   -1    0    0    0    0  0.00000000000E+00  0.00000000000E+00  0.45593999997E+02  0.45594000000E+02  0.51100000000E-03 0.  1.
         11   -1    0    0    0    0 -0.00000000000E+00 -0.00000000000E+00 -0.45593999997E+02  0.45594000000E+02  0.51100000000E-03 0. -1.
         23    2    1    2    0    0  0.00000000000E+00 -0.22204460493E-15  0.71054273576E-14  0.91188000000E+02  0.91188000000E+02 0.  0.
    9900012    2    3    3    0    0  0.18114251218E+02  0.14212604741E+01 -0.32025510290E+02  0.54367090345E+02  0.40000014059E+02 0.  0.
        -12    1    3    3    0    0 -0.18114251218E+02 -0.14212604741E+01  0.32025510290E+02  0.36820909655E+02  0.00000000000E+00 0.  1.
         11    1    4    4    0    0 -0.35279403429E+01  0.36445077776E+01 -0.30163568524E+02  0.30587083325E+02  0.51100000000E-03 0. -1.
        -11    1    4    4    0    0  0.74519075980E+01 -0.29440434899E+01  0.32964933755E+01  0.86640168372E+01  0.51100000000E-03 0.  1.
         12    1    4    4    0    0  0.14190283963E+02  0.72079618641E+00 -0.51584351416E+01  0.15115990182E+02  0.00000000000E+00 0. -1.
</event>
<event>
 8    1  0.1265908E-006  0.9118800E+02  0.7816164E-02  0.1184000E+00
        -11   -1    0    0    0    0  0.00000000000E+00  0.00000000000E+00  0.45593999997E+02  0.45594000000E+02  0.51100000000E-03 0.  1.
         11   -1    0    0    0    0 -0.00000000000E+00 -0.00000000000E+00 -0.45593999997E+02  0.45594000000E+02  0.51100000000E-03 0. -1.
         23    2    1    2    0    0 -0.35527136788E-14  0.00000000000E+00 -0.88817841970E-15  0.91188000000E+02  0.91188000000E+02 0.  0.
    9900012    2    3    3    0    0 -0.29933264946E+02 -0.20153794998E+02 -0.73215269705E+01  0.54367074423E+02  0.39999977763E+02 0.  0.
        -12    1    3    3    0    0  0.29933264946E+02  0.20153794998E+02  0.73215269705E+01  0.36820925577E+02  0.00000000000E+00 0.  1.
         11    1    4    4    0    0 -0.24209432692E+02 -0.20210109331E+02 -0.13732853575E+02  0.34396750108E+02  0.51100000000E-03 0. -1.
        -11    1    4    4    0    0  0.59513351649E+01 -0.32028934603E+00 -0.11301865219E+01  0.60661600164E+01  0.51100000000E-03 0.  1.
         12    1    4    4    0    0 -0.11675167419E+02  0.37660367962E+00  0.75415131267E+01  0.13904164299E+02  0.00000000000E+00 0. -1.
</event>
<event>
 8    1  0.1265908E-006  0.9118800E+02  0.7816164E-02  0.1184000E+00
        -11   -1    0    0    0    0  0.00000000000E+00  0.00000000000E+00  0.45593999997E+02  0.45594000000E+02  0.51100000000E-03 0. -1.
         11   -1    0    0    0    0 -0.00000000000E+00 -0.00000000000E+00 -0.45593999997E+02  0.45594000000E+02  0.51100000000E-03 0.  1.
         23    2    1    2    0    0  0.00000000000E+00  0.00000000000E+00  0.00000000000E+00  0.91188000000E+02  0.91188000000E+02 0.  0.
    9900012    2    3    3    0    0  0.42093564362E+01  0.22085301041E+02  0.29159929502E+02  0.54367072632E+02  0.39999973679E+02 0.  0.
        -12    1    3    3    0    0 -0.42093564362E+01 -0.22085301041E+02 -0.29159929502E+02  0.36820927368E+02  0.00000000000E+00 0.  1.
         11    1    4    4    0    0  0.10599057819E+02  0.10786737532E+01  0.23721748011E+02  0.26004324499E+02  0.51100000000E-03 0. -1.
        -11    1    4    4    0    0  0.58840197749E+01  0.62030336061E+01  0.25138805247E+01  0.89117287988E+01  0.51100000000E-03 0.  1.
         12    1    4    4    0    0 -0.12273721158E+02  0.14803593682E+02  0.29243009665E+01  0.19451019334E+02  0.00000000000E+00 0. -1.
</event>
<event>
 8    1  0.1265908E-006  0.9118800E+02  0.7816164E-02  0.1184000E+00
        -11   -1    0    0    0    0  0.00000000000E+00  0.00000000000E+00  0.45593999997E+02  0.45594000000E+02  0.51100000000E-03 0.  1.
         11   -1    0    0    0    0 -0.00000000000E+00 -0.00000000000E+00 -0.45593999997E+02  0.45594000000E+02  0.51100000000E-03 0. -1.
         23    2    1    2    0    0  0.35527136788E-14  0.88817841970E-15  0.35527136788E-14  0.91188000000E+02  0.91188000000E+02 0.  0.
    9900012    2    3    3    0    0 -0.24901486290E+02 -0.55220869118E+01 -0.26555722696E+02  0.54367029464E+02  0.39999875269E+02 0.  0.
        -12    1    3    3    0    0  0.24901486290E+02  0.55220869118E+01  0.26555722696E+02  0.36820970536E+02  0.00000000000E+00 0.  1.
         11    1    4    4    0    0 -0.10885756096E+02 -0.73795477779E+01 -0.22846953598E+02  0.26361727943E+02  0.51100000000E-03 0. -1.
        -11    1    4    4    0    0  0.43964177160E+01  0.11834461807E+01 -0.78927005926E+01  0.91117372933E+01  0.51100000000E-03 0.  1.
         12    1    4    4    0    0 -0.18412147910E+02  0.67401468549E+00  0.41839314945E+01  0.18893564227E+02  0.00000000000E+00 0. -1.
</event>
<event>
 8    1  0.1265908E-006  0.9118800E+02  0.7816164E-02  0.1184000E+00
        -11   -1    0    0    0    0  0.00000000000E+00  0.00000000000E+00  0.45593999997E+02  0.45594000000E+02  0.51100000000E-03 0. -1.
         11   -1    0    0    0    0 -0.00000000000E+00 -0.00000000000E+00 -0.45593999997E+02  0.45594000000E+02  0.51100000000E-03 0.  1.
         23    2    1    2    0    0  0.71054273576E-14 -0.17763568394E-14  0.00000000000E+00  0.91188000000E+02  0.91188000000E+02 0.  0.
    9900012    2    3    3    0    0  0.32431895292E+02  0.14706455983E+02  0.93633889244E+01  0.54367072093E+02  0.39999972450E+02 0.  0.
        -12    1    3    3    0    0 -0.32431895292E+02 -0.14706455983E+02 -0.93633889244E+01  0.36820927907E+02  0.00000000000E+00 0.  1.
         11    1    4    4    0    0  0.73765086167E+01  0.16582595014E+02  0.12418743146E+02  0.21991373726E+02  0.51100000000E-03 0. -1.
        -11    1    4    4    0    0  0.14826992312E+02  0.84597610576E+01  0.15028126538E+01  0.17136677167E+02  0.51100000000E-03 0.  1.
        -12    1    4    4    0    0  0.10228394363E+02 -0.10335900088E+02 -0.45581668754E+01  0.15239021200E+02  0.00000000000E+00 0.  1.
</event>
<event>
 8    1  0.1265908E-006  0.9118800E+02  0.7816164E-02  0.1184000E+00
        -11   -1    0    0    0    0  0.00000000000E+00  0.00000000000E+00  0.45593999997E+02  0.45594000000E+02  0.51100000000E-03 0.  1.
         11   -1    0    0    0    0 -0.00000000000E+00 -0.00000000000E+00 -0.45593999997E+02  0.45594000000E+02  0.51100000000E-03 0. -1.
         23    2    1    2    0    0  0.71054273576E-14  0.35527136788E-14  0.00000000000E+00  0.91188000000E+02  0.91188000000E+02 0.  0.
    9900012    2    3    3    0    0 -0.30370253142E+02 -0.17407154220E+02  0.11420122486E+02  0.54367075357E+02  0.39999979892E+02 0.  0.
         12    1    3    3    0    0  0.30370253142E+02  0.17407154220E+02 -0.11420122486E+02  0.36820924643E+02  0.00000000000E+00 0. -1.
         11    1    4    4    0    0 -0.90132881631E+01 -0.97551656007E+01 -0.44475236765E+01  0.14006537278E+02  0.51100000000E-03 0. -1.
        -11    1    4    4    0    0  0.30039377208E+01  0.76484764465E+01  0.49388287100E+01  0.95872239502E+01  0.51100000000E-03 0.  1.
         12    1    4    4    0    0 -0.24360902699E+02 -0.15300465066E+02  0.10928817453E+02  0.30773314129E+02  0.00000000000E+00 0. -1.
</event>
<event>
 8    1  0.1265908E-006  0.9118800E+02  0.7816164E-02  0.1184000E+00
        -11   -1    0    0    0    0  0.00000000000E+00  0.00000000000E+00  0.45593999997E+02  0.45594000000E+02  0.51100000000E-03 0.  1.
         11   -1    0    0    0    0 -0.00000000000E+00 -0.00000000000E+00 -0.45593999997E+02  0.45594000000E+02  0.51100000000E-03 0. -1.
         23    2    1    2    0    0  0.00000000000E+00 -0.17763568394E-14  0.17763568394E-14  0.91188000000E+02  0.91188000000E+02 0.  0.
    9900012    2    3    3    0    0  0.35177480338E+02  0.80712109585E+01  0.72924515693E+01  0.54367089919E+02  0.40000013089E+02 0.  0.
         12    1    3    3    0    0 -0.35177480338E+02 -0.80712109585E+01 -0.72924515693E+01  0.36820910081E+02  0.00000000000E+00 0. -1.
         11    1    4    4    0    0  0.71631525697E+01  0.23562112051E+01  0.10717183843E+02  0.13104217480E+02  0.51100000000E-03 0. -1.
        -11    1    4    4    0    0  0.24680887476E+02  0.23807283081E+00  0.98074491836E+01  0.26559159344E+02  0.51100000000E-03 0.  1.
        -12    1    4    4    0    0  0.33334402921E+01  0.54769269225E+01 -0.13232181457E+02  0.14703713096E+02  0.00000000000E+00 0.  1.
</event>
<event>
 8    1  0.1265908E-006  0.9118800E+02  0.7816164E-02  0.1184000E+00
        -11   -1    0    0    0    0  0.00000000000E+00  0.00000000000E+00  0.45593999997E+02  0.45594000000E+02  0.51100000000E-03 0. -1.
         11   -1    0    0    0    0 -0.00000000000E+00 -0.00000000000E+00 -0.45593999997E+02  0.45594000000E+02  0.51100000000E-03 0.  1.
         23    2    1    2    0    0  0.00000000000E+00  0.17763568394E-14  0.00000000000E+00  0.91188000000E+02  0.91188000000E+02 0.  0.
    9900012    2    3    3    0    0 -0.10156857320E+02  0.11269521063E+02 -0.33550129297E+02  0.54367149501E+02  0.40000148917E+02 0.  0.
         12    1    3    3    0    0  0.10156857320E+02 -0.11269521063E+02  0.33550129297E+02  0.36820850499E+02  0.00000000000E+00 0. -1.
         11    1    4    4    0    0 -0.20975223303E+01 -0.24750302473E+01 -0.54600117358E+01  0.63511497437E+01  0.51100000000E-03 0. -1.
        -11    1    4    4    0    0 -0.10149945061E+02  0.63675828286E+01  0.57697960120E+01  0.13298798521E+02  0.51100000000E-03 0.  1.
         12    1    4    4    0    0  0.20906100720E+01  0.73769684818E+01 -0.33859913574E+02  0.34717201236E+02  0.00000000000E+00 0. -1.
</event>
<event>
 8    1  0.1265908E-006  0.9118800E+02  0.7816164E-02  0.1184000E+00
        -11   -1    0    0    0    0  0.00000000000E+00  0.00000000000E+00  0.45593999997E+02  0.45594000000E+02  0.51100000000E-03 0.  1.
         11   -1    0    0    0    0 -0.00000000000E+00 -0.00000000000E+00 -0.45593999997E+02  0.45594000000E+02  0.51100000000E-03 0. -1.
         23    2    1    2    0    0  0.00000000000E+00  0.00000000000E+00 -0.44408920985E-15  0.91188000000E+02  0.91188000000E+02 0.  0.
    9900012    2    3    3    0    0  0.36276508588E+02 -0.61811778430E+01  0.12595883344E+01  0.54367101076E+02  0.40000038522E+02 0.  0.
        -12    1    3    3    0    0 -0.36276508588E+02  0.61811778430E+01 -0.12595883344E+01  0.36820898924E+02  0.00000000000E+00 0.  1.
         11    1    4    4    0    0  0.34294646940E+02 -0.63903072350E+01  0.36057035389E+01  0.35070784616E+02  0.51100000000E-03 0. -1.
        -11    1    4    4    0    0  0.18161434587E+01  0.95219724270E+01 -0.23817243504E+01  0.99819310309E+01  0.51100000000E-03 0.  1.
         12    1    4    4    0    0  0.16571818903E+00 -0.93128430350E+01  0.35609146027E-01  0.93143854292E+01  0.00000000000E+00 0. -1.
</event>
<event>
 8    1  0.1265908E-006  0.9118800E+02  0.7816164E-02  0.1184000E+00
        -11   -1    0    0    0    0  0.00000000000E+00  0.00000000000E+00  0.45593999997E+02  0.45594000000E+02  0.51100000000E-03 0.  1.
         11   -1    0    0    0    0 -0.00000000000E+00 -0.00000000000E+00 -0.45593999997E+02  0.45594000000E+02  0.51100000000E-03 0. -1.
         23    2    1    2    0    0  0.35527136788E-14 -0.17763568394E-14  0.00000000000E+00  0.91188000000E+02  0.91188000000E+02 0.  0.
    9900012    2    3    3    0    0  0.28953381815E+02  0.11695322466E+02 -0.19511561197E+02  0.54367083303E+02  0.39999998005E+02 0.  0.
        -12    1    3    3    0    0 -0.28953381815E+02 -0.11695322466E+02  0.19511561197E+02  0.36820916697E+02  0.00000000000E+00 0.  1.
         11    1    4    4    0    0  0.13360008208E+02  0.39452457571E+01  0.16680273738E+00  0.13931353373E+02  0.51100000000E-03 0.  1.
        -11    1    4    4    0    0  0.11315251095E+02  0.49273026905E+01  0.63695861995E+01  0.13888298951E+02  0.51100000000E-03 0. -1.
        -12    1    4    4    0    0  0.42781225124E+01  0.28227740183E+01 -0.26047950133E+02  0.26547430978E+02  0.00000000000E+00 0.  1.
</event>
<event>
 8    1  0.1265908E-006  0.9118800E+02  0.7816164E-02  0.1184000E+00
        -11   -1    0    0    0    0  0.00000000000E+00  0.00000000000E+00  0.45593999997E+02  0.45594000000E+02  0.51100000000E-03 0.  1.
         11   -1    0    0    0    0 -0.00000000000E+00 -0.00000000000E+00 -0.45593999997E+02  0.45594000000E+02  0.51100000000E-03 0. -1.
         23    2    1    2    0    0  0.35527136788E-14 -0.35527136788E-14 -0.10658141036E-13  0.91188000000E+02  0.91188000000E+02 0.  0.
    9900012    2    3    3    0    0  0.13231987600E+02 -0.12947529220E+02 -0.31828544429E+02  0.54367078648E+02  0.39999987393E+02 0.  0.
        -12    1    3    3    0    0 -0.13231987600E+02  0.12947529220E+02  0.31828544429E+02  0.36820921352E+02  0.00000000000E+00 0.  1.
         11    1    4    4    0    0  0.11953321467E+02  0.88751490972E+01 -0.22886847513E+02  0.27303075924E+02  0.51100000000E-03 0. -1.
        -11    1    4    4    0    0  0.87998956425E-01 -0.96761443470E+01  0.28560544004E+01  0.10089229913E+02  0.51100000000E-03 0.  1.
        -12    1    4    4    0    0  0.11906671768E+01 -0.12146533971E+02 -0.11797751317E+02  0.16974772810E+02  0.00000000000E+00 0.  1.
</event>
<event>
 8    1  0.1265908E-006  0.9118800E+02  0.7816164E-02  0.1184000E+00
        -11   -1    0    0    0    0  0.00000000000E+00  0.00000000000E+00  0.45593999997E+02  0.45594000000E+02  0.51100000000E-03 0. -1.
         11   -1    0    0    0    0 -0.00000000000E+00 -0.00000000000E+00 -0.45593999997E+02  0.45594000000E+02  0.51100000000E-03 0.  1.
         23    2    1    2    0    0  0.00000000000E+00  0.00000000000E+00  0.00000000000E+00  0.91188000000E+02  0.91188000000E+02 0.  0.
    9900012    2    3    3    0    0 -0.24025485237E+01 -0.20300172911E+02 -0.30625282292E+02  0.54367120392E+02  0.40000082558E+02 0.  0.
        -12    1    3    3    0    0  0.24025485237E+01  0.20300172911E+02  0.30625282292E+02  0.36820879608E+02  0.00000000000E+00 0.  1.
         11    1    4    4    0    0  0.41115227920E+01 -0.81319258491E+01  0.38642480177E+01  0.98977396757E+01  0.51100000000E-03 0. -1.
        -11    1    4    4    0    0  0.31796298991E+01 -0.74987645339E+01 -0.32528066517E+02  0.33532322130E+02  0.51100000000E-03 0.  1.
        -12    1    4    4    0    0 -0.96937012148E+01 -0.46694825277E+01 -0.19614637933E+01  0.10937058587E+02  0.00000000000E+00 0.  1.
</event>
<event>
 8    1  0.1265908E-006  0.9118800E+02  0.7816164E-02  0.1184000E+00
        -11   -1    0    0    0    0  0.00000000000E+00  0.00000000000E+00  0.45593999997E+02  0.45594000000E+02  0.51100000000E-03 0.  1.
         11   -1    0    0    0    0 -0.00000000000E+00 -0.00000000000E+00 -0.45593999997E+02  0.45594000000E+02  0.51100000000E-03 0. -1.
         23    2    1    2    0    0 -0.35527136788E-14  0.00000000000E+00  0.35527136788E-14  0.91188000000E+02  0.91188000000E+02 0.  0.
    9900012    2    3    3    0    0 -0.21518875471E+02 -0.21911314095E+01  0.29797924435E+02  0.54367090736E+02  0.40000014952E+02 0.  0.
         12    1    3    3    0    0  0.21518875471E+02  0.21911314095E+01 -0.29797924435E+02  0.36820909264E+02  0.00000000000E+00 0. -1.
         11    1    4    4    0    0  0.32219950687E+01 -0.73729512769E+01  0.14237513816E+02  0.16353851616E+02  0.51100000000E-03 0.  1.
        -11    1    4    4    0    0 -0.26632816101E+02  0.39436354687E+01  0.52150131077E+01  0.27423630616E+02  0.51100000000E-03 0. -1.
         12    1    4    4    0    0  0.18919455615E+01  0.12381843987E+01  0.10345397511E+02  0.10589608504E+02  0.00000000000E+00 0. -1.
</event>
<event>
 8    1  0.1265908E-006  0.9118800E+02  0.7816164E-02  0.1184000E+00
        -11   -1    0    0    0    0  0.00000000000E+00  0.00000000000E+00  0.45593999997E+02  0.45594000000E+02  0.51100000000E-03 0. -1.
         11   -1    0    0    0    0 -0.00000000000E+00 -0.00000000000E+00 -0.45593999997E+02  0.45594000000E+02  0.51100000000E-03 0.  1.
         23    2    1    2    0    0  0.00000000000E+00  0.00000000000E+00  0.00000000000E+00  0.91188000000E+02  0.91188000000E+02 0.  0.
    9900012    2    3    3    0    0  0.31477388782E+01  0.85395027479E+01 -0.35678399942E+02  0.54367087604E+02  0.40000007811E+02 0.  0.
         12    1    3    3    0    0 -0.31477388782E+01 -0.85395027479E+01  0.35678399942E+02  0.36820912396E+02  0.00000000000E+00 0. -1.
         11    1    4    4    0    0  0.45085395707E+01 -0.67152222341E+01 -0.69753193182E+01  0.10680646917E+02  0.51100000000E-03 0. -1.
        -11    1    4    4    0    0  0.13641616751E+02  0.78657531933E+01 -0.17582803491E+02  0.23603363314E+02  0.51100000000E-03 0.  1.
        -12    1    4    4    0    0 -0.15002417444E+02  0.73889717887E+01 -0.11120277134E+02  0.20083077373E+02  0.00000000000E+00 0.  1.
</event>
<event>
 8    1  0.1265908E-006  0.9118800E+02  0.7816164E-02  0.1184000E+00
        -11   -1    0    0    0    0  0.00000000000E+00  0.00000000000E+00  0.45593999997E+02  0.45594000000E+02  0.51100000000E-03 0.  1.
         11   -1    0    0    0    0 -0.00000000000E+00 -0.00000000000E+00 -0.45593999997E+02  0.45594000000E+02  0.51100000000E-03 0. -1.
         23    2    1    2    0    0  0.00000000000E+00  0.35527136788E-14  0.00000000000E+00  0.91188000000E+02  0.91188000000E+02 0.  0.
    9900012    2    3    3    0    0 -0.12211245549E+02 -0.20382973857E+02  0.28128238061E+02  0.54367110310E+02  0.40000059575E+02 0.  0.
         12    1    3    3    0    0  0.12211245549E+02  0.20382973857E+02 -0.28128238061E+02  0.36820889690E+02  0.00000000000E+00 0. -1.
         11    1    4    4    0    0 -0.33802358143E+01 -0.28903710373E+02  0.10903229024E+02  0.31076210691E+02  0.51100000000E-03 0. -1.
        -11    1    4    4    0    0 -0.10672602116E+01  0.62204174776E+01  0.12269318679E+02  0.13797420739E+02  0.51100000000E-03 0.  1.
        -12    1    4    4    0    0 -0.77637495229E+01  0.23003190379E+01  0.49556903579E+01  0.94934788804E+01  0.00000000000E+00 0.  1.
</event>
<event>
 8    1  0.1265908E-006  0.9118800E+02  0.7816164E-02  0.1184000E+00
        -11   -1    0    0    0    0  0.00000000000E+00  0.00000000000E+00  0.45593999997E+02  0.45594000000E+02  0.51100000000E-03 0.  1.
         11   -1    0    0    0    0 -0.00000000000E+00 -0.00000000000E+00 -0.45593999997E+02  0.45594000000E+02  0.51100000000E-03 0. -1.
         23    2    1    2    0    0 -0.35527136788E-14 -0.35527136788E-14 -0.13322676296E-14  0.91188000000E+02  0.91188000000E+02 0.  0.
    9900012    2    3    3    0    0 -0.25233231770E+02 -0.26683940376E+02 -0.26521523735E+01  0.54367047109E+02  0.39999915494E+02 0.  0.
        -12    1    3    3    0    0  0.25233231770E+02  0.26683940376E+02  0.26521523735E+01  0.36820952891E+02  0.00000000000E+00 0.  1.
         11    1    4    4    0    0 -0.73192421450E+01 -0.15484235627E+02  0.15009634057E+02  0.22773273224E+02  0.51100000000E-03 0. -1.
        -11    1    4    4    0    0 -0.42436599470E+01  0.34664540328E+01 -0.11004141427E+01  0.55889055148E+01  0.51100000000E-03 0.  1.
         12    1    4    4    0    0 -0.13670329678E+02 -0.14666158782E+02 -0.16561372287E+02  0.26004868371E+02  0.00000000000E+00 0. -1.
</event>
<event>
 8    1  0.1265908E-006  0.9118800E+02  0.7816164E-02  0.1184000E+00
        -11   -1    0    0    0    0  0.00000000000E+00  0.00000000000E+00  0.45593999997E+02  0.45594000000E+02  0.51100000000E-03 0.  1.
         11   -1    0    0    0    0 -0.00000000000E+00 -0.00000000000E+00 -0.45593999997E+02  0.45594000000E+02  0.51100000000E-03 0. -1.
         23    2    1    2    0    0  0.00000000000E+00  0.88817841970E-15  0.00000000000E+00  0.91188000000E+02  0.91188000000E+02 0.  0.
    9900012    2    3    3    0    0  0.34672277343E+02 -0.65622697011E+01 -0.10514342553E+02  0.54367060317E+02  0.39999945605E+02 0.  0.
        -12    1    3    3    0    0 -0.34672277343E+02  0.65622697011E+01  0.10514342553E+02  0.36820939683E+02  0.00000000000E+00 0.  1.
         11    1    4    4    0    0  0.26383599174E+02  0.62651925097E+01 -0.19962466243E+02  0.33672644703E+02  0.51100000000E-03 0. -1.
        -11    1    4    4    0    0  0.25359239900E+01 -0.12270159808E+02  0.54315297186E+01  0.13656106602E+02  0.51100000000E-03 0.  1.
         12    1    4    4    0    0  0.57527541797E+01 -0.55730240324E+00  0.40165939711E+01  0.70383090121E+01  0.00000000000E+00 0. -1.
</event>
<event>
 8    1  0.1265908E-006  0.9118800E+02  0.7816164E-02  0.1184000E+00
        -11   -1    0    0    0    0  0.00000000000E+00  0.00000000000E+00  0.45593999997E+02  0.45594000000E+02  0.51100000000E-03 0.  1.
         11   -1    0    0    0    0 -0.00000000000E+00 -0.00000000000E+00 -0.45593999997E+02  0.45594000000E+02  0.51100000000E-03 0. -1.
         23    2    1    2    0    0  0.00000000000E+00  0.00000000000E+00  0.00000000000E+00  0.91188000000E+02  0.91188000000E+02 0.  0.
    9900012    2    3    3    0    0  0.12089272760E+02  0.33908825534E+02 -0.77344694316E+01  0.54367068692E+02  0.39999964698E+02 0.  0.
        -12    1    3    3    0    0 -0.12089272760E+02 -0.33908825534E+02  0.77344694316E+01  0.36820931308E+02  0.00000000000E+00 0.  1.
         11    1    4    4    0    0  0.10082695703E+02  0.17161108936E+02 -0.12141187018E+02  0.23314648507E+02  0.51100000000E-03 0. -1.
        -11    1    4    4    0    0  0.10440502941E+01  0.70344440032E+01 -0.10830701203E+02  0.12956756240E+02  0.51100000000E-03 0.  1.
        -12    1    4    4    0    0  0.96252676356E+00  0.97132725949E+01  0.15237418789E+02  0.18095663945E+02  0.00000000000E+00 0.  1.
</event>
<event>
 8    1  0.1265908E-006  0.9118800E+02  0.7816164E-02  0.1184000E+00
        -11   -1    0    0    0    0  0.00000000000E+00  0.00000000000E+00  0.45593999997E+02  0.45594000000E+02  0.51100000000E-03 0.  1.
         11   -1    0    0    0    0 -0.00000000000E+00 -0.00000000000E+00 -0.45593999997E+02  0.45594000000E+02  0.51100000000E-03 0. -1.
         23    2    1    2    0    0  0.00000000000E+00  0.00000000000E+00  0.35527136788E-14  0.91188000000E+02  0.91188000000E+02 0.  0.
    9900012    2    3    3    0    0  0.10972855669E+02 -0.16983526171E+02  0.30772352104E+02  0.54367063337E+02  0.39999952489E+02 0.  0.
         12    1    3    3    0    0 -0.10972855669E+02  0.16983526171E+02 -0.30772352104E+02  0.36820936663E+02  0.00000000000E+00 0. -1.
         11    1    4    4    0    0  0.12294619078E+02 -0.33193844560E+01  0.17598370035E+01  0.12855854619E+02  0.51100000000E-03 0. -1.
        -11    1    4    4    0    0 -0.70037142765E+01 -0.13122464754E+02  0.33837172254E+01  0.15254528423E+02  0.51100000000E-03 0.  1.
         12    1    4    4    0    0  0.56819508677E+01 -0.54167696167E+00  0.25628797875E+02  0.26256680295E+02  0.00000000000E+00 0. -1.
</event>
<event>
 8    1  0.1265908E-006  0.9118800E+02  0.7816164E-02  0.1184000E+00
        -11   -1    0    0    0    0  0.00000000000E+00  0.00000000000E+00  0.45593999997E+02  0.45594000000E+02  0.51100000000E-03 0.  1.
         11   -1    0    0    0    0 -0.00000000000E+00 -0.00000000000E+00 -0.45593999997E+02  0.45594000000E+02  0.51100000000E-03 0. -1.
         23    2    1    2    0    0  0.00000000000E+00  0.71054273576E-14  0.35527136788E-14  0.91188000000E+02  0.91188000000E+02 0.  0.
    9900012    2    3    3    0    0  0.18266437972E+02 -0.29525664474E+02 -0.12261774615E+02  0.54367099202E+02  0.40000034251E+02 0.  0.
        -12    1    3    3    0    0 -0.18266437972E+02  0.29525664474E+02  0.12261774615E+02  0.36820900798E+02  0.00000000000E+00 0.  1.
         11    1    4    4    0    0 -0.45078897053E+01  0.67702033617E+00 -0.19967559496E+01  0.49765912746E+01  0.51100000000E-03 0. -1.
        -11    1    4    4    0    0 -0.17543853399E+01 -0.10903878076E+02  0.76208031362E+01  0.13418236312E+02  0.51100000000E-03 0.  1.
         12    1    4    4    0    0  0.24528713018E+02 -0.19298806735E+02 -0.17885821802E+02  0.35972271616E+02  0.00000000000E+00 0. -1.
</event>
<event>
 8    1  0.1265908E-006  0.9118800E+02  0.7816164E-02  0.1184000E+00
        -11   -1    0    0    0    0  0.00000000000E+00  0.00000000000E+00  0.45593999997E+02  0.45594000000E+02  0.51100000000E-03 0.  1.
         11   -1    0    0    0    0 -0.00000000000E+00 -0.00000000000E+00 -0.45593999997E+02  0.45594000000E+02  0.51100000000E-03 0. -1.
         23    2    1    2    0    0 -0.66613381478E-15  0.00000000000E+00  0.00000000000E+00  0.91188000000E+02  0.91188000000E+02 0.  0.
    9900012    2    3    3    0    0 -0.72848489839E+00  0.13311014356E+02 -0.34322952687E+02  0.54367097314E+02  0.40000029947E+02 0.  0.
        -12    1    3    3    0    0  0.72848489839E+00 -0.13311014356E+02  0.34322952687E+02  0.36820902686E+02  0.00000000000E+00 0.  1.
         11    1    4    4    0    0 -0.28792958788E+01 -0.35797913261E+01 -0.18897837182E+02  0.19448226169E+02  0.51100000000E-03 0. -1.
        -11    1    4    4    0    0 -0.62781683810E+01 -0.44792281771E+01 -0.71053752288E+01  0.10486431265E+02  0.51100000000E-03 0.  1.
        -12    1    4    4    0    0  0.84289793614E+01  0.21370033859E+02 -0.83197402761E+01  0.24432439880E+02  0.00000000000E+00 0.  1.
</event>
<event>
 8    1  0.1265908E-006  0.9118800E+02  0.7816164E-02  0.1184000E+00
        -11   -1    0    0    0    0  0.00000000000E+00  0.00000000000E+00  0.45593999997E+02  0.45594000000E+02  0.51100000000E-03 0.  1.
         11   -1    0    0    0    0 -0.00000000000E+00 -0.00000000000E+00 -0.45593999997E+02  0.45594000000E+02  0.51100000000E-03 0. -1.
         23    2    1    2    0    0  0.35527136788E-14  0.88817841970E-15 -0.35527136788E-14  0.91188000000E+02  0.91188000000E+02 0.  0.
    9900012    2    3    3    0    0 -0.31877105931E+02  0.55044234521E+01  0.17587764260E+02  0.54367109031E+02  0.40000056659E+02 0.  0.
         12    1    3    3    0    0  0.31877105931E+02 -0.55044234521E+01 -0.17587764260E+02  0.36820890969E+02  0.00000000000E+00 0. -1.
         11    1    4    4    0    0 -0.15836502815E+02  0.15907108684E+02  0.21935712823E+02  0.31384812018E+02  0.51100000000E-03 0.  1.
        -11    1    4    4    0    0 -0.54516860506E+01 -0.75402577826E+01  0.30038104477E+01  0.97774866755E+01  0.51100000000E-03 0. -1.
         12    1    4    4    0    0 -0.10588917065E+02 -0.28624274489E+01 -0.73517590107E+01  0.13204810338E+02  0.00000000000E+00 0. -1.
</event>
<event>
 8    1  0.1265908E-006  0.9118800E+02  0.7816164E-02  0.1184000E+00
        -11   -1    0    0    0    0  0.00000000000E+00  0.00000000000E+00  0.45593999997E+02  0.45594000000E+02  0.51100000000E-03 0. -1.
         11   -1    0    0    0    0 -0.00000000000E+00 -0.00000000000E+00 -0.45593999997E+02  0.45594000000E+02  0.51100000000E-03 0.  1.
         23    2    1    2    0    0  0.00000000000E+00  0.17763568394E-14  0.00000000000E+00  0.91188000000E+02  0.91188000000E+02 0.  0.
    9900012    2    3    3    0    0 -0.71030098691E+01  0.99473861767E+01 -0.34732923898E+02  0.54367092305E+02  0.40000018528E+02 0.  0.
         12    1    3    3    0    0  0.71030098691E+01 -0.99473861767E+01  0.34732923898E+02  0.36820907695E+02  0.00000000000E+00 0. -1.
         11    1    4    4    0    0 -0.32539789814E+01  0.61289053373E+01  0.37585522818E+00  0.69493256693E+01  0.51100000000E-03 0. -1.
        -11    1    4    4    0    0 -0.15491421013E+02 -0.58268818112E+01 -0.21001038696E+02  0.26739115603E+02  0.51100000000E-03 0.  1.
        -12    1    4    4    0    0  0.11642390125E+02  0.96453626507E+01 -0.14107740431E+02  0.20678651033E+02  0.00000000000E+00 0.  1.
</event>
<event>
 8    1  0.1265908E-006  0.9118800E+02  0.7816164E-02  0.1184000E+00
        -11   -1    0    0    0    0  0.00000000000E+00  0.00000000000E+00  0.45593999997E+02  0.45594000000E+02  0.51100000000E-03 0. -1.
         11   -1    0    0    0    0 -0.00000000000E+00 -0.00000000000E+00 -0.45593999997E+02  0.45594000000E+02  0.51100000000E-03 0.  1.
         23    2    1    2    0    0  0.00000000000E+00  0.00000000000E+00  0.00000000000E+00  0.91188000000E+02  0.91188000000E+02 0.  0.
    9900012    2    3    3    0    0  0.23028121125E+02  0.27566285247E+02 -0.80984810785E+01  0.54367084196E+02  0.40000000043E+02 0.  0.
         12    1    3    3    0    0 -0.23028121125E+02 -0.27566285247E+02  0.80984810785E+01  0.36820915804E+02  0.00000000000E+00 0. -1.
         11    1    4    4    0    0  0.12115846669E+02  0.26057172070E+02 -0.12733406668E+02  0.31431029293E+02  0.51100000000E-03 0. -1.
        -11    1    4    4    0    0  0.16535022293E+02 -0.29738765738E+00  0.38325198590E+01  0.16975971559E+02  0.51100000000E-03 0.  1.
         12    1    4    4    0    0 -0.56227478376E+01  0.18065008339E+01  0.80240573079E+00  0.59600833438E+01  0.00000000000E+00 0. -1.
</event>
<event>
 8    1  0.1265908E-006  0.9118800E+02  0.7816164E-02  0.1184000E+00
        -11   -1    0    0    0    0  0.00000000000E+00  0.00000000000E+00  0.45593999997E+02  0.45594000000E+02  0.51100000000E-03 0. -1.
         11   -1    0    0    0    0 -0.00000000000E+00 -0.00000000000E+00 -0.45593999997E+02  0.45594000000E+02  0.51100000000E-03 0.  1.
         23    2    1    2    0    0 -0.17763568394E-14  0.00000000000E+00 -0.66613381478E-15  0.91188000000E+02  0.91188000000E+02 0.  0.
    9900012    2    3    3    0    0  0.12114285498E+02 -0.34724661511E+02  0.17947828986E+01  0.54367091865E+02  0.40000017525E+02 0.  0.
         12    1    3    3    0    0 -0.12114285498E+02  0.34724661511E+02 -0.17947828986E+01  0.36820908135E+02  0.00000000000E+00 0. -1.
         11    1    4    4    0    0  0.11074491603E+02 -0.13524037079E+02  0.17176022745E+02  0.24506319609E+02  0.51100000000E-03 0. -1.
        -11    1    4    4    0    0 -0.26059770483E+01 -0.86574322013E+01  0.78698067028E+00  0.90753285083E+01  0.51100000000E-03 0.  1.
        -12    1    4    4    0    0  0.36457709440E+01 -0.12543192231E+02 -0.16168220517E+02  0.20785443748E+02  0.00000000000E+00 0.  1.
</event>
<event>
 8    1  0.1265908E-006  0.9118800E+02  0.7816164E-02  0.1184000E+00
        -11   -1    0    0    0    0  0.00000000000E+00  0.00000000000E+00  0.45593999997E+02  0.45594000000E+02  0.51100000000E-03 0.  1.
         11   -1    0    0    0    0 -0.00000000000E+00 -0.00000000000E+00 -0.45593999997E+02  0.45594000000E+02  0.51100000000E-03 0. -1.
         23    2    1    2    0    0  0.00000000000E+00  0.35527136788E-14  0.00000000000E+00  0.91188000000E+02  0.91188000000E+02 0.  0.
    9900012    2    3    3    0    0  0.99856038723E+01 -0.21062412955E+02 -0.28503365592E+02  0.54367090529E+02  0.40000014479E+02 0.  0.
         12    1    3    3    0    0 -0.99856038723E+01  0.21062412955E+02  0.28503365592E+02  0.36820909471E+02  0.00000000000E+00 0. -1.
         11    1    4    4    0    0  0.39373471096E+01 -0.72562155197E+01 -0.15364698595E+02  0.17442170998E+02  0.51100000000E-03 0. -1.
        -11    1    4    4    0    0  0.18580335380E+01  0.10073218883E+02 -0.33180553528E+01  0.10767149989E+02  0.51100000000E-03 0.  1.
         12    1    4    4    0    0  0.41902232248E+01 -0.23879416318E+02 -0.98206116445E+01  0.26157769543E+02  0.00000000000E+00 0. -1.
</event>
<event>
 8    1  0.1265908E-006  0.9118800E+02  0.7816164E-02  0.1184000E+00
        -11   -1    0    0    0    0  0.00000000000E+00  0.00000000000E+00  0.45593999997E+02  0.45594000000E+02  0.51100000000E-03 0.  1.
         11   -1    0    0    0    0 -0.00000000000E+00 -0.00000000000E+00 -0.45593999997E+02  0.45594000000E+02  0.51100000000E-03 0. -1.
         23    2    1    2    0    0  0.35527136788E-14  0.00000000000E+00  0.00000000000E+00  0.91188000000E+02  0.91188000000E+02 0.  0.
    9900012    2    3    3    0    0 -0.21292906008E+02 -0.23172487380E+02  0.19116206844E+02  0.54367063269E+02  0.39999952334E+02 0.  0.
         12    1    3    3    0    0  0.21292906008E+02  0.23172487380E+02 -0.19116206844E+02  0.36820936731E+02  0.00000000000E+00 0. -1.
         11    1    4    4    0    0 -0.21999675180E+02 -0.11743525066E+02  0.38131671853E+01  0.25227689812E+02  0.51100000000E-03 0. -1.
        -11    1    4    4    0    0  0.98267857551E+01 -0.11046080826E+02  0.55785817044E+01  0.15801968042E+02  0.51100000000E-03 0.  1.
        -12    1    4    4    0    0 -0.91200165833E+01 -0.38288148792E+00  0.97244579543E+01  0.13337405416E+02  0.00000000000E+00 0.  1.
</event>
<event>
 8    1  0.1265908E-006  0.9118800E+02  0.7816164E-02  0.1184000E+00
        -11   -1    0    0    0    0  0.00000000000E+00  0.00000000000E+00  0.45593999997E+02  0.45594000000E+02  0.51100000000E-03 0.  1.
         11   -1    0    0    0    0 -0.00000000000E+00 -0.00000000000E+00 -0.45593999997E+02  0.45594000000E+02  0.51100000000E-03 0. -1.
         23    2    1    2    0    0  0.35527136788E-14  0.00000000000E+00  0.00000000000E+00  0.91188000000E+02  0.91188000000E+02 0.  0.
    9900012    2    3    3    0    0 -0.19428975657E+02 -0.23202127646E+02 -0.20975143733E+02  0.54367075555E+02  0.39999980342E+02 0.  0.
        -12    1    3    3    0    0  0.19428975657E+02  0.23202127646E+02  0.20975143733E+02  0.36820924445E+02  0.00000000000E+00 0.  1.
         11    1    4    4    0    0  0.37967486794E+01  0.77824215239E+00 -0.33372873065E+01  0.51145330392E+01  0.51100000000E-03 0. -1.
        -11    1    4    4    0    0 -0.16237199436E+02 -0.27984658042E+02 -0.29335866516E+01  0.32486822900E+02  0.51100000000E-03 0.  1.
         12    1    4    4    0    0 -0.69885248996E+01  0.40042882431E+01 -0.14704269775E+02  0.16765719615E+02  0.00000000000E+00 0. -1.
</event>
<event>
 8    1  0.1265908E-006  0.9118800E+02  0.7816164E-02  0.1184000E+00
        -11   -1    0    0    0    0  0.00000000000E+00  0.00000000000E+00  0.45593999997E+02  0.45594000000E+02  0.51100000000E-03 0. -1.
         11   -1    0    0    0    0 -0.00000000000E+00 -0.00000000000E+00 -0.45593999997E+02  0.45594000000E+02  0.51100000000E-03 0.  1.
         23    2    1    2    0    0  0.35527136788E-14 -0.35527136788E-14  0.00000000000E+00  0.91188000000E+02  0.91188000000E+02 0.  0.
    9900012    2    3    3    0    0  0.30132051266E+02  0.19308779733E+02  0.86608897800E+01  0.54367075241E+02  0.39999979627E+02 0.  0.
        -12    1    3    3    0    0 -0.30132051266E+02 -0.19308779733E+02 -0.86608897800E+01  0.36820924759E+02  0.00000000000E+00 0.  1.
         11    1    4    4    0    0  0.11208157626E+02 -0.53799889060E+01  0.77501967706E+01  0.14650345670E+02  0.51100000000E-03 0. -1.
        -11    1    4    4    0    0 -0.49065342846E+01  0.64930767248E+01  0.48534030060E+01  0.94757398149E+01  0.51100000000E-03 0.  1.
         12    1    4    4    0    0  0.23830427925E+02  0.18195691915E+02 -0.39427099965E+01  0.30240989756E+02  0.00000000000E+00 0. -1.
</event>
<event>
 8    1  0.1265908E-006  0.9118800E+02  0.7816164E-02  0.1184000E+00
        -11   -1    0    0    0    0  0.00000000000E+00  0.00000000000E+00  0.45593999997E+02  0.45594000000E+02  0.51100000000E-03 0. -1.
         11   -1    0    0    0    0 -0.00000000000E+00 -0.00000000000E+00 -0.45593999997E+02  0.45594000000E+02  0.51100000000E-03 0.  1.
         23    2    1    2    0    0  0.00000000000E+00  0.00000000000E+00  0.00000000000E+00  0.91188000000E+02  0.91188000000E+02 0.  0.
    9900012    2    3    3    0    0 -0.15316552919E+02 -0.25428090535E+02  0.21785118315E+02  0.54367136871E+02  0.40000120125E+02 0.  0.
        -12    1    3    3    0    0  0.15316552919E+02  0.25428090535E+02 -0.21785118315E+02  0.36820863129E+02  0.00000000000E+00 0.  1.
         11    1    4    4    0    0 -0.12592444857E+02  0.28886797950E+01  0.67648174807E+01  0.14583445898E+02  0.51100000000E-03 0. -1.
        -11    1    4    4    0    0 -0.23427037540E+00  0.15077387002E+01 -0.40283352729E+01  0.43076262523E+01  0.51100000000E-03 0.  1.
        -12    1    4    4    0    0 -0.24898376866E+01 -0.29824509030E+02  0.19048636107E+02  0.35476064721E+02  0.00000000000E+00 0.  1.
</event>
<event>
 8    1  0.1265908E-006  0.9118800E+02  0.7816164E-02  0.1184000E+00
        -11   -1    0    0    0    0  0.00000000000E+00  0.00000000000E+00  0.45593999997E+02  0.45594000000E+02  0.51100000000E-03 0.  1.
         11   -1    0    0    0    0 -0.00000000000E+00 -0.00000000000E+00 -0.45593999997E+02  0.45594000000E+02  0.51100000000E-03 0. -1.
         23    2    1    2    0    0 -0.17763568394E-14  0.00000000000E+00  0.35527136788E-14  0.91188000000E+02  0.91188000000E+02 0.  0.
    9900012    2    3    3    0    0 -0.69414224179E+01 -0.21508307025E+02  0.29068692519E+02  0.54367088808E+02  0.40000010555E+02 0.  0.
         12    1    3    3    0    0  0.69414224179E+01  0.21508307025E+02 -0.29068692519E+02  0.36820911192E+02  0.00000000000E+00 0. -1.
         11    1    4    4    0    0 -0.12454666652E+02  0.46053938083E+01  0.16110345543E+02  0.20877538344E+02  0.51100000000E-03 0. -1.
        -11    1    4    4    0    0 -0.22800534403E+01 -0.21402042677E+02  0.11013460852E+02  0.24177311567E+02  0.51100000000E-03 0.  1.
        -12    1    4    4    0    0  0.77932976740E+01 -0.47116581570E+01  0.19448861236E+01  0.93122388961E+01  0.00000000000E+00 0.  1.
</event>
<event>
 8    1  0.1265908E-006  0.9118800E+02  0.7816164E-02  0.1184000E+00
        -11   -1    0    0    0    0  0.00000000000E+00  0.00000000000E+00  0.45593999997E+02  0.45594000000E+02  0.51100000000E-03 0.  1.
         11   -1    0    0    0    0 -0.00000000000E+00 -0.00000000000E+00 -0.45593999997E+02  0.45594000000E+02  0.51100000000E-03 0. -1.
         23    2    1    2    0    0  0.00000000000E+00  0.00000000000E+00 -0.35527136788E-14  0.91188000000E+02  0.91188000000E+02 0.  0.
    9900012    2    3    3    0    0  0.19012223152E+02 -0.20633165103E+02 -0.23845047139E+02  0.54367103699E+02  0.40000044504E+02 0.  0.
        -12    1    3    3    0    0 -0.19012223152E+02  0.20633165103E+02  0.23845047139E+02  0.36820896301E+02  0.00000000000E+00 0.  1.
         11    1    4    4    0    0 -0.70843916354E+01 -0.51699759748E+01 -0.50518129113E+01  0.10121169417E+02  0.51100000000E-03 0. -1.
        -11    1    4    4    0    0  0.35267003445E+01 -0.11409871794E+01  0.64761213428E+01  0.74618774428E+01  0.51100000000E-03 0.  1.
         12    1    4    4    0    0  0.22569914443E+02 -0.14322201948E+02 -0.25269355570E+02  0.36784056839E+02  0.00000000000E+00 0. -1.
</event>
<event>
 8    1  0.1265908E-006  0.9118800E+02  0.7816164E-02  0.1184000E+00
        -11   -1    0    0    0    0  0.00000000000E+00  0.00000000000E+00  0.45593999997E+02  0.45594000000E+02  0.51100000000E-03 0.  1.
         11   -1    0    0    0    0 -0.00000000000E+00 -0.00000000000E+00 -0.45593999997E+02  0.45594000000E+02  0.51100000000E-03 0. -1.
         23    2    1    2    0    0 -0.15543122345E-14  0.00000000000E+00  0.88817841970E-15  0.91188000000E+02  0.91188000000E+02 0.  0.
    9900012    2    3    3    0    0 -0.10498415744E+01  0.36084050818E+02  0.72538842231E+01  0.54367085738E+02  0.40000003556E+02 0.  0.
        -12    1    3    3    0    0  0.10498415744E+01 -0.36084050818E+02 -0.72538842231E+01  0.36820914262E+02  0.00000000000E+00 0.  1.
         11    1    4    4    0    0 -0.11367887753E+01  0.10975959873E+02 -0.22930678740E+01  0.11270410125E+02  0.51100000000E-03 0. -1.
        -11    1    4    4    0    0 -0.11956757504E+02  0.97255624256E+01 -0.75254238588E+01  0.17151752651E+02  0.51100000000E-03 0.  1.
        -12    1    4    4    0    0  0.12043704705E+02  0.15382528520E+02  0.17072375956E+02  0.25944922961E+02  0.00000000000E+00 0.  1.
</event>
<event>
 8    1  0.1265908E-006  0.9118800E+02  0.7816164E-02  0.1184000E+00
        -11   -1    0    0    0    0  0.00000000000E+00  0.00000000000E+00  0.45593999997E+02  0.45594000000E+02  0.51100000000E-03 0.  1.
         11   -1    0    0    0    0 -0.00000000000E+00 -0.00000000000E+00 -0.45593999997E+02  0.45594000000E+02  0.51100000000E-03 0. -1.
         23    2    1    2    0    0  0.00000000000E+00  0.44408920985E-15  0.00000000000E+00  0.91188000000E+02  0.91188000000E+02 0.  0.
    9900012    2    3    3    0    0 -0.34963994034E+02  0.27028914505E+01  0.11224699728E+02  0.54367076804E+02  0.39999983191E+02 0.  0.
        -12    1    3    3    0    0  0.34963994034E+02 -0.27028914505E+01 -0.11224699728E+02  0.36820923196E+02  0.00000000000E+00 0.  1.
         11    1    4    4    0    0 -0.53492670870E+01 -0.34671033392E+01  0.52571720025E+01  0.82627671913E+01  0.51100000000E-03 0. -1.
        -11    1    4    4    0    0 -0.85007331646E+01  0.17985525125E+02  0.87829772213E+01  0.21745856329E+02  0.51100000000E-03 0.  1.
         12    1    4    4    0    0 -0.21113993782E+02 -0.11815530335E+02 -0.28154494953E+01  0.24358453284E+02  0.00000000000E+00 0. -1.
</event>
<event>
 8    1  0.1265908E-006  0.9118800E+02  0.7816164E-02  0.1184000E+00
        -11   -1    0    0    0    0  0.00000000000E+00  0.00000000000E+00  0.45593999997E+02  0.45594000000E+02  0.51100000000E-03 0.  1.
         11   -1    0    0    0    0 -0.00000000000E+00 -0.00000000000E+00 -0.45593999997E+02  0.45594000000E+02  0.51100000000E-03 0. -1.
         23    2    1    2    0    0 -0.88817841970E-15  0.00000000000E+00 -0.35527136788E-14  0.91188000000E+02  0.91188000000E+02 0.  0.
    9900012    2    3    3    0    0 -0.17483967031E+01 -0.31938805594E+02 -0.18238298943E+02  0.54367085534E+02  0.40000003091E+02 0.  0.
        -12    1    3    3    0    0  0.17483967031E+01  0.31938805594E+02  0.18238298943E+02  0.36820914466E+02  0.00000000000E+00 0.  1.
         11    1    4    4    0    0 -0.72018154634E+01 -0.75031888433E+01 -0.22374877232E+02  0.24673854993E+02  0.51100000000E-03 0. -1.
        -11    1    4    4    0    0  0.46233109596E+01 -0.15358034177E+02 -0.49870214391E+01  0.16796267475E+02  0.51100000000E-03 0.  1.
        -12    1    4    4    0    0  0.83010780075E+00 -0.90775825737E+01  0.91235997276E+01  0.12896963066E+02  0.00000000000E+00 0.  1.
</event>
<event>
 8    1  0.1265908E-006  0.9118800E+02  0.7816164E-02  0.1184000E+00
        -11   -1    0    0    0    0  0.00000000000E+00  0.00000000000E+00  0.45593999997E+02  0.45594000000E+02  0.51100000000E-03 0. -1.
         11   -1    0    0    0    0 -0.00000000000E+00 -0.00000000000E+00 -0.45593999997E+02  0.45594000000E+02  0.51100000000E-03 0.  1.
         23    2    1    2    0    0  0.00000000000E+00 -0.17763568394E-14  0.00000000000E+00  0.91188000000E+02  0.91188000000E+02 0.  0.
    9900012    2    3    3    0    0 -0.25105733191E+02 -0.11725262587E+02  0.24248716230E+02  0.54367083925E+02  0.39999999423E+02 0.  0.
        -12    1    3    3    0    0  0.25105733191E+02  0.11725262587E+02 -0.24248716230E+02  0.36820916075E+02  0.00000000000E+00 0.  1.
         11    1    4    4    0    0 -0.19652173579E+02  0.36984282100E+01  0.22946279227E+01  0.20128378354E+02  0.51100000000E-03 0. -1.
        -11    1    4    4    0    0  0.31707987441E+01  0.27112454733E+01 -0.39804605932E+00  0.41908540441E+01  0.51100000000E-03 0.  1.
         12    1    4    4    0    0 -0.86243583566E+01 -0.18134936270E+02  0.22352134367E+02  0.30047851526E+02  0.00000000000E+00 0. -1.
</event>
<event>
 8    1  0.1265908E-006  0.9118800E+02  0.7816164E-02  0.1184000E+00
        -11   -1    0    0    0    0  0.00000000000E+00  0.00000000000E+00  0.45593999997E+02  0.45594000000E+02  0.51100000000E-03 0.  1.
         11   -1    0    0    0    0 -0.00000000000E+00 -0.00000000000E+00 -0.45593999997E+02  0.45594000000E+02  0.51100000000E-03 0. -1.
         23    2    1    2    0    0  0.44408920985E-15  0.00000000000E+00 -0.88817841970E-15  0.91188000000E+02  0.91188000000E+02 0.  0.
    9900012    2    3    3    0    0  0.25449686374E+01  0.36466617260E+02 -0.44145461283E+01  0.54367092117E+02  0.40000018100E+02 0.  0.
        -12    1    3    3    0    0 -0.25449686374E+01 -0.36466617260E+02  0.44145461283E+01  0.36820907883E+02  0.00000000000E+00 0.  1.
         11    1    4    4    0    0 -0.36822237349E+01  0.14286201949E+02 -0.75660274849E+01  0.16580081722E+02  0.51100000000E-03 0. -1.
        -11    1    4    4    0    0  0.80237580037E+01  0.47199717732E+01 -0.11589750318E+02  0.14865434361E+02  0.51100000000E-03 0.  1.
        -12    1    4    4    0    0 -0.17965656314E+01  0.17460443538E+02  0.14741231674E+02  0.22921576034E+02  0.00000000000E+00 0.  1.
</event>
<event>
 8    1  0.1265908E-006  0.9118800E+02  0.7816164E-02  0.1184000E+00
        -11   -1    0    0    0    0  0.00000000000E+00  0.00000000000E+00  0.45593999997E+02  0.45594000000E+02  0.51100000000E-03 0. -1.
         11   -1    0    0    0    0 -0.00000000000E+00 -0.00000000000E+00 -0.45593999997E+02  0.45594000000E+02  0.51100000000E-03 0.  1.
         23    2    1    2    0    0  0.88817841970E-15  0.00000000000E+00  0.00000000000E+00  0.91188000000E+02  0.91188000000E+02 0.  0.
    9900012    2    3    3    0    0 -0.77443629339E+01  0.12252997358E+02 -0.33847736382E+02  0.54367077148E+02  0.39999983974E+02 0.  0.
         12    1    3    3    0    0  0.77443629339E+01 -0.12252997358E+02  0.33847736382E+02  0.36820922852E+02  0.00000000000E+00 0. -1.
         11    1    4    4    0    0 -0.64112308304E+01  0.61054171075E+01  0.13515562368E+01  0.89558195236E+01  0.51100000000E-03 0. -1.
        -11    1    4    4    0    0  0.90500433491E+01  0.11456746743E+02 -0.10153386960E+02  0.17783464161E+02  0.51100000000E-03 0.  1.
         12    1    4    4    0    0 -0.10383175453E+02 -0.53091664930E+01 -0.25045905659E+02  0.27627793463E+02  0.00000000000E+00 0. -1.
</event>
<event>
 8    1  0.1265908E-006  0.9118800E+02  0.7816164E-02  0.1184000E+00
        -11   -1    0    0    0    0  0.00000000000E+00  0.00000000000E+00  0.45593999997E+02  0.45594000000E+02  0.51100000000E-03 0. -1.
         11   -1    0    0    0    0 -0.00000000000E+00 -0.00000000000E+00 -0.45593999997E+02  0.45594000000E+02  0.51100000000E-03 0.  1.
         23    2    1    2    0    0 -0.35527136788E-14  0.00000000000E+00  0.00000000000E+00  0.91188000000E+02  0.91188000000E+02 0.  0.
    9900012    2    3    3    0    0 -0.80729197804E+01  0.97053434329E+01 -0.34589202280E+02  0.54367100509E+02  0.40000037231E+02 0.  0.
         12    1    3    3    0    0  0.80729197804E+01 -0.97053434329E+01  0.34589202280E+02  0.36820899491E+02  0.00000000000E+00 0. -1.
         11    1    4    4    0    0  0.60397112122E+01  0.67207952385E+01 -0.22253244966E+02  0.24017787408E+02  0.51100000000E-03 0.  1.
        -11    1    4    4    0    0 -0.17195860516E+02  0.99759479597E+01 -0.72053062101E+01  0.21145533676E+02  0.51100000000E-03 0. -1.
         12    1    4    4    0    0  0.30832295236E+01 -0.69913997653E+01 -0.51306511038E+01  0.92037794260E+01  0.00000000000E+00 0. -1.
</event>
<event>
 8    1  0.1265908E-006  0.9118800E+02  0.7816164E-02  0.1184000E+00
        -11   -1    0    0    0    0  0.00000000000E+00  0.00000000000E+00  0.45593999997E+02  0.45594000000E+02  0.51100000000E-03 0. -1.
         11   -1    0    0    0    0 -0.00000000000E+00 -0.00000000000E+00 -0.45593999997E+02  0.45594000000E+02  0.51100000000E-03 0.  1.
         23    2    1    2    0    0  0.35527136788E-14  0.00000000000E+00  0.00000000000E+00  0.91188000000E+02  0.91188000000E+02 0.  0.
    9900012    2    3    3    0    0 -0.16651455928E+02 -0.24617217242E+01 -0.32748262047E+02  0.54367085760E+02  0.40000003607E+02 0.  0.
         12    1    3    3    0    0  0.16651455928E+02  0.24617217242E+01  0.32748262047E+02  0.36820914240E+02  0.00000000000E+00 0. -1.
         11    1    4    4    0    0  0.53774446217E+01  0.54380491310E+01 -0.11968317373E+02  0.14203165493E+02  0.51100000000E-03 0.  1.
        -11    1    4    4    0    0  0.86176374172E+00  0.63212452643E+01 -0.42849161000E+00  0.63940897522E+01  0.51100000000E-03 0. -1.
        -12    1    4    4    0    0 -0.22890664292E+02 -0.14221016120E+02 -0.20351453064E+02  0.33769830515E+02  0.00000000000E+00 0.  1.
</event>
<event>
 8    1  0.1265908E-006  0.9118800E+02  0.7816164E-02  0.1184000E+00
        -11   -1    0    0    0    0  0.00000000000E+00  0.00000000000E+00  0.45593999997E+02  0.45594000000E+02  0.51100000000E-03 0. -1.
         11   -1    0    0    0    0 -0.00000000000E+00 -0.00000000000E+00 -0.45593999997E+02  0.45594000000E+02  0.51100000000E-03 0.  1.
         23    2    1    2    0    0  0.00000000000E+00  0.00000000000E+00 -0.71054273576E-14  0.91188000000E+02  0.91188000000E+02 0.  0.
    9900012    2    3    3    0    0  0.20227416421E+02  0.10352191323E+02  0.28973493833E+02  0.54367087666E+02  0.40000007952E+02 0.  0.
        -12    1    3    3    0    0 -0.20227416421E+02 -0.10352191323E+02 -0.28973493833E+02  0.36820912334E+02  0.00000000000E+00 0.  1.
         11    1    4    4    0    0  0.67425482570E+01  0.72212880686E+01  0.19343731979E+02  0.21720702694E+02  0.51100000000E-03 0. -1.
        -11    1    4    4    0    0  0.14003381121E+02  0.10280250740E+02 -0.34688214235E+01  0.17714710283E+02  0.51100000000E-03 0.  1.
        -12    1    4    4    0    0 -0.51851295723E+00 -0.71493474854E+01  0.13098583277E+02  0.14931674689E+02  0.00000000000E+00 0.  1.
</event>
<event>
 8    1  0.1265908E-006  0.9118800E+02  0.7816164E-02  0.1184000E+00
        -11   -1    0    0    0    0  0.00000000000E+00  0.00000000000E+00  0.45593999997E+02  0.45594000000E+02  0.51100000000E-03 0.  1.
         11   -1    0    0    0    0 -0.00000000000E+00 -0.00000000000E+00 -0.45593999997E+02  0.45594000000E+02  0.51100000000E-03 0. -1.
         23    2    1    2    0    0 -0.22204460493E-15  0.00000000000E+00  0.00000000000E+00  0.91188000000E+02  0.91188000000E+02 0.  0.
    9900012    2    3    3    0    0 -0.13759100446E+01 -0.19197840746E+02 -0.31389969365E+02  0.54367076676E+02  0.39999982897E+02 0.  0.
        -12    1    3    3    0    0  0.13759100446E+01  0.19197840746E+02  0.31389969365E+02  0.36820923324E+02  0.00000000000E+00 0.  1.
         11    1    4    4    0    0 -0.99184416892E+01 -0.20432087371E+01 -0.16324159064E+02  0.19210110798E+02  0.51100000000E-03 0. -1.
        -11    1    4    4    0    0  0.15552314357E+02 -0.16294839802E+02 -0.16535761955E+02  0.27943294539E+02  0.51100000000E-03 0.  1.
        -12    1    4    4    0    0 -0.70097827121E+01 -0.85979220682E+00  0.14699516540E+01  0.72136713382E+01  0.00000000000E+00 0.  1.
</event>
<event>
 8    1  0.1265908E-006  0.9118800E+02  0.7816164E-02  0.1184000E+00
        -11   -1    0    0    0    0  0.00000000000E+00  0.00000000000E+00  0.45593999997E+02  0.45594000000E+02  0.51100000000E-03 0. -1.
         11   -1    0    0    0    0 -0.00000000000E+00 -0.00000000000E+00 -0.45593999997E+02  0.45594000000E+02  0.51100000000E-03 0.  1.
         23    2    1    2    0    0  0.17763568394E-14 -0.35527136788E-14  0.00000000000E+00  0.91188000000E+02  0.91188000000E+02 0.  0.
    9900012    2    3    3    0    0 -0.10820738116E+02  0.25888885873E+02 -0.23842189126E+02  0.54367180245E+02  0.40000219004E+02 0.  0.
         12    1    3    3    0    0  0.10820738116E+02 -0.25888885873E+02  0.23842189126E+02  0.36820819755E+02  0.00000000000E+00 0. -1.
         11    1    4    4    0    0  0.26728949279E+01 -0.21504352662E+01 -0.72558789217E+01  0.80259901768E+01  0.51100000000E-03 0. -1.
        -11    1    4    4    0    0 -0.22259089760E+02  0.20112215787E+02 -0.17064414255E+02  0.34513222610E+02  0.51100000000E-03 0.  1.
         12    1    4    4    0    0  0.87654567164E+01  0.79271053518E+01  0.47810405036E+00  0.11827967458E+02  0.00000000000E+00 0. -1.
</event>
<event>
 8    1  0.1265908E-006  0.9118800E+02  0.7816164E-02  0.1184000E+00
        -11   -1    0    0    0    0  0.00000000000E+00  0.00000000000E+00  0.45593999997E+02  0.45594000000E+02  0.51100000000E-03 0.  1.
         11   -1    0    0    0    0 -0.00000000000E+00 -0.00000000000E+00 -0.45593999997E+02  0.45594000000E+02  0.51100000000E-03 0. -1.
         23    2    1    2    0    0  0.00000000000E+00  0.00000000000E+00  0.00000000000E+00  0.91188000000E+02  0.91188000000E+02 0.  0.
    9900012    2    3    3    0    0  0.23718242323E+02  0.22699766352E+02 -0.16671703044E+02  0.54367080760E+02  0.39999992208E+02 0.  0.
        -12    1    3    3    0    0 -0.23718242323E+02 -0.22699766352E+02  0.16671703044E+02  0.36820919240E+02  0.00000000000E+00 0.  1.
         11    1    4    4    0    0 -0.33682454811E+01  0.53190123814E+01 -0.13169205248E+02  0.14596744071E+02  0.51100000000E-03 0. -1.
        -11    1    4    4    0    0  0.21076660499E+01 -0.48728553966E+01 -0.34218318831E+01  0.63163208905E+01  0.51100000000E-03 0.  1.
        -12    1    4    4    0    0  0.24978821754E+02  0.22253609367E+02 -0.80665912607E-01  0.33454015799E+02  0.00000000000E+00 0.  1.
</event>
<event>
 8    1  0.1265908E-006  0.9118800E+02  0.7816164E-02  0.1184000E+00
        -11   -1    0    0    0    0  0.00000000000E+00  0.00000000000E+00  0.45593999997E+02  0.45594000000E+02  0.51100000000E-03 0.  1.
         11   -1    0    0    0    0 -0.00000000000E+00 -0.00000000000E+00 -0.45593999997E+02  0.45594000000E+02  0.51100000000E-03 0. -1.
         23    2    1    2    0    0 -0.17763568394E-14  0.71054273576E-14  0.55511151231E-16  0.91188000000E+02  0.91188000000E+02 0.  0.
    9900012    2    3    3    0    0 -0.12354812258E+02  0.34683332021E+02 -0.45341013375E+00  0.54367075422E+02  0.39999980040E+02 0.  0.
        -12    1    3    3    0    0  0.12354812258E+02 -0.34683332021E+02  0.45341013375E+00  0.36820924578E+02  0.00000000000E+00 0.  1.
         11    1    4    4    0    0 -0.43922273442E+01  0.56277696379E+01 -0.77665894216E+01  0.10549093025E+02  0.51100000000E-03 0. -1.
        -11    1    4    4    0    0 -0.46498125696E+01 -0.60764150760E+01 -0.52766380242E+00  0.76695506034E+01  0.51100000000E-03 0.  1.
        -12    1    4    4    0    0 -0.33127723443E+01  0.35131977459E+02  0.78408430903E+01  0.36148431794E+02  0.00000000000E+00 0.  1.
</event>
<event>
 8    1  0.1265908E-006  0.9118800E+02  0.7816164E-02  0.1184000E+00
        -11   -1    0    0    0    0  0.00000000000E+00  0.00000000000E+00  0.45593999997E+02  0.45594000000E+02  0.51100000000E-03 0.  1.
         11   -1    0    0    0    0 -0.00000000000E+00 -0.00000000000E+00 -0.45593999997E+02  0.45594000000E+02  0.51100000000E-03 0. -1.
         23    2    1    2    0    0 -0.17763568394E-14 -0.35527136788E-14  0.00000000000E+00  0.91188000000E+02  0.91188000000E+02 0.  0.
    9900012    2    3    3    0    0 -0.11558844581E+02 -0.23983431545E+02  0.25435575766E+02  0.54367076719E+02  0.39999982996E+02 0.  0.
         12    1    3    3    0    0  0.11558844581E+02  0.23983431545E+02 -0.25435575766E+02  0.36820923281E+02  0.00000000000E+00 0. -1.
         11    1    4    4    0    0  0.33734505280E+01  0.36964758413E+00 -0.27428443752E+01  0.43634852274E+01  0.51100000000E-03 0. -1.
        -11    1    4    4    0    0 -0.22109068907E+02 -0.22771918243E+02  0.15435434044E+02  0.35293396164E+02  0.51100000000E-03 0.  1.
        -12    1    4    4    0    0  0.71767737979E+01 -0.15811608856E+01  0.12742986098E+02  0.14710195328E+02  0.00000000000E+00 0.  1.
</event>
<event>
 8    1  0.1265908E-006  0.9118800E+02  0.7816164E-02  0.1184000E+00
        -11   -1    0    0    0    0  0.00000000000E+00  0.00000000000E+00  0.45593999997E+02  0.45594000000E+02  0.51100000000E-03 0.  1.
         11   -1    0    0    0    0 -0.00000000000E+00 -0.00000000000E+00 -0.45593999997E+02  0.45594000000E+02  0.51100000000E-03 0. -1.
         23    2    1    2    0    0  0.00000000000E+00  0.00000000000E+00  0.17763568394E-14  0.91188000000E+02  0.91188000000E+02 0.  0.
    9900012    2    3    3    0    0 -0.35924430539E+02  0.57112610943E+01 -0.57093546036E+01  0.54367082808E+02  0.39999996877E+02 0.  0.
         12    1    3    3    0    0  0.35924430539E+02 -0.57112610943E+01  0.57093546036E+01  0.36820917192E+02  0.00000000000E+00 0. -1.
         11    1    4    4    0    0 -0.74380083064E+01  0.21146126570E+01  0.47417813615E+01  0.90708348566E+01  0.51100000000E-03 0. -1.
        -11    1    4    4    0    0 -0.24630845008E+02 -0.39759938400E+01  0.69769539764E+01  0.25906851215E+02  0.51100000000E-03 0.  1.
         12    1    4    4    0    0 -0.38555772251E+01  0.75726422773E+01 -0.17428089941E+02  0.19389396736E+02  0.00000000000E+00 0. -1.
</event>
<event>
 8    1  0.1265908E-006  0.9118800E+02  0.7816164E-02  0.1184000E+00
        -11   -1    0    0    0    0  0.00000000000E+00  0.00000000000E+00  0.45593999997E+02  0.45594000000E+02  0.51100000000E-03 0. -1.
         11   -1    0    0    0    0 -0.00000000000E+00 -0.00000000000E+00 -0.45593999997E+02  0.45594000000E+02  0.51100000000E-03 0.  1.
         23    2    1    2    0    0  0.00000000000E+00  0.00000000000E+00  0.00000000000E+00  0.91188000000E+02  0.91188000000E+02 0.  0.
    9900012    2    3    3    0    0 -0.25415527454E+02 -0.23673202822E+02 -0.12223331512E+02  0.54367090168E+02  0.40000013655E+02 0.  0.
         12    1    3    3    0    0  0.25415527454E+02  0.23673202822E+02  0.12223331512E+02  0.36820909832E+02  0.00000000000E+00 0. -1.
         11    1    4    4    0    0 -0.15948991220E+01  0.10443473182E+02 -0.55575993599E+01  0.11937200100E+02  0.51100000000E-03 0. -1.
        -11    1    4    4    0    0 -0.10799165014E+02 -0.17312114163E+02 -0.55305722998E+01  0.21140446826E+02  0.51100000000E-03 0.  1.
         12    1    4    4    0    0 -0.13021463318E+02 -0.16804561842E+02 -0.11351598524E+01  0.21289443242E+02  0.00000000000E+00 0. -1.
</event>
<event>
 8    1  0.1265908E-006  0.9118800E+02  0.7816164E-02  0.1184000E+00
        -11   -1    0    0    0    0  0.00000000000E+00  0.00000000000E+00  0.45593999997E+02  0.45594000000E+02  0.51100000000E-03 0.  1.
         11   -1    0    0    0    0 -0.00000000000E+00 -0.00000000000E+00 -0.45593999997E+02  0.45594000000E+02  0.51100000000E-03 0. -1.
         23    2    1    2    0    0  0.00000000000E+00  0.00000000000E+00  0.00000000000E+00  0.91188000000E+02  0.91188000000E+02 0.  0.
    9900012    2    3    3    0    0 -0.12771209128E+02 -0.21677913342E+02 -0.26883876101E+02  0.54367102351E+02  0.40000041430E+02 0.  0.
        -12    1    3    3    0    0  0.12771209128E+02  0.21677913342E+02  0.26883876101E+02  0.36820897649E+02  0.00000000000E+00 0.  1.
         11    1    4    4    0    0 -0.13610353141E+02 -0.14664886917E+02 -0.18452226025E+01  0.20092423140E+02  0.51100000000E-03 0. -1.
        -11    1    4    4    0    0 -0.86368675945E+01  0.29102859619E+01 -0.64280925001E+01  0.11152830120E+02  0.51100000000E-03 0.  1.
        -12    1    4    4    0    0  0.94760116083E+01 -0.99233123866E+01 -0.18610560998E+02  0.23121849091E+02  0.00000000000E+00 0.  1.
</event>
<event>
 8    1  0.1265908E-006  0.9118800E+02  0.7816164E-02  0.1184000E+00
        -11   -1    0    0    0    0  0.00000000000E+00  0.00000000000E+00  0.45593999997E+02  0.45594000000E+02  0.51100000000E-03 0.  1.
         11   -1    0    0    0    0 -0.00000000000E+00 -0.00000000000E+00 -0.45593999997E+02  0.45594000000E+02  0.51100000000E-03 0. -1.
         23    2    1    2    0    0  0.00000000000E+00  0.00000000000E+00  0.00000000000E+00  0.91188000000E+02  0.91188000000E+02 0.  0.
    9900012    2    3    3    0    0 -0.22242537426E+01 -0.32779474539E+02  0.16623134045E+02  0.54367219980E+02  0.40000309588E+02 0.  0.
         12    1    3    3    0    0  0.22242537426E+01  0.32779474539E+02 -0.16623134045E+02  0.36820780020E+02  0.00000000000E+00 0. -1.
         11    1    4    4    0    0 -0.45099649163E+00  0.12548200371E+01 -0.20838750838E+00  0.13495913365E+01  0.51100000000E-03 0. -1.
        -11    1    4    4    0    0  0.91188086525E+01 -0.29983599070E+01  0.17676867022E+02  0.20115030732E+02  0.51100000000E-03 0.  1.
        -12    1    4    4    0    0 -0.10892065904E+02 -0.31035934669E+02 -0.84534546794E+00  0.32902597912E+02  0.00000000000E+00 0.  1.
</event>
<event>
 8    1  0.1265908E-006  0.9118800E+02  0.7816164E-02  0.1184000E+00
        -11   -1    0    0    0    0  0.00000000000E+00  0.00000000000E+00  0.45593999997E+02  0.45594000000E+02  0.51100000000E-03 0. -1.
         11   -1    0    0    0    0 -0.00000000000E+00 -0.00000000000E+00 -0.45593999997E+02  0.45594000000E+02  0.51100000000E-03 0.  1.
         23    2    1    2    0    0 -0.22204460493E-14  0.17763568394E-14  0.00000000000E+00  0.91188000000E+02  0.91188000000E+02 0.  0.
    9900012    2    3    3    0    0  0.13536192510E+01  0.11827235930E+02 -0.34843424469E+02  0.54367081712E+02  0.39999994379E+02 0.  0.
         12    1    3    3    0    0 -0.13536192510E+01 -0.11827235930E+02  0.34843424469E+02  0.36820918288E+02  0.00000000000E+00 0. -1.
         11    1    4    4    0    0  0.17430075714E+02  0.58560460067E+01 -0.26337372419E+02  0.32120990029E+02  0.51100000000E-03 0. -1.
        -11    1    4    4    0    0 -0.75141696276E+01 -0.20144099642E+01 -0.90165034007E-02  0.77795034709E+01  0.51100000000E-03 0.  1.
         12    1    4    4    0    0 -0.85622868359E+01  0.79855998872E+01 -0.84970355466E+01  0.14466588212E+02  0.00000000000E+00 0. -1.
</event>
<event>
 8    1  0.1265908E-006  0.9118800E+02  0.7816164E-02  0.1184000E+00
        -11   -1    0    0    0    0  0.00000000000E+00  0.00000000000E+00  0.45593999997E+02  0.45594000000E+02  0.51100000000E-03 0. -1.
         11   -1    0    0    0    0 -0.00000000000E+00 -0.00000000000E+00 -0.45593999997E+02  0.45594000000E+02  0.51100000000E-03 0.  1.
         23    2    1    2    0    0  0.00000000000E+00  0.00000000000E+00  0.35527136788E-14  0.91188000000E+02  0.91188000000E+02 0.  0.
    9900012    2    3    3    0    0 -0.12650813488E+02 -0.19120507630E+02  0.28812018389E+02  0.54367227363E+02  0.40000326419E+02 0.  0.
        -12    1    3    3    0    0  0.12650813488E+02  0.19120507630E+02 -0.28812018389E+02  0.36820772637E+02  0.00000000000E+00 0.  1.
         11    1    4    4    0    0 -0.10772281470E+02 -0.67100844135E+01  0.21816366155E+02  0.25239277196E+02  0.51100000000E-03 0. -1.
        -11    1    4    4    0    0 -0.27973624042E+01 -0.14854185423E+02 -0.57092376693E+01  0.16157581998E+02  0.51100000000E-03 0.  1.
        -12    1    4    4    0    0  0.91883038534E+00  0.24437622066E+01  0.12704889903E+02  0.12970368169E+02  0.00000000000E+00 0.  1.
</event>
<event>
 8    1  0.1265908E-006  0.9118800E+02  0.7816164E-02  0.1184000E+00
        -11   -1    0    0    0    0  0.00000000000E+00  0.00000000000E+00  0.45593999997E+02  0.45594000000E+02  0.51100000000E-03 0.  1.
         11   -1    0    0    0    0 -0.00000000000E+00 -0.00000000000E+00 -0.45593999997E+02  0.45594000000E+02  0.51100000000E-03 0. -1.
         23    2    1    2    0    0  0.71054273576E-14  0.00000000000E+00  0.88817841970E-15  0.91188000000E+02  0.91188000000E+02 0.  0.
    9900012    2    3    3    0    0  0.36222438081E+02  0.46213306546E+01  0.47284161591E+01  0.54367086962E+02  0.40000006348E+02 0.  0.
        -12    1    3    3    0    0 -0.36222438081E+02 -0.46213306546E+01 -0.47284161591E+01  0.36820913038E+02  0.00000000000E+00 0.  1.
         11    1    4    4    0    0  0.46147296866E+01  0.49049188931E+01 -0.12554401830E+02  0.14246647501E+02  0.51100000000E-03 0. -1.
        -11    1    4    4    0    0  0.61914103667E+01 -0.72608054744E+01  0.69761998636E+01  0.11820330929E+02  0.51100000000E-03 0.  1.
         12    1    4    4    0    0  0.25416298028E+02  0.69772172359E+01  0.10306618126E+02  0.28300108533E+02  0.00000000000E+00 0. -1.
</event>
<event>
 8    1  0.1265908E-006  0.9118800E+02  0.7816164E-02  0.1184000E+00
        -11   -1    0    0    0    0  0.00000000000E+00  0.00000000000E+00  0.45593999997E+02  0.45594000000E+02  0.51100000000E-03 0. -1.
         11   -1    0    0    0    0 -0.00000000000E+00 -0.00000000000E+00 -0.45593999997E+02  0.45594000000E+02  0.51100000000E-03 0.  1.
         23    2    1    2    0    0  0.00000000000E+00 -0.35527136788E-14  0.35527136788E-14  0.91188000000E+02  0.91188000000E+02 0.  0.
    9900012    2    3    3    0    0  0.90411486352E+01 -0.31975056782E+02 -0.15862982337E+02  0.54367070714E+02  0.39999969307E+02 0.  0.
        -12    1    3    3    0    0 -0.90411486352E+01  0.31975056782E+02  0.15862982337E+02  0.36820929286E+02  0.00000000000E+00 0.  1.
         11    1    4    4    0    0  0.59201805081E+00 -0.42967983743E+01  0.25524558385E+01  0.50326923918E+01  0.51100000000E-03 0. -1.
        -11    1    4    4    0    0 -0.11992686486E+02 -0.11874544639E+02  0.11618909380E+01  0.16916835707E+02  0.51100000000E-03 0.  1.
         12    1    4    4    0    0  0.20441817070E+02 -0.15803713769E+02 -0.19577329113E+02  0.32417542616E+02  0.00000000000E+00 0. -1.
</event>
<event>
 8    1  0.1265908E-006  0.9118800E+02  0.7816164E-02  0.1184000E+00
        -11   -1    0    0    0    0  0.00000000000E+00  0.00000000000E+00  0.45593999997E+02  0.45594000000E+02  0.51100000000E-03 0.  1.
         11   -1    0    0    0    0 -0.00000000000E+00 -0.00000000000E+00 -0.45593999997E+02  0.45594000000E+02  0.51100000000E-03 0. -1.
         23    2    1    2    0    0 -0.17763568394E-14  0.71054273576E-14  0.00000000000E+00  0.91188000000E+02  0.91188000000E+02 0.  0.
    9900012    2    3    3    0    0  0.11510199586E+02 -0.33017052878E+02 -0.11539974357E+02  0.54367061888E+02  0.39999949186E+02 0.  0.
         12    1    3    3    0    0 -0.11510199586E+02  0.33017052878E+02  0.11539974357E+02  0.36820938112E+02  0.00000000000E+00 0. -1.
         11    1    4    4    0    0  0.46773195746E+01  0.62907644503E+01 -0.50848639216E+01  0.93438149133E+01  0.51100000000E-03 0. -1.
        -11    1    4    4    0    0  0.12270959019E+02 -0.15270316355E+02 -0.55537562643E+01  0.20361807527E+02  0.51100000000E-03 0.  1.
         12    1    4    4    0    0 -0.54380790075E+01 -0.24037500973E+02 -0.90135417140E+00  0.24661439448E+02  0.00000000000E+00 0. -1.
</event>
<event>
 8    1  0.1265908E-006  0.9118800E+02  0.7816164E-02  0.1184000E+00
        -11   -1    0    0    0    0  0.00000000000E+00  0.00000000000E+00  0.45593999997E+02  0.45594000000E+02  0.51100000000E-03 0. -1.
         11   -1    0    0    0    0 -0.00000000000E+00 -0.00000000000E+00 -0.45593999997E+02  0.45594000000E+02  0.51100000000E-03 0.  1.
         23    2    1    2    0    0 -0.71054273576E-14  0.66613381478E-15 -0.22204460493E-15  0.91188000000E+02  0.91188000000E+02 0.  0.
    9900012    2    3    3    0    0  0.36778944614E+02  0.11887670359E+01  0.12945987884E+01  0.54367083119E+02  0.39999997586E+02 0.  0.
         12    1    3    3    0    0 -0.36778944614E+02 -0.11887670359E+01 -0.12945987884E+01  0.36820916881E+02  0.00000000000E+00 0. -1.
         11    1    4    4    0    0 -0.26467707194E+01  0.51355518070E+01 -0.40822244756E+00  0.57918851363E+01  0.51100000000E-03 0. -1.
        -11    1    4    4    0    0  0.15054122715E+02  0.89074939478E+01 -0.81702336353E+01  0.19306029552E+02  0.51100000000E-03 0.  1.
        -12    1    4    4    0    0  0.24371592618E+02 -0.12854278719E+02  0.98730548712E+01  0.29269168430E+02  0.00000000000E+00 0.  1.
</event>
<event>
 8    1  0.1265908E-006  0.9118800E+02  0.7816164E-02  0.1184000E+00
        -11   -1    0    0    0    0  0.00000000000E+00  0.00000000000E+00  0.45593999997E+02  0.45594000000E+02  0.51100000000E-03 0. -1.
         11   -1    0    0    0    0 -0.00000000000E+00 -0.00000000000E+00 -0.45593999997E+02  0.45594000000E+02  0.51100000000E-03 0.  1.
         23    2    1    2    0    0  0.00000000000E+00 -0.71054273576E-14  0.17763568394E-14  0.91188000000E+02  0.91188000000E+02 0.  0.
    9900012    2    3    3    0    0  0.73283254148E+01  0.35042888614E+02 -0.86064458458E+01  0.54367091458E+02  0.40000016597E+02 0.  0.
        -12    1    3    3    0    0 -0.73283254148E+01 -0.35042888614E+02  0.86064458458E+01  0.36820908542E+02  0.00000000000E+00 0.  1.
         11    1    4    4    0    0 -0.37042342664E+01 -0.82086066845E+01 -0.19914010959E+01  0.92232452958E+01  0.51100000000E-03 0. -1.
        -11    1    4    4    0    0  0.81465319691E+01  0.30980041478E+02 -0.41842604662E+01  0.32305370900E+02  0.51100000000E-03 0.  1.
         12    1    4    4    0    0  0.28860277120E+01  0.12271453821E+02 -0.24307842837E+01  0.12838475262E+02  0.00000000000E+00 0. -1.
</event>
<event>
 8    1  0.1265908E-006  0.9118800E+02  0.7816164E-02  0.1184000E+00
        -11   -1    0    0    0    0  0.00000000000E+00  0.00000000000E+00  0.45593999997E+02  0.45594000000E+02  0.51100000000E-03 0. -1.
         11   -1    0    0    0    0 -0.00000000000E+00 -0.00000000000E+00 -0.45593999997E+02  0.45594000000E+02  0.51100000000E-03 0.  1.
         23    2    1    2    0    0 -0.35527136788E-14 -0.35527136788E-14  0.00000000000E+00  0.91188000000E+02  0.91188000000E+02 0.  0.
    9900012    2    3    3    0    0  0.22795859430E+02 -0.28416701389E+02  0.53497757481E+01  0.54367078969E+02  0.39999988126E+02 0.  0.
        -12    1    3    3    0    0 -0.22795859430E+02  0.28416701389E+02 -0.53497757481E+01  0.36820921031E+02  0.00000000000E+00 0.  1.
         11    1    4    4    0    0  0.17099637032E+02 -0.49000729925E+00  0.11845818277E+02  0.20807717431E+02  0.51100000000E-03 0. -1.
        -11    1    4    4    0    0 -0.93084774558E+00 -0.58784291099E+01 -0.85804235768E+01  0.10442512885E+02  0.51100000000E-03 0.  1.
         12    1    4    4    0    0  0.66270701434E+01 -0.22048264980E+02  0.20843810482E+01  0.23116848654E+02  0.00000000000E+00 0. -1.
</event>
<event>
 8    1  0.1265908E-006  0.9118800E+02  0.7816164E-02  0.1184000E+00
        -11   -1    0    0    0    0  0.00000000000E+00  0.00000000000E+00  0.45593999997E+02  0.45594000000E+02  0.51100000000E-03 0. -1.
         11   -1    0    0    0    0 -0.00000000000E+00 -0.00000000000E+00 -0.45593999997E+02  0.45594000000E+02  0.51100000000E-03 0.  1.
         23    2    1    2    0    0  0.35527136788E-14  0.00000000000E+00  0.00000000000E+00  0.91188000000E+02  0.91188000000E+02 0.  0.
    9900012    2    3    3    0    0 -0.25921826491E+02 -0.25907048577E+02 -0.35585251402E+01  0.54367090780E+02  0.40000015052E+02 0.  0.
        -12    1    3    3    0    0  0.25921826491E+02  0.25907048577E+02  0.35585251402E+01  0.36820909220E+02  0.00000000000E+00 0.  1.
         11    1    4    4    0    0 -0.24313193363E+02 -0.50463088761E+01  0.16491345386E+01  0.24886065373E+02  0.51100000000E-03 0. -1.
        -11    1    4    4    0    0  0.77362542668E+01 -0.11527836771E+02  0.26203777005E+01  0.14128235213E+02  0.51100000000E-03 0.  1.
        -12    1    4    4    0    0 -0.93448873946E+01 -0.93329029303E+01 -0.78280373793E+01  0.15352790194E+02  0.00000000000E+00 0.  1.
</event>
<event>
 8    1  0.1265908E-006  0.9118800E+02  0.7816164E-02  0.1184000E+00
        -11   -1    0    0    0    0  0.00000000000E+00  0.00000000000E+00  0.45593999997E+02  0.45594000000E+02  0.51100000000E-03 0.  1.
         11   -1    0    0    0    0 -0.00000000000E+00 -0.00000000000E+00 -0.45593999997E+02  0.45594000000E+02  0.51100000000E-03 0. -1.
         23    2    1    2    0    0  0.00000000000E+00  0.00000000000E+00  0.77715611724E-15  0.91188000000E+02  0.91188000000E+02 0.  0.
    9900012    2    3    3    0    0  0.32910975068E+02 -0.16503903486E+02 -0.51905238495E+00  0.54367074895E+02  0.39999978839E+02 0.  0.
        -12    1    3    3    0    0 -0.32910975068E+02  0.16503903486E+02  0.51905238495E+00  0.36820925105E+02  0.00000000000E+00 0.  1.
         11    1    4    4    0    0  0.30051074614E+00 -0.37035693980E+01 -0.92256452126E+01  0.99458163488E+01  0.51100000000E-03 0. -1.
        -11    1    4    4    0    0 -0.10387547447E+01  0.42737717163E+01 -0.24999925498E+01  0.50590610901E+01  0.51100000000E-03 0.  1.
         12    1    4    4    0    0  0.33649219066E+02 -0.17074105804E+02  0.11206585377E+02  0.39362197457E+02  0.00000000000E+00 0. -1.
</event>
<event>
 8    1  0.1265908E-006  0.9118800E+02  0.7816164E-02  0.1184000E+00
        -11   -1    0    0    0    0  0.00000000000E+00  0.00000000000E+00  0.45593999997E+02  0.45594000000E+02  0.51100000000E-03 0.  1.
         11   -1    0    0    0    0 -0.00000000000E+00 -0.00000000000E+00 -0.45593999997E+02  0.45594000000E+02  0.51100000000E-03 0. -1.
         23    2    1    2    0    0  0.17763568394E-14 -0.35527136788E-14  0.35527136788E-14  0.91188000000E+02  0.91188000000E+02 0.  0.
    9900012    2    3    3    0    0 -0.13781947377E+02 -0.23822819301E+02 -0.24460409631E+02  0.54367076163E+02  0.39999981728E+02 0.  0.
        -12    1    3    3    0    0  0.13781947377E+02  0.23822819301E+02  0.24460409631E+02  0.36820923837E+02  0.00000000000E+00 0.  1.
         11    1    4    4    0    0 -0.15217421493E+01  0.22063168276E+01  0.19719092909E+01  0.33274554280E+01  0.51100000000E-03 0. -1.
        -11    1    4    4    0    0 -0.10627877678E+02  0.54721820217E+01 -0.53307137480E+01  0.13088661862E+02  0.51100000000E-03 0.  1.
         12    1    4    4    0    0 -0.16323275491E+01 -0.31501318150E+02 -0.21101605174E+02  0.37950958872E+02  0.00000000000E+00 0. -1.
</event>
<event>
 8    1  0.1265908E-006  0.9118800E+02  0.7816164E-02  0.1184000E+00
        -11   -1    0    0    0    0  0.00000000000E+00  0.00000000000E+00  0.45593999997E+02  0.45594000000E+02  0.51100000000E-03 0. -1.
         11   -1    0    0    0    0 -0.00000000000E+00 -0.00000000000E+00 -0.45593999997E+02  0.45594000000E+02  0.51100000000E-03 0.  1.
         23    2    1    2    0    0  0.44408920985E-15  0.00000000000E+00 -0.35527136788E-14  0.91188000000E+02  0.91188000000E+02 0.  0.
    9900012    2    3    3    0    0  0.22542173379E+01  0.25249505828E+02 -0.26705136577E+02  0.54367036406E+02  0.39999891095E+02 0.  0.
         12    1    3    3    0    0 -0.22542173379E+01 -0.25249505828E+02  0.26705136577E+02  0.36820963594E+02  0.00000000000E+00 0. -1.
         11    1    4    4    0    0  0.22453115596E+01  0.18423692860E+02  0.49968887552E+01  0.19220894362E+02  0.51100000000E-03 0. -1.
        -11    1    4    4    0    0  0.19453597193E+00  0.56029754759E+01 -0.28896627274E+01  0.63072441975E+01  0.51100000000E-03 0.  1.
        -12    1    4    4    0    0 -0.18563019370E+00  0.12228374921E+01 -0.28812362605E+02  0.28838897846E+02  0.00000000000E+00 0.  1.
</event>
<event>
 8    1  0.1265908E-006  0.9118800E+02  0.7816164E-02  0.1184000E+00
        -11   -1    0    0    0    0  0.00000000000E+00  0.00000000000E+00  0.45593999997E+02  0.45594000000E+02  0.51100000000E-03 0. -1.
         11   -1    0    0    0    0 -0.00000000000E+00 -0.00000000000E+00 -0.45593999997E+02  0.45594000000E+02  0.51100000000E-03 0.  1.
         23    2    1    2    0    0  0.22204460493E-15 -0.26645352591E-14  0.71054273576E-14  0.91188000000E+02  0.91188000000E+02 0.  0.
    9900012    2    3    3    0    0  0.13403388355E+01  0.36099721661E+01  0.36619011568E+02  0.54367076390E+02  0.39999982247E+02 0.  0.
        -12    1    3    3    0    0 -0.13403388355E+01 -0.36099721661E+01 -0.36619011568E+02  0.36820923610E+02  0.00000000000E+00 0.  1.
         11    1    4    4    0    0 -0.35960266127E+00 -0.99216307097E+01  0.18488803694E+02  0.20985803114E+02  0.51100000000E-03 0. -1.
        -11    1    4    4    0    0  0.12927270655E+02  0.47594476270E+01  0.85931192568E+01  0.16236020668E+02  0.51100000000E-03 0.  1.
         12    1    4    4    0    0 -0.11227329158E+02  0.87721552488E+01  0.95370886170E+01  0.17145252609E+02  0.00000000000E+00 0. -1.
</event>
<event>
 8    1  0.1265908E-006  0.9118800E+02  0.7816164E-02  0.1184000E+00
        -11   -1    0    0    0    0  0.00000000000E+00  0.00000000000E+00  0.45593999997E+02  0.45594000000E+02  0.51100000000E-03 0. -1.
         11   -1    0    0    0    0 -0.00000000000E+00 -0.00000000000E+00 -0.45593999997E+02  0.45594000000E+02  0.51100000000E-03 0.  1.
         23    2    1    2    0    0  0.00000000000E+00  0.00000000000E+00  0.00000000000E+00  0.91188000000E+02  0.91188000000E+02 0.  0.
    9900012    2    3    3    0    0  0.52885912391E+01  0.34717683138E+02  0.11067659280E+02  0.54367084724E+02  0.40000001246E+02 0.  0.
        -12    1    3    3    0    0 -0.52885912391E+01 -0.34717683138E+02 -0.11067659280E+02  0.36820915276E+02  0.00000000000E+00 0.  1.
         11    1    4    4    0    0 -0.29168152635E+01  0.16306346307E+02  0.33903694482E+01  0.16908558378E+02  0.51100000000E-03 0.  1.
        -11    1    4    4    0    0  0.75659878531E+01  0.26794959482E+02  0.34743675050E+01  0.28058603951E+02  0.51100000000E-03 0. -1.
        -12    1    4    4    0    0  0.63941864952E+00 -0.83836226507E+01  0.42029223270E+01  0.93999223958E+01  0.00000000000E+00 0.  1.
</event>
<event>
 8    1  0.1265908E-006  0.9118800E+02  0.7816164E-02  0.1184000E+00
        -11   -1    0    0    0    0  0.00000000000E+00  0.00000000000E+00  0.45593999997E+02  0.45594000000E+02  0.51100000000E-03 0.  1.
         11   -1    0    0    0    0 -0.00000000000E+00 -0.00000000000E+00 -0.45593999997E+02  0.45594000000E+02  0.51100000000E-03 0. -1.
         23    2    1    2    0    0 -0.17763568394E-14  0.00000000000E+00  0.00000000000E+00  0.91188000000E+02  0.91188000000E+02 0.  0.
    9900012    2    3    3    0    0  0.12233374696E+02 -0.31768321629E+02 -0.14031989916E+02  0.54367102991E+02  0.40000042888E+02 0.  0.
        -12    1    3    3    0    0 -0.12233374696E+02  0.31768321629E+02  0.14031989916E+02  0.36820897009E+02  0.00000000000E+00 0.  1.
         11    1    4    4    0    0  0.20035980722E+01 -0.61889712388E+01 -0.39348036730E+01  0.76026607471E+01  0.51100000000E-03 0. -1.
        -11    1    4    4    0    0 -0.27078982305E+01 -0.31348453977E+02 -0.77509310496E+01  0.32405789791E+02  0.51100000000E-03 0.  1.
        -12    1    4    4    0    0  0.12937674855E+02  0.57691035865E+01 -0.23462551932E+01  0.14358652453E+02  0.00000000000E+00 0.  1.
</event>
<event>
 8    1  0.1265908E-006  0.9118800E+02  0.7816164E-02  0.1184000E+00
        -11   -1    0    0    0    0  0.00000000000E+00  0.00000000000E+00  0.45593999997E+02  0.45594000000E+02  0.51100000000E-03 0.  1.
         11   -1    0    0    0    0 -0.00000000000E+00 -0.00000000000E+00 -0.45593999997E+02  0.45594000000E+02  0.51100000000E-03 0. -1.
         23    2    1    2    0    0  0.00000000000E+00  0.00000000000E+00 -0.35527136788E-14  0.91188000000E+02  0.91188000000E+02 0.  0.
    9900012    2    3    3    0    0 -0.23672100965E+02 -0.22790775718E+02  0.16612974776E+02  0.54367098967E+02  0.40000033716E+02 0.  0.
         12    1    3    3    0    0  0.23672100965E+02  0.22790775718E+02 -0.16612974776E+02  0.36820901033E+02  0.00000000000E+00 0. -1.
         11    1    4    4    0    0 -0.27943584599E+02 -0.21674784854E+02  0.81419692112E+01  0.36289556095E+02  0.51100000000E-03 0. -1.
        -11    1    4    4    0    0 -0.16788448643E+01 -0.29145322886E+01  0.10897330190E+02  0.11404596621E+02  0.51100000000E-03 0.  1.
         12    1    4    4    0    0  0.59503284979E+01  0.17985414241E+01 -0.24263246256E+01  0.66729462515E+01  0.00000000000E+00 0. -1.
</event>
<event>
 8    1  0.1265908E-006  0.9118800E+02  0.7816164E-02  0.1184000E+00
        -11   -1    0    0    0    0  0.00000000000E+00  0.00000000000E+00  0.45593999997E+02  0.45594000000E+02  0.51100000000E-03 0.  1.
         11   -1    0    0    0    0 -0.00000000000E+00 -0.00000000000E+00 -0.45593999997E+02  0.45594000000E+02  0.51100000000E-03 0. -1.
         23    2    1    2    0    0 -0.35527136788E-14 -0.17763568394E-14  0.00000000000E+00  0.91188000000E+02  0.91188000000E+02 0.  0.
    9900012    2    3    3    0    0  0.31275281094E+02 -0.12406577786E+02 -0.14957031751E+02  0.54367093186E+02  0.40000020536E+02 0.  0.
         12    1    3    3    0    0 -0.31275281094E+02  0.12406577786E+02  0.14957031751E+02  0.36820906814E+02  0.00000000000E+00 0. -1.
         11    1    4    4    0    0  0.18928932737E+02 -0.74020259322E+01 -0.16819951989E+02  0.26381911751E+02  0.51100000000E-03 0. -1.
        -11    1    4    4    0    0  0.68328815409E+01 -0.14766985881E+02  0.35312511161E+01  0.16649981287E+02  0.51100000000E-03 0.  1.
         12    1    4    4    0    0  0.55134668154E+01  0.97624340273E+01 -0.16683308772E+01  0.11335200147E+02  0.00000000000E+00 0. -1.
</event>
<event>
 8    1  0.1265908E-006  0.9118800E+02  0.7816164E-02  0.1184000E+00
        -11   -1    0    0    0    0  0.00000000000E+00  0.00000000000E+00  0.45593999997E+02  0.45594000000E+02  0.51100000000E-03 0.  1.
         11   -1    0    0    0    0 -0.00000000000E+00 -0.00000000000E+00 -0.45593999997E+02  0.45594000000E+02  0.51100000000E-03 0. -1.
         23    2    1    2    0    0  0.71054273576E-14 -0.44408920985E-15  0.00000000000E+00  0.91188000000E+02  0.91188000000E+02 0.  0.
    9900012    2    3    3    0    0 -0.34461680252E+02 -0.37511741359E+01  0.12413710062E+02  0.54367096824E+02  0.40000028829E+02 0.  0.
         12    1    3    3    0    0  0.34461680252E+02  0.37511741359E+01 -0.12413710062E+02  0.36820903176E+02  0.00000000000E+00 0. -1.
         11    1    4    4    0    0  0.29463592848E+01 -0.26451872522E+01 -0.20863201771E+01  0.44755760274E+01  0.51100000000E-03 0. -1.
        -11    1    4    4    0    0 -0.41706543078E+02  0.38884208851E-01  0.87378462534E+01  0.42612054690E+02  0.51100000000E-03 0.  1.
        -12    1    4    4    0    0  0.42985035409E+01 -0.11448710926E+01  0.57621839858E+01  0.72794661065E+01  0.00000000000E+00 0.  1.
</event>
<event>
 8    1  0.1265908E-006  0.9118800E+02  0.7816164E-02  0.1184000E+00
        -11   -1    0    0    0    0  0.00000000000E+00  0.00000000000E+00  0.45593999997E+02  0.45594000000E+02  0.51100000000E-03 0. -1.
         11   -1    0    0    0    0 -0.00000000000E+00 -0.00000000000E+00 -0.45593999997E+02  0.45594000000E+02  0.51100000000E-03 0.  1.
         23    2    1    2    0    0  0.00000000000E+00 -0.17763568394E-14  0.00000000000E+00  0.91188000000E+02  0.91188000000E+02 0.  0.
    9900012    2    3    3    0    0 -0.23866116599E+02 -0.14984168074E+02 -0.23699424746E+02  0.54367088174E+02  0.40000009111E+02 0.  0.
         12    1    3    3    0    0  0.23866116599E+02  0.14984168074E+02  0.23699424746E+02  0.36820911826E+02  0.00000000000E+00 0. -1.
         11    1    4    4    0    0 -0.23270085947E+02 -0.17049685063E+02 -0.20417263915E+02  0.35341948543E+02  0.51100000000E-03 0.  1.
        -11    1    4    4    0    0 -0.89685864124E+01 -0.89394550474E+00  0.11747032978E+01  0.90892578850E+01  0.51100000000E-03 0. -1.
         12    1    4    4    0    0  0.83725557603E+01  0.29594624947E+01 -0.44568641288E+01  0.99358817464E+01  0.00000000000E+00 0. -1.
</event>
<event>
 8    1  0.1265908E-006  0.9118800E+02  0.7816164E-02  0.1184000E+00
        -11   -1    0    0    0    0  0.00000000000E+00  0.00000000000E+00  0.45593999997E+02  0.45594000000E+02  0.51100000000E-03 0.  1.
         11   -1    0    0    0    0 -0.00000000000E+00 -0.00000000000E+00 -0.45593999997E+02  0.45594000000E+02  0.51100000000E-03 0. -1.
         23    2    1    2    0    0  0.35527136788E-14 -0.17763568394E-14 -0.17763568394E-14  0.91188000000E+02  0.91188000000E+02 0.  0.
    9900012    2    3    3    0    0  0.30313427077E+02 -0.13697076328E+02 -0.15788137798E+02  0.54367094848E+02  0.40000024326E+02 0.  0.
        -12    1    3    3    0    0 -0.30313427077E+02  0.13697076328E+02  0.15788137798E+02  0.36820905152E+02  0.00000000000E+00 0.  1.
         11    1    4    4    0    0 -0.25761912621E+01 -0.12242438493E+01 -0.47970013235E+01  0.55809279139E+01  0.51100000000E-03 0. -1.
        -11    1    4    4    0    0 -0.21476081830E+01  0.70639021984E+01 -0.23707546758E+01  0.77544447365E+01  0.51100000000E-03 0.  1.
         12    1    4    4    0    0  0.35037226522E+02 -0.19536734677E+02 -0.86203817986E+01  0.41031722198E+02  0.00000000000E+00 0. -1.
</event>
<event>
 8    1  0.1265908E-006  0.9118800E+02  0.7816164E-02  0.1184000E+00
        -11   -1    0    0    0    0  0.00000000000E+00  0.00000000000E+00  0.45593999997E+02  0.45594000000E+02  0.51100000000E-03 0.  1.
         11   -1    0    0    0    0 -0.00000000000E+00 -0.00000000000E+00 -0.45593999997E+02  0.45594000000E+02  0.51100000000E-03 0. -1.
         23    2    1    2    0    0  0.00000000000E+00  0.00000000000E+00 -0.88817841970E-15  0.91188000000E+02  0.91188000000E+02 0.  0.
    9900012    2    3    3    0    0  0.27418465881E+02 -0.23842637501E+02  0.59612883134E+01  0.54367073985E+02  0.39999976763E+02 0.  0.
         12    1    3    3    0    0 -0.27418465881E+02  0.23842637501E+02 -0.59612883134E+01  0.36820926015E+02  0.00000000000E+00 0. -1.
         11    1    4    4    0    0  0.14212015856E+02 -0.29550961515E+02 -0.18962086124E+01  0.32845643981E+02  0.51100000000E-03 0. -1.
        -11    1    4    4    0    0  0.40807005753E+01  0.18815989805E+01  0.10378669173E+02  0.11309699641E+02  0.51100000000E-03 0.  1.
        -12    1    4    4    0    0  0.91257494498E+01  0.38267250336E+01 -0.25211722471E+01  0.10211730363E+02  0.00000000000E+00 0.  1.
</event>
<event>
 8    1  0.1265908E-006  0.9118800E+02  0.7816164E-02  0.1184000E+00
        -11   -1    0    0    0    0  0.00000000000E+00  0.00000000000E+00  0.45593999997E+02  0.45594000000E+02  0.51100000000E-03 0.  1.
         11   -1    0    0    0    0 -0.00000000000E+00 -0.00000000000E+00 -0.45593999997E+02  0.45594000000E+02  0.51100000000E-03 0. -1.
         23    2    1    2    0    0 -0.35527136788E-14  0.55511151231E-15 -0.35527136788E-14  0.91188000000E+02  0.91188000000E+02 0.  0.
    9900012    2    3    3    0    0  0.26128309329E+02 -0.82962893705E+00 -0.25930741857E+02  0.54367079238E+02  0.39999988738E+02 0.  0.
        -12    1    3    3    0    0 -0.26128309329E+02  0.82962893705E+00  0.25930741857E+02  0.36820920762E+02  0.00000000000E+00 0.  1.
         11    1    4    4    0    0  0.14498798427E+02  0.20401448706E+01 -0.27057871242E+01  0.14889547714E+02  0.51100000000E-03 0. -1.
        -11    1    4    4    0    0  0.13602757762E+02  0.92080650708E+01 -0.43674195654E+01  0.16996994881E+02  0.51100000000E-03 0.  1.
         12    1    4    4    0    0 -0.19732468600E+01 -0.12077838879E+02 -0.18857535167E+02  0.22480536642E+02  0.00000000000E+00 0. -1.
</event>
<event>
 8    1  0.1265908E-006  0.9118800E+02  0.7816164E-02  0.1184000E+00
        -11   -1    0    0    0    0  0.00000000000E+00  0.00000000000E+00  0.45593999997E+02  0.45594000000E+02  0.51100000000E-03 0.  1.
         11   -1    0    0    0    0 -0.00000000000E+00 -0.00000000000E+00 -0.45593999997E+02  0.45594000000E+02  0.51100000000E-03 0. -1.
         23    2    1    2    0    0  0.88817841970E-15  0.17763568394E-14  0.00000000000E+00  0.91188000000E+02  0.91188000000E+02 0.  0.
    9900012    2    3    3    0    0 -0.45038825942E+01 -0.80940225569E+01  0.35636784204E+02  0.54367101749E+02  0.40000040057E+02 0.  0.
         12    1    3    3    0    0  0.45038825942E+01  0.80940225569E+01 -0.35636784204E+02  0.36820898251E+02  0.00000000000E+00 0. -1.
         11    1    4    4    0    0 -0.11574815752E+02 -0.17963750045E+02  0.81195322642E+01  0.22860434813E+02  0.51100000000E-03 0. -1.
        -11    1    4    4    0    0  0.88347017336E+01  0.90905861999E+01  0.26381096104E+02  0.29268634134E+02  0.51100000000E-03 0.  1.
        -12    1    4    4    0    0 -0.17637685762E+01  0.77914128866E+00  0.11361558361E+01  0.22380328018E+01  0.00000000000E+00 0.  1.
</event>
<event>
 8    1  0.1265908E-006  0.9118800E+02  0.7816164E-02  0.1184000E+00
        -11   -1    0    0    0    0  0.00000000000E+00  0.00000000000E+00  0.45593999997E+02  0.45594000000E+02  0.51100000000E-03 0. -1.
         11   -1    0    0    0    0 -0.00000000000E+00 -0.00000000000E+00 -0.45593999997E+02  0.45594000000E+02  0.51100000000E-03 0.  1.
         23    2    1    2    0    0 -0.17763568394E-14  0.88817841970E-15  0.00000000000E+00  0.91188000000E+02  0.91188000000E+02 0.  0.
    9900012    2    3    3    0    0  0.14341480314E+02  0.51451818228E+01 -0.33520577826E+02  0.54367080792E+02  0.39999992281E+02 0.  0.
         12    1    3    3    0    0 -0.14341480314E+02 -0.51451818228E+01  0.33520577826E+02  0.36820919208E+02  0.00000000000E+00 0. -1.
         11    1    4    4    0    0  0.16968324918E+02  0.19810190024E+01 -0.24630022363E+01  0.17260210516E+02  0.51100000000E-03 0. -1.
        -11    1    4    4    0    0 -0.61316021070E+01  0.10415278210E+02 -0.20911025249E+02  0.24152547315E+02  0.51100000000E-03 0.  1.
         12    1    4    4    0    0  0.35047575030E+01 -0.72511153893E+01 -0.10146550340E+02  0.12954322960E+02  0.00000000000E+00 0. -1.
</event>
<event>
 8    1  0.1265908E-006  0.9118800E+02  0.7816164E-02  0.1184000E+00
        -11   -1    0    0    0    0  0.00000000000E+00  0.00000000000E+00  0.45593999997E+02  0.45594000000E+02  0.51100000000E-03 0. -1.
         11   -1    0    0    0    0 -0.00000000000E+00 -0.00000000000E+00 -0.45593999997E+02  0.45594000000E+02  0.51100000000E-03 0.  1.
         23    2    1    2    0    0  0.00000000000E+00  0.00000000000E+00  0.00000000000E+00  0.91188000000E+02  0.91188000000E+02 0.  0.
    9900012    2    3    3    0    0  0.21665996856E+02 -0.13145687012E+02 -0.26712465424E+02  0.54367077744E+02  0.39999985332E+02 0.  0.
         12    1    3    3    0    0 -0.21665996856E+02  0.13145687012E+02  0.26712465424E+02  0.36820922256E+02  0.00000000000E+00 0. -1.
         11    1    4    4    0    0  0.11156014062E+02 -0.96420757505E+01  0.27896909327E+01  0.15006953398E+02  0.51100000000E-03 0. -1.
        -11    1    4    4    0    0  0.10730550193E+02  0.17250066204E+01 -0.31828617578E+02  0.33633038110E+02  0.51100000000E-03 0.  1.
        -12    1    4    4    0    0 -0.22056739967E+00 -0.52286178822E+01  0.23264612215E+01  0.57270862357E+01  0.00000000000E+00 0.  1.
</event>
<event>
 8    1  0.1265908E-006  0.9118800E+02  0.7816164E-02  0.1184000E+00
        -11   -1    0    0    0    0  0.00000000000E+00  0.00000000000E+00  0.45593999997E+02  0.45594000000E+02  0.51100000000E-03 0.  1.
         11   -1    0    0    0    0 -0.00000000000E+00 -0.00000000000E+00 -0.45593999997E+02  0.45594000000E+02  0.51100000000E-03 0. -1.
         23    2    1    2    0    0 -0.88817841970E-15  0.71054273576E-14  0.00000000000E+00  0.91188000000E+02  0.91188000000E+02 0.  0.
    9900012    2    3    3    0    0 -0.58858494682E+01  0.36189617646E+02 -0.33834750503E+01  0.54367088106E+02  0.40000008954E+02 0.  0.
        -12    1    3    3    0    0  0.58858494682E+01 -0.36189617646E+02  0.33834750503E+01  0.36820911894E+02  0.00000000000E+00 0.  1.
         11    1    4    4    0    0 -0.81510928146E+01  0.30603261239E+01 -0.11719651082E+02  0.14599867527E+02  0.51100000000E-03 0. -1.
        -11    1    4    4    0    0  0.75852638811E+00  0.29201926499E+02  0.14256229643E+02  0.32504891285E+02  0.51100000000E-03 0.  1.
        -12    1    4    4    0    0  0.15067169583E+01  0.39273650232E+01 -0.59200536116E+01  0.72623292945E+01  0.00000000000E+00 0.  1.
</event>
<event>
 8    1  0.1265908E-006  0.9118800E+02  0.7816164E-02  0.1184000E+00
        -11   -1    0    0    0    0  0.00000000000E+00  0.00000000000E+00  0.45593999997E+02  0.45594000000E+02  0.51100000000E-03 0. -1.
         11   -1    0    0    0    0 -0.00000000000E+00 -0.00000000000E+00 -0.45593999997E+02  0.45594000000E+02  0.51100000000E-03 0.  1.
         23    2    1    2    0    0  0.00000000000E+00  0.71054273576E-14  0.88817841970E-15  0.91188000000E+02  0.91188000000E+02 0.  0.
    9900012    2    3    3    0    0 -0.94290840385E+01  0.35280873094E+02 -0.47045696441E+01  0.54367073781E+02  0.39999976298E+02 0.  0.
        -12    1    3    3    0    0  0.94290840385E+01 -0.35280873094E+02  0.47045696441E+01  0.36820926219E+02  0.00000000000E+00 0.  1.
         11    1    4    4    0    0 -0.60742309307E+01  0.27013141991E+01  0.11964107983E+02  0.13686974095E+02  0.51100000000E-03 0.  1.
        -11    1    4    4    0    0  0.38733829497E+01  0.69203043676E+01  0.19465194323E+01  0.81659442918E+01  0.51100000000E-03 0. -1.
        -12    1    4    4    0    0 -0.72282360574E+01  0.25659254528E+02 -0.18615197059E+02  0.32514155394E+02  0.00000000000E+00 0.  1.
</event>
<event>
 8    1  0.1265908E-006  0.9118800E+02  0.7816164E-02  0.1184000E+00
        -11   -1    0    0    0    0  0.00000000000E+00  0.00000000000E+00  0.45593999997E+02  0.45594000000E+02  0.51100000000E-03 0.  1.
         11   -1    0    0    0    0 -0.00000000000E+00 -0.00000000000E+00 -0.45593999997E+02  0.45594000000E+02  0.51100000000E-03 0. -1.
         23    2    1    2    0    0  0.88817841970E-15  0.00000000000E+00  0.00000000000E+00  0.91188000000E+02  0.91188000000E+02 0.  0.
    9900012    2    3    3    0    0  0.67206184779E+01  0.11015330716E+02 -0.34485882034E+02  0.54367078187E+02  0.39999986342E+02 0.  0.
        -12    1    3    3    0    0 -0.67206184779E+01 -0.11015330716E+02  0.34485882034E+02  0.36820921813E+02  0.00000000000E+00 0.  1.
         11    1    4    4    0    0  0.90300486896E+00  0.47136200050E+01 -0.30880770196E+02  0.31251489557E+02  0.51100000000E-03 0. -1.
        -11    1    4    4    0    0 -0.68557535959E+01  0.56780629939E+01 -0.52281062755E+01  0.10323509685E+02  0.51100000000E-03 0.  1.
         12    1    4    4    0    0  0.12673367205E+02  0.62364771755E+00  0.16229944376E+01  0.12792078945E+02  0.00000000000E+00 0. -1.
</event>
<event>
 8    1  0.1265908E-006  0.9118800E+02  0.7816164E-02  0.1184000E+00
        -11   -1    0    0    0    0  0.00000000000E+00  0.00000000000E+00  0.45593999997E+02  0.45594000000E+02  0.51100000000E-03 0.  1.
         11   -1    0    0    0    0 -0.00000000000E+00 -0.00000000000E+00 -0.45593999997E+02  0.45594000000E+02  0.51100000000E-03 0. -1.
         23    2    1    2    0    0  0.00000000000E+00  0.00000000000E+00  0.44408920985E-15  0.91188000000E+02  0.91188000000E+02 0.  0.
    9900012    2    3    3    0    0 -0.31644679828E+02  0.18707022423E+02 -0.21072534036E+01  0.54367096070E+02  0.40000027110E+02 0.  0.
         12    1    3    3    0    0  0.31644679828E+02 -0.18707022423E+02  0.21072534036E+01  0.36820903930E+02  0.00000000000E+00 0. -1.
         11    1    4    4    0    0 -0.24685072153E+02 -0.20883789348E+01 -0.12242139826E+01  0.24803483907E+02  0.51100000000E-03 0. -1.
        -11    1    4    4    0    0 -0.90528498967E+00  0.24581533765E+01  0.79192248514E+01  0.83412338082E+01  0.51100000000E-03 0.  1.
         12    1    4    4    0    0 -0.60543226847E+01  0.18337247982E+02 -0.88022642724E+01  0.21222378355E+02  0.00000000000E+00 0. -1.
</event>
<event>
 8    1  0.1265908E-006  0.9118800E+02  0.7816164E-02  0.1184000E+00
        -11   -1    0    0    0    0  0.00000000000E+00  0.00000000000E+00  0.45593999997E+02  0.45594000000E+02  0.51100000000E-03 0. -1.
         11   -1    0    0    0    0 -0.00000000000E+00 -0.00000000000E+00 -0.45593999997E+02  0.45594000000E+02  0.51100000000E-03 0.  1.
         23    2    1    2    0    0  0.00000000000E+00  0.88817841970E-15  0.00000000000E+00  0.91188000000E+02  0.91188000000E+02 0.  0.
    9900012    2    3    3    0    0 -0.21900464689E+02  0.57252915263E+01  0.29040836050E+02  0.54367089159E+02  0.40000011356E+02 0.  0.
        -12    1    3    3    0    0  0.21900464689E+02 -0.57252915263E+01 -0.29040836050E+02  0.36820910841E+02  0.00000000000E+00 0.  1.
         11    1    4    4    0    0 -0.10877546424E+02  0.11297678279E+02  0.82943226763E+01  0.17741317302E+02  0.51100000000E-03 0. -1.
        -11    1    4    4    0    0 -0.18218090545E+02  0.24126531470E+01  0.17552262605E+02  0.25412627592E+02  0.51100000000E-03 0.  1.
        -12    1    4    4    0    0  0.71951722802E+01 -0.79850398993E+01  0.31942507685E+01  0.11213144265E+02  0.00000000000E+00 0.  1.
</event>
<event>
 8    1  0.1265908E-006  0.9118800E+02  0.7816164E-02  0.1184000E+00
        -11   -1    0    0    0    0  0.00000000000E+00  0.00000000000E+00  0.45593999997E+02  0.45594000000E+02  0.51100000000E-03 0. -1.
         11   -1    0    0    0    0 -0.00000000000E+00 -0.00000000000E+00 -0.45593999997E+02  0.45594000000E+02  0.51100000000E-03 0.  1.
         23    2    1    2    0    0  0.88817841970E-15 -0.35527136788E-14  0.00000000000E+00  0.91188000000E+02  0.91188000000E+02 0.  0.
    9900012    2    3    3    0    0 -0.52540318625E+01  0.16765044448E+02 -0.32359209851E+02  0.54366945855E+02  0.39999684665E+02 0.  0.
         12    1    3    3    0    0  0.52540318625E+01 -0.16765044448E+02  0.32359209851E+02  0.36821054145E+02  0.00000000000E+00 0. -1.
         11    1    4    4    0    0  0.26488879590E+01  0.42551714574E+01 -0.20779612359E+02  0.21375579094E+02  0.51100000000E-03 0.  1.
        -11    1    4    4    0    0 -0.52296595130E+01 -0.79928531731E+01 -0.57509215764E+00  0.95690005601E+01  0.51100000000E-03 0. -1.
        -12    1    4    4    0    0 -0.26732603086E+01  0.20502726163E+02 -0.11004505335E+02  0.23422366201E+02  0.00000000000E+00 0.  1.
</event>
<event>
 8    1  0.1265908E-006  0.9118800E+02  0.7816164E-02  0.1184000E+00
        -11   -1    0    0    0    0  0.00000000000E+00  0.00000000000E+00  0.45593999997E+02  0.45594000000E+02  0.51100000000E-03 0. -1.
         11   -1    0    0    0    0 -0.00000000000E+00 -0.00000000000E+00 -0.45593999997E+02  0.45594000000E+02  0.51100000000E-03 0.  1.
         23    2    1    2    0    0 -0.17763568394E-14  0.71054273576E-14  0.35527136788E-14  0.91188000000E+02  0.91188000000E+02 0.  0.
    9900012    2    3    3    0    0 -0.11305630773E+02  0.28200809156E+02  0.20800888923E+02  0.54367083333E+02  0.39999998074E+02 0.  0.
         12    1    3    3    0    0  0.11305630773E+02 -0.28200809156E+02 -0.20800888923E+02  0.36820916667E+02  0.00000000000E+00 0. -1.
         11    1    4    4    0    0 -0.81080765806E+01 -0.22785391148E+01 -0.11528958574E+01  0.85006949982E+01  0.51100000000E-03 0. -1.
        -11    1    4    4    0    0 -0.93557060242E+01  0.25367424134E+02  0.55315389193E+01  0.27597705801E+02  0.51100000000E-03 0.  1.
         12    1    4    4    0    0  0.61581518321E+01  0.51119241363E+01  0.16422245862E+02  0.18268682533E+02  0.00000000000E+00 0. -1.
</event>
<event>
 8    1  0.1265908E-006  0.9118800E+02  0.7816164E-02  0.1184000E+00
        -11   -1    0    0    0    0  0.00000000000E+00  0.00000000000E+00  0.45593999997E+02  0.45594000000E+02  0.51100000000E-03 0.  1.
         11   -1    0    0    0    0 -0.00000000000E+00 -0.00000000000E+00 -0.45593999997E+02  0.45594000000E+02  0.51100000000E-03 0. -1.
         23    2    1    2    0    0  0.00000000000E+00  0.00000000000E+00  0.00000000000E+00  0.91188000000E+02  0.91188000000E+02 0.  0.
    9900012    2    3    3    0    0  0.32071876811E+02 -0.15370900244E+02  0.95347043228E+01  0.54367076016E+02  0.39999981393E+02 0.  0.
        -12    1    3    3    0    0 -0.32071876811E+02  0.15370900244E+02 -0.95347043228E+01  0.36820923984E+02  0.00000000000E+00 0.  1.
         11    1    4    4    0    0  0.20525371443E+02  0.44234829111E+01 -0.58216571394E+01  0.21788753201E+02  0.51100000000E-03 0. -1.
        -11    1    4    4    0    0  0.10685054496E+02 -0.20413897566E+02  0.68950876098E+01  0.24050776221E+02  0.51100000000E-03 0.  1.
         12    1    4    4    0    0  0.86145087284E+00  0.61951441085E+00  0.84612738523E+01  0.85275465942E+01  0.00000000000E+00 0. -1.
</event>
<event>
 8    1  0.1265908E-006  0.9118800E+02  0.7816164E-02  0.1184000E+00
        -11   -1    0    0    0    0  0.00000000000E+00  0.00000000000E+00  0.45593999997E+02  0.45594000000E+02  0.51100000000E-03 0.  1.
         11   -1    0    0    0    0 -0.00000000000E+00 -0.00000000000E+00 -0.45593999997E+02  0.45594000000E+02  0.51100000000E-03 0. -1.
         23    2    1    2    0    0  0.00000000000E+00  0.35527136788E-14  0.00000000000E+00  0.91188000000E+02  0.91188000000E+02 0.  0.
    9900012    2    3    3    0    0  0.31199908917E+02 -0.19546908624E+02  0.51376888220E+00  0.54367083232E+02  0.39999997843E+02 0.  0.
        -12    1    3    3    0    0 -0.31199908917E+02  0.19546908624E+02 -0.51376888220E+00  0.36820916768E+02  0.00000000000E+00 0.  1.
         11    1    4    4    0    0  0.14759211329E+02 -0.17141565821E+02 -0.24637790474E+01  0.22753852538E+02  0.51100000000E-03 0. -1.
        -11    1    4    4    0    0 -0.38128251351E+01  0.74157200699E+01  0.36307906069E+01  0.90946786837E+01  0.51100000000E-03 0.  1.
         12    1    4    4    0    0  0.20253522723E+02 -0.98210628735E+01 -0.65324267729E+00  0.22518552010E+02  0.00000000000E+00 0. -1.
</event>
<event>
 8    1  0.1265908E-006  0.9118800E+02  0.7816164E-02  0.1184000E+00
        -11   -1    0    0    0    0  0.00000000000E+00  0.00000000000E+00  0.45593999997E+02  0.45594000000E+02  0.51100000000E-03 0.  1.
         11   -1    0    0    0    0 -0.00000000000E+00 -0.00000000000E+00 -0.45593999997E+02  0.45594000000E+02  0.51100000000E-03 0. -1.
         23    2    1    2    0    0  0.35527136788E-14  0.00000000000E+00  0.00000000000E+00  0.91188000000E+02  0.91188000000E+02 0.  0.
    9900012    2    3    3    0    0 -0.28526751338E+02 -0.99908301859E+01  0.21028239763E+02  0.54367094291E+02  0.40000023055E+02 0.  0.
         12    1    3    3    0    0  0.28526751338E+02  0.99908301859E+01 -0.21028239763E+02  0.36820905709E+02  0.00000000000E+00 0. -1.
         11    1    4    4    0    0  0.86920007956E+01  0.27816155434E+01  0.16864704317E+01  0.92807567385E+01  0.51100000000E-03 0. -1.
        -11    1    4    4    0    0 -0.97265703117E+01 -0.25270939071E+00  0.87174594567E+01  0.13063848273E+02  0.51100000000E-03 0.  1.
         12    1    4    4    0    0 -0.27492181822E+02 -0.12519736339E+02  0.10624309875E+02  0.32022489279E+02  0.00000000000E+00 0. -1.
</event>
<event>
 8    1  0.1265908E-006  0.9118800E+02  0.7816164E-02  0.1184000E+00
        -11   -1    0    0    0    0  0.00000000000E+00  0.00000000000E+00  0.45593999997E+02  0.45594000000E+02  0.51100000000E-03 0.  1.
         11   -1    0    0    0    0 -0.00000000000E+00 -0.00000000000E+00 -0.45593999997E+02  0.45594000000E+02  0.51100000000E-03 0. -1.
         23    2    1    2    0    0  0.00000000000E+00  0.00000000000E+00 -0.35527136788E-14  0.91188000000E+02  0.91188000000E+02 0.  0.
    9900012    2    3    3    0    0 -0.82829557347E+01 -0.31232454993E+02 -0.17655200801E+02  0.54367085889E+02  0.40000003902E+02 0.  0.
        -12    1    3    3    0    0  0.82829557347E+01  0.31232454993E+02  0.17655200801E+02  0.36820914111E+02  0.00000000000E+00 0.  1.
         11    1    4    4    0    0 -0.13857590609E+02 -0.15600836815E+02 -0.15222256817E+02  0.25828976551E+02  0.51100000000E-03 0. -1.
        -11    1    4    4    0    0 -0.90170661022E+01 -0.44786954977E+01 -0.80329167905E+00  0.10100072883E+02  0.51100000000E-03 0.  1.
        -12    1    4    4    0    0  0.14591700976E+02 -0.11152922680E+02 -0.16296523051E+01  0.18438036455E+02  0.00000000000E+00 0.  1.
</event>
<event>
 8    1  0.1265908E-006  0.9118800E+02  0.7816164E-02  0.1184000E+00
        -11   -1    0    0    0    0  0.00000000000E+00  0.00000000000E+00  0.45593999997E+02  0.45594000000E+02  0.51100000000E-03 0.  1.
         11   -1    0    0    0    0 -0.00000000000E+00 -0.00000000000E+00 -0.45593999997E+02  0.45594000000E+02  0.51100000000E-03 0. -1.
         23    2    1    2    0    0  0.17763568394E-14 -0.17763568394E-14  0.00000000000E+00  0.91188000000E+02  0.91188000000E+02 0.  0.
    9900012    2    3    3    0    0 -0.92730559354E+01 -0.44643726331E+01  0.35353340559E+02  0.54367097267E+02  0.40000029839E+02 0.  0.
         12    1    3    3    0    0  0.92730559354E+01  0.44643726331E+01 -0.35353340559E+02  0.36820902733E+02  0.00000000000E+00 0. -1.
         11    1    4    4    0    0  0.89744898224E+00 -0.27708867189E+01  0.14958270381E+00  0.29164367182E+01  0.51100000000E-03 0. -1.
        -11    1    4    4    0    0  0.35859902173E+01 -0.16730816190E+02  0.15039670563E+02  0.22780939996E+02  0.51100000000E-03 0.  1.
        -12    1    4    4    0    0 -0.13756495135E+02  0.15037330275E+02  0.20164087293E+02  0.28669720552E+02  0.00000000000E+00 0.  1.
</event>
<event>
 8    1  0.1265908E-006  0.9118800E+02  0.7816164E-02  0.1184000E+00
        -11   -1    0    0    0    0  0.00000000000E+00  0.00000000000E+00  0.45593999997E+02  0.45594000000E+02  0.51100000000E-03 0.  1.
         11   -1    0    0    0    0 -0.00000000000E+00 -0.00000000000E+00 -0.45593999997E+02  0.45594000000E+02  0.51100000000E-03 0. -1.
         23    2    1    2    0    0  0.00000000000E+00  0.35527136788E-14  0.00000000000E+00  0.91188000000E+02  0.91188000000E+02 0.  0.
    9900012    2    3    3    0    0 -0.25996207301E+02 -0.23412260537E+02 -0.11482297772E+02  0.54367083395E+02  0.39999998217E+02 0.  0.
         12    1    3    3    0    0  0.25996207301E+02  0.23412260537E+02  0.11482297772E+02  0.36820916605E+02  0.00000000000E+00 0. -1.
         11    1    4    4    0    0  0.10097721319E+02 -0.39943301848E+01 -0.20963386449E+01  0.11059533690E+02  0.51100000000E-03 0. -1.
        -11    1    4    4    0    0 -0.10235763375E+02 -0.23969196491E+01 -0.61551539089E+01  0.12182035773E+02  0.51100000000E-03 0.  1.
        -12    1    4    4    0    0 -0.25858165245E+02 -0.17021010703E+02 -0.32308052180E+01  0.31125513933E+02  0.00000000000E+00 0.  1.
</event>
<event>
 8    1  0.1265908E-006  0.9118800E+02  0.7816164E-02  0.1184000E+00
        -11   -1    0    0    0    0  0.00000000000E+00  0.00000000000E+00  0.45593999997E+02  0.45594000000E+02  0.51100000000E-03 0. -1.
         11   -1    0    0    0    0 -0.00000000000E+00 -0.00000000000E+00 -0.45593999997E+02  0.45594000000E+02  0.51100000000E-03 0.  1.
         23    2    1    2    0    0  0.00000000000E+00  0.00000000000E+00  0.00000000000E+00  0.91188000000E+02  0.91188000000E+02 0.  0.
    9900012    2    3    3    0    0 -0.19158797164E+01  0.11486852883E+02  0.34930826650E+02  0.54367067982E+02  0.39999963079E+02 0.  0.
        -12    1    3    3    0    0  0.19158797164E+01 -0.11486852883E+02 -0.34930826650E+02  0.36820932018E+02  0.00000000000E+00 0.  1.
         11    1    4    4    0    0 -0.12689109998E+02  0.44875030196E+01  0.16743723518E+01  0.13562990781E+02  0.51100000000E-03 0. -1.
        -11    1    4    4    0    0  0.68747645821E+01  0.17752466209E+01  0.33536299607E+02  0.34279691950E+02  0.51100000000E-03 0.  1.
        -12    1    4    4    0    0  0.38984656999E+01  0.52241032422E+01 -0.27984530905E+00  0.65243852504E+01  0.00000000000E+00 0.  1.
</event>
<event>
 8    1  0.1265908E-006  0.9118800E+02  0.7816164E-02  0.1184000E+00
        -11   -1    0    0    0    0  0.00000000000E+00  0.00000000000E+00  0.45593999997E+02  0.45594000000E+02  0.51100000000E-03 0.  1.
         11   -1    0    0    0    0 -0.00000000000E+00 -0.00000000000E+00 -0.45593999997E+02  0.45594000000E+02  0.51100000000E-03 0. -1.
         23    2    1    2    0    0 -0.71054273576E-14 -0.35527136788E-14  0.17763568394E-14  0.91188000000E+02  0.91188000000E+02 0.  0.
    9900012    2    3    3    0    0 -0.29206396968E+02 -0.17752653780E+02  0.13697123555E+02  0.54367061205E+02  0.39999947628E+02 0.  0.
        -12    1    3    3    0    0  0.29206396968E+02  0.17752653780E+02 -0.13697123555E+02  0.36820938795E+02  0.00000000000E+00 0.  1.
         11    1    4    4    0    0 -0.45711998642E+01 -0.15285896911E+02 -0.13109058678E+01  0.16008528572E+02  0.51100000000E-03 0. -1.
        -11    1    4    4    0    0 -0.23690549287E+02 -0.78415048123E+01  0.29565970754E+01  0.25129122344E+02  0.51100000000E-03 0.  1.
        -12    1    4    4    0    0 -0.94464781625E+00  0.53747479437E+01  0.12051432348E+02  0.13229410289E+02  0.00000000000E+00 0.  1.
</event>
<event>
 8    1  0.1265908E-006  0.9118800E+02  0.7816164E-02  0.1184000E+00
        -11   -1    0    0    0    0  0.00000000000E+00  0.00000000000E+00  0.45593999997E+02  0.45594000000E+02  0.51100000000E-03 0.  1.
         11   -1    0    0    0    0 -0.00000000000E+00 -0.00000000000E+00 -0.45593999997E+02  0.45594000000E+02  0.51100000000E-03 0. -1.
         23    2    1    2    0    0  0.00000000000E+00  0.35527136788E-14  0.35527136788E-14  0.91188000000E+02  0.91188000000E+02 0.  0.
    9900012    2    3    3    0    0 -0.69104130405E+00 -0.24499881411E+02  0.27478303688E+02  0.54367096959E+02  0.40000029137E+02 0.  0.
         12    1    3    3    0    0  0.69104130405E+00  0.24499881411E+02 -0.27478303688E+02  0.36820903041E+02  0.00000000000E+00 0. -1.
         11    1    4    4    0    0  0.21928213487E+01  0.76191338881E+01  0.34444267860E+01  0.86442896075E+01  0.51100000000E-03 0. -1.
        -11    1    4    4    0    0 -0.22617042290E+01  0.14665982044E+01  0.81137807589E+01  0.85498336111E+01  0.51100000000E-03 0.  1.
        -12    1    4    4    0    0 -0.62215842382E+00 -0.33585613503E+02  0.15920096143E+02  0.37172973740E+02  0.00000000000E+00 0.  1.
</event>
<event>
 8    1  0.1265908E-006  0.9118800E+02  0.7816164E-02  0.1184000E+00
        -11   -1    0    0    0    0  0.00000000000E+00  0.00000000000E+00  0.45593999997E+02  0.45594000000E+02  0.51100000000E-03 0. -1.
         11   -1    0    0    0    0 -0.00000000000E+00 -0.00000000000E+00 -0.45593999997E+02  0.45594000000E+02  0.51100000000E-03 0.  1.
         23    2    1    2    0    0  0.00000000000E+00  0.00000000000E+00 -0.17763568394E-14  0.91188000000E+02  0.91188000000E+02 0.  0.
    9900012    2    3    3    0    0 -0.32229043529E+02  0.90993969945E+01 -0.15305888179E+02  0.54367075440E+02  0.39999980081E+02 0.  0.
        -12    1    3    3    0    0  0.32229043529E+02 -0.90993969945E+01  0.15305888179E+02  0.36820924560E+02  0.00000000000E+00 0.  1.
         11    1    4    4    0    0 -0.19641111792E+02  0.37688780807E+01 -0.85138390492E+01  0.21736217933E+02  0.51100000000E-03 0. -1.
        -11    1    4    4    0    0  0.50032820523E+01  0.12062226910E+02 -0.33799664699E+01  0.13489044552E+02  0.51100000000E-03 0.  1.
        -12    1    4    4    0    0 -0.17591213789E+02 -0.67317079963E+01 -0.34120826600E+01  0.19141812955E+02  0.00000000000E+00 0.  1.
</event>
<event>
 8    1  0.1265908E-006  0.9118800E+02  0.7816164E-02  0.1184000E+00
        -11   -1    0    0    0    0  0.00000000000E+00  0.00000000000E+00  0.45593999997E+02  0.45594000000E+02  0.51100000000E-03 0. -1.
         11   -1    0    0    0    0 -0.00000000000E+00 -0.00000000000E+00 -0.45593999997E+02  0.45594000000E+02  0.51100000000E-03 0.  1.
         23    2    1    2    0    0  0.00000000000E+00  0.35527136788E-14  0.00000000000E+00  0.91188000000E+02  0.91188000000E+02 0.  0.
    9900012    2    3    3    0    0  0.58978273166E+01  0.30607977599E+02  0.19599684914E+02  0.54367077843E+02  0.39999985560E+02 0.  0.
        -12    1    3    3    0    0 -0.58978273166E+01 -0.30607977599E+02 -0.19599684914E+02  0.36820922157E+02  0.00000000000E+00 0.  1.
         11    1    4    4    0    0  0.36437783147E+01 -0.12022018882E+01 -0.22365107613E+01  0.44412149727E+01  0.51100000000E-03 0. -1.
        -11    1    4    4    0    0  0.32183213052E+01 -0.83147212074E+00 -0.61027098750E+01  0.69492449943E+01  0.51100000000E-03 0.  1.
         12    1    4    4    0    0 -0.96427230336E+00  0.32641651608E+02  0.27938905550E+02  0.42976617876E+02  0.00000000000E+00 0. -1.
</event>
<event>
 8    1  0.1265908E-006  0.9118800E+02  0.7816164E-02  0.1184000E+00
        -11   -1    0    0    0    0  0.00000000000E+00  0.00000000000E+00  0.45593999997E+02  0.45594000000E+02  0.51100000000E-03 0.  1.
         11   -1    0    0    0    0 -0.00000000000E+00 -0.00000000000E+00 -0.45593999997E+02  0.45594000000E+02  0.51100000000E-03 0. -1.
         23    2    1    2    0    0  0.71054273576E-14  0.35527136788E-14  0.00000000000E+00  0.91188000000E+02  0.91188000000E+02 0.  0.
    9900012    2    3    3    0    0 -0.28575228985E+02 -0.22727866621E+02  0.47622859899E+01  0.54367095604E+02  0.40000026048E+02 0.  0.
         12    1    3    3    0    0  0.28575228985E+02  0.22727866621E+02 -0.47622859899E+01  0.36820904396E+02  0.00000000000E+00 0. -1.
         11    1    4    4    0    0  0.22777644310E+01 -0.67056376004E+01  0.13383693484E+02  0.15141896776E+02  0.51100000000E-03 0.  1.
        -11    1    4    4    0    0  0.44709368598E+00  0.94186665464E+00  0.18430484902E+01  0.21175064481E+01  0.51100000000E-03 0. -1.
        -12    1    4    4    0    0 -0.31300087102E+02 -0.16964095675E+02 -0.10464455985E+02  0.37107692380E+02  0.00000000000E+00 0.  1.
</event>
<event>
 8    1  0.1265908E-006  0.9118800E+02  0.7816164E-02  0.1184000E+00
        -11   -1    0    0    0    0  0.00000000000E+00  0.00000000000E+00  0.45593999997E+02  0.45594000000E+02  0.51100000000E-03 0.  1.
         11   -1    0    0    0    0 -0.00000000000E+00 -0.00000000000E+00 -0.45593999997E+02  0.45594000000E+02  0.51100000000E-03 0. -1.
         23    2    1    2    0    0  0.00000000000E+00 -0.17763568394E-14 -0.17763568394E-14  0.91188000000E+02  0.91188000000E+02 0.  0.
    9900012    2    3    3    0    0 -0.33288957026E+02 -0.95589879437E+01  0.12499869062E+02  0.54367141279E+02  0.40000130174E+02 0.  0.
         12    1    3    3    0    0  0.33288957026E+02  0.95589879437E+01 -0.12499869062E+02  0.36820858721E+02  0.00000000000E+00 0. -1.
         11    1    4    4    0    0 -0.16917209199E+02  0.72858534226E+01 -0.76774416655E+01  0.19955418762E+02  0.51100000000E-03 0. -1.
        -11    1    4    4    0    0 -0.14782672656E+02 -0.59998414448E+01  0.74274194725E+01  0.17598070022E+02  0.51100000000E-03 0.  1.
         12    1    4    4    0    0 -0.15890751701E+01 -0.10844999921E+02  0.12749891255E+02  0.16813652495E+02  0.00000000000E+00 0. -1.
</event>
<event>
 8    1  0.1265908E-006  0.9118800E+02  0.7816164E-02  0.1184000E+00
        -11   -1    0    0    0    0  0.00000000000E+00  0.00000000000E+00  0.45593999997E+02  0.45594000000E+02  0.51100000000E-03 0. -1.
         11   -1    0    0    0    0 -0.00000000000E+00 -0.00000000000E+00 -0.45593999997E+02  0.45594000000E+02  0.51100000000E-03 0.  1.
         23    2    1    2    0    0 -0.35527136788E-14  0.00000000000E+00  0.00000000000E+00  0.91188000000E+02  0.91188000000E+02 0.  0.
    9900012    2    3    3    0    0 -0.30906559525E+02  0.17796764992E+02 -0.91563161543E+01  0.54367103876E+02  0.40000044906E+02 0.  0.
         12    1    3    3    0    0  0.30906559525E+02 -0.17796764992E+02  0.91563161543E+01  0.36820896124E+02  0.00000000000E+00 0. -1.
         11    1    4    4    0    0 -0.30352906125E+00 -0.52582254912E+01 -0.16943018774E+01  0.55327863071E+01  0.51100000000E-03 0. -1.
        -11    1    4    4    0    0 -0.84736633175E+00 -0.61954963731E+01 -0.27934776064E+01  0.68487752487E+01  0.51100000000E-03 0.  1.
        -12    1    4    4    0    0 -0.29755664132E+02  0.29250486856E+02 -0.46685366705E+01  0.41985542320E+02  0.00000000000E+00 0.  1.
</event>
<event>
 8    1  0.1265908E-006  0.9118800E+02  0.7816164E-02  0.1184000E+00
        -11   -1    0    0    0    0  0.00000000000E+00  0.00000000000E+00  0.45593999997E+02  0.45594000000E+02  0.51100000000E-03 0. -1.
         11   -1    0    0    0    0 -0.00000000000E+00 -0.00000000000E+00 -0.45593999997E+02  0.45594000000E+02  0.51100000000E-03 0.  1.
         23    2    1    2    0    0  0.00000000000E+00  0.00000000000E+00  0.00000000000E+00  0.91188000000E+02  0.91188000000E+02 0.  0.
    9900012    2    3    3    0    0 -0.32224192170E+02  0.15898561864E+02 -0.80384796001E+01  0.54367082240E+02  0.39999995583E+02 0.  0.
         12    1    3    3    0    0  0.32224192170E+02 -0.15898561864E+02  0.80384796001E+01  0.36820917760E+02  0.00000000000E+00 0. -1.
         11    1    4    4    0    0 -0.26437033238E+01  0.11360340691E+02  0.59958058628E+01  0.13114732025E+02  0.51100000000E-03 0. -1.
        -11    1    4    4    0    0 -0.28739134044E+01  0.28691842849E+01 -0.13912833779E+02  0.14493396452E+02  0.51100000000E-03 0.  1.
        -12    1    4    4    0    0 -0.26706575442E+02  0.16690368886E+01 -0.12145168429E+00  0.26758953763E+02  0.00000000000E+00 0.  1.
</event>
<event>
 8    1  0.1265908E-006  0.9118800E+02  0.7816164E-02  0.1184000E+00
        -11   -1    0    0    0    0  0.00000000000E+00  0.00000000000E+00  0.45593999997E+02  0.45594000000E+02  0.51100000000E-03 0.  1.
         11   -1    0    0    0    0 -0.00000000000E+00 -0.00000000000E+00 -0.45593999997E+02  0.45594000000E+02  0.51100000000E-03 0. -1.
         23    2    1    2    0    0  0.90205620751E-16 -0.71054273576E-14  0.00000000000E+00  0.91188000000E+02  0.91188000000E+02 0.  0.
    9900012    2    3    3    0    0  0.38858008652E-01  0.33838489105E+02  0.14516713514E+02  0.54367084393E+02  0.40000000491E+02 0.  0.
         12    1    3    3    0    0 -0.38858008652E-01 -0.33838489105E+02 -0.14516713514E+02  0.36820915607E+02  0.00000000000E+00 0. -1.
         11    1    4    4    0    0  0.29359894563E+01  0.83032099694E+01 -0.44387908657E+01  0.98623625209E+01  0.51100000000E-03 0. -1.
        -11    1    4    4    0    0 -0.26914426834E+01  0.10212592658E+00  0.18879469762E+02  0.19070623278E+02  0.51100000000E-03 0.  1.
        -12    1    4    4    0    0 -0.20568876421E+00  0.25433153209E+02  0.76034617584E-01  0.25434098594E+02  0.00000000000E+00 0.  1.
</event>
<event>
 8    1  0.1265908E-006  0.9118800E+02  0.7816164E-02  0.1184000E+00
        -11   -1    0    0    0    0  0.00000000000E+00  0.00000000000E+00  0.45593999997E+02  0.45594000000E+02  0.51100000000E-03 0. -1.
         11   -1    0    0    0    0 -0.00000000000E+00 -0.00000000000E+00 -0.45593999997E+02  0.45594000000E+02  0.51100000000E-03 0.  1.
         23    2    1    2    0    0  0.00000000000E+00  0.35527136788E-14 -0.35527136788E-14  0.91188000000E+02  0.91188000000E+02 0.  0.
    9900012    2    3    3    0    0 -0.15336078077E+02  0.18128219201E+02 -0.28141659823E+02  0.54367073344E+02  0.39999975303E+02 0.  0.
         12    1    3    3    0    0  0.15336078077E+02 -0.18128219201E+02  0.28141659823E+02  0.36820926656E+02  0.00000000000E+00 0. -1.
         11    1    4    4    0    0  0.20448769589E+01 -0.65962035180E+01  0.10521315371E+01  0.69855854200E+01  0.51100000000E-03 0. -1.
        -11    1    4    4    0    0  0.21259216836E+00  0.16649317797E+02 -0.19781396638E+02  0.25856307388E+02  0.51100000000E-03 0.  1.
         12    1    4    4    0    0 -0.17593547204E+02  0.80751049223E+01 -0.94123947226E+01  0.21525180537E+02  0.00000000000E+00 0. -1.
</event>
<event>
 8    1  0.1265908E-006  0.9118800E+02  0.7816164E-02  0.1184000E+00
        -11   -1    0    0    0    0  0.00000000000E+00  0.00000000000E+00  0.45593999997E+02  0.45594000000E+02  0.51100000000E-03 0.  1.
         11   -1    0    0    0    0 -0.00000000000E+00 -0.00000000000E+00 -0.45593999997E+02  0.45594000000E+02  0.51100000000E-03 0. -1.
         23    2    1    2    0    0  0.35527136788E-14  0.00000000000E+00 -0.35527136788E-14  0.91188000000E+02  0.91188000000E+02 0.  0.
    9900012    2    3    3    0    0 -0.20240666281E+02 -0.25035890480E+02  0.17868961367E+02  0.54367079806E+02  0.39999990033E+02 0.  0.
         12    1    3    3    0    0  0.20240666281E+02  0.25035890480E+02 -0.17868961367E+02  0.36820920194E+02  0.00000000000E+00 0. -1.
         11    1    4    4    0    0 -0.28618328679E+01  0.38321002547E+01 -0.85923342733E+01  0.98337830081E+01  0.51100000000E-03 0. -1.
        -11    1    4    4    0    0 -0.59874057788E+01 -0.14682181578E+02  0.19307530761E+02  0.24983919393E+02  0.51100000000E-03 0.  1.
         12    1    4    4    0    0 -0.11391427634E+02 -0.14185809157E+02  0.71537648786E+01  0.19549377405E+02  0.00000000000E+00 0. -1.
</event>
<event>
 8    1  0.1265908E-006  0.9118800E+02  0.7816164E-02  0.1184000E+00
        -11   -1    0    0    0    0  0.00000000000E+00  0.00000000000E+00  0.45593999997E+02  0.45594000000E+02  0.51100000000E-03 0.  1.
         11   -1    0    0    0    0 -0.00000000000E+00 -0.00000000000E+00 -0.45593999997E+02  0.45594000000E+02  0.51100000000E-03 0. -1.
         23    2    1    2    0    0  0.00000000000E+00 -0.17763568394E-14  0.35527136788E-14  0.91188000000E+02  0.91188000000E+02 0.  0.
    9900012    2    3    3    0    0 -0.24075502568E+02  0.14607604499E+02  0.23722712327E+02  0.54367095432E+02  0.40000025655E+02 0.  0.
         12    1    3    3    0    0  0.24075502568E+02 -0.14607604499E+02 -0.23722712327E+02  0.36820904568E+02  0.00000000000E+00 0. -1.
         11    1    4    4    0    0 -0.21130310301E+02  0.32371709780E+01  0.28958641913E+02  0.35994058274E+02  0.51100000000E-03 0. -1.
        -11    1    4    4    0    0 -0.36503566502E+00  0.12063445956E+01  0.41268555739E+01  0.43150267101E+01  0.51100000000E-03 0.  1.
         12    1    4    4    0    0 -0.25801566025E+01  0.10164088925E+02 -0.93627851603E+01  0.14058010447E+02  0.00000000000E+00 0. -1.
</event>
<event>
 8    1  0.1265908E-006  0.9118800E+02  0.7816164E-02  0.1184000E+00
        -11   -1    0    0    0    0  0.00000000000E+00  0.00000000000E+00  0.45593999997E+02  0.45594000000E+02  0.51100000000E-03 0. -1.
         11   -1    0    0    0    0 -0.00000000000E+00 -0.00000000000E+00 -0.45593999997E+02  0.45594000000E+02  0.51100000000E-03 0.  1.
         23    2    1    2    0    0  0.00000000000E+00  0.00000000000E+00  0.17763568394E-14  0.91188000000E+02  0.91188000000E+02 0.  0.
    9900012    2    3    3    0    0 -0.22732784138E+02 -0.28735783521E+02 -0.36412943731E+01  0.54367031056E+02  0.39999878898E+02 0.  0.
         12    1    3    3    0    0  0.22732784138E+02  0.28735783521E+02  0.36412943731E+01  0.36820968944E+02  0.00000000000E+00 0. -1.
         11    1    4    4    0    0 -0.20582740185E+02 -0.13707401730E+02 -0.14532264793E+02  0.28683249049E+02  0.51100000000E-03 0. -1.
        -11    1    4    4    0    0 -0.32166654109E+01 -0.31682103038E+00 -0.37159058075E+01  0.49249637727E+01  0.51100000000E-03 0.  1.
         12    1    4    4    0    0  0.10666214577E+01 -0.14711560761E+02  0.14606876228E+02  0.20758818234E+02  0.00000000000E+00 0. -1.
</event>
<event>
 8    1  0.1265908E-006  0.9118800E+02  0.7816164E-02  0.1184000E+00
        -11   -1    0    0    0    0  0.00000000000E+00  0.00000000000E+00  0.45593999997E+02  0.45594000000E+02  0.51100000000E-03 0.  1.
         11   -1    0    0    0    0 -0.00000000000E+00 -0.00000000000E+00 -0.45593999997E+02  0.45594000000E+02  0.51100000000E-03 0. -1.
         23    2    1    2    0    0  0.00000000000E+00 -0.88817841970E-15 -0.17763568394E-14  0.91188000000E+02  0.91188000000E+02 0.  0.
    9900012    2    3    3    0    0 -0.33363722029E+02 -0.66647008067E+01  0.14079190396E+02  0.54367084929E+02  0.40000001712E+02 0.  0.
         12    1    3    3    0    0  0.33363722029E+02  0.66647008067E+01 -0.14079190396E+02  0.36820915071E+02  0.00000000000E+00 0. -1.
         11    1    4    4    0    0 -0.13411353291E+01 -0.13323416986E+02  0.48515964706E+01  0.14242544461E+02  0.51100000000E-03 0. -1.
        -11    1    4    4    0    0 -0.28734378253E+02  0.52052587724E+01 -0.10656981815E+01  0.29221480547E+02  0.51100000000E-03 0.  1.
         12    1    4    4    0    0 -0.32882084470E+01  0.14534574070E+01  0.10293292107E+02  0.10903059921E+02  0.00000000000E+00 0. -1.
</event>
<event>
 8    1  0.1265908E-006  0.9118800E+02  0.7816164E-02  0.1184000E+00
        -11   -1    0    0    0    0  0.00000000000E+00  0.00000000000E+00  0.45593999997E+02  0.45594000000E+02  0.51100000000E-03 0.  1.
         11   -1    0    0    0    0 -0.00000000000E+00 -0.00000000000E+00 -0.45593999997E+02  0.45594000000E+02  0.51100000000E-03 0. -1.
         23    2    1    2    0    0  0.00000000000E+00  0.00000000000E+00  0.00000000000E+00  0.91188000000E+02  0.91188000000E+02 0.  0.
    9900012    2    3    3    0    0 -0.92753889795E+01  0.27324082676E+02  0.22872245269E+02  0.54367110027E+02  0.40000058928E+02 0.  0.
         12    1    3    3    0    0  0.92753889795E+01 -0.27324082676E+02 -0.22872245269E+02  0.36820889973E+02  0.00000000000E+00 0. -1.
         11    1    4    4    0    0  0.71515552032E+01  0.17646273657E+02  0.37469899909E+01  0.19405557195E+02  0.51100000000E-03 0. -1.
        -11    1    4    4    0    0  0.34241994072E+01  0.84052188217E+01  0.37496298122E+01  0.98200086054E+01  0.51100000000E-03 0.  1.
        -12    1    4    4    0    0 -0.19851143590E+02  0.12725901976E+01  0.15375625466E+02  0.25141544226E+02  0.00000000000E+00 0.  1.
</event>
<event>
 8    1  0.1265908E-006  0.9118800E+02  0.7816164E-02  0.1184000E+00
        -11   -1    0    0    0    0  0.00000000000E+00  0.00000000000E+00  0.45593999997E+02  0.45594000000E+02  0.51100000000E-03 0.  1.
         11   -1    0    0    0    0 -0.00000000000E+00 -0.00000000000E+00 -0.45593999997E+02  0.45594000000E+02  0.51100000000E-03 0. -1.
         23    2    1    2    0    0  0.00000000000E+00 -0.17763568394E-14  0.00000000000E+00  0.91188000000E+02  0.91188000000E+02 0.  0.
    9900012    2    3    3    0    0 -0.30001588912E+02  0.14437690287E+02  0.15723818357E+02  0.54367072503E+02  0.39999973384E+02 0.  0.
         12    1    3    3    0    0  0.30001588912E+02 -0.14437690287E+02 -0.15723818357E+02  0.36820927497E+02  0.00000000000E+00 0. -1.
         11    1    4    4    0    0 -0.58397018217E+00 -0.59453478532E+01 -0.85229079595E+00  0.60344496130E+01  0.51100000000E-03 0. -1.
        -11    1    4    4    0    0 -0.20557949444E+02 -0.15441850895E+00  0.11090991015E+00  0.20558828558E+02  0.51100000000E-03 0.  1.
        -12    1    4    4    0    0 -0.88596692856E+01  0.20537456649E+02  0.16465199243E+02  0.27773794332E+02  0.00000000000E+00 0.  1.
</event>
<event>
 8    1  0.1265908E-006  0.9118800E+02  0.7816164E-02  0.1184000E+00
        -11   -1    0    0    0    0  0.00000000000E+00  0.00000000000E+00  0.45593999997E+02  0.45594000000E+02  0.51100000000E-03 0. -1.
         11   -1    0    0    0    0 -0.00000000000E+00 -0.00000000000E+00 -0.45593999997E+02  0.45594000000E+02  0.51100000000E-03 0.  1.
         23    2    1    2    0    0  0.00000000000E+00 -0.35527136788E-14  0.35527136788E-14  0.91188000000E+02  0.91188000000E+02 0.  0.
    9900012    2    3    3    0    0  0.23317269122E+02  0.20605855961E+02 -0.19684594496E+02  0.54367087469E+02  0.40000007502E+02 0.  0.
         12    1    3    3    0    0 -0.23317269122E+02 -0.20605855961E+02  0.19684594496E+02  0.36820912531E+02  0.00000000000E+00 0. -1.
         11    1    4    4    0    0  0.60519802486E+01 -0.48282460598E+01  0.27690048634E+01  0.82222754234E+01  0.51100000000E-03 0. -1.
        -11    1    4    4    0    0  0.42998361920E+01 -0.47025057953E+01 -0.81750000685E+01  0.10364978457E+02  0.51100000000E-03 0.  1.
         12    1    4    4    0    0  0.12965452681E+02  0.30136607816E+02 -0.14278599291E+02  0.35779833588E+02  0.00000000000E+00 0. -1.
</event>
<event>
 8    1  0.1265908E-006  0.9118800E+02  0.7816164E-02  0.1184000E+00
        -11   -1    0    0    0    0  0.00000000000E+00  0.00000000000E+00  0.45593999997E+02  0.45594000000E+02  0.51100000000E-03 0. -1.
         11   -1    0    0    0    0 -0.00000000000E+00 -0.00000000000E+00 -0.45593999997E+02  0.45594000000E+02  0.51100000000E-03 0.  1.
         23    2    1    2    0    0  0.00000000000E+00  0.00000000000E+00  0.00000000000E+00  0.91188000000E+02  0.91188000000E+02 0.  0.
    9900012    2    3    3    0    0 -0.56174792561E+01 -0.13638740959E+02  0.33737340964E+02  0.54367088774E+02  0.40000010479E+02 0.  0.
        -12    1    3    3    0    0  0.56174792561E+01  0.13638740959E+02 -0.33737340964E+02  0.36820911226E+02  0.00000000000E+00 0.  1.
         11    1    4    4    0    0 -0.47219779737E+01 -0.72647075962E+01 -0.14749275837E+01  0.87891105398E+01  0.51100000000E-03 0. -1.
        -11    1    4    4    0    0 -0.92226488416E+01  0.61117536337E+01  0.25241596251E+02  0.27559915923E+02  0.51100000000E-03 0.  1.
        -12    1    4    4    0    0  0.83271475591E+01 -0.12485786997E+02  0.99706722966E+01  0.18018062311E+02  0.00000000000E+00 0.  1.
</event>
<event>
 8    1  0.1265908E-006  0.9118800E+02  0.7816164E-02  0.1184000E+00
        -11   -1    0    0    0    0  0.00000000000E+00  0.00000000000E+00  0.45593999997E+02  0.45594000000E+02  0.51100000000E-03 0. -1.
         11   -1    0    0    0    0 -0.00000000000E+00 -0.00000000000E+00 -0.45593999997E+02  0.45594000000E+02  0.51100000000E-03 0.  1.
         23    2    1    2    0    0  0.00000000000E+00  0.00000000000E+00  0.00000000000E+00  0.91188000000E+02  0.91188000000E+02 0.  0.
    9900012    2    3    3    0    0 -0.27521146410E+01 -0.18920185210E+02  0.31467957042E+02  0.54367083882E+02  0.39999999327E+02 0.  0.
        -12    1    3    3    0    0  0.27521146410E+01  0.18920185210E+02 -0.31467957042E+02  0.36820916118E+02  0.00000000000E+00 0.  1.
         11    1    4    4    0    0  0.44955822865E+01 -0.52426805974E+01  0.24485983158E+02  0.25441291858E+02  0.51100000000E-03 0. -1.
        -11    1    4    4    0    0 -0.39873106638E+01 -0.10416862116E+02  0.15584900838E+02  0.19165041014E+02  0.51100000000E-03 0.  1.
        -12    1    4    4    0    0 -0.32603862636E+01 -0.32606424969E+01 -0.86029269551E+01  0.97607510098E+01  0.00000000000E+00 0.  1.
</event>
<event>
 8    1  0.1265908E-006  0.9118800E+02  0.7816164E-02  0.1184000E+00
        -11   -1    0    0    0    0  0.00000000000E+00  0.00000000000E+00  0.45593999997E+02  0.45594000000E+02  0.51100000000E-03 0.  1.
         11   -1    0    0    0    0 -0.00000000000E+00 -0.00000000000E+00 -0.45593999997E+02  0.45594000000E+02  0.51100000000E-03 0. -1.
         23    2    1    2    0    0  0.17763568394E-14  0.00000000000E+00 -0.17763568394E-14  0.91188000000E+02  0.91188000000E+02 0.  0.
    9900012    2    3    3    0    0  0.10571733807E+02  0.33066672890E+02 -0.12272458190E+02  0.54367086897E+02  0.40000006199E+02 0.  0.
         12    1    3    3    0    0 -0.10571733807E+02 -0.33066672890E+02  0.12272458190E+02  0.36820913103E+02  0.00000000000E+00 0. -1.
         11    1    4    4    0    0  0.19409927275E+02  0.14972085694E+02 -0.86074784830E+01  0.25980710401E+02  0.51100000000E-03 0. -1.
        -11    1    4    4    0    0 -0.14216140663E+02  0.11904375449E+02  0.16484452440E+01  0.18615321168E+02  0.51100000000E-03 0.  1.
        -12    1    4    4    0    0  0.53779471955E+01  0.61902117478E+01 -0.53134249508E+01  0.97710553283E+01  0.00000000000E+00 0.  1.
</event>
<event>
 8    1  0.1265908E-006  0.9118800E+02  0.7816164E-02  0.1184000E+00
        -11   -1    0    0    0    0  0.00000000000E+00  0.00000000000E+00  0.45593999997E+02  0.45594000000E+02  0.51100000000E-03 0.  1.
         11   -1    0    0    0    0 -0.00000000000E+00 -0.00000000000E+00 -0.45593999997E+02  0.45594000000E+02  0.51100000000E-03 0. -1.
         23    2    1    2    0    0  0.00000000000E+00  0.00000000000E+00  0.00000000000E+00  0.91188000000E+02  0.91188000000E+02 0.  0.
    9900012    2    3    3    0    0  0.20782479426E+02  0.29459488794E+02 -0.74837654588E+01  0.54367086425E+02  0.40000005122E+02 0.  0.
        -12    1    3    3    0    0 -0.20782479426E+02 -0.29459488794E+02  0.74837654588E+01  0.36820913575E+02  0.00000000000E+00 0.  1.
         11    1    4    4    0    0  0.25469077873E+02  0.19530992810E+02  0.16720166163E+01  0.32139216662E+02  0.51100000000E-03 0.  1.
        -11    1    4    4    0    0 -0.15411898160E+01 -0.36683749831E+01 -0.70757198068E+01  0.81177615209E+01  0.51100000000E-03 0. -1.
        -12    1    4    4    0    0 -0.31454086310E+01  0.13596870967E+02 -0.20800622682E+01  0.14110108241E+02  0.00000000000E+00 0.  1.
</event>
<event>
 8    1  0.1265908E-006  0.9118800E+02  0.7816164E-02  0.1184000E+00
        -11   -1    0    0    0    0  0.00000000000E+00  0.00000000000E+00  0.45593999997E+02  0.45594000000E+02  0.51100000000E-03 0. -1.
         11   -1    0    0    0    0 -0.00000000000E+00 -0.00000000000E+00 -0.45593999997E+02  0.45594000000E+02  0.51100000000E-03 0.  1.
         23    2    1    2    0    0  0.35527136788E-14  0.35527136788E-14  0.00000000000E+00  0.91188000000E+02  0.91188000000E+02 0.  0.
    9900012    2    3    3    0    0  0.23435985704E+02 -0.25928638550E+02 -0.11586247209E+02  0.54367070525E+02  0.39999968876E+02 0.  0.
         12    1    3    3    0    0 -0.23435985704E+02  0.25928638550E+02  0.11586247209E+02  0.36820929475E+02  0.00000000000E+00 0. -1.
         11    1    4    4    0    0 -0.89512937001E+01  0.77679120072E+00 -0.55338890276E+01  0.10552392691E+02  0.51100000000E-03 0. -1.
        -11    1    4    4    0    0  0.20887291741E+02 -0.13399250969E+02 -0.81108809548E+01  0.26107571180E+02  0.51100000000E-03 0.  1.
         12    1    4    4    0    0  0.11499987664E+02 -0.13306178782E+02  0.20585227734E+01  0.17707106654E+02  0.00000000000E+00 0. -1.
</event>
<event>
 8    1  0.1265908E-006  0.9118800E+02  0.7816164E-02  0.1184000E+00
        -11   -1    0    0    0    0  0.00000000000E+00  0.00000000000E+00  0.45593999997E+02  0.45594000000E+02  0.51100000000E-03 0. -1.
         11   -1    0    0    0    0 -0.00000000000E+00 -0.00000000000E+00 -0.45593999997E+02  0.45594000000E+02  0.51100000000E-03 0.  1.
         23    2    1    2    0    0  0.00000000000E+00  0.17763568394E-14  0.00000000000E+00  0.91188000000E+02  0.91188000000E+02 0.  0.
    9900012    2    3    3    0    0 -0.22806413148E+02  0.11426176040E+02 -0.26553528604E+02  0.54367083921E+02  0.39999999415E+02 0.  0.
         12    1    3    3    0    0  0.22806413148E+02 -0.11426176040E+02  0.26553528604E+02  0.36820916079E+02  0.00000000000E+00 0. -1.
         11    1    4    4    0    0 -0.59821402912E+01  0.82285133636E+01  0.86461849333E+01  0.13351065456E+02  0.51100000000E-03 0. -1.
        -11    1    4    4    0    0 -0.18032286811E+02  0.44392759782E+00 -0.30595351978E+02  0.35516700329E+02  0.51100000000E-03 0.  1.
        -12    1    4    4    0    0  0.12080139546E+01  0.27537350787E+01 -0.46043615591E+01  0.54993181364E+01  0.00000000000E+00 0.  1.
</event>
<event>
 8    1  0.1265908E-006  0.9118800E+02  0.7816164E-02  0.1184000E+00
        -11   -1    0    0    0    0  0.00000000000E+00  0.00000000000E+00  0.45593999997E+02  0.45594000000E+02  0.51100000000E-03 0. -1.
         11   -1    0    0    0    0 -0.00000000000E+00 -0.00000000000E+00 -0.45593999997E+02  0.45594000000E+02  0.51100000000E-03 0.  1.
         23    2    1    2    0    0 -0.88817841970E-15  0.00000000000E+00 -0.35527136788E-14  0.91188000000E+02  0.91188000000E+02 0.  0.
    9900012    2    3    3    0    0 -0.56922170916E+01  0.17490701812E+02 -0.31897556196E+02  0.54367080992E+02  0.39999992738E+02 0.  0.
        -12    1    3    3    0    0  0.56922170916E+01 -0.17490701812E+02  0.31897556196E+02  0.36820919008E+02  0.00000000000E+00 0.  1.
         11    1    4    4    0    0  0.30208085316E+01 -0.65574253019E+01  0.53458831241E+00  0.72395369810E+01  0.51100000000E-03 0. -1.
        -11    1    4    4    0    0  0.66360014603E+01  0.65047197516E+01 -0.16356060586E+02  0.18811395817E+02  0.51100000000E-03 0.  1.
         12    1    4    4    0    0 -0.15349027084E+02  0.17543407362E+02 -0.16076083923E+02  0.28316148195E+02  0.00000000000E+00 0. -1.
</event>
<event>
 8    1  0.1265908E-006  0.9118800E+02  0.7816164E-02  0.1184000E+00
        -11   -1    0    0    0    0  0.00000000000E+00  0.00000000000E+00  0.45593999997E+02  0.45594000000E+02  0.51100000000E-03 0. -1.
         11   -1    0    0    0    0 -0.00000000000E+00 -0.00000000000E+00 -0.45593999997E+02  0.45594000000E+02  0.51100000000E-03 0.  1.
         23    2    1    2    0    0  0.35527136788E-14 -0.35527136788E-14  0.11102230246E-14  0.91188000000E+02  0.91188000000E+02 0.  0.
    9900012    2    3    3    0    0 -0.19932423965E+02  0.30902774650E+02 -0.18698838677E+01  0.54367089204E+02  0.40000011458E+02 0.  0.
         12    1    3    3    0    0  0.19932423965E+02 -0.30902774650E+02  0.18698838677E+01  0.36820910796E+02  0.00000000000E+00 0. -1.
         11    1    4    4    0    0 -0.11229548766E+02 -0.24141696543E+01 -0.58125881640E+01  0.12873117806E+02  0.51100000000E-03 0. -1.
        -11    1    4    4    0    0 -0.69762408575E+01  0.31446539146E+02 -0.46383580081E+01  0.32543311541E+02  0.51100000000E-03 0.  1.
        -12    1    4    4    0    0 -0.17266343414E+01  0.18704051576E+01  0.85810623045E+01  0.89506598570E+01  0.00000000000E+00 0.  1.
</event>
<event>
 8    1  0.1265908E-006  0.9118800E+02  0.7816164E-02  0.1184000E+00
        -11   -1    0    0    0    0  0.00000000000E+00  0.00000000000E+00  0.45593999997E+02  0.45594000000E+02  0.51100000000E-03 0.  1.
         11   -1    0    0    0    0 -0.00000000000E+00 -0.00000000000E+00 -0.45593999997E+02  0.45594000000E+02  0.51100000000E-03 0. -1.
         23    2    1    2    0    0  0.00000000000E+00  0.00000000000E+00  0.00000000000E+00  0.91188000000E+02  0.91188000000E+02 0.  0.
    9900012    2    3    3    0    0  0.21977116384E+02  0.19278853569E+02  0.22385271107E+02  0.54367242240E+02  0.40000360333E+02 0.  0.
         12    1    3    3    0    0 -0.21977116384E+02 -0.19278853569E+02 -0.22385271107E+02  0.36820757760E+02  0.00000000000E+00 0. -1.
         11    1    4    4    0    0  0.18894853196E+02 -0.46411761381E+01  0.22728506553E+02  0.29918907126E+02  0.51100000000E-03 0. -1.
        -11    1    4    4    0    0  0.22605980566E+01  0.82362377440E+01  0.13694276564E+01  0.86499276365E+01  0.51100000000E-03 0.  1.
         12    1    4    4    0    0  0.82166513174E+00  0.15683791963E+02 -0.17126631025E+01  0.15798407477E+02  0.00000000000E+00 0. -1.
</event>
<event>
 8    1  0.1265908E-006  0.9118800E+02  0.7816164E-02  0.1184000E+00
        -11   -1    0    0    0    0  0.00000000000E+00  0.00000000000E+00  0.45593999997E+02  0.45594000000E+02  0.51100000000E-03 0.  1.
         11   -1    0    0    0    0 -0.00000000000E+00 -0.00000000000E+00 -0.45593999997E+02  0.45594000000E+02  0.51100000000E-03 0. -1.
         23    2    1    2    0    0 -0.22204460493E-15  0.00000000000E+00  0.00000000000E+00  0.91188000000E+02  0.91188000000E+02 0.  0.
    9900012    2    3    3    0    0  0.76744661045E+00  0.36759984898E+02  0.19733737902E+01  0.54367086539E+02  0.40000005382E+02 0.  0.
         12    1    3    3    0    0 -0.76744661045E+00 -0.36759984898E+02 -0.19733737902E+01  0.36820913461E+02  0.00000000000E+00 0. -1.
         11    1    4    4    0    0 -0.10830145899E+02  0.15397665909E+01  0.21249574171E+01  0.11143535599E+02  0.51100000000E-03 0. -1.
        -11    1    4    4    0    0 -0.18009244973E+01 -0.25491095571E+01 -0.40514970229E+00  0.31472901235E+01  0.51100000000E-03 0.  1.
        -12    1    4    4    0    0  0.13398517007E+02  0.37769327864E+02  0.25356607541E+00  0.40076260817E+02  0.00000000000E+00 0.  1.
</event>
<event>
 8    1  0.1265908E-006  0.9118800E+02  0.7816164E-02  0.1184000E+00
        -11   -1    0    0    0    0  0.00000000000E+00  0.00000000000E+00  0.45593999997E+02  0.45594000000E+02  0.51100000000E-03 0.  1.
         11   -1    0    0    0    0 -0.00000000000E+00 -0.00000000000E+00 -0.45593999997E+02  0.45594000000E+02  0.51100000000E-03 0. -1.
         23    2    1    2    0    0  0.00000000000E+00  0.35527136788E-14  0.00000000000E+00  0.91188000000E+02  0.91188000000E+02 0.  0.
    9900012    2    3    3    0    0 -0.99116758421E+01  0.30974929731E+02  0.17265338656E+02  0.54367088703E+02  0.40000010316E+02 0.  0.
         12    1    3    3    0    0  0.99116758421E+01 -0.30974929731E+02 -0.17265338656E+02  0.36820911297E+02  0.00000000000E+00 0. -1.
         11    1    4    4    0    0 -0.61499904094E+01  0.26731441044E+02 -0.23678965127E+01  0.27531786293E+02  0.51100000000E-03 0.  1.
        -11    1    4    4    0    0  0.54485491599E+01  0.67721399521E+01  0.10357549324E+02  0.13521368117E+02  0.51100000000E-03 0. -1.
        -12    1    4    4    0    0 -0.92102345926E+01 -0.25286512653E+01  0.92756858448E+01  0.13313934293E+02  0.00000000000E+00 0.  1.
</event>
<event>
 8    1  0.1265908E-006  0.9118800E+02  0.7816164E-02  0.1184000E+00
        -11   -1    0    0    0    0  0.00000000000E+00  0.00000000000E+00  0.45593999997E+02  0.45594000000E+02  0.51100000000E-03 0. -1.
         11   -1    0    0    0    0 -0.00000000000E+00 -0.00000000000E+00 -0.45593999997E+02  0.45594000000E+02  0.51100000000E-03 0.  1.
         23    2    1    2    0    0 -0.35527136788E-14  0.00000000000E+00  0.88817841970E-15  0.91188000000E+02  0.91188000000E+02 0.  0.
    9900012    2    3    3    0    0  0.22655932511E+02 -0.28054110427E+02  0.74468886357E+01  0.54367074698E+02  0.39999978388E+02 0.  0.
        -12    1    3    3    0    0 -0.22655932511E+02  0.28054110427E+02 -0.74468886357E+01  0.36820925302E+02  0.00000000000E+00 0.  1.
         11    1    4    4    0    0 -0.22920670023E+01 -0.10661709483E+02  0.44110914770E+01  0.11763645206E+02  0.51100000000E-03 0. -1.
        -11    1    4    4    0    0 -0.63781727261E+01  0.40116684810E+00  0.13823492322E+01  0.65385710844E+01  0.51100000000E-03 0.  1.
         12    1    4    4    0    0  0.31326172239E+02 -0.17793567792E+02  0.16534479265E+01  0.36064858408E+02  0.00000000000E+00 0. -1.
</event>
<event>
 8    1  0.1265908E-006  0.9118800E+02  0.7816164E-02  0.1184000E+00
        -11   -1    0    0    0    0  0.00000000000E+00  0.00000000000E+00  0.45593999997E+02  0.45594000000E+02  0.51100000000E-03 0.  1.
         11   -1    0    0    0    0 -0.00000000000E+00 -0.00000000000E+00 -0.45593999997E+02  0.45594000000E+02  0.51100000000E-03 0. -1.
         23    2    1    2    0    0  0.00000000000E+00  0.17763568394E-14  0.00000000000E+00  0.91188000000E+02  0.91188000000E+02 0.  0.
    9900012    2    3    3    0    0 -0.27709930416E+02  0.13988063864E+02  0.19805874625E+02  0.54367097730E+02  0.40000030894E+02 0.  0.
         12    1    3    3    0    0  0.27709930416E+02 -0.13988063864E+02 -0.19805874625E+02  0.36820902270E+02  0.00000000000E+00 0. -1.
         11    1    4    4    0    0 -0.31889771209E+02  0.19290969433E+02  0.16889297405E+02  0.40918790018E+02  0.51100000000E-03 0. -1.
        -11    1    4    4    0    0  0.49896045850E+01 -0.11529956838E+01  0.62385358591E+01  0.80712380022E+01  0.51100000000E-03 0.  1.
         12    1    4    4    0    0 -0.80976379229E+00 -0.41499098855E+01 -0.33219586396E+01  0.53770697094E+01  0.00000000000E+00 0. -1.
</event>
<event>
 8    1  0.1265908E-006  0.9118800E+02  0.7816164E-02  0.1184000E+00
        -11   -1    0    0    0    0  0.00000000000E+00  0.00000000000E+00  0.45593999997E+02  0.45594000000E+02  0.51100000000E-03 0.  1.
         11   -1    0    0    0    0 -0.00000000000E+00 -0.00000000000E+00 -0.45593999997E+02  0.45594000000E+02  0.51100000000E-03 0. -1.
         23    2    1    2    0    0  0.00000000000E+00 -0.71054273576E-14  0.00000000000E+00  0.91188000000E+02  0.91188000000E+02 0.  0.
    9900012    2    3    3    0    0  0.12213204985E+02  0.33339272194E+02 -0.97524254219E+01  0.54367092243E+02  0.40000018386E+02 0.  0.
        -12    1    3    3    0    0 -0.12213204985E+02 -0.33339272194E+02  0.97524254219E+01  0.36820907757E+02  0.00000000000E+00 0.  1.
         11    1    4    4    0    0  0.17611125519E+02  0.25453956212E+02  0.20167399110E+01  0.31018105503E+02  0.51100000000E-03 0.  1.
        -11    1    4    4    0    0  0.18341387594E+01  0.71643478015E+01 -0.13925947161E+02  0.15767813704E+02  0.51100000000E-03 0. -1.
        -12    1    4    4    0    0 -0.72320592934E+01  0.72096818078E+00  0.21567818279E+01  0.75811730355E+01  0.00000000000E+00 0.  1.
</event>
<event>
 8    1  0.1265908E-006  0.9118800E+02  0.7816164E-02  0.1184000E+00
        -11   -1    0    0    0    0  0.00000000000E+00  0.00000000000E+00  0.45593999997E+02  0.45594000000E+02  0.51100000000E-03 0.  1.
         11   -1    0    0    0    0 -0.00000000000E+00 -0.00000000000E+00 -0.45593999997E+02  0.45594000000E+02  0.51100000000E-03 0. -1.
         23    2    1    2    0    0  0.00000000000E+00  0.00000000000E+00  0.00000000000E+00  0.91188000000E+02  0.91188000000E+02 0.  0.
    9900012    2    3    3    0    0  0.17949455073E+02  0.70251625138E+01 -0.31372682133E+02  0.54367068046E+02  0.39999963223E+02 0.  0.
        -12    1    3    3    0    0 -0.17949455073E+02 -0.70251625138E+01  0.31372682133E+02  0.36820931954E+02  0.00000000000E+00 0.  1.
         11    1    4    4    0    0  0.10014148750E+02  0.26306541552E+01  0.31112021317E+01  0.10811248561E+02  0.51100000000E-03 0.  1.
        -11    1    4    4    0    0 -0.41533123300E+01  0.22215361497E+01 -0.30173726939E+02  0.30539139212E+02  0.51100000000E-03 0. -1.
         12    1    4    4    0    0  0.12088618653E+02  0.21729722090E+01 -0.43101573263E+01  0.13016680273E+02  0.00000000000E+00 0. -1.
</event>
<event>
 8    1  0.1265908E-006  0.9118800E+02  0.7816164E-02  0.1184000E+00
        -11   -1    0    0    0    0  0.00000000000E+00  0.00000000000E+00  0.45593999997E+02  0.45594000000E+02  0.51100000000E-03 0. -1.
         11   -1    0    0    0    0 -0.00000000000E+00 -0.00000000000E+00 -0.45593999997E+02  0.45594000000E+02  0.51100000000E-03 0.  1.
         23    2    1    2    0    0  0.00000000000E+00  0.00000000000E+00  0.00000000000E+00  0.91188000000E+02  0.91188000000E+02 0.  0.
    9900012    2    3    3    0    0  0.16857320000E+01  0.16996578346E+02 -0.32619627220E+02  0.54367279640E+02  0.40000445593E+02 0.  0.
         12    1    3    3    0    0 -0.16857320000E+01 -0.16996578346E+02  0.32619627220E+02  0.36820720360E+02  0.00000000000E+00 0. -1.
         11    1    4    4    0    0  0.14714825867E+01  0.15892070005E+02 -0.58577996261E+01  0.17001087223E+02  0.51100000000E-03 0. -1.
        -11    1    4    4    0    0 -0.70845431370E+01 -0.78228238676E+01 -0.30286910308E+01  0.10979995189E+02  0.51100000000E-03 0.  1.
         12    1    4    4    0    0  0.72987925503E+01  0.89273322088E+01 -0.23733136563E+02  0.26386197228E+02  0.00000000000E+00 0. -1.
</event>
<event>
 8    1  0.1265908E-006  0.9118800E+02  0.7816164E-02  0.1184000E+00
        -11   -1    0    0    0    0  0.00000000000E+00  0.00000000000E+00  0.45593999997E+02  0.45594000000E+02  0.51100000000E-03 0.  1.
         11   -1    0    0    0    0 -0.00000000000E+00 -0.00000000000E+00 -0.45593999997E+02  0.45594000000E+02  0.51100000000E-03 0. -1.
         23    2    1    2    0    0  0.35527136788E-14  0.71054273576E-14  0.88817841970E-15  0.91188000000E+02  0.91188000000E+02 0.  0.
    9900012    2    3    3    0    0 -0.16916073317E+02 -0.32590002913E+02 -0.27416011703E+01  0.54367106430E+02  0.40000050729E+02 0.  0.
        -12    1    3    3    0    0  0.16916073317E+02  0.32590002913E+02  0.27416011703E+01  0.36820893570E+02  0.00000000000E+00 0.  1.
         11    1    4    4    0    0 -0.17701305665E+02 -0.12602400507E+02  0.46793917969E+01  0.22227312672E+02  0.51100000000E-03 0. -1.
        -11    1    4    4    0    0 -0.57173461825E+01  0.34939296354E+01 -0.31464775155E+01  0.74024261350E+01  0.51100000000E-03 0.  1.
         12    1    4    4    0    0  0.65025785310E+01 -0.23481532041E+02 -0.42745154517E+01  0.24737367623E+02  0.00000000000E+00 0. -1.
</event>
<event>
 8    1  0.1265908E-006  0.9118800E+02  0.7816164E-02  0.1184000E+00
        -11   -1    0    0    0    0  0.00000000000E+00  0.00000000000E+00  0.45593999997E+02  0.45594000000E+02  0.51100000000E-03 0.  1.
         11   -1    0    0    0    0 -0.00000000000E+00 -0.00000000000E+00 -0.45593999997E+02  0.45594000000E+02  0.51100000000E-03 0. -1.
         23    2    1    2    0    0  0.13322676296E-14  0.35527136788E-14  0.00000000000E+00  0.91188000000E+02  0.91188000000E+02 0.  0.
    9900012    2    3    3    0    0 -0.16331656751E+01 -0.15850373915E+02 -0.33194551134E+02  0.54367084634E+02  0.40000001041E+02 0.  0.
        -12    1    3    3    0    0  0.16331656751E+01  0.15850373915E+02  0.33194551134E+02  0.36820915366E+02  0.00000000000E+00 0.  1.
         11    1    4    4    0    0  0.12122861931E+02 -0.97340888560E+00 -0.12024266315E+02  0.17102464352E+02  0.51100000000E-03 0. -1.
        -11    1    4    4    0    0 -0.19104207294E+02 -0.57858244146E+01 -0.15617414117E+02  0.25344627132E+02  0.51100000000E-03 0.  1.
        -12    1    4    4    0    0  0.53481796884E+01 -0.90911406152E+01 -0.55528707024E+01  0.11919993150E+02  0.00000000000E+00 0.  1.
</event>
<event>
 8    1  0.1265908E-006  0.9118800E+02  0.7816164E-02  0.1184000E+00
        -11   -1    0    0    0    0  0.00000000000E+00  0.00000000000E+00  0.45593999997E+02  0.45594000000E+02  0.51100000000E-03 0.  1.
         11   -1    0    0    0    0 -0.00000000000E+00 -0.00000000000E+00 -0.45593999997E+02  0.45594000000E+02  0.51100000000E-03 0. -1.
         23    2    1    2    0    0 -0.17763568394E-14  0.17763568394E-14  0.71054273576E-14  0.91188000000E+02  0.91188000000E+02 0.  0.
    9900012    2    3    3    0    0 -0.10949588393E+02 -0.10121908555E+02 -0.33666492649E+02  0.54367092270E+02  0.40000018448E+02 0.  0.
        -12    1    3    3    0    0  0.10949588393E+02  0.10121908555E+02  0.33666492649E+02  0.36820907730E+02  0.00000000000E+00 0.  1.
         11    1    4    4    0    0  0.15318231802E+01  0.56349733461E+01 -0.31838172521E+01  0.66510224343E+01  0.51100000000E-03 0. -1.
        -11    1    4    4    0    0  0.82627353649E+01 -0.75308385105E+01 -0.17193355313E+01  0.11311164366E+02  0.51100000000E-03 0.  1.
        -12    1    4    4    0    0 -0.20744146938E+02 -0.82260433902E+01 -0.28763339866E+02  0.36404905470E+02  0.00000000000E+00 0.  1.
</event>
<event>
 8    1  0.1265908E-006  0.9118800E+02  0.7816164E-02  0.1184000E+00
        -11   -1    0    0    0    0  0.00000000000E+00  0.00000000000E+00  0.45593999997E+02  0.45594000000E+02  0.51100000000E-03 0. -1.
         11   -1    0    0    0    0 -0.00000000000E+00 -0.00000000000E+00 -0.45593999997E+02  0.45594000000E+02  0.51100000000E-03 0.  1.
         23    2    1    2    0    0  0.00000000000E+00  0.00000000000E+00  0.00000000000E+00  0.91188000000E+02  0.91188000000E+02 0.  0.
    9900012    2    3    3    0    0 -0.20164943782E+02 -0.27124456207E+02 -0.14608918190E+02  0.54367060673E+02  0.39999946417E+02 0.  0.
        -12    1    3    3    0    0  0.20164943782E+02  0.27124456207E+02  0.14608918190E+02  0.36820939327E+02  0.00000000000E+00 0.  1.
         11    1    4    4    0    0 -0.76501608092E+01  0.99602167610E+00  0.19146363631E+01  0.79487641964E+01  0.51100000000E-03 0.  1.
        -11    1    4    4    0    0 -0.21538854458E+02 -0.16149594268E+02 -0.47055287502E+01  0.27328989141E+02  0.51100000000E-03 0. -1.
        -12    1    4    4    0    0  0.90240714854E+01 -0.11970883615E+02 -0.11818025803E+02  0.19089307336E+02  0.00000000000E+00 0.  1.
</event>
<event>
 8    1  0.1265908E-006  0.9118800E+02  0.7816164E-02  0.1184000E+00
        -11   -1    0    0    0    0  0.00000000000E+00  0.00000000000E+00  0.45593999997E+02  0.45594000000E+02  0.51100000000E-03 0.  1.
         11   -1    0    0    0    0 -0.00000000000E+00 -0.00000000000E+00 -0.45593999997E+02  0.45594000000E+02  0.51100000000E-03 0. -1.
         23    2    1    2    0    0  0.00000000000E+00 -0.35527136788E-14  0.71054273576E-14  0.91188000000E+02  0.91188000000E+02 0.  0.
    9900012    2    3    3    0    0 -0.88319871859E+01  0.26184168796E+02 -0.24334469680E+02  0.54367066989E+02  0.39999960815E+02 0.  0.
        -12    1    3    3    0    0  0.88319871859E+01 -0.26184168796E+02  0.24334469680E+02  0.36820933011E+02  0.00000000000E+00 0.  1.
         11    1    4    4    0    0  0.10769125623E+02 -0.24388657117E+01 -0.39734478362E+01  0.11735008334E+02  0.51100000000E-03 0. -1.
        -11    1    4    4    0    0 -0.68008245995E+01  0.76376031008E+01  0.71627094746E+00  0.10251694528E+02  0.51100000000E-03 0.  1.
         12    1    4    4    0    0 -0.12800288209E+02  0.20985431407E+02 -0.21077292792E+02  0.32380364127E+02  0.00000000000E+00 0. -1.
</event>
<event>
 8    1  0.1265908E-006  0.9118800E+02  0.7816164E-02  0.1184000E+00
        -11   -1    0    0    0    0  0.00000000000E+00  0.00000000000E+00  0.45593999997E+02  0.45594000000E+02  0.51100000000E-03 0. -1.
         11   -1    0    0    0    0 -0.00000000000E+00 -0.00000000000E+00 -0.45593999997E+02  0.45594000000E+02  0.51100000000E-03 0.  1.
         23    2    1    2    0    0  0.00000000000E+00  0.22204460493E-15  0.00000000000E+00  0.91188000000E+02  0.91188000000E+02 0.  0.
    9900012    2    3    3    0    0  0.16516389241E+02  0.14017838349E+01  0.32878850382E+02  0.54367151097E+02  0.40000152556E+02 0.  0.
        -12    1    3    3    0    0 -0.16516389241E+02 -0.14017838349E+01 -0.32878850382E+02  0.36820848903E+02  0.00000000000E+00 0.  1.
         11    1    4    4    0    0  0.28519975065E+02 -0.29157228961E+01  0.17787146194E+02  0.33738301494E+02  0.51100000000E-03 0. -1.
        -11    1    4    4    0    0 -0.11512928313E+02  0.21033172364E+01  0.11699908443E+02  0.16548695404E+02  0.51100000000E-03 0.  1.
         12    1    4    4    0    0 -0.49065751070E+00  0.22141894946E+01  0.33917957457E+01  0.40801541995E+01  0.00000000000E+00 0. -1.
</event>
<event>
 8    1  0.1265908E-006  0.9118800E+02  0.7816164E-02  0.1184000E+00
        -11   -1    0    0    0    0  0.00000000000E+00  0.00000000000E+00  0.45593999997E+02  0.45594000000E+02  0.51100000000E-03 0.  1.
         11   -1    0    0    0    0 -0.00000000000E+00 -0.00000000000E+00 -0.45593999997E+02  0.45594000000E+02  0.51100000000E-03 0. -1.
         23    2    1    2    0    0  0.00000000000E+00  0.00000000000E+00  0.00000000000E+00  0.91188000000E+02  0.91188000000E+02 0.  0.
    9900012    2    3    3    0    0  0.23338022164E+02  0.12182427581E+02  0.25743083043E+02  0.54367066486E+02  0.39999959667E+02 0.  0.
        -12    1    3    3    0    0 -0.23338022164E+02 -0.12182427581E+02 -0.25743083043E+02  0.36820933514E+02  0.00000000000E+00 0.  1.
         11    1    4    4    0    0  0.89607253972E+01 -0.11143425960E+02 -0.16271369361E+01  0.14391598821E+02  0.51100000000E-03 0. -1.
        -11    1    4    4    0    0  0.61201325929E+01  0.34831585135E+01  0.10547950773E+02  0.12682573949E+02  0.51100000000E-03 0.  1.
        -12    1    4    4    0    0  0.82571641743E+01  0.19842695027E+02  0.16822269206E+02  0.27292893716E+02  0.00000000000E+00 0.  1.
</event>
<event>
 8    1  0.1265908E-006  0.9118800E+02  0.7816164E-02  0.1184000E+00
        -11   -1    0    0    0    0  0.00000000000E+00  0.00000000000E+00  0.45593999997E+02  0.45594000000E+02  0.51100000000E-03 0. -1.
         11   -1    0    0    0    0 -0.00000000000E+00 -0.00000000000E+00 -0.45593999997E+02  0.45594000000E+02  0.51100000000E-03 0.  1.
         23    2    1    2    0    0  0.00000000000E+00 -0.17763568394E-14  0.00000000000E+00  0.91188000000E+02  0.91188000000E+02 0.  0.
    9900012    2    3    3    0    0  0.27498772874E+02  0.14796698546E+02  0.19510388821E+02  0.54367081089E+02  0.39999992959E+02 0.  0.
        -12    1    3    3    0    0 -0.27498772874E+02 -0.14796698546E+02 -0.19510388821E+02  0.36820918911E+02  0.00000000000E+00 0.  1.
         11    1    4    4    0    0 -0.45016379568E+01 -0.60779115495E+01  0.12200795928E+02  0.14354970381E+02  0.51100000000E-03 0. -1.
        -11    1    4    4    0    0  0.17144262474E+02  0.13950296496E+02  0.82554509053E+01  0.23594257310E+02  0.51100000000E-03 0.  1.
         12    1    4    4    0    0  0.14856148358E+02  0.69243136004E+01 -0.94585801149E+00  0.16417853399E+02  0.00000000000E+00 0. -1.
</event>
<event>
 8    1  0.1265908E-006  0.9118800E+02  0.7816164E-02  0.1184000E+00
        -11   -1    0    0    0    0  0.00000000000E+00  0.00000000000E+00  0.45593999997E+02  0.45594000000E+02  0.51100000000E-03 0.  1.
         11   -1    0    0    0    0 -0.00000000000E+00 -0.00000000000E+00 -0.45593999997E+02  0.45594000000E+02  0.51100000000E-03 0. -1.
         23    2    1    2    0    0 -0.88817841970E-15  0.00000000000E+00  0.00000000000E+00  0.91188000000E+02  0.91188000000E+02 0.  0.
    9900012    2    3    3    0    0  0.42190253740E+01 -0.47985397723E+01 -0.36262293097E+02  0.54367081222E+02  0.39999993261E+02 0.  0.
        -12    1    3    3    0    0 -0.42190253740E+01  0.47985397723E+01  0.36262293097E+02  0.36820918778E+02  0.00000000000E+00 0.  1.
         11    1    4    4    0    0 -0.15435633268E+01  0.14413375535E+01  0.74029138961E+00  0.22378724918E+01  0.51100000000E-03 0. -1.
        -11    1    4    4    0    0  0.74373849680E+01  0.14250618681E+02 -0.18008516522E+02  0.24139210748E+02  0.51100000000E-03 0.  1.
         12    1    4    4    0    0 -0.16747962672E+01 -0.20490496007E+02 -0.18994067964E+02  0.27989997981E+02  0.00000000000E+00 0. -1.
</event>
<event>
 8    1  0.1265908E-006  0.9118800E+02  0.7816164E-02  0.1184000E+00
        -11   -1    0    0    0    0  0.00000000000E+00  0.00000000000E+00  0.45593999997E+02  0.45594000000E+02  0.51100000000E-03 0. -1.
         11   -1    0    0    0    0 -0.00000000000E+00 -0.00000000000E+00 -0.45593999997E+02  0.45594000000E+02  0.51100000000E-03 0.  1.
         23    2    1    2    0    0  0.88817841970E-15  0.00000000000E+00  0.88817841970E-15  0.91188000000E+02  0.91188000000E+02 0.  0.
    9900012    2    3    3    0    0 -0.65937603529E+01  0.35339594242E+02  0.79634119333E+01  0.54367074884E+02  0.39999978813E+02 0.  0.
        -12    1    3    3    0    0  0.65937603529E+01 -0.35339594242E+02 -0.79634119333E+01  0.36820925116E+02  0.00000000000E+00 0.  1.
         11    1    4    4    0    0  0.89985464015E+00  0.26168219801E+02 -0.18178539921E+01  0.26246715210E+02  0.51100000000E-03 0. -1.
        -11    1    4    4    0    0 -0.19144776216E+01 -0.70759066731E+01  0.79987993050E+01  0.10849629966E+02  0.51100000000E-03 0.  1.
         12    1    4    4    0    0 -0.55791373715E+01  0.16247281114E+02  0.17824666204E+01  0.17270729709E+02  0.00000000000E+00 0. -1.
</event>
<event>
 8    1  0.1265908E-006  0.9118800E+02  0.7816164E-02  0.1184000E+00
        -11   -1    0    0    0    0  0.00000000000E+00  0.00000000000E+00  0.45593999997E+02  0.45594000000E+02  0.51100000000E-03 0.  1.
         11   -1    0    0    0    0 -0.00000000000E+00 -0.00000000000E+00 -0.45593999997E+02  0.45594000000E+02  0.51100000000E-03 0. -1.
         23    2    1    2    0    0  0.00000000000E+00  0.17763568394E-14  0.00000000000E+00  0.91188000000E+02  0.91188000000E+02 0.  0.
    9900012    2    3    3    0    0 -0.30695762291E+02 -0.10605472158E+02  0.17351554966E+02  0.54367050500E+02  0.39999923225E+02 0.  0.
         12    1    3    3    0    0  0.30695762291E+02  0.10605472158E+02 -0.17351554966E+02  0.36820949500E+02  0.00000000000E+00 0. -1.
         11    1    4    4    0    0 -0.29446175353E+01  0.12261486146E+02  0.36971630502E+01  0.13140921955E+02  0.51100000000E-03 0. -1.
        -11    1    4    4    0    0 -0.52816662388E+01  0.13737748249E+01 -0.17080327099E-01  0.54574304875E+01  0.51100000000E-03 0.  1.
         12    1    4    4    0    0 -0.22469478517E+02 -0.24240733129E+02  0.13671472243E+02  0.35768698058E+02  0.00000000000E+00 0. -1.
</event>
<event>
 8    1  0.1265908E-006  0.9118800E+02  0.7816164E-02  0.1184000E+00
        -11   -1    0    0    0    0  0.00000000000E+00  0.00000000000E+00  0.45593999997E+02  0.45594000000E+02  0.51100000000E-03 0.  1.
         11   -1    0    0    0    0 -0.00000000000E+00 -0.00000000000E+00 -0.45593999997E+02  0.45594000000E+02  0.51100000000E-03 0. -1.
         23    2    1    2    0    0  0.88817841970E-15  0.00000000000E+00  0.71054273576E-14  0.91188000000E+02  0.91188000000E+02 0.  0.
    9900012    2    3    3    0    0 -0.40121559614E+01 -0.12382566077E+02  0.34443497845E+02  0.54367083636E+02  0.39999998764E+02 0.  0.
         12    1    3    3    0    0  0.40121559614E+01  0.12382566077E+02 -0.34443497845E+02  0.36820916364E+02  0.00000000000E+00 0. -1.
         11    1    4    4    0    0 -0.62457678669E+01 -0.19965373156E+02  0.38692606512E+02  0.43985719733E+02  0.51100000000E-03 0.  1.
        -11    1    4    4    0    0  0.15108943194E+01  0.69060280973E+01 -0.53759931071E+01  0.88812908900E+01  0.51100000000E-03 0. -1.
        -12    1    4    4    0    0  0.72271758607E+00  0.67677898266E+00  0.11268844406E+01  0.15000730125E+01  0.00000000000E+00 0.  1.
</event>
<event>
 8    1  0.1265908E-006  0.9118800E+02  0.7816164E-02  0.1184000E+00
        -11   -1    0    0    0    0  0.00000000000E+00  0.00000000000E+00  0.45593999997E+02  0.45594000000E+02  0.51100000000E-03 0.  1.
         11   -1    0    0    0    0 -0.00000000000E+00 -0.00000000000E+00 -0.45593999997E+02  0.45594000000E+02  0.51100000000E-03 0. -1.
         23    2    1    2    0    0 -0.35527136788E-14  0.13322676296E-14  0.00000000000E+00  0.91188000000E+02  0.91188000000E+02 0.  0.
    9900012    2    3    3    0    0 -0.16798660399E+02  0.20500389172E+01 -0.32701595286E+02  0.54366919285E+02  0.39999624093E+02 0.  0.
        -12    1    3    3    0    0  0.16798660399E+02 -0.20500389172E+01  0.32701595286E+02  0.36821080715E+02  0.00000000000E+00 0.  1.
         11    1    4    4    0    0 -0.10244651119E+02 -0.26017779420E+01 -0.61149939915E+01  0.12211276624E+02  0.51100000000E-03 0. -1.
        -11    1    4    4    0    0 -0.18661563148E+02 -0.17900210308E+01 -0.12737917203E+02  0.22665229964E+02  0.51100000000E-03 0.  1.
        -12    1    4    4    0    0  0.12107553867E+02  0.64418378900E+01 -0.13848684091E+02  0.19490412697E+02  0.00000000000E+00 0.  1.
</event>
<event>
 8    1  0.1265908E-006  0.9118800E+02  0.7816164E-02  0.1184000E+00
        -11   -1    0    0    0    0  0.00000000000E+00  0.00000000000E+00  0.45593999997E+02  0.45594000000E+02  0.51100000000E-03 0. -1.
         11   -1    0    0    0    0 -0.00000000000E+00 -0.00000000000E+00 -0.45593999997E+02  0.45594000000E+02  0.51100000000E-03 0.  1.
         23    2    1    2    0    0  0.35527136788E-14 -0.35527136788E-14  0.35527136788E-14  0.91188000000E+02  0.91188000000E+02 0.  0.
    9900012    2    3    3    0    0 -0.11087994937E+02  0.29784434352E+02 -0.18593647390E+02  0.54367083598E+02  0.39999998679E+02 0.  0.
         12    1    3    3    0    0  0.11087994937E+02 -0.29784434352E+02  0.18593647390E+02  0.36820916402E+02  0.00000000000E+00 0. -1.
         11    1    4    4    0    0 -0.18908374797E+02  0.25656145877E+02 -0.11291726706E+02  0.33812239662E+02  0.51100000000E-03 0.  1.
        -11    1    4    4    0    0 -0.89772225893E+00 -0.56602136768E+01 -0.41044686776E+00  0.57456410447E+01  0.51100000000E-03 0. -1.
        -12    1    4    4    0    0  0.87181021186E+01  0.97885021518E+01 -0.68914738161E+01  0.14809202892E+02  0.00000000000E+00 0.  1.
</event>
<event>
 8    1  0.1265908E-006  0.9118800E+02  0.7816164E-02  0.1184000E+00
        -11   -1    0    0    0    0  0.00000000000E+00  0.00000000000E+00  0.45593999997E+02  0.45594000000E+02  0.51100000000E-03 0. -1.
         11   -1    0    0    0    0 -0.00000000000E+00 -0.00000000000E+00 -0.45593999997E+02  0.45594000000E+02  0.51100000000E-03 0.  1.
         23    2    1    2    0    0 -0.35527136788E-14  0.35527136788E-14 -0.35527136788E-14  0.91188000000E+02  0.91188000000E+02 0.  0.
    9900012    2    3    3    0    0  0.22227676169E+02 -0.22417917891E+02  0.18950892566E+02  0.54367231954E+02  0.40000336884E+02 0.  0.
        -12    1    3    3    0    0 -0.22227676169E+02  0.22417917891E+02 -0.18950892566E+02  0.36820768046E+02  0.00000000000E+00 0.  1.
         11    1    4    4    0    0  0.37413636244E+01 -0.17371326061E+02  0.91834741524E+01  0.20002424069E+02  0.51100000000E-03 0. -1.
        -11    1    4    4    0    0 -0.41042456176E+01  0.25300841810E+00  0.10367488637E+02  0.11153190855E+02  0.51100000000E-03 0.  1.
        -12    1    4    4    0    0  0.22590558163E+02 -0.52996002480E+01 -0.60007022266E+00  0.23211617030E+02  0.00000000000E+00 0.  1.
</event>
<event>
 8    1  0.1265908E-006  0.9118800E+02  0.7816164E-02  0.1184000E+00
        -11   -1    0    0    0    0  0.00000000000E+00  0.00000000000E+00  0.45593999997E+02  0.45594000000E+02  0.51100000000E-03 0. -1.
         11   -1    0    0    0    0 -0.00000000000E+00 -0.00000000000E+00 -0.45593999997E+02  0.45594000000E+02  0.51100000000E-03 0.  1.
         23    2    1    2    0    0  0.00000000000E+00 -0.35527136788E-14  0.35527136788E-14  0.91188000000E+02  0.91188000000E+02 0.  0.
    9900012    2    3    3    0    0  0.86807130127E+01 -0.25075802193E+02 -0.25527025677E+02  0.54367086460E+02  0.40000005203E+02 0.  0.
         12    1    3    3    0    0 -0.86807130127E+01  0.25075802193E+02  0.25527025677E+02  0.36820913540E+02  0.00000000000E+00 0. -1.
         11    1    4    4    0    0  0.43489114064E+01 -0.22566404893E+02 -0.62097683988E+01  0.23805816181E+02  0.51100000000E-03 0. -1.
        -11    1    4    4    0    0 -0.81086887558E+01 -0.76514033052E+00 -0.79848454397E+00  0.81837553050E+01  0.51100000000E-03 0.  1.
        -12    1    4    4    0    0  0.12440490362E+02 -0.17442569690E+01 -0.18518772734E+02  0.22377514974E+02  0.00000000000E+00 0.  1.
</event>
<event>
 8    1  0.1265908E-006  0.9118800E+02  0.7816164E-02  0.1184000E+00
        -11   -1    0    0    0    0  0.00000000000E+00  0.00000000000E+00  0.45593999997E+02  0.45594000000E+02  0.51100000000E-03 0.  1.
         11   -1    0    0    0    0 -0.00000000000E+00 -0.00000000000E+00 -0.45593999997E+02  0.45594000000E+02  0.51100000000E-03 0. -1.
         23    2    1    2    0    0 -0.35527136788E-14 -0.97144514655E-16  0.71054273576E-14  0.91188000000E+02  0.91188000000E+02 0.  0.
    9900012    2    3    3    0    0 -0.22079175963E+02  0.70858040694E-01  0.29466677809E+02  0.54367080224E+02  0.39999990987E+02 0.  0.
         12    1    3    3    0    0  0.22079175963E+02 -0.70858040694E-01 -0.29466677809E+02  0.36820919776E+02  0.00000000000E+00 0. -1.
         11    1    4    4    0    0 -0.26963478034E+02  0.37209385279E+01  0.15239512705E+02  0.31194827760E+02  0.51100000000E-03 0. -1.
        -11    1    4    4    0    0  0.64609074663E+01  0.27986778473E+01  0.14919564337E+02  0.16497555069E+02  0.51100000000E-03 0.  1.
        -12    1    4    4    0    0 -0.15766053948E+01 -0.64487583345E+01 -0.69239923308E+00  0.66746973958E+01  0.00000000000E+00 0.  1.
</event>
<event>
 8    1  0.1265908E-006  0.9118800E+02  0.7816164E-02  0.1184000E+00
        -11   -1    0    0    0    0  0.00000000000E+00  0.00000000000E+00  0.45593999997E+02  0.45594000000E+02  0.51100000000E-03 0. -1.
         11   -1    0    0    0    0 -0.00000000000E+00 -0.00000000000E+00 -0.45593999997E+02  0.45594000000E+02  0.51100000000E-03 0.  1.
         23    2    1    2    0    0  0.00000000000E+00 -0.17763568394E-14  0.00000000000E+00  0.91188000000E+02  0.91188000000E+02 0.  0.
    9900012    2    3    3    0    0  0.29131554663E+02  0.13004935916E+02 -0.18384761968E+02  0.54367145748E+02  0.40000140361E+02 0.  0.
        -12    1    3    3    0    0 -0.29131554663E+02 -0.13004935916E+02  0.18384761968E+02  0.36820854252E+02  0.00000000000E+00 0.  1.
         11    1    4    4    0    0  0.11404957480E+02  0.12352414592E+02 -0.27302043257E+01  0.17032592794E+02  0.51100000000E-03 0. -1.
        -11    1    4    4    0    0  0.17744360033E+02 -0.24863325331E+00  0.35593356654E+01  0.18099530439E+02  0.51100000000E-03 0.  1.
        -12    1    4    4    0    0 -0.17762850753E-01  0.90115457777E+00 -0.19213893307E+02  0.19235022514E+02  0.00000000000E+00 0.  1.
</event>
<event>
 8    1  0.1265908E-006  0.9118800E+02  0.7816164E-02  0.1184000E+00
        -11   -1    0    0    0    0  0.00000000000E+00  0.00000000000E+00  0.45593999997E+02  0.45594000000E+02  0.51100000000E-03 0. -1.
         11   -1    0    0    0    0 -0.00000000000E+00 -0.00000000000E+00 -0.45593999997E+02  0.45594000000E+02  0.51100000000E-03 0.  1.
         23    2    1    2    0    0  0.00000000000E+00  0.71054273576E-14 -0.88817841970E-15  0.91188000000E+02  0.91188000000E+02 0.  0.
    9900012    2    3    3    0    0  0.47321376920E+01  0.35706020657E+02 -0.76463912155E+01  0.54367077457E+02  0.39999984680E+02 0.  0.
         12    1    3    3    0    0 -0.47321376920E+01 -0.35706020657E+02  0.76463912155E+01  0.36820922543E+02  0.00000000000E+00 0. -1.
         11    1    4    4    0    0 -0.70054965418E+00 -0.26205017253E+01  0.95495924476E+00  0.28757166986E+01  0.51100000000E-03 0. -1.
        -11    1    4    4    0    0  0.15029189473E+02  0.27709139136E+02 -0.16032561792E+02  0.35365462895E+02  0.51100000000E-03 0.  1.
        -12    1    4    4    0    0 -0.95965021267E+01  0.10617383246E+02  0.74312113322E+01  0.16125897864E+02  0.00000000000E+00 0.  1.
</event>
<event>
 8    1  0.1265908E-006  0.9118800E+02  0.7816164E-02  0.1184000E+00
        -11   -1    0    0    0    0  0.00000000000E+00  0.00000000000E+00  0.45593999997E+02  0.45594000000E+02  0.51100000000E-03 0.  1.
         11   -1    0    0    0    0 -0.00000000000E+00 -0.00000000000E+00 -0.45593999997E+02  0.45594000000E+02  0.51100000000E-03 0. -1.
         23    2    1    2    0    0 -0.88817841970E-15  0.00000000000E+00 -0.17763568394E-14  0.91188000000E+02  0.91188000000E+02 0.  0.
    9900012    2    3    3    0    0 -0.61722791431E+01  0.35638800432E+02 -0.68962753191E+01  0.54367085572E+02  0.40000003179E+02 0.  0.
         12    1    3    3    0    0  0.61722791431E+01 -0.35638800432E+02  0.68962753191E+01  0.36820914428E+02  0.00000000000E+00 0. -1.
         11    1    4    4    0    0 -0.14076004587E+02  0.20300832540E+02 -0.12370704043E+02  0.27627740149E+02  0.51100000000E-03 0. -1.
        -11    1    4    4    0    0  0.60974496142E+01  0.14930146458E+02  0.11906345213E+02  0.20046177233E+02  0.51100000000E-03 0.  1.
        -12    1    4    4    0    0  0.18062758299E+01  0.40782143410E+00 -0.64319164897E+01  0.66931681904E+01  0.00000000000E+00 0.  1.
</event>
<event>
 8    1  0.1265908E-006  0.9118800E+02  0.7816164E-02  0.1184000E+00
        -11   -1    0    0    0    0  0.00000000000E+00  0.00000000000E+00  0.45593999997E+02  0.45594000000E+02  0.51100000000E-03 0. -1.
         11   -1    0    0    0    0 -0.00000000000E+00 -0.00000000000E+00 -0.45593999997E+02  0.45594000000E+02  0.51100000000E-03 0.  1.
         23    2    1    2    0    0  0.44408920985E-15  0.00000000000E+00  0.00000000000E+00  0.91188000000E+02  0.91188000000E+02 0.  0.
    9900012    2    3    3    0    0  0.28987213177E+01 -0.26567006016E+02 -0.25329262222E+02  0.54367083137E+02  0.39999997627E+02 0.  0.
         12    1    3    3    0    0 -0.28987213177E+01  0.26567006016E+02  0.25329262222E+02  0.36820916863E+02  0.00000000000E+00 0. -1.
         11    1    4    4    0    0  0.78939441127E+00 -0.88446775493E+01 -0.11579711603E+02  0.14592504430E+02  0.51100000000E-03 0. -1.
        -11    1    4    4    0    0 -0.92480477902E+01 -0.18691524804E+02 -0.18060762247E+02  0.27587870897E+02  0.51100000000E-03 0.  1.
         12    1    4    4    0    0  0.11357374697E+02  0.96919633747E+00  0.43112116276E+01  0.12186707810E+02  0.00000000000E+00 0. -1.
</event>
<event>
 8    1  0.1265908E-006  0.9118800E+02  0.7816164E-02  0.1184000E+00
        -11   -1    0    0    0    0  0.00000000000E+00  0.00000000000E+00  0.45593999997E+02  0.45594000000E+02  0.51100000000E-03 0.  1.
         11   -1    0    0    0    0 -0.00000000000E+00 -0.00000000000E+00 -0.45593999997E+02  0.45594000000E+02  0.51100000000E-03 0. -1.
         23    2    1    2    0    0  0.00000000000E+00 -0.17763568394E-14  0.00000000000E+00  0.91188000000E+02  0.91188000000E+02 0.  0.
    9900012    2    3    3    0    0  0.15332541369E+02 -0.11462273591E+02 -0.31453287068E+02  0.54367084638E+02  0.40000001049E+02 0.  0.
        -12    1    3    3    0    0 -0.15332541369E+02  0.11462273591E+02  0.31453287068E+02  0.36820915362E+02  0.00000000000E+00 0.  1.
         11    1    4    4    0    0  0.30730149017E+01  0.84502752056E+01 -0.11923752009E+02  0.14934069568E+02  0.51100000000E-03 0. -1.
        -11    1    4    4    0    0  0.60914328069E+01 -0.20750000404E+02 -0.30784157827E+01  0.21843642425E+02  0.51100000000E-03 0.  1.
        -12    1    4    4    0    0  0.61680936607E+01  0.83745160737E+00 -0.16451119276E+02  0.17589372645E+02  0.00000000000E+00 0.  1.
</event>
<event>
 8    1  0.1265908E-006  0.9118800E+02  0.7816164E-02  0.1184000E+00
        -11   -1    0    0    0    0  0.00000000000E+00  0.00000000000E+00  0.45593999997E+02  0.45594000000E+02  0.51100000000E-03 0.  1.
         11   -1    0    0    0    0 -0.00000000000E+00 -0.00000000000E+00 -0.45593999997E+02  0.45594000000E+02  0.51100000000E-03 0. -1.
         23    2    1    2    0    0  0.35527136788E-14  0.88817841970E-15  0.35527136788E-14  0.91188000000E+02  0.91188000000E+02 0.  0.
    9900012    2    3    3    0    0  0.17814523605E+02 -0.70590906054E+01  0.31441862139E+02  0.54367099601E+02  0.40000035160E+02 0.  0.
         12    1    3    3    0    0 -0.17814523605E+02  0.70590906054E+01 -0.31441862139E+02  0.36820900399E+02  0.00000000000E+00 0. -1.
         11    1    4    4    0    0 -0.28371397035E-02  0.39444512289E+01 -0.54387166792E+01  0.67185074923E+01  0.51100000000E-03 0. -1.
        -11    1    4    4    0    0  0.10278869955E+02 -0.92070347624E+01  0.37416922358E+02  0.39880455560E+02  0.51100000000E-03 0.  1.
         12    1    4    4    0    0  0.75384907892E+01 -0.17965070719E+01 -0.53634354034E+00  0.77681365482E+01  0.00000000000E+00 0. -1.
</event>
<event>
 8    1  0.1265908E-006  0.9118800E+02  0.7816164E-02  0.1184000E+00
        -11   -1    0    0    0    0  0.00000000000E+00  0.00000000000E+00  0.45593999997E+02  0.45594000000E+02  0.51100000000E-03 0.  1.
         11   -1    0    0    0    0 -0.00000000000E+00 -0.00000000000E+00 -0.45593999997E+02  0.45594000000E+02  0.51100000000E-03 0. -1.
         23    2    1    2    0    0  0.00000000000E+00  0.00000000000E+00 -0.88817841970E-15  0.91188000000E+02  0.91188000000E+02 0.  0.
    9900012    2    3    3    0    0  0.11450501275E+02  0.34810981984E+02 -0.35862838195E+01  0.54367083691E+02  0.39999998891E+02 0.  0.
        -12    1    3    3    0    0 -0.11450501275E+02 -0.34810981984E+02  0.35862838195E+01  0.36820916309E+02  0.00000000000E+00 0.  1.
         11    1    4    4    0    0  0.11629373065E+02  0.81501209339E+01  0.77499868462E+01  0.16178043315E+02  0.51100000000E-03 0. -1.
        -11    1    4    4    0    0 -0.80443698544E+00  0.65525744597E+01  0.79404676132E+01  0.10326392259E+02  0.51100000000E-03 0.  1.
         12    1    4    4    0    0  0.62556519596E+00  0.20108286591E+02 -0.19276738279E+02  0.27862648117E+02  0.00000000000E+00 0. -1.
</event>
<event>
 8    1  0.1265908E-006  0.9118800E+02  0.7816164E-02  0.1184000E+00
        -11   -1    0    0    0    0  0.00000000000E+00  0.00000000000E+00  0.45593999997E+02  0.45594000000E+02  0.51100000000E-03 0.  1.
         11   -1    0    0    0    0 -0.00000000000E+00 -0.00000000000E+00 -0.45593999997E+02  0.45594000000E+02  0.51100000000E-03 0. -1.
         23    2    1    2    0    0  0.33306690739E-15  0.00000000000E+00 -0.35527136788E-14  0.91188000000E+02  0.91188000000E+02 0.  0.
    9900012    2    3    3    0    0 -0.44114997402E+00  0.23158893031E+02  0.28622551546E+02  0.54367090224E+02  0.40000013784E+02 0.  0.
         12    1    3    3    0    0  0.44114997402E+00 -0.23158893031E+02 -0.28622551546E+02  0.36820909776E+02  0.00000000000E+00 0. -1.
         11    1    4    4    0    0 -0.57099174805E+01  0.81238641876E+01  0.18952252553E+01  0.10109016075E+02  0.51100000000E-03 0. -1.
        -11    1    4    4    0    0 -0.63788876182E+01 -0.72526378942E+01  0.43395719578E+01  0.10588807709E+02  0.51100000000E-03 0.  1.
        -12    1    4    4    0    0  0.11647655125E+02  0.22287666737E+02  0.22387754333E+02  0.33669266440E+02  0.00000000000E+00 0.  1.
</event>
<event>
 8    1  0.1265908E-006  0.9118800E+02  0.7816164E-02  0.1184000E+00
        -11   -1    0    0    0    0  0.00000000000E+00  0.00000000000E+00  0.45593999997E+02  0.45594000000E+02  0.51100000000E-03 0.  1.
         11   -1    0    0    0    0 -0.00000000000E+00 -0.00000000000E+00 -0.45593999997E+02  0.45594000000E+02  0.51100000000E-03 0. -1.
         23    2    1    2    0    0  0.00000000000E+00  0.00000000000E+00 -0.35527136788E-14  0.91188000000E+02  0.91188000000E+02 0.  0.
    9900012    2    3    3    0    0 -0.25720889957E+02 -0.89812385018E+01  0.24769997305E+02  0.54367087576E+02  0.40000007748E+02 0.  0.
         12    1    3    3    0    0  0.25720889957E+02  0.89812385018E+01 -0.24769997305E+02  0.36820912424E+02  0.00000000000E+00 0. -1.
         11    1    4    4    0    0 -0.63179606462E+00  0.92959921268E+01  0.35948816688E+01  0.99868819140E+01  0.51100000000E-03 0. -1.
        -11    1    4    4    0    0  0.30287433430E+01  0.24249413547E+01  0.35860051929E+01  0.52832812074E+01  0.51100000000E-03 0.  1.
         12    1    4    4    0    0 -0.28117837236E+02 -0.20702171983E+02  0.17589110444E+02  0.39096924455E+02  0.00000000000E+00 0. -1.
</event>
<event>
 8    1  0.1265908E-006  0.9118800E+02  0.7816164E-02  0.1184000E+00
        -11   -1    0    0    0    0  0.00000000000E+00  0.00000000000E+00  0.45593999997E+02  0.45594000000E+02  0.51100000000E-03 0. -1.
         11   -1    0    0    0    0 -0.00000000000E+00 -0.00000000000E+00 -0.45593999997E+02  0.45594000000E+02  0.51100000000E-03 0.  1.
         23    2    1    2    0    0  0.17763568394E-14  0.71054273576E-14 -0.13322676296E-14  0.91188000000E+02  0.91188000000E+02 0.  0.
    9900012    2    3    3    0    0  0.84985199279E+01  0.35614293562E+02  0.38954303371E+01  0.54367121081E+02  0.40000084128E+02 0.  0.
        -12    1    3    3    0    0 -0.84985199279E+01 -0.35614293562E+02 -0.38954303371E+01  0.36820878919E+02  0.00000000000E+00 0.  1.
         11    1    4    4    0    0 -0.30822093566E+01  0.22151138804E+02  0.88886359602E+01  0.24066175731E+02  0.51100000000E-03 0. -1.
        -11    1    4    4    0    0 -0.50578563171E+01 -0.31112853721E+01  0.10976325162E+01  0.60387750904E+01  0.51100000000E-03 0.  1.
        -12    1    4    4    0    0  0.16638585602E+02  0.16574440130E+02 -0.60908381393E+01  0.24262170259E+02  0.00000000000E+00 0.  1.
</event>
<event>
 8    1  0.1265908E-006  0.9118800E+02  0.7816164E-02  0.1184000E+00
        -11   -1    0    0    0    0  0.00000000000E+00  0.00000000000E+00  0.45593999997E+02  0.45594000000E+02  0.51100000000E-03 0.  1.
         11   -1    0    0    0    0 -0.00000000000E+00 -0.00000000000E+00 -0.45593999997E+02  0.45594000000E+02  0.51100000000E-03 0. -1.
         23    2    1    2    0    0  0.35527136788E-14 -0.44408920985E-15  0.35527136788E-14  0.91188000000E+02  0.91188000000E+02 0.  0.
    9900012    2    3    3    0    0 -0.20180378487E+02 -0.31875815781E+01  0.30632857760E+02  0.54367077595E+02  0.39999984994E+02 0.  0.
         12    1    3    3    0    0  0.20180378487E+02  0.31875815781E+01 -0.30632857760E+02  0.36820922405E+02  0.00000000000E+00 0. -1.
         11    1    4    4    0    0 -0.39383484653E+01  0.91544096604E+01  0.12412150625E+02  0.15917766434E+02  0.51100000000E-03 0.  1.
        -11    1    4    4    0    0  0.73426590864E+01 -0.23028038017E+01  0.72334733662E+01  0.10561282356E+02  0.51100000000E-03 0. -1.
        -12    1    4    4    0    0 -0.23584689108E+02 -0.10039187437E+02  0.10987233769E+02  0.27888028805E+02  0.00000000000E+00 0.  1.
</event>
<event>
 8    1  0.1265908E-006  0.9118800E+02  0.7816164E-02  0.1184000E+00
        -11   -1    0    0    0    0  0.00000000000E+00  0.00000000000E+00  0.45593999997E+02  0.45594000000E+02  0.51100000000E-03 0. -1.
         11   -1    0    0    0    0 -0.00000000000E+00 -0.00000000000E+00 -0.45593999997E+02  0.45594000000E+02  0.51100000000E-03 0.  1.
         23    2    1    2    0    0  0.00000000000E+00  0.00000000000E+00  0.00000000000E+00  0.91188000000E+02  0.91188000000E+02 0.  0.
    9900012    2    3    3    0    0 -0.22301247142E+02 -0.10785677182E+02  0.27241569524E+02  0.54367087919E+02  0.40000008528E+02 0.  0.
        -12    1    3    3    0    0  0.22301247142E+02  0.10785677182E+02 -0.27241569524E+02  0.36820912081E+02  0.00000000000E+00 0.  1.
         11    1    4    4    0    0 -0.27254230279E+02  0.48869985262E+01  0.18630198362E+02  0.33373044721E+02  0.51100000000E-03 0. -1.
        -11    1    4    4    0    0  0.37808692491E+00 -0.46463460055E+01 -0.19518239005E+01  0.50538201121E+01  0.51100000000E-03 0.  1.
         12    1    4    4    0    0  0.45748962125E+01 -0.11026329703E+02  0.10563195063E+02  0.15940223085E+02  0.00000000000E+00 0. -1.
</event>
<event>
 8    1  0.1265908E-006  0.9118800E+02  0.7816164E-02  0.1184000E+00
        -11   -1    0    0    0    0  0.00000000000E+00  0.00000000000E+00  0.45593999997E+02  0.45594000000E+02  0.51100000000E-03 0. -1.
         11   -1    0    0    0    0 -0.00000000000E+00 -0.00000000000E+00 -0.45593999997E+02  0.45594000000E+02  0.51100000000E-03 0.  1.
         23    2    1    2    0    0 -0.35527136788E-14  0.35527136788E-14  0.88817841970E-15  0.91188000000E+02  0.91188000000E+02 0.  0.
    9900012    2    3    3    0    0  0.27691448475E+02 -0.23780719487E+02  0.48415552430E+01  0.54367087530E+02  0.40000007643E+02 0.  0.
        -12    1    3    3    0    0 -0.27691448475E+02  0.23780719487E+02 -0.48415552430E+01  0.36820912470E+02  0.00000000000E+00 0.  1.
         11    1    4    4    0    0  0.15035677873E+02  0.15933796331E+00  0.48314555997E+01  0.15793668388E+02  0.51100000000E-03 0. -1.
        -11    1    4    4    0    0 -0.55246810813E+01 -0.10563696425E+02  0.83023043145E+01  0.14527286064E+02  0.51100000000E-03 0.  1.
        -12    1    4    4    0    0  0.18180451683E+02 -0.13376361026E+02 -0.82922046712E+01  0.24046133078E+02  0.00000000000E+00 0.  1.
</event>
<event>
 8    1  0.1265908E-006  0.9118800E+02  0.7816164E-02  0.1184000E+00
        -11   -1    0    0    0    0  0.00000000000E+00  0.00000000000E+00  0.45593999997E+02  0.45594000000E+02  0.51100000000E-03 0.  1.
         11   -1    0    0    0    0 -0.00000000000E+00 -0.00000000000E+00 -0.45593999997E+02  0.45594000000E+02  0.51100000000E-03 0. -1.
         23    2    1    2    0    0  0.00000000000E+00  0.53290705182E-14  0.00000000000E+00  0.91188000000E+02  0.91188000000E+02 0.  0.
    9900012    2    3    3    0    0 -0.41747732628E+01  0.13788387824E+02  0.33885532850E+02  0.54367113168E+02  0.40000066090E+02 0.  0.
         12    1    3    3    0    0  0.41747732628E+01 -0.13788387824E+02 -0.33885532850E+02  0.36820886832E+02  0.00000000000E+00 0. -1.
         11    1    4    4    0    0  0.14449157714E+01 -0.12042416386E+01 -0.37131033301E+01  0.41623450256E+01  0.51100000000E-03 0. -1.
        -11    1    4    4    0    0  0.48468171774E+01  0.10148743910E+02  0.36983029332E+02  0.38655311389E+02  0.51100000000E-03 0.  1.
         12    1    4    4    0    0 -0.10466506212E+02  0.48438855526E+01  0.61560684744E+00  0.11549456754E+02  0.00000000000E+00 0. -1.
</event>
<event>
 8    1  0.1265908E-006  0.9118800E+02  0.7816164E-02  0.1184000E+00
        -11   -1    0    0    0    0  0.00000000000E+00  0.00000000000E+00  0.45593999997E+02  0.45594000000E+02  0.51100000000E-03 0.  1.
         11   -1    0    0    0    0 -0.00000000000E+00 -0.00000000000E+00 -0.45593999997E+02  0.45594000000E+02  0.51100000000E-03 0. -1.
         23    2    1    2    0    0  0.00000000000E+00  0.00000000000E+00  0.00000000000E+00  0.91188000000E+02  0.91188000000E+02 0.  0.
    9900012    2    3    3    0    0 -0.90902379926E+01  0.90461198669E+01 -0.34515303940E+02  0.54367205366E+02  0.40000276271E+02 0.  0.
        -12    1    3    3    0    0  0.90902379926E+01 -0.90461198669E+01  0.34515303940E+02  0.36820794634E+02  0.00000000000E+00 0.  1.
         11    1    4    4    0    0  0.43935526880E+01  0.12877151315E+02 -0.51777892059E+01  0.14557947401E+02  0.51100000000E-03 0.  1.
        -11    1    4    4    0    0 -0.16479297184E+02  0.34077833531E+01 -0.11657726386E+02  0.20471512104E+02  0.51100000000E-03 0. -1.
        -12    1    4    4    0    0  0.29955065031E+01 -0.72388148015E+01 -0.17679788348E+02  0.19337745861E+02  0.00000000000E+00 0.  1.
</event>
<event>
 8    1  0.1265908E-006  0.9118800E+02  0.7816164E-02  0.1184000E+00
        -11   -1    0    0    0    0  0.00000000000E+00  0.00000000000E+00  0.45593999997E+02  0.45594000000E+02  0.51100000000E-03 0. -1.
         11   -1    0    0    0    0 -0.00000000000E+00 -0.00000000000E+00 -0.45593999997E+02  0.45594000000E+02  0.51100000000E-03 0.  1.
         23    2    1    2    0    0  0.00000000000E+00  0.35527136788E-14  0.66613381478E-15  0.91188000000E+02  0.91188000000E+02 0.  0.
    9900012    2    3    3    0    0  0.25306632240E+02 -0.26676471043E+02  0.19285508519E+01  0.54367094919E+02  0.40000024486E+02 0.  0.
         12    1    3    3    0    0 -0.25306632240E+02  0.26676471043E+02 -0.19285508519E+01  0.36820905081E+02  0.00000000000E+00 0. -1.
         11    1    4    4    0    0 -0.36389723559E+01 -0.20404561302E+01  0.89530375297E+01  0.98773712239E+01  0.51100000000E-03 0. -1.
        -11    1    4    4    0    0  0.16366186946E+02 -0.18508777374E+02  0.59440540603E+01  0.25411782581E+02  0.51100000000E-03 0.  1.
        -12    1    4    4    0    0  0.12579417649E+02 -0.61272375388E+01 -0.12968540738E+02  0.19077941113E+02  0.00000000000E+00 0.  1.
</event>
<event>
 8    1  0.1265908E-006  0.9118800E+02  0.7816164E-02  0.1184000E+00
        -11   -1    0    0    0    0  0.00000000000E+00  0.00000000000E+00  0.45593999997E+02  0.45594000000E+02  0.51100000000E-03 0. -1.
         11   -1    0    0    0    0 -0.00000000000E+00 -0.00000000000E+00 -0.45593999997E+02  0.45594000000E+02  0.51100000000E-03 0.  1.
         23    2    1    2    0    0  0.00000000000E+00  0.00000000000E+00 -0.33306690739E-15  0.91188000000E+02  0.91188000000E+02 0.  0.
    9900012    2    3    3    0    0  0.26340996695E+02  0.25714685381E+02  0.82523743678E+00  0.54367161226E+02  0.40000175647E+02 0.  0.
        -12    1    3    3    0    0 -0.26340996695E+02 -0.25714685381E+02 -0.82523743678E+00  0.36820838774E+02  0.00000000000E+00 0.  1.
         11    1    4    4    0    0  0.13640139489E+02  0.13568904449E+02  0.55861446681E+00  0.19247873223E+02  0.51100000000E-03 0. -1.
        -11    1    4    4    0    0 -0.40343760785E+01  0.16013782867E+02  0.50859176122E+01  0.17279583047E+02  0.51100000000E-03 0.  1.
        -12    1    4    4    0    0  0.16735233285E+02 -0.38680019350E+01 -0.48192946422E+01  0.17839704956E+02  0.00000000000E+00 0.  1.
</event>
<event>
 8    1  0.1265908E-006  0.9118800E+02  0.7816164E-02  0.1184000E+00
        -11   -1    0    0    0    0  0.00000000000E+00  0.00000000000E+00  0.45593999997E+02  0.45594000000E+02  0.51100000000E-03 0.  1.
         11   -1    0    0    0    0 -0.00000000000E+00 -0.00000000000E+00 -0.45593999997E+02  0.45594000000E+02  0.51100000000E-03 0. -1.
         23    2    1    2    0    0 -0.35527136788E-14  0.35527136788E-14  0.00000000000E+00  0.91188000000E+02  0.91188000000E+02 0.  0.
    9900012    2    3    3    0    0  0.19506093042E+02 -0.29853083823E+02 -0.91697785729E+01  0.54367094001E+02  0.40000022394E+02 0.  0.
        -12    1    3    3    0    0 -0.19506093042E+02  0.29853083823E+02  0.91697785729E+01  0.36820905999E+02  0.00000000000E+00 0.  1.
         11    1    4    4    0    0  0.10919246431E+02 -0.29261129512E+02  0.17843287951E+01  0.31283022112E+02  0.51100000000E-03 0. -1.
        -11    1    4    4    0    0 -0.48010456405E+01  0.78155290346E+00  0.11334320897E+01  0.49945503047E+01  0.51100000000E-03 0.  1.
         12    1    4    4    0    0  0.13387892252E+02 -0.13735072148E+01 -0.12087539458E+02  0.18089521584E+02  0.00000000000E+00 0. -1.
</event>
<event>
 8    1  0.1265908E-006  0.9118800E+02  0.7816164E-02  0.1184000E+00
        -11   -1    0    0    0    0  0.00000000000E+00  0.00000000000E+00  0.45593999997E+02  0.45594000000E+02  0.51100000000E-03 0. -1.
         11   -1    0    0    0    0 -0.00000000000E+00 -0.00000000000E+00 -0.45593999997E+02  0.45594000000E+02  0.51100000000E-03 0.  1.
         23    2    1    2    0    0  0.00000000000E+00  0.00000000000E+00 -0.35527136788E-14  0.91188000000E+02  0.91188000000E+02 0.  0.
    9900012    2    3    3    0    0 -0.38732189856E+01  0.27094991226E+02 -0.24630043486E+02  0.54367089949E+02  0.40000013157E+02 0.  0.
         12    1    3    3    0    0  0.38732189856E+01 -0.27094991226E+02  0.24630043486E+02  0.36820910051E+02  0.00000000000E+00 0. -1.
         11    1    4    4    0    0 -0.14682989201E+02  0.22497645468E+02 -0.12285278605E+02  0.29540858047E+02  0.51100000000E-03 0. -1.
        -11    1    4    4    0    0  0.41045551216E+01  0.11320977547E+02 -0.67454187222E+01  0.13802629437E+02  0.51100000000E-03 0.  1.
        -12    1    4    4    0    0  0.67052150938E+01 -0.67236317901E+01 -0.55993461591E+01  0.11023602465E+02  0.00000000000E+00 0.  1.
</event>
<event>
 8    1  0.1265908E-006  0.9118800E+02  0.7816164E-02  0.1184000E+00
        -11   -1    0    0    0    0  0.00000000000E+00  0.00000000000E+00  0.45593999997E+02  0.45594000000E+02  0.51100000000E-03 0.  1.
         11   -1    0    0    0    0 -0.00000000000E+00 -0.00000000000E+00 -0.45593999997E+02  0.45594000000E+02  0.51100000000E-03 0. -1.
         23    2    1    2    0    0  0.13322676296E-14  0.00000000000E+00  0.00000000000E+00  0.91188000000E+02  0.91188000000E+02 0.  0.
    9900012    2    3    3    0    0 -0.25662552577E+01  0.14600216703E+02 -0.33705051972E+02  0.54367047782E+02  0.39999917028E+02 0.  0.
        -12    1    3    3    0    0  0.25662552577E+01 -0.14600216703E+02  0.33705051972E+02  0.36820952218E+02  0.00000000000E+00 0.  1.
         11    1    4    4    0    0  0.12087490294E+02  0.12513789157E+02 -0.12082882947E+02  0.21182502242E+02  0.51100000000E-03 0. -1.
        -11    1    4    4    0    0 -0.58220429211E+01  0.51692665960E+01  0.17760650700E+01  0.79857315450E+01  0.51100000000E-03 0.  1.
        -12    1    4    4    0    0 -0.88317026305E+01 -0.30828390503E+01 -0.23398234095E+02  0.25198813995E+02  0.00000000000E+00 0.  1.
</event>
<event>
 8    1  0.1265908E-006  0.9118800E+02  0.7816164E-02  0.1184000E+00
        -11   -1    0    0    0    0  0.00000000000E+00  0.00000000000E+00  0.45593999997E+02  0.45594000000E+02  0.51100000000E-03 0. -1.
         11   -1    0    0    0    0 -0.00000000000E+00 -0.00000000000E+00 -0.45593999997E+02  0.45594000000E+02  0.51100000000E-03 0.  1.
         23    2    1    2    0    0  0.35527136788E-14  0.00000000000E+00 -0.35527136788E-14  0.91188000000E+02  0.91188000000E+02 0.  0.
    9900012    2    3    3    0    0 -0.21403018822E+02 -0.13174725383E+02  0.26909341890E+02  0.54367146064E+02  0.40000141083E+02 0.  0.
        -12    1    3    3    0    0  0.21403018822E+02  0.13174725383E+02 -0.26909341890E+02  0.36820853936E+02  0.00000000000E+00 0.  1.
         11    1    4    4    0    0  0.17974522006E+01 -0.34708485450E+01  0.22907193742E+02  0.23238269071E+02  0.51100000000E-03 0.  1.
        -11    1    4    4    0    0 -0.11978696487E+02  0.44335548538E+01  0.25134098350E+01  0.13017788116E+02  0.51100000000E-03 0. -1.
        -12    1    4    4    0    0 -0.11221774536E+02 -0.14137431692E+02  0.14887383129E+01  0.18111088877E+02  0.00000000000E+00 0.  1.
</event>
<event>
 8    1  0.1265908E-006  0.9118800E+02  0.7816164E-02  0.1184000E+00
        -11   -1    0    0    0    0  0.00000000000E+00  0.00000000000E+00  0.45593999997E+02  0.45594000000E+02  0.51100000000E-03 0.  1.
         11   -1    0    0    0    0 -0.00000000000E+00 -0.00000000000E+00 -0.45593999997E+02  0.45594000000E+02  0.51100000000E-03 0. -1.
         23    2    1    2    0    0 -0.35527136788E-14 -0.35527136788E-14  0.00000000000E+00  0.91188000000E+02  0.91188000000E+02 0.  0.
    9900012    2    3    3    0    0 -0.28121428663E+02 -0.23659625225E+02  0.22774767580E+01  0.54367088602E+02  0.40000010085E+02 0.  0.
         12    1    3    3    0    0  0.28121428663E+02  0.23659625225E+02 -0.22774767580E+01  0.36820911398E+02  0.00000000000E+00 0. -1.
         11    1    4    4    0    0 -0.69919426575E+01  0.61147017491E+01 -0.16255496714E+01  0.94297005043E+01  0.51100000000E-03 0. -1.
        -11    1    4    4    0    0 -0.39144100942E+01  0.47704322639E+01  0.50918658018E+00  0.61918415358E+01  0.51100000000E-03 0.  1.
         12    1    4    4    0    0 -0.17215075911E+02 -0.34544759238E+02  0.33938398492E+01  0.38745546561E+02  0.00000000000E+00 0. -1.
</event>
<event>
 8    1  0.1265908E-006  0.9118800E+02  0.7816164E-02  0.1184000E+00
        -11   -1    0    0    0    0  0.00000000000E+00  0.00000000000E+00  0.45593999997E+02  0.45594000000E+02  0.51100000000E-03 0.  1.
         11   -1    0    0    0    0 -0.00000000000E+00 -0.00000000000E+00 -0.45593999997E+02  0.45594000000E+02  0.51100000000E-03 0. -1.
         23    2    1    2    0    0  0.00000000000E+00  0.13322676296E-14  0.71054273576E-14  0.91188000000E+02  0.91188000000E+02 0.  0.
    9900012    2    3    3    0    0 -0.13504019091E+02 -0.15799102549E+01 -0.34218516988E+02  0.54367332531E+02  0.40000566167E+02 0.  0.
        -12    1    3    3    0    0  0.13504019091E+02  0.15799102549E+01  0.34218516988E+02  0.36820667469E+02  0.00000000000E+00 0.  1.
         11    1    4    4    0    0 -0.44636385324E+01 -0.23905048124E+01 -0.28644724191E+01  0.58175411221E+01  0.51100000000E-03 0. -1.
        -11    1    4    4    0    0 -0.17904105077E+01  0.14619354613E+02 -0.14205910406E+01  0.14796931380E+02  0.51100000000E-03 0.  1.
         12    1    4    4    0    0 -0.72499700508E+01 -0.13808760056E+02 -0.29933453528E+02  0.33752860029E+02  0.00000000000E+00 0. -1.
</event>
<event>
 8    1  0.1265908E-006  0.9118800E+02  0.7816164E-02  0.1184000E+00
        -11   -1    0    0    0    0  0.00000000000E+00  0.00000000000E+00  0.45593999997E+02  0.45594000000E+02  0.51100000000E-03 0.  1.
         11   -1    0    0    0    0 -0.00000000000E+00 -0.00000000000E+00 -0.45593999997E+02  0.45594000000E+02  0.51100000000E-03 0. -1.
         23    2    1    2    0    0 -0.71054273576E-14  0.35527136788E-14  0.88817841970E-15  0.91188000000E+02  0.91188000000E+02 0.  0.
    9900012    2    3    3    0    0 -0.33116744014E+02  0.14477412654E+02  0.70331723374E+01  0.54367085774E+02  0.40000003640E+02 0.  0.
        -12    1    3    3    0    0  0.33116744014E+02 -0.14477412654E+02 -0.70331723374E+01  0.36820914226E+02  0.00000000000E+00 0.  1.
         11    1    4    4    0    0 -0.90609179230E+01  0.23354373749E+02  0.30781069778E+01  0.25238893590E+02  0.51100000000E-03 0. -1.
        -11    1    4    4    0    0 -0.14245492452E+02 -0.58075520305E+01 -0.42675718153E+01  0.15964770128E+02  0.51100000000E-03 0.  1.
         12    1    4    4    0    0 -0.98103336394E+01 -0.30694090642E+01  0.82226371750E+01  0.13163422056E+02  0.00000000000E+00 0. -1.
</event>
<event>
 8    1  0.1265908E-006  0.9118800E+02  0.7816164E-02  0.1184000E+00
        -11   -1    0    0    0    0  0.00000000000E+00  0.00000000000E+00  0.45593999997E+02  0.45594000000E+02  0.51100000000E-03 0.  1.
         11   -1    0    0    0    0 -0.00000000000E+00 -0.00000000000E+00 -0.45593999997E+02  0.45594000000E+02  0.51100000000E-03 0. -1.
         23    2    1    2    0    0 -0.71054273576E-14  0.71054273576E-14  0.17763568394E-14  0.91188000000E+02  0.91188000000E+02 0.  0.
    9900012    2    3    3    0    0 -0.29974907775E+02  0.18398007650E+02  0.10899437838E+02  0.54367088458E+02  0.40000009758E+02 0.  0.
         12    1    3    3    0    0  0.29974907775E+02 -0.18398007650E+02 -0.10899437838E+02  0.36820911542E+02  0.00000000000E+00 0. -1.
         11    1    4    4    0    0  0.71615569929E+01  0.45639449301E+01  0.15284451752E+01  0.86286520849E+01  0.51100000000E-03 0. -1.
        -11    1    4    4    0    0  0.67703981110E+00 -0.19622869318E+01  0.38686578872E+01  0.43903834704E+01  0.51100000000E-03 0.  1.
        -12    1    4    4    0    0 -0.37813504579E+02  0.15796349652E+02  0.55023347760E+01  0.41348052903E+02  0.00000000000E+00 0.  1.
</event>
<event>
 8    1  0.1265908E-006  0.9118800E+02  0.7816164E-02  0.1184000E+00
        -11   -1    0    0    0    0  0.00000000000E+00  0.00000000000E+00  0.45593999997E+02  0.45594000000E+02  0.51100000000E-03 0. -1.
         11   -1    0    0    0    0 -0.00000000000E+00 -0.00000000000E+00 -0.45593999997E+02  0.45594000000E+02  0.51100000000E-03 0.  1.
         23    2    1    2    0    0  0.35527136788E-14  0.00000000000E+00  0.00000000000E+00  0.91188000000E+02  0.91188000000E+02 0.  0.
    9900012    2    3    3    0    0 -0.18790631386E+02  0.10720568493E+02 -0.29795377319E+02  0.54367042296E+02  0.39999904521E+02 0.  0.
         12    1    3    3    0    0  0.18790631386E+02 -0.10720568493E+02  0.29795377319E+02  0.36820957704E+02  0.00000000000E+00 0. -1.
         11    1    4    4    0    0 -0.21822903963E+02  0.76100552836E+01 -0.90418140060E+01  0.24817463198E+02  0.51100000000E-03 0. -1.
        -11    1    4    4    0    0  0.24958064858E+01 -0.46587043172E+01 -0.21102286053E+02  0.21754058307E+02  0.51100000000E-03 0.  1.
         12    1    4    4    0    0  0.53646609123E+00  0.77692175267E+01  0.34872273993E+00  0.77955207904E+01  0.00000000000E+00 0. -1.
</event>
<event>
 8    1  0.1265908E-006  0.9118800E+02  0.7816164E-02  0.1184000E+00
        -11   -1    0    0    0    0  0.00000000000E+00  0.00000000000E+00  0.45593999997E+02  0.45594000000E+02  0.51100000000E-03 0. -1.
         11   -1    0    0    0    0 -0.00000000000E+00 -0.00000000000E+00 -0.45593999997E+02  0.45594000000E+02  0.51100000000E-03 0.  1.
         23    2    1    2    0    0 -0.35527136788E-14  0.00000000000E+00  0.00000000000E+00  0.91188000000E+02  0.91188000000E+02 0.  0.
    9900012    2    3    3    0    0 -0.24637137855E+02  0.56978539078E+01 -0.26764265233E+02  0.54367082109E+02  0.39999995284E+02 0.  0.
         12    1    3    3    0    0  0.24637137855E+02 -0.56978539078E+01  0.26764265233E+02  0.36820917891E+02  0.00000000000E+00 0. -1.
         11    1    4    4    0    0  0.34523585376E+00  0.11029222827E+02  0.48732383286E+01  0.12062810453E+02  0.51100000000E-03 0. -1.
        -11    1    4    4    0    0 -0.16253830315E+02 -0.68000101659E+01 -0.13759354377E+02  0.22355021165E+02  0.51100000000E-03 0.  1.
        -12    1    4    4    0    0 -0.87285433943E+01  0.14686412470E+01 -0.17878149184E+02  0.19949250491E+02  0.00000000000E+00 0.  1.
</event>
<event>
 8    1  0.1265908E-006  0.9118800E+02  0.7816164E-02  0.1184000E+00
        -11   -1    0    0    0    0  0.00000000000E+00  0.00000000000E+00  0.45593999997E+02  0.45594000000E+02  0.51100000000E-03 0. -1.
         11   -1    0    0    0    0 -0.00000000000E+00 -0.00000000000E+00 -0.45593999997E+02  0.45594000000E+02  0.51100000000E-03 0.  1.
         23    2    1    2    0    0 -0.22204460493E-15  0.44408920985E-15  0.00000000000E+00  0.91188000000E+02  0.91188000000E+02 0.  0.
    9900012    2    3    3    0    0  0.16886126439E+01 -0.29904514260E+01 -0.36660466162E+02  0.54367027829E+02  0.39999871542E+02 0.  0.
         12    1    3    3    0    0 -0.16886126439E+01  0.29904514260E+01  0.36660466162E+02  0.36820972171E+02  0.00000000000E+00 0. -1.
         11    1    4    4    0    0 -0.61341404330E+00 -0.60052263319E+01 -0.76228012574E+00  0.60844138039E+01  0.51100000000E-03 0. -1.
        -11    1    4    4    0    0 -0.31552029758E+00 -0.66534885644E+01 -0.37545449071E+02  0.38131734938E+02  0.51100000000E-03 0.  1.
        -12    1    4    4    0    0  0.26175469848E+01  0.96682634702E+01  0.16472630352E+01  0.10150879088E+02  0.00000000000E+00 0.  1.
</event>
<event>
 8    1  0.1265908E-006  0.9118800E+02  0.7816164E-02  0.1184000E+00
        -11   -1    0    0    0    0  0.00000000000E+00  0.00000000000E+00  0.45593999997E+02  0.45594000000E+02  0.51100000000E-03 0. -1.
         11   -1    0    0    0    0 -0.00000000000E+00 -0.00000000000E+00 -0.45593999997E+02  0.45594000000E+02  0.51100000000E-03 0.  1.
         23    2    1    2    0    0  0.00000000000E+00  0.00000000000E+00 -0.17763568394E-14  0.91188000000E+02  0.91188000000E+02 0.  0.
    9900012    2    3    3    0    0  0.35070689593E+02 -0.91343771193E+01  0.65104779898E+01  0.54367130407E+02  0.40000105390E+02 0.  0.
         12    1    3    3    0    0 -0.35070689593E+02  0.91343771193E+01 -0.65104779898E+01  0.36820869593E+02  0.00000000000E+00 0. -1.
         11    1    4    4    0    0 -0.11764184607E+01 -0.11639778969E+01  0.84366104337E+01  0.85973950014E+01  0.51100000000E-03 0. -1.
        -11    1    4    4    0    0  0.21460543714E+02 -0.41679779377E+01  0.12143526084E+02  0.25007842821E+02  0.51100000000E-03 0.  1.
        -12    1    4    4    0    0  0.14786564340E+02 -0.38024212847E+01 -0.14069658527E+02  0.20761892585E+02  0.00000000000E+00 0.  1.
</event>
<event>
 8    1  0.1265908E-006  0.9118800E+02  0.7816164E-02  0.1184000E+00
        -11   -1    0    0    0    0  0.00000000000E+00  0.00000000000E+00  0.45593999997E+02  0.45594000000E+02  0.51100000000E-03 0. -1.
         11   -1    0    0    0    0 -0.00000000000E+00 -0.00000000000E+00 -0.45593999997E+02  0.45594000000E+02  0.51100000000E-03 0.  1.
         23    2    1    2    0    0  0.35527136788E-14 -0.71054273576E-14 -0.88817841970E-15  0.91188000000E+02  0.91188000000E+02 0.  0.
    9900012    2    3    3    0    0 -0.20581265791E+02  0.29499489772E+02  0.78721983478E+01  0.54367083319E+02  0.39999998043E+02 0.  0.
        -12    1    3    3    0    0  0.20581265791E+02 -0.29499489772E+02 -0.78721983478E+01  0.36820916681E+02  0.00000000000E+00 0.  1.
         11    1    4    4    0    0 -0.71500097221E+01 -0.71115668257E+01  0.61644924080E+01  0.11819390367E+02  0.51100000000E-03 0. -1.
        -11    1    4    4    0    0  0.21885790802E+01  0.13632994953E+02  0.47396837328E+01  0.14598391416E+02  0.51100000000E-03 0.  1.
        -12    1    4    4    0    0 -0.15619835149E+02  0.22978061645E+02 -0.30319777930E+01  0.27949301537E+02  0.00000000000E+00 0.  1.
</event>
<event>
 8    1  0.1265908E-006  0.9118800E+02  0.7816164E-02  0.1184000E+00
        -11   -1    0    0    0    0  0.00000000000E+00  0.00000000000E+00  0.45593999997E+02  0.45594000000E+02  0.51100000000E-03 0.  1.
         11   -1    0    0    0    0 -0.00000000000E+00 -0.00000000000E+00 -0.45593999997E+02  0.45594000000E+02  0.51100000000E-03 0. -1.
         23    2    1    2    0    0  0.00000000000E+00  0.00000000000E+00  0.00000000000E+00  0.91188000000E+02  0.91188000000E+02 0.  0.
    9900012    2    3    3    0    0 -0.24319270340E+02 -0.15545279366E+02  0.22862656545E+02  0.54367031997E+02  0.39999881043E+02 0.  0.
         12    1    3    3    0    0  0.24319270340E+02  0.15545279366E+02 -0.22862656545E+02  0.36820968003E+02  0.00000000000E+00 0. -1.
         11    1    4    4    0    0 -0.12663153489E+02 -0.11744515722E+01 -0.30643516860E+01  0.13081477145E+02  0.51100000000E-03 0. -1.
        -11    1    4    4    0    0 -0.14216563477E+02 -0.92758190675E+01  0.29867479467E+02  0.34354298514E+02  0.51100000000E-03 0.  1.
        -12    1    4    4    0    0  0.25604466265E+01 -0.50950087264E+01 -0.39404712359E+01  0.69312563371E+01  0.00000000000E+00 0.  1.
</event>
<event>
 8    1  0.1265908E-006  0.9118800E+02  0.7816164E-02  0.1184000E+00
        -11   -1    0    0    0    0  0.00000000000E+00  0.00000000000E+00  0.45593999997E+02  0.45594000000E+02  0.51100000000E-03 0. -1.
         11   -1    0    0    0    0 -0.00000000000E+00 -0.00000000000E+00 -0.45593999997E+02  0.45594000000E+02  0.51100000000E-03 0.  1.
         23    2    1    2    0    0  0.00000000000E+00  0.35527136788E-14  0.00000000000E+00  0.91188000000E+02  0.91188000000E+02 0.  0.
    9900012    2    3    3    0    0  0.15395289465E+02 -0.28008304516E+02  0.18283854983E+02  0.54367090008E+02  0.40000013291E+02 0.  0.
        -12    1    3    3    0    0 -0.15395289465E+02  0.28008304516E+02 -0.18283854983E+02  0.36820909992E+02  0.00000000000E+00 0.  1.
         11    1    4    4    0    0  0.85374593726E+01 -0.20965730870E+02  0.12420470577E+02  0.25820886373E+02  0.51100000000E-03 0. -1.
        -11    1    4    4    0    0  0.47122954241E+01 -0.17921796063E+01 -0.10272236189E+02  0.11442747593E+02  0.51100000000E-03 0.  1.
         12    1    4    4    0    0  0.21455346684E+01 -0.52503940396E+01  0.16135620595E+02  0.17103456042E+02  0.00000000000E+00 0. -1.
</event>
<event>
 8    1  0.1265908E-006  0.9118800E+02  0.7816164E-02  0.1184000E+00
        -11   -1    0    0    0    0  0.00000000000E+00  0.00000000000E+00  0.45593999997E+02  0.45594000000E+02  0.51100000000E-03 0. -1.
         11   -1    0    0    0    0 -0.00000000000E+00 -0.00000000000E+00 -0.45593999997E+02  0.45594000000E+02  0.51100000000E-03 0.  1.
         23    2    1    2    0    0  0.88817841970E-15  0.00000000000E+00 -0.35527136788E-14  0.91188000000E+02  0.91188000000E+02 0.  0.
    9900012    2    3    3    0    0 -0.57417285984E+01 -0.23211841598E+02 -0.28000400282E+02  0.54367089452E+02  0.40000012023E+02 0.  0.
         12    1    3    3    0    0  0.57417285984E+01  0.23211841598E+02  0.28000400282E+02  0.36820910548E+02  0.00000000000E+00 0. -1.
         11    1    4    4    0    0  0.20701560606E+01  0.21075693715E+01  0.57283750917E+01  0.64452832540E+01  0.51100000000E-03 0. -1.
        -11    1    4    4    0    0 -0.11524207459E+02 -0.18865175857E+02 -0.33903492497E+02  0.40474053682E+02  0.51100000000E-03 0.  1.
        -12    1    4    4    0    0  0.37123228003E+01 -0.64542351126E+01  0.17471712383E+00  0.74477525158E+01  0.00000000000E+00 0.  1.
</event>
<event>
 8    1  0.1265908E-006  0.9118800E+02  0.7816164E-02  0.1184000E+00
        -11   -1    0    0    0    0  0.00000000000E+00  0.00000000000E+00  0.45593999997E+02  0.45594000000E+02  0.51100000000E-03 0. -1.
         11   -1    0    0    0    0 -0.00000000000E+00 -0.00000000000E+00 -0.45593999997E+02  0.45594000000E+02  0.51100000000E-03 0.  1.
         23    2    1    2    0    0 -0.22204460493E-15 -0.71054273576E-14 -0.88817841970E-15  0.91188000000E+02  0.91188000000E+02 0.  0.
    9900012    2    3    3    0    0  0.18511650712E+01  0.36368099420E+02  0.54510921884E+01  0.54367083748E+02  0.39999999021E+02 0.  0.
        -12    1    3    3    0    0 -0.18511650712E+01 -0.36368099420E+02 -0.54510921884E+01  0.36820916252E+02  0.00000000000E+00 0.  1.
         11    1    4    4    0    0  0.85334081026E+01  0.22504008360E+02  0.16076267262E+02  0.28942975235E+02  0.51100000000E-03 0. -1.
        -11    1    4    4    0    0 -0.54366963446E+00 -0.36234721755E+01  0.66283956696E+00  0.37235042408E+01  0.51100000000E-03 0.  1.
        -12    1    4    4    0    0 -0.61385733970E+01  0.17487563235E+02 -0.11288014640E+02  0.21700604272E+02  0.00000000000E+00 0.  1.
</event>
<event>
 8    1  0.1265908E-006  0.9118800E+02  0.7816164E-02  0.1184000E+00
        -11   -1    0    0    0    0  0.00000000000E+00  0.00000000000E+00  0.45593999997E+02  0.45594000000E+02  0.51100000000E-03 0. -1.
         11   -1    0    0    0    0 -0.00000000000E+00 -0.00000000000E+00 -0.45593999997E+02  0.45594000000E+02  0.51100000000E-03 0.  1.
         23    2    1    2    0    0  0.35527136788E-14 -0.17763568394E-14  0.35527136788E-14  0.91188000000E+02  0.91188000000E+02 0.  0.
    9900012    2    3    3    0    0  0.17071423566E+02 -0.13110829819E+02  0.29873938660E+02  0.54367087842E+02  0.40000008353E+02 0.  0.
        -12    1    3    3    0    0 -0.17071423566E+02  0.13110829819E+02 -0.29873938660E+02  0.36820912158E+02  0.00000000000E+00 0.  1.
         11    1    4    4    0    0  0.13564941870E+02 -0.12086288395E+02  0.31898107986E+02  0.36709335440E+02  0.51100000000E-03 0. -1.
        -11    1    4    4    0    0  0.42336410934E+00  0.66740947236E+01  0.36409721826E+01  0.76144242227E+01  0.51100000000E-03 0.  1.
         12    1    4    4    0    0  0.30831175874E+01 -0.76986361475E+01 -0.56651415091E+01  0.10043328179E+02  0.00000000000E+00 0. -1.
</event>
<event>
 8    1  0.1265908E-006  0.9118800E+02  0.7816164E-02  0.1184000E+00
        -11   -1    0    0    0    0  0.00000000000E+00  0.00000000000E+00  0.45593999997E+02  0.45594000000E+02  0.51100000000E-03 0.  1.
         11   -1    0    0    0    0 -0.00000000000E+00 -0.00000000000E+00 -0.45593999997E+02  0.45594000000E+02  0.51100000000E-03 0. -1.
         23    2    1    2    0    0  0.35527136788E-14 -0.88817841970E-15 -0.35527136788E-14  0.91188000000E+02  0.91188000000E+02 0.  0.
    9900012    2    3    3    0    0 -0.31429579280E+02  0.29003147952E+01  0.18961814246E+02  0.54367072810E+02  0.39999974085E+02 0.  0.
         12    1    3    3    0    0  0.31429579280E+02 -0.29003147952E+01 -0.18961814246E+02  0.36820927190E+02  0.00000000000E+00 0. -1.
         11    1    4    4    0    0 -0.51393062196E+01 -0.78669105960E+01  0.50799837598E+01  0.10682087156E+02  0.51100000000E-03 0. -1.
        -11    1    4    4    0    0 -0.20477806575E+01  0.16117890524E+02  0.27541795128E+01  0.16479238624E+02  0.51100000000E-03 0.  1.
        -12    1    4    4    0    0 -0.24242492403E+02 -0.53506651333E+01  0.11127650974E+02  0.27205747030E+02  0.00000000000E+00 0.  1.
</event>
<event>
 8    1  0.1265908E-006  0.9118800E+02  0.7816164E-02  0.1184000E+00
        -11   -1    0    0    0    0  0.00000000000E+00  0.00000000000E+00  0.45593999997E+02  0.45594000000E+02  0.51100000000E-03 0. -1.
         11   -1    0    0    0    0 -0.00000000000E+00 -0.00000000000E+00 -0.45593999997E+02  0.45594000000E+02  0.51100000000E-03 0.  1.
         23    2    1    2    0    0  0.88817841970E-15  0.00000000000E+00 -0.35527136788E-14  0.91188000000E+02  0.91188000000E+02 0.  0.
    9900012    2    3    3    0    0  0.61608227090E+01  0.30827998820E+02 -0.19169200631E+02  0.54367088814E+02  0.40000010570E+02 0.  0.
         12    1    3    3    0    0 -0.61608227090E+01 -0.30827998820E+02  0.19169200631E+02  0.36820911186E+02  0.00000000000E+00 0. -1.
         11    1    4    4    0    0 -0.64296289480E+01  0.18757984457E+00 -0.29676860957E+01  0.70839590365E+01  0.51100000000E-03 0. -1.
        -11    1    4    4    0    0 -0.96252726370E+01  0.10174253124E+02 -0.30273401670E+01  0.14329204051E+02  0.51100000000E-03 0.  1.
        -12    1    4    4    0    0  0.22215724294E+02  0.20466165851E+02 -0.13174174368E+02  0.32953925727E+02  0.00000000000E+00 0.  1.
</event>
<event>
 8    1  0.1265908E-006  0.9118800E+02  0.7816164E-02  0.1184000E+00
        -11   -1    0    0    0    0  0.00000000000E+00  0.00000000000E+00  0.45593999997E+02  0.45594000000E+02  0.51100000000E-03 0. -1.
         11   -1    0    0    0    0 -0.00000000000E+00 -0.00000000000E+00 -0.45593999997E+02  0.45594000000E+02  0.51100000000E-03 0.  1.
         23    2    1    2    0    0 -0.22204460493E-15  0.17763568394E-14  0.00000000000E+00  0.91188000000E+02  0.91188000000E+02 0.  0.
    9900012    2    3    3    0    0 -0.16422037995E+01 -0.83243360861E+01  0.35829994709E+02  0.54367083044E+02  0.39999997416E+02 0.  0.
        -12    1    3    3    0    0  0.16422037995E+01  0.83243360861E+01 -0.35829994709E+02  0.36820916956E+02  0.00000000000E+00 0.  1.
         11    1    4    4    0    0  0.35868496998E+01  0.55118692651E+01  0.16954434095E+02  0.18185132095E+02  0.51100000000E-03 0. -1.
        -11    1    4    4    0    0  0.93951676122E+01 -0.72435318261E+01  0.61962223750E+00  0.11879472200E+02  0.51100000000E-03 0.  1.
        -12    1    4    4    0    0 -0.14624221112E+02 -0.65926735251E+01  0.18255938377E+02  0.24302478749E+02  0.00000000000E+00 0.  1.
</event>
<event>
 8    1  0.1265908E-006  0.9118800E+02  0.7816164E-02  0.1184000E+00
        -11   -1    0    0    0    0  0.00000000000E+00  0.00000000000E+00  0.45593999997E+02  0.45594000000E+02  0.51100000000E-03 0.  1.
         11   -1    0    0    0    0 -0.00000000000E+00 -0.00000000000E+00 -0.45593999997E+02  0.45594000000E+02  0.51100000000E-03 0. -1.
         23    2    1    2    0    0  0.00000000000E+00  0.00000000000E+00  0.00000000000E+00  0.91188000000E+02  0.91188000000E+02 0.  0.
    9900012    2    3    3    0    0 -0.30008114615E+01  0.16731594534E+02  0.32662357461E+02  0.54367072256E+02  0.39999972821E+02 0.  0.
         12    1    3    3    0    0  0.30008114615E+01 -0.16731594534E+02 -0.32662357461E+02  0.36820927744E+02  0.00000000000E+00 0. -1.
         11    1    4    4    0    0 -0.32260130562E+01  0.97249251178E+01  0.11871727018E+02  0.15681812122E+02  0.51100000000E-03 0.  1.
        -11    1    4    4    0    0 -0.12994765417E+02 -0.56915006884E+01  0.10627996558E+02  0.17726009687E+02  0.51100000000E-03 0. -1.
         12    1    4    4    0    0  0.13219967012E+02  0.12698170104E+02  0.10162633885E+02  0.20959250446E+02  0.00000000000E+00 0. -1.
</event>
<event>
 8    1  0.1265908E-006  0.9118800E+02  0.7816164E-02  0.1184000E+00
        -11   -1    0    0    0    0  0.00000000000E+00  0.00000000000E+00  0.45593999997E+02  0.45594000000E+02  0.51100000000E-03 0. -1.
         11   -1    0    0    0    0 -0.00000000000E+00 -0.00000000000E+00 -0.45593999997E+02  0.45594000000E+02  0.51100000000E-03 0.  1.
         23    2    1    2    0    0  0.00000000000E+00  0.00000000000E+00  0.00000000000E+00  0.91188000000E+02  0.91188000000E+02 0.  0.
    9900012    2    3    3    0    0 -0.31459326907E+02  0.17551704663E+02 -0.76176267918E+01  0.54367084423E+02  0.40000000559E+02 0.  0.
        -12    1    3    3    0    0  0.31459326907E+02 -0.17551704663E+02  0.76176267918E+01  0.36820915577E+02  0.00000000000E+00 0.  1.
         11    1    4    4    0    0 -0.16486815267E+02 -0.34162359290E+01 -0.59183673544E+01  0.17846927410E+02  0.51100000000E-03 0. -1.
        -11    1    4    4    0    0 -0.20765299151E+02  0.22350089459E+02 -0.18386947226E+01  0.30563130504E+02  0.51100000000E-03 0.  1.
        -12    1    4    4    0    0  0.57927875104E+01 -0.13821488678E+01  0.13943528513E+00  0.59570265092E+01  0.00000000000E+00 0.  1.
</event>
<event>
 8    1  0.1265908E-006  0.9118800E+02  0.7816164E-02  0.1184000E+00
        -11   -1    0    0    0    0  0.00000000000E+00  0.00000000000E+00  0.45593999997E+02  0.45594000000E+02  0.51100000000E-03 0.  1.
         11   -1    0    0    0    0 -0.00000000000E+00 -0.00000000000E+00 -0.45593999997E+02  0.45594000000E+02  0.51100000000E-03 0. -1.
         23    2    1    2    0    0 -0.71054273576E-14  0.88817841970E-15  0.00000000000E+00  0.91188000000E+02  0.91188000000E+02 0.  0.
    9900012    2    3    3    0    0  0.36278996958E+02  0.36606318355E+01 -0.51199247652E+01  0.54367089157E+02  0.40000011352E+02 0.  0.
        -12    1    3    3    0    0 -0.36278996958E+02 -0.36606318355E+01  0.51199247652E+01  0.36820910843E+02  0.00000000000E+00 0.  1.
         11    1    4    4    0    0  0.60892331834E+01 -0.59893553425E+01 -0.12018683630E+02  0.14744486924E+02  0.51100000000E-03 0. -1.
        -11    1    4    4    0    0  0.33677132943E+02  0.86109299738E+01  0.82753660699E+01  0.35732045591E+02  0.51100000000E-03 0.  1.
         12    1    4    4    0    0 -0.34873691687E+01  0.10390572042E+01 -0.13766072051E+01  0.38905566426E+01  0.00000000000E+00 0. -1.
</event>
<event>
 8    1  0.1265908E-006  0.9118800E+02  0.7816164E-02  0.1184000E+00
        -11   -1    0    0    0    0  0.00000000000E+00  0.00000000000E+00  0.45593999997E+02  0.45594000000E+02  0.51100000000E-03 0.  1.
         11   -1    0    0    0    0 -0.00000000000E+00 -0.00000000000E+00 -0.45593999997E+02  0.45594000000E+02  0.51100000000E-03 0. -1.
         23    2    1    2    0    0 -0.15543122345E-14  0.71054273576E-14  0.17763568394E-14  0.91188000000E+02  0.91188000000E+02 0.  0.
    9900012    2    3    3    0    0  0.11781849461E+01 -0.34773403048E+02 -0.12050067850E+02  0.54367057393E+02  0.39999938939E+02 0.  0.
        -12    1    3    3    0    0 -0.11781849461E+01  0.34773403048E+02  0.12050067850E+02  0.36820942607E+02  0.00000000000E+00 0.  1.
         11    1    4    4    0    0 -0.63981873881E+01 -0.99855802440E+01 -0.61953607842E+01  0.13380250751E+02  0.51100000000E-03 0. -1.
        -11    1    4    4    0    0 -0.96914416255E+01 -0.15287307325E+01 -0.69082087036E+01  0.11999350240E+02  0.51100000000E-03 0.  1.
         12    1    4    4    0    0  0.17267813960E+02 -0.23259092071E+02  0.10535016381E+01  0.28987456401E+02  0.00000000000E+00 0. -1.
</event>
<event>
 8    1  0.1265908E-006  0.9118800E+02  0.7816164E-02  0.1184000E+00
        -11   -1    0    0    0    0  0.00000000000E+00  0.00000000000E+00  0.45593999997E+02  0.45594000000E+02  0.51100000000E-03 0.  1.
         11   -1    0    0    0    0 -0.00000000000E+00 -0.00000000000E+00 -0.45593999997E+02  0.45594000000E+02  0.51100000000E-03 0. -1.
         23    2    1    2    0    0  0.00000000000E+00  0.00000000000E+00  0.00000000000E+00  0.91188000000E+02  0.91188000000E+02 0.  0.
    9900012    2    3    3    0    0  0.18901167908E+02 -0.26771904672E+02  0.16786594145E+02  0.54367098721E+02  0.40000033154E+02 0.  0.
         12    1    3    3    0    0 -0.18901167908E+02  0.26771904672E+02 -0.16786594145E+02  0.36820901279E+02  0.00000000000E+00 0. -1.
         11    1    4    4    0    0  0.80805949702E+01 -0.16824285393E+01  0.44822137496E+01  0.93923810198E+01  0.51100000000E-03 0. -1.
        -11    1    4    4    0    0  0.64313237339E+01 -0.33229328782E+02  0.11251319478E+02  0.35667105385E+02  0.51100000000E-03 0.  1.
        -12    1    4    4    0    0  0.43892492038E+01  0.81398526497E+01  0.10530609169E+01  0.93076123161E+01  0.00000000000E+00 0.  1.
</event>
<event>
 8    1  0.1265908E-006  0.9118800E+02  0.7816164E-02  0.1184000E+00
        -11   -1    0    0    0    0  0.00000000000E+00  0.00000000000E+00  0.45593999997E+02  0.45594000000E+02  0.51100000000E-03 0. -1.
         11   -1    0    0    0    0 -0.00000000000E+00 -0.00000000000E+00 -0.45593999997E+02  0.45594000000E+02  0.51100000000E-03 0.  1.
         23    2    1    2    0    0  0.00000000000E+00  0.17763568394E-14 -0.35527136788E-14  0.91188000000E+02  0.91188000000E+02 0.  0.
    9900012    2    3    3    0    0 -0.16347211865E+02 -0.14065199384E+02 -0.29844907868E+02  0.54367086172E+02  0.40000004546E+02 0.  0.
         12    1    3    3    0    0  0.16347211865E+02  0.14065199384E+02  0.29844907868E+02  0.36820913828E+02  0.00000000000E+00 0. -1.
         11    1    4    4    0    0  0.31534864746E+01 -0.59424753900E+01  0.58484591130E+00  0.67527428285E+01  0.51100000000E-03 0. -1.
        -11    1    4    4    0    0 -0.13946786942E+02  0.35153150234E+01 -0.31546613971E+02  0.34670724812E+02  0.51100000000E-03 0.  1.
        -12    1    4    4    0    0 -0.55539113976E+01 -0.11638039018E+02  0.11168601916E+01  0.12943618531E+02  0.00000000000E+00 0.  1.
</event>
<event>
 8    1  0.1265908E-006  0.9118800E+02  0.7816164E-02  0.1184000E+00
        -11   -1    0    0    0    0  0.00000000000E+00  0.00000000000E+00  0.45593999997E+02  0.45594000000E+02  0.51100000000E-03 0.  1.
         11   -1    0    0    0    0 -0.00000000000E+00 -0.00000000000E+00 -0.45593999997E+02  0.45594000000E+02  0.51100000000E-03 0. -1.
         23    2    1    2    0    0  0.13322676296E-14 -0.35527136788E-14  0.35527136788E-14  0.91188000000E+02  0.91188000000E+02 0.  0.
    9900012    2    3    3    0    0  0.34963877801E+01 -0.21630725882E+02 -0.29591689530E+02  0.54367066838E+02  0.39999960471E+02 0.  0.
        -12    1    3    3    0    0 -0.34963877801E+01  0.21630725882E+02  0.29591689530E+02  0.36820933162E+02  0.00000000000E+00 0.  1.
         11    1    4    4    0    0  0.13120948237E+01  0.19936729372E+01 -0.19537597571E+01  0.30843965466E+01  0.51100000000E-03 0. -1.
        -11    1    4    4    0    0 -0.15192958203E+02 -0.20455022929E+02 -0.17575616688E+02  0.30953775929E+02  0.51100000000E-03 0.  1.
         12    1    4    4    0    0  0.17377251160E+02 -0.31693758896E+01 -0.10062313085E+02  0.20328894363E+02  0.00000000000E+00 0. -1.
</event>
<event>
 8    1  0.1265908E-006  0.9118800E+02  0.7816164E-02  0.1184000E+00
        -11   -1    0    0    0    0  0.00000000000E+00  0.00000000000E+00  0.45593999997E+02  0.45594000000E+02  0.51100000000E-03 0. -1.
         11   -1    0    0    0    0 -0.00000000000E+00 -0.00000000000E+00 -0.45593999997E+02  0.45594000000E+02  0.51100000000E-03 0.  1.
         23    2    1    2    0    0 -0.88817841970E-15 -0.17763568394E-14 -0.71054273576E-14  0.91188000000E+02  0.91188000000E+02 0.  0.
    9900012    2    3    3    0    0  0.42314369170E+01 -0.12977767601E+02 -0.34197265992E+02  0.54367075085E+02  0.39999979271E+02 0.  0.
        -12    1    3    3    0    0 -0.42314369170E+01  0.12977767601E+02  0.34197265992E+02  0.36820924915E+02  0.00000000000E+00 0.  1.
         11    1    4    4    0    0 -0.18658528164E+01  0.11222288884E+01 -0.11839000128E+01  0.24783913961E+01  0.51100000000E-03 0. -1.
        -11    1    4    4    0    0  0.20758321372E+02 -0.17489168203E+01 -0.16190051775E+02  0.26383411322E+02  0.51100000000E-03 0.  1.
         12    1    4    4    0    0 -0.14661031639E+02 -0.12351079669E+02 -0.16823314204E+02  0.25505272367E+02  0.00000000000E+00 0. -1.
</event>
<event>
 8    1  0.1265908E-006  0.9118800E+02  0.7816164E-02  0.1184000E+00
        -11   -1    0    0    0    0  0.00000000000E+00  0.00000000000E+00  0.45593999997E+02  0.45594000000E+02  0.51100000000E-03 0.  1.
         11   -1    0    0    0    0 -0.00000000000E+00 -0.00000000000E+00 -0.45593999997E+02  0.45594000000E+02  0.51100000000E-03 0. -1.
         23    2    1    2    0    0  0.00000000000E+00 -0.35527136788E-14  0.00000000000E+00  0.91188000000E+02  0.91188000000E+02 0.  0.
    9900012    2    3    3    0    0  0.19904748656E+02 -0.23860684523E+02  0.19754556479E+02  0.54367166405E+02  0.40000187452E+02 0.  0.
         12    1    3    3    0    0 -0.19904748656E+02  0.23860684523E+02 -0.19754556479E+02  0.36820833595E+02  0.00000000000E+00 0. -1.
         11    1    4    4    0    0  0.18121576386E+02 -0.39106157510E+01 -0.43842640859E+01  0.19050097588E+02  0.51100000000E-03 0. -1.
        -11    1    4    4    0    0 -0.34221631171E+01 -0.57531194478E+01  0.17623539333E+02  0.18852021713E+02  0.51100000000E-03 0.  1.
         12    1    4    4    0    0  0.52053353870E+01 -0.14196949324E+02  0.65152812318E+01  0.16465047104E+02  0.00000000000E+00 0. -1.
</event>
<event>
 8    1  0.1265908E-006  0.9118800E+02  0.7816164E-02  0.1184000E+00
        -11   -1    0    0    0    0  0.00000000000E+00  0.00000000000E+00  0.45593999997E+02  0.45594000000E+02  0.51100000000E-03 0.  1.
         11   -1    0    0    0    0 -0.00000000000E+00 -0.00000000000E+00 -0.45593999997E+02  0.45594000000E+02  0.51100000000E-03 0. -1.
         23    2    1    2    0    0  0.71054273576E-14  0.00000000000E+00  0.17763568394E-14  0.91188000000E+02  0.91188000000E+02 0.  0.
    9900012    2    3    3    0    0 -0.34686035597E+02  0.11538223916E+02 -0.44191126523E+01  0.54367078865E+02  0.39999987888E+02 0.  0.
        -12    1    3    3    0    0  0.34686035597E+02 -0.11538223916E+02  0.44191126523E+01  0.36820921135E+02  0.00000000000E+00 0.  1.
         11    1    4    4    0    0 -0.22020779771E+02 -0.50024165224E+01 -0.89999824290E+01  0.24309228634E+02  0.51100000000E-03 0. -1.
        -11    1    4    4    0    0 -0.95511444125E+00  0.76948060516E+01  0.11470521256E+02  0.13845401472E+02  0.51100000000E-03 0.  1.
        -12    1    4    4    0    0 -0.11710141385E+02  0.88458343866E+01 -0.68896514796E+01  0.16212448759E+02  0.00000000000E+00 0.  1.
</event>
<event>
 8    1  0.1265908E-006  0.9118800E+02  0.7816164E-02  0.1184000E+00
        -11   -1    0    0    0    0  0.00000000000E+00  0.00000000000E+00  0.45593999997E+02  0.45594000000E+02  0.51100000000E-03 0. -1.
         11   -1    0    0    0    0 -0.00000000000E+00 -0.00000000000E+00 -0.45593999997E+02  0.45594000000E+02  0.51100000000E-03 0.  1.
         23    2    1    2    0    0  0.00000000000E+00  0.35527136788E-14  0.00000000000E+00  0.91188000000E+02  0.91188000000E+02 0.  0.
    9900012    2    3    3    0    0  0.22351754427E+02  0.16767288082E+02 -0.23980010895E+02  0.54367030457E+02  0.39999877532E+02 0.  0.
         12    1    3    3    0    0 -0.22351754427E+02 -0.16767288082E+02  0.23980010895E+02  0.36820969543E+02  0.00000000000E+00 0. -1.
         11    1    4    4    0    0 -0.37553741553E+01  0.13227844283E+02 -0.86750227343E+01  0.16258373816E+02  0.51100000000E-03 0. -1.
        -11    1    4    4    0    0  0.73045420673E+01  0.11508113072E+02 -0.10295094633E+02  0.17081626827E+02  0.51100000000E-03 0.  1.
         12    1    4    4    0    0  0.18802586515E+02 -0.79686692736E+01 -0.50098935275E+01  0.21027029814E+02  0.00000000000E+00 0. -1.
</event>
<event>
 8    1  0.1265908E-006  0.9118800E+02  0.7816164E-02  0.1184000E+00
        -11   -1    0    0    0    0  0.00000000000E+00  0.00000000000E+00  0.45593999997E+02  0.45594000000E+02  0.51100000000E-03 0.  1.
         11   -1    0    0    0    0 -0.00000000000E+00 -0.00000000000E+00 -0.45593999997E+02  0.45594000000E+02  0.51100000000E-03 0. -1.
         23    2    1    2    0    0 -0.17763568394E-14  0.00000000000E+00 -0.35527136788E-14  0.91188000000E+02  0.91188000000E+02 0.  0.
    9900012    2    3    3    0    0 -0.12312423985E+02  0.16732649299E+02 -0.30400676731E+02  0.54367102636E+02  0.40000042079E+02 0.  0.
        -12    1    3    3    0    0  0.12312423985E+02 -0.16732649299E+02  0.30400676731E+02  0.36820897364E+02  0.00000000000E+00 0.  1.
         11    1    4    4    0    0 -0.56575051877E+01  0.88599729806E+01 -0.28426718648E+00  0.10516049366E+02  0.51100000000E-03 0. -1.
        -11    1    4    4    0    0  0.34276211930E+01  0.16771669588E+02 -0.10547983878E+02  0.20107149274E+02  0.51100000000E-03 0.  1.
         12    1    4    4    0    0 -0.10082539991E+02 -0.88989932690E+01 -0.19568425667E+02  0.23743903996E+02  0.00000000000E+00 0. -1.
</event>
<event>
 8    1  0.1265908E-006  0.9118800E+02  0.7816164E-02  0.1184000E+00
        -11   -1    0    0    0    0  0.00000000000E+00  0.00000000000E+00  0.45593999997E+02  0.45594000000E+02  0.51100000000E-03 0.  1.
         11   -1    0    0    0    0 -0.00000000000E+00 -0.00000000000E+00 -0.45593999997E+02  0.45594000000E+02  0.51100000000E-03 0. -1.
         23    2    1    2    0    0  0.00000000000E+00  0.00000000000E+00  0.00000000000E+00  0.91188000000E+02  0.91188000000E+02 0.  0.
    9900012    2    3    3    0    0  0.94727087344E+01 -0.20374928814E+02 -0.29170367840E+02  0.54367078027E+02  0.39999985979E+02 0.  0.
        -12    1    3    3    0    0 -0.94727087344E+01  0.20374928814E+02  0.29170367840E+02  0.36820921973E+02  0.00000000000E+00 0.  1.
         11    1    4    4    0    0  0.12935488148E+01  0.55471185565E+01  0.34510674828E+01  0.66598543413E+01  0.51100000000E-03 0.  1.
        -11    1    4    4    0    0 -0.60350234529E+01 -0.16703714163E+02 -0.14807249891E+02  0.23123369662E+02  0.51100000000E-03 0. -1.
        -12    1    4    4    0    0  0.14214183373E+02 -0.92183332078E+01 -0.17814185432E+02  0.24583854024E+02  0.00000000000E+00 0.  1.
</event>
<event>
 8    1  0.1265908E-006  0.9118800E+02  0.7816164E-02  0.1184000E+00
        -11   -1    0    0    0    0  0.00000000000E+00  0.00000000000E+00  0.45593999997E+02  0.45594000000E+02  0.51100000000E-03 0.  1.
         11   -1    0    0    0    0 -0.00000000000E+00 -0.00000000000E+00 -0.45593999997E+02  0.45594000000E+02  0.51100000000E-03 0. -1.
         23    2    1    2    0    0  0.00000000000E+00 -0.35527136788E-14 -0.35527136788E-14  0.91188000000E+02  0.91188000000E+02 0.  0.
    9900012    2    3    3    0    0  0.10570535218E+02  0.16887596842E+02  0.30965337367E+02  0.54367092079E+02  0.40000018013E+02 0.  0.
         12    1    3    3    0    0 -0.10570535218E+02 -0.16887596842E+02 -0.30965337367E+02  0.36820907921E+02  0.00000000000E+00 0. -1.
         11    1    4    4    0    0 -0.90598645963E+00 -0.16696746718E+01 -0.40567733653E+01  0.44795128500E+01  0.51100000000E-03 0. -1.
        -11    1    4    4    0    0 -0.91098716080E+01  0.85515603634E+01  0.10264328323E+02  0.16170200418E+02  0.51100000000E-03 0.  1.
        -12    1    4    4    0    0  0.20586393286E+02  0.10005711150E+02  0.24757782408E+02  0.33717378811E+02  0.00000000000E+00 0.  1.
</event>
<event>
 8    1  0.1265908E-006  0.9118800E+02  0.7816164E-02  0.1184000E+00
        -11   -1    0    0    0    0  0.00000000000E+00  0.00000000000E+00  0.45593999997E+02  0.45594000000E+02  0.51100000000E-03 0.  1.
         11   -1    0    0    0    0 -0.00000000000E+00 -0.00000000000E+00 -0.45593999997E+02  0.45594000000E+02  0.51100000000E-03 0. -1.
         23    2    1    2    0    0  0.17763568394E-14  0.00000000000E+00  0.00000000000E+00  0.91188000000E+02  0.91188000000E+02 0.  0.
    9900012    2    3    3    0    0 -0.11617113305E+02 -0.34927669435E+02  0.93865325494E+00  0.54367075465E+02  0.39999980137E+02 0.  0.
        -12    1    3    3    0    0  0.11617113305E+02  0.34927669435E+02 -0.93865325494E+00  0.36820924535E+02  0.00000000000E+00 0.  1.
         11    1    4    4    0    0 -0.11856821452E+02 -0.13491388324E+02  0.32308297257E+01  0.18249384505E+02  0.51100000000E-03 0. -1.
        -11    1    4    4    0    0 -0.77369600901E+01  0.40711612864E+01  0.22047360451E+01  0.90164165246E+01  0.51100000000E-03 0.  1.
         12    1    4    4    0    0  0.79766682370E+01 -0.25507442397E+02 -0.44969125159E+01  0.27101274435E+02  0.00000000000E+00 0. -1.
</event>
<event>
 8    1  0.1265908E-006  0.9118800E+02  0.7816164E-02  0.1184000E+00
        -11   -1    0    0    0    0  0.00000000000E+00  0.00000000000E+00  0.45593999997E+02  0.45594000000E+02  0.51100000000E-03 0.  1.
         11   -1    0    0    0    0 -0.00000000000E+00 -0.00000000000E+00 -0.45593999997E+02  0.45594000000E+02  0.51100000000E-03 0. -1.
         23    2    1    2    0    0  0.00000000000E+00  0.17763568394E-14 -0.88817841970E-15  0.91188000000E+02  0.91188000000E+02 0.  0.
    9900012    2    3    3    0    0 -0.33456756266E+02  0.13373789452E+02  0.75873354661E+01  0.54367076008E+02  0.39999981375E+02 0.  0.
        -12    1    3    3    0    0  0.33456756266E+02 -0.13373789452E+02 -0.75873354661E+01  0.36820923992E+02  0.00000000000E+00 0.  1.
         11    1    4    4    0    0  0.21638175104E+01  0.29176992001E+01 -0.77977661259E+01  0.86023387318E+01  0.51100000000E-03 0. -1.
        -11    1    4    4    0    0 -0.33735360682E+02  0.23498835198E+01  0.82658724740E+01  0.34812658056E+02  0.51100000000E-03 0.  1.
        -12    1    4    4    0    0 -0.18852130945E+01  0.81062067324E+01  0.71192291180E+01  0.10952079220E+02  0.00000000000E+00 0.  1.
</event>
<event>
 8    1  0.1265908E-006  0.9118800E+02  0.7816164E-02  0.1184000E+00
        -11   -1    0    0    0    0  0.00000000000E+00  0.00000000000E+00  0.45593999997E+02  0.45594000000E+02  0.51100000000E-03 0.  1.
         11   -1    0    0    0    0 -0.00000000000E+00 -0.00000000000E+00 -0.45593999997E+02  0.45594000000E+02  0.51100000000E-03 0. -1.
         23    2    1    2    0    0  0.35527136788E-14 -0.35527136788E-14 -0.35527136788E-14  0.91188000000E+02  0.91188000000E+02 0.  0.
    9900012    2    3    3    0    0  0.22297944135E+02 -0.21651905914E+02 -0.19742779030E+02  0.54367072986E+02  0.39999974486E+02 0.  0.
         12    1    3    3    0    0 -0.22297944135E+02  0.21651905914E+02  0.19742779030E+02  0.36820927014E+02  0.00000000000E+00 0. -1.
         11    1    4    4    0    0 -0.66833234154E+01  0.58299460546E+01 -0.18352524343E+01  0.90566679653E+01  0.51100000000E-03 0. -1.
        -11    1    4    4    0    0  0.12509503687E+02 -0.15430030494E+02 -0.31220862437E+01  0.20107733495E+02  0.51100000000E-03 0.  1.
         12    1    4    4    0    0  0.16471763863E+02 -0.12051821474E+02 -0.14785440352E+02  0.25202671525E+02  0.00000000000E+00 0. -1.
</event>
<event>
 8    1  0.1265908E-006  0.9118800E+02  0.7816164E-02  0.1184000E+00
        -11   -1    0    0    0    0  0.00000000000E+00  0.00000000000E+00  0.45593999997E+02  0.45594000000E+02  0.51100000000E-03 0. -1.
         11   -1    0    0    0    0 -0.00000000000E+00 -0.00000000000E+00 -0.45593999997E+02  0.45594000000E+02  0.51100000000E-03 0.  1.
         23    2    1    2    0    0  0.00000000000E+00  0.00000000000E+00  0.17763568394E-14  0.91188000000E+02  0.91188000000E+02 0.  0.
    9900012    2    3    3    0    0 -0.23312196157E+02  0.26523200176E+02 -0.10432740059E+02  0.54367072494E+02  0.39999973365E+02 0.  0.
         12    1    3    3    0    0  0.23312196157E+02 -0.26523200176E+02  0.10432740059E+02  0.36820927506E+02  0.00000000000E+00 0. -1.
         11    1    4    4    0    0 -0.24396707184E+02  0.31711347038E+02 -0.10901297325E+02  0.41468628336E+02  0.51100000000E-03 0. -1.
        -11    1    4    4    0    0  0.23674120247E+01 -0.71153051078E+01 -0.35221739598E+01  0.82848003075E+01  0.51100000000E-03 0.  1.
         12    1    4    4    0    0 -0.12829009977E+01  0.19271582455E+01  0.39907312253E+01  0.46136438512E+01  0.00000000000E+00 0. -1.
</event>
<event>
 8    1  0.1265908E-006  0.9118800E+02  0.7816164E-02  0.1184000E+00
        -11   -1    0    0    0    0  0.00000000000E+00  0.00000000000E+00  0.45593999997E+02  0.45594000000E+02  0.51100000000E-03 0.  1.
         11   -1    0    0    0    0 -0.00000000000E+00 -0.00000000000E+00 -0.45593999997E+02  0.45594000000E+02  0.51100000000E-03 0. -1.
         23    2    1    2    0    0  0.00000000000E+00  0.17763568394E-14 -0.71054273576E-14  0.91188000000E+02  0.91188000000E+02 0.  0.
    9900012    2    3    3    0    0  0.12312588340E+02 -0.12977767094E+02  0.32183185702E+02  0.54367085939E+02  0.40000004015E+02 0.  0.
         12    1    3    3    0    0 -0.12312588340E+02  0.12977767094E+02 -0.32183185702E+02  0.36820914061E+02  0.00000000000E+00 0. -1.
         11    1    4    4    0    0  0.85592672154E+01 -0.40813438159E+01 -0.11779999114E+01  0.95554228928E+01  0.51100000000E-03 0. -1.
        -11    1    4    4    0    0  0.13221227592E+02 -0.94505750273E+01  0.87960981527E+01  0.18479328190E+02  0.51100000000E-03 0.  1.
        -12    1    4    4    0    0 -0.94679064675E+01  0.55415174901E+00  0.24565087461E+02  0.26332334856E+02  0.00000000000E+00 0.  1.
</event>
<event>
 8    1  0.1265908E-006  0.9118800E+02  0.7816164E-02  0.1184000E+00
        -11   -1    0    0    0    0  0.00000000000E+00  0.00000000000E+00  0.45593999997E+02  0.45594000000E+02  0.51100000000E-03 0.  1.
         11   -1    0    0    0    0 -0.00000000000E+00 -0.00000000000E+00 -0.45593999997E+02  0.45594000000E+02  0.51100000000E-03 0. -1.
         23    2    1    2    0    0  0.00000000000E+00  0.35527136788E-14  0.35527136788E-14  0.91188000000E+02  0.91188000000E+02 0.  0.
    9900012    2    3    3    0    0 -0.12887328463E+02 -0.19065442104E+02  0.28744094146E+02  0.54366847576E+02  0.39999460616E+02 0.  0.
        -12    1    3    3    0    0  0.12887328463E+02  0.19065442104E+02 -0.28744094146E+02  0.36821152424E+02  0.00000000000E+00 0.  1.
         11    1    4    4    0    0 -0.10184848754E+02 -0.25998966186E+02  0.15386122794E+02  0.31881188212E+02  0.51100000000E-03 0. -1.
        -11    1    4    4    0    0 -0.29798451940E+01 -0.43798927633E+01  0.44593844253E+00  0.53161827803E+01  0.51100000000E-03 0.  1.
        -12    1    4    4    0    0  0.27736548479E+00  0.11313416845E+02  0.12912032909E+02  0.17169476584E+02  0.00000000000E+00 0.  1.
</event>
<event>
 8    1  0.1265908E-006  0.9118800E+02  0.7816164E-02  0.1184000E+00
        -11   -1    0    0    0    0  0.00000000000E+00  0.00000000000E+00  0.45593999997E+02  0.45594000000E+02  0.51100000000E-03 0.  1.
         11   -1    0    0    0    0 -0.00000000000E+00 -0.00000000000E+00 -0.45593999997E+02  0.45594000000E+02  0.51100000000E-03 0. -1.
         23    2    1    2    0    0 -0.35527136788E-14  0.00000000000E+00  0.00000000000E+00  0.91188000000E+02  0.91188000000E+02 0.  0.
    9900012    2    3    3    0    0 -0.19480279480E+02  0.15763394500E+02  0.26978015655E+02  0.54367092577E+02  0.40000019148E+02 0.  0.
         12    1    3    3    0    0  0.19480279480E+02 -0.15763394500E+02 -0.26978015655E+02  0.36820907423E+02  0.00000000000E+00 0. -1.
         11    1    4    4    0    0 -0.69654799959E+01 -0.35084511238E+01  0.17932408894E+01  0.80026779274E+01  0.51100000000E-03 0. -1.
        -11    1    4    4    0    0 -0.90227752532E+01  0.95300862373E+01  0.31580490786E+02  0.34198836464E+02  0.51100000000E-03 0.  1.
         12    1    4    4    0    0 -0.34920242309E+01  0.97417593864E+01 -0.63957160205E+01  0.12165578185E+02  0.00000000000E+00 0. -1.
</event>
<event>
 8    1  0.1265908E-006  0.9118800E+02  0.7816164E-02  0.1184000E+00
        -11   -1    0    0    0    0  0.00000000000E+00  0.00000000000E+00  0.45593999997E+02  0.45594000000E+02  0.51100000000E-03 0.  1.
         11   -1    0    0    0    0 -0.00000000000E+00 -0.00000000000E+00 -0.45593999997E+02  0.45594000000E+02  0.51100000000E-03 0. -1.
         23    2    1    2    0    0  0.00000000000E+00  0.00000000000E+00  0.00000000000E+00  0.91188000000E+02  0.91188000000E+02 0.  0.
    9900012    2    3    3    0    0 -0.26470734242E+02  0.25277555497E+02  0.40155408579E+01  0.54367093552E+02  0.40000021371E+02 0.  0.
         12    1    3    3    0    0  0.26470734242E+02 -0.25277555497E+02 -0.40155408579E+01  0.36820906448E+02  0.00000000000E+00 0. -1.
         11    1    4    4    0    0 -0.14443927860E+02 -0.48016813165E+01  0.11347243534E+02  0.18985339912E+02  0.51100000000E-03 0. -1.
        -11    1    4    4    0    0 -0.73251686481E+01  0.24984543138E+02 -0.10991670794E+01  0.26059425551E+02  0.51100000000E-03 0.  1.
        -12    1    4    4    0    0 -0.47016377346E+01  0.50946936759E+01 -0.62325355966E+01  0.93223280892E+01  0.00000000000E+00 0.  1.
</event>
<event>
 8    1  0.1265908E-006  0.9118800E+02  0.7816164E-02  0.1184000E+00
        -11   -1    0    0    0    0  0.00000000000E+00  0.00000000000E+00  0.45593999997E+02  0.45594000000E+02  0.51100000000E-03 0.  1.
         11   -1    0    0    0    0 -0.00000000000E+00 -0.00000000000E+00 -0.45593999997E+02  0.45594000000E+02  0.51100000000E-03 0. -1.
         23    2    1    2    0    0  0.00000000000E+00 -0.71054273576E-14  0.00000000000E+00  0.91188000000E+02  0.91188000000E+02 0.  0.
    9900012    2    3    3    0    0 -0.10821133956E+02  0.34130152812E+02  0.85915821337E+01  0.54367088080E+02  0.40000008895E+02 0.  0.
         12    1    3    3    0    0  0.10821133956E+02 -0.34130152812E+02 -0.85915821337E+01  0.36820911920E+02  0.00000000000E+00 0. -1.
         11    1    4    4    0    0 -0.12366491303E+02 -0.15095803314E+01  0.46886977240E+01  0.13311379588E+02  0.51100000000E-03 0. -1.
        -11    1    4    4    0    0  0.38563089399E+00  0.27343255929E+02  0.11576309060E+02  0.29695341178E+02  0.51100000000E-03 0.  1.
         12    1    4    4    0    0  0.11597264532E+01  0.82964772152E+01 -0.76734246505E+01  0.11360367313E+02  0.00000000000E+00 0. -1.
</event>
<event>
 8    1  0.1265908E-006  0.9118800E+02  0.7816164E-02  0.1184000E+00
        -11   -1    0    0    0    0  0.00000000000E+00  0.00000000000E+00  0.45593999997E+02  0.45594000000E+02  0.51100000000E-03 0. -1.
         11   -1    0    0    0    0 -0.00000000000E+00 -0.00000000000E+00 -0.45593999997E+02  0.45594000000E+02  0.51100000000E-03 0.  1.
         23    2    1    2    0    0  0.88817841970E-15  0.00000000000E+00 -0.71054273576E-14  0.91188000000E+02  0.91188000000E+02 0.  0.
    9900012    2    3    3    0    0  0.62666435233E+01  0.87497249033E+01  0.35212944449E+02  0.54367082525E+02  0.39999996233E+02 0.  0.
        -12    1    3    3    0    0 -0.62666435233E+01 -0.87497249033E+01 -0.35212944449E+02  0.36820917475E+02  0.00000000000E+00 0.  1.
         11    1    4    4    0    0 -0.57292143881E+01  0.41229634277E+01  0.25008127782E+02  0.25985172317E+02  0.51100000000E-03 0. -1.
        -11    1    4    4    0    0  0.17028367499E+02  0.81278130181E+01  0.11526134089E+02  0.22110595004E+02  0.51100000000E-03 0.  1.
        -12    1    4    4    0    0 -0.50325095881E+01 -0.35010515425E+01 -0.13213174216E+01  0.62713152038E+01  0.00000000000E+00 0.  1.
</event>
<event>
 8    1  0.1265908E-006  0.9118800E+02  0.7816164E-02  0.1184000E+00
        -11   -1    0    0    0    0  0.00000000000E+00  0.00000000000E+00  0.45593999997E+02  0.45594000000E+02  0.51100000000E-03 0.  1.
         11   -1    0    0    0    0 -0.00000000000E+00 -0.00000000000E+00 -0.45593999997E+02  0.45594000000E+02  0.51100000000E-03 0. -1.
         23    2    1    2    0    0  0.00000000000E+00  0.17763568394E-14  0.00000000000E+00  0.91188000000E+02  0.91188000000E+02 0.  0.
    9900012    2    3    3    0    0  0.11860933396E+02  0.76304296746E+01 -0.34012855523E+02  0.54367088293E+02  0.40000009383E+02 0.  0.
        -12    1    3    3    0    0 -0.11860933396E+02 -0.76304296746E+01  0.34012855523E+02  0.36820911707E+02  0.00000000000E+00 0.  1.
         11    1    4    4    0    0  0.34992744163E+00  0.56919990444E+01 -0.20149769712E+02  0.20941215868E+02  0.51100000000E-03 0. -1.
        -11    1    4    4    0    0 -0.42865016991E+01  0.11211653623E+02 -0.42107879549E+01  0.12720299102E+02  0.51100000000E-03 0.  1.
        -12    1    4    4    0    0  0.15797507654E+02 -0.92732229928E+01 -0.96522978566E+01  0.20705573323E+02  0.00000000000E+00 0.  1.
</event>
<event>
 8    1  0.1265908E-006  0.9118800E+02  0.7816164E-02  0.1184000E+00
        -11   -1    0    0    0    0  0.00000000000E+00  0.00000000000E+00  0.45593999997E+02  0.45594000000E+02  0.51100000000E-03 0. -1.
         11   -1    0    0    0    0 -0.00000000000E+00 -0.00000000000E+00 -0.45593999997E+02  0.45594000000E+02  0.51100000000E-03 0.  1.
         23    2    1    2    0    0  0.00000000000E+00  0.00000000000E+00  0.00000000000E+00  0.91188000000E+02  0.91188000000E+02 0.  0.
    9900012    2    3    3    0    0  0.20177743392E+02  0.28757302418E+02  0.11029781281E+02  0.54367084125E+02  0.39999999880E+02 0.  0.
        -12    1    3    3    0    0 -0.20177743392E+02 -0.28757302418E+02 -0.11029781281E+02  0.36820915875E+02  0.00000000000E+00 0.  1.
         11    1    4    4    0    0 -0.16034118060E+01 -0.13184122652E+01  0.28466419418E+01  0.35231393567E+01  0.51100000000E-03 0. -1.
        -11    1    4    4    0    0 -0.53018213741E+01 -0.18454349731E+01 -0.43986468730E+01  0.71318324922E+01  0.51100000000E-03 0.  1.
         12    1    4    4    0    0  0.27082976572E+02  0.31921149656E+02  0.12581786212E+02  0.43712112276E+02  0.00000000000E+00 0. -1.
</event>
<event>
 8    1  0.1265908E-006  0.9118800E+02  0.7816164E-02  0.1184000E+00
        -11   -1    0    0    0    0  0.00000000000E+00  0.00000000000E+00  0.45593999997E+02  0.45594000000E+02  0.51100000000E-03 0. -1.
         11   -1    0    0    0    0 -0.00000000000E+00 -0.00000000000E+00 -0.45593999997E+02  0.45594000000E+02  0.51100000000E-03 0.  1.
         23    2    1    2    0    0  0.88817841970E-15  0.00000000000E+00 -0.71054273576E-14  0.91188000000E+02  0.91188000000E+02 0.  0.
    9900012    2    3    3    0    0 -0.53699050982E+01  0.21564345630E+02  0.29358513683E+02  0.54367092774E+02  0.40000019597E+02 0.  0.
        -12    1    3    3    0    0  0.53699050982E+01 -0.21564345630E+02 -0.29358513683E+02  0.36820907226E+02  0.00000000000E+00 0.  1.
         11    1    4    4    0    0  0.19951628890E+01 -0.28428916888E+01  0.21717085337E+01  0.40962209809E+01  0.51100000000E-03 0. -1.
        -11    1    4    4    0    0 -0.79034064503E+01  0.57789590850E+00 -0.56232066128E+01  0.97169053753E+01  0.51100000000E-03 0.  1.
         12    1    4    4    0    0  0.53833846315E+00  0.23829341411E+02  0.32810011763E+02  0.40553966418E+02  0.00000000000E+00 0. -1.
</event>
<event>
 8    1  0.1265908E-006  0.9118800E+02  0.7816164E-02  0.1184000E+00
        -11   -1    0    0    0    0  0.00000000000E+00  0.00000000000E+00  0.45593999997E+02  0.45594000000E+02  0.51100000000E-03 0. -1.
         11   -1    0    0    0    0 -0.00000000000E+00 -0.00000000000E+00 -0.45593999997E+02  0.45594000000E+02  0.51100000000E-03 0.  1.
         23    2    1    2    0    0  0.17763568394E-14  0.35527136788E-14  0.71054273576E-14  0.91188000000E+02  0.91188000000E+02 0.  0.
    9900012    2    3    3    0    0  0.97011688482E+01  0.22124354857E+02  0.27788127136E+02  0.54367085229E+02  0.40000002397E+02 0.  0.
        -12    1    3    3    0    0 -0.97011688482E+01 -0.22124354857E+02 -0.27788127136E+02  0.36820914771E+02  0.00000000000E+00 0.  1.
         11    1    4    4    0    0  0.13016705067E+02  0.31168350535E+01  0.77694069209E+01  0.15476206115E+02  0.51100000000E-03 0. -1.
        -11    1    4    4    0    0 -0.13872199244E+01 -0.30182638058E+01 -0.46815796072E+01  0.57403382652E+01  0.51100000000E-03 0.  1.
         12    1    4    4    0    0 -0.19283162940E+01  0.22025783609E+02  0.24700299822E+02  0.33150540849E+02  0.00000000000E+00 0. -1.
</event>
<event>
 8    1  0.1265908E-006  0.9118800E+02  0.7816164E-02  0.1184000E+00
        -11   -1    0    0    0    0  0.00000000000E+00  0.00000000000E+00  0.45593999997E+02  0.45594000000E+02  0.51100000000E-03 0. -1.
         11   -1    0    0    0    0 -0.00000000000E+00 -0.00000000000E+00 -0.45593999997E+02  0.45594000000E+02  0.51100000000E-03 0.  1.
         23    2    1    2    0    0 -0.35527136788E-14  0.17763568394E-14  0.35527136788E-14  0.91188000000E+02  0.91188000000E+02 0.  0.
    9900012    2    3    3    0    0  0.29769784164E+02 -0.10448055827E+02 -0.18983621194E+02  0.54367084838E+02  0.40000001505E+02 0.  0.
         12    1    3    3    0    0 -0.29769784164E+02  0.10448055827E+02  0.18983621194E+02  0.36820915162E+02  0.00000000000E+00 0. -1.
         11    1    4    4    0    0  0.17632671635E+02 -0.15322705246E+02  0.62030165792E+01  0.24169688041E+02  0.51100000000E-03 0. -1.
        -11    1    4    4    0    0 -0.12262868024E+01  0.21687403643E+01 -0.16232049734E+01  0.29735515359E+01  0.51100000000E-03 0.  1.
        -12    1    4    4    0    0  0.13363399332E+02  0.27059090545E+01 -0.23563432800E+02  0.27223845261E+02  0.00000000000E+00 0.  1.
</event>
<event>
 8    1  0.1265908E-006  0.9118800E+02  0.7816164E-02  0.1184000E+00
        -11   -1    0    0    0    0  0.00000000000E+00  0.00000000000E+00  0.45593999997E+02  0.45594000000E+02  0.51100000000E-03 0.  1.
         11   -1    0    0    0    0 -0.00000000000E+00 -0.00000000000E+00 -0.45593999997E+02  0.45594000000E+02  0.51100000000E-03 0. -1.
         23    2    1    2    0    0  0.00000000000E+00 -0.88817841970E-15  0.00000000000E+00  0.91188000000E+02  0.91188000000E+02 0.  0.
    9900012    2    3    3    0    0  0.32582744603E+02  0.63857681713E+01 -0.15917468323E+02  0.54367094541E+02  0.40000023626E+02 0.  0.
         12    1    3    3    0    0 -0.32582744603E+02 -0.63857681713E+01  0.15917468323E+02  0.36820905459E+02  0.00000000000E+00 0. -1.
         11    1    4    4    0    0  0.23375573798E+02  0.37950947895E+01 -0.31923639849E+01  0.23895844470E+02  0.51100000000E-03 0.  1.
        -11    1    4    4    0    0 -0.35186106467E+01 -0.10753770797E+01  0.62970112721E+01  0.72931068803E+01  0.51100000000E-03 0. -1.
         12    1    4    4    0    0  0.12725781451E+02  0.36660504614E+01 -0.19022115610E+02  0.23178143191E+02  0.00000000000E+00 0. -1.
</event>
<event>
 8    1  0.1265908E-006  0.9118800E+02  0.7816164E-02  0.1184000E+00
        -11   -1    0    0    0    0  0.00000000000E+00  0.00000000000E+00  0.45593999997E+02  0.45594000000E+02  0.51100000000E-03 0.  1.
         11   -1    0    0    0    0 -0.00000000000E+00 -0.00000000000E+00 -0.45593999997E+02  0.45594000000E+02  0.51100000000E-03 0. -1.
         23    2    1    2    0    0  0.00000000000E+00  0.00000000000E+00 -0.35527136788E-14  0.91188000000E+02  0.91188000000E+02 0.  0.
    9900012    2    3    3    0    0 -0.26490789299E+02  0.14073055908E+02 -0.21353383362E+02  0.54367084731E+02  0.40000001261E+02 0.  0.
         12    1    3    3    0    0  0.26490789299E+02 -0.14073055908E+02  0.21353383362E+02  0.36820915269E+02  0.00000000000E+00 0. -1.
         11    1    4    4    0    0 -0.26167482723E+01  0.10830448147E+02 -0.12383093208E+02  0.16657940336E+02  0.51100000000E-03 0. -1.
        -11    1    4    4    0    0  0.42125843484E+01  0.43226487862E+01 -0.74118463872E+01  0.95585891506E+01  0.51100000000E-03 0.  1.
        -12    1    4    4    0    0 -0.28086625375E+02 -0.10800410244E+01 -0.15584437661E+01  0.28150555244E+02  0.00000000000E+00 0.  1.
</event>
<event>
 8    1  0.1265908E-006  0.9118800E+02  0.7816164E-02  0.1184000E+00
        -11   -1    0    0    0    0  0.00000000000E+00  0.00000000000E+00  0.45593999997E+02  0.45594000000E+02  0.51100000000E-03 0. -1.
         11   -1    0    0    0    0 -0.00000000000E+00 -0.00000000000E+00 -0.45593999997E+02  0.45594000000E+02  0.51100000000E-03 0.  1.
         23    2    1    2    0    0  0.00000000000E+00  0.17763568394E-14  0.00000000000E+00  0.91188000000E+02  0.91188000000E+02 0.  0.
    9900012    2    3    3    0    0 -0.28545962525E+02 -0.11404514113E+02  0.20269267455E+02  0.54367107536E+02  0.40000053251E+02 0.  0.
        -12    1    3    3    0    0  0.28545962525E+02  0.11404514113E+02 -0.20269267455E+02  0.36820892464E+02  0.00000000000E+00 0.  1.
         11    1    4    4    0    0  0.15376415233E+01  0.64335399059E+01  0.86526585883E+01  0.10891431406E+02  0.51100000000E-03 0. -1.
        -11    1    4    4    0    0 -0.17825974159E+02  0.26201149547E+01  0.42101819736E+01  0.18502864362E+02  0.51100000000E-03 0.  1.
        -12    1    4    4    0    0 -0.12257629890E+02 -0.20458168974E+02  0.74064268928E+01  0.24972811768E+02  0.00000000000E+00 0.  1.
</event>
<event>
 8    1  0.1265908E-006  0.9118800E+02  0.7816164E-02  0.1184000E+00
        -11   -1    0    0    0    0  0.00000000000E+00  0.00000000000E+00  0.45593999997E+02  0.45594000000E+02  0.51100000000E-03 0. -1.
         11   -1    0    0    0    0 -0.00000000000E+00 -0.00000000000E+00 -0.45593999997E+02  0.45594000000E+02  0.51100000000E-03 0.  1.
         23    2    1    2    0    0  0.00000000000E+00 -0.17763568394E-14  0.00000000000E+00  0.91188000000E+02  0.91188000000E+02 0.  0.
    9900012    2    3    3    0    0 -0.23971802417E+02 -0.15857047509E+02  0.23014929956E+02  0.54367078397E+02  0.39999986822E+02 0.  0.
        -12    1    3    3    0    0  0.23971802417E+02  0.15857047509E+02 -0.23014929956E+02  0.36820921603E+02  0.00000000000E+00 0.  1.
         11    1    4    4    0    0 -0.10027656212E+02 -0.66159966842E+01 -0.11687870255E+01  0.12070267794E+02  0.51100000000E-03 0. -1.
        -11    1    4    4    0    0 -0.36758923974E+01  0.66408199989E+01  0.21983610070E+02  0.23257080366E+02  0.51100000000E-03 0.  1.
        -12    1    4    4    0    0 -0.10268253807E+02 -0.15881870823E+02  0.22001069112E+01  0.19039730238E+02  0.00000000000E+00 0.  1.
</event>
<event>
 8    1  0.1265908E-006  0.9118800E+02  0.7816164E-02  0.1184000E+00
        -11   -1    0    0    0    0  0.00000000000E+00  0.00000000000E+00  0.45593999997E+02  0.45594000000E+02  0.51100000000E-03 0.  1.
         11   -1    0    0    0    0 -0.00000000000E+00 -0.00000000000E+00 -0.45593999997E+02  0.45594000000E+02  0.51100000000E-03 0. -1.
         23    2    1    2    0    0  0.00000000000E+00 -0.17763568394E-14  0.00000000000E+00  0.91188000000E+02  0.91188000000E+02 0.  0.
    9900012    2    3    3    0    0  0.32239212240E+02 -0.60735858400E+01 -0.16719100844E+02  0.54367033366E+02  0.39999884165E+02 0.  0.
        -12    1    3    3    0    0 -0.32239212240E+02  0.60735858400E+01  0.16719100844E+02  0.36820966634E+02  0.00000000000E+00 0.  1.
         11    1    4    4    0    0 -0.78069073513E+01 -0.24155223563E+00 -0.96653381351E+00  0.78702184053E+01  0.51100000000E-03 0.  1.
        -11    1    4    4    0    0  0.14407436202E+02 -0.58516345217E+01 -0.13788283392E+02  0.20782988323E+02  0.51100000000E-03 0. -1.
         12    1    4    4    0    0  0.25638683389E+02  0.19600917306E-01 -0.19642836387E+01  0.25713826637E+02  0.00000000000E+00 0. -1.
</event>
<event>
 8    1  0.1265908E-006  0.9118800E+02  0.7816164E-02  0.1184000E+00
        -11   -1    0    0    0    0  0.00000000000E+00  0.00000000000E+00  0.45593999997E+02  0.45594000000E+02  0.51100000000E-03 0. -1.
         11   -1    0    0    0    0 -0.00000000000E+00 -0.00000000000E+00 -0.45593999997E+02  0.45594000000E+02  0.51100000000E-03 0.  1.
         23    2    1    2    0    0  0.00000000000E+00  0.00000000000E+00  0.00000000000E+00  0.91188000000E+02  0.91188000000E+02 0.  0.
    9900012    2    3    3    0    0 -0.31281872600E+02 -0.17909190779E+02 -0.75156804601E+01  0.54367080396E+02  0.39999991379E+02 0.  0.
        -12    1    3    3    0    0  0.31281872600E+02  0.17909190779E+02  0.75156804601E+01  0.36820919604E+02  0.00000000000E+00 0.  1.
         11    1    4    4    0    0  0.41613270882E+01 -0.83314453774E+01 -0.99085525482E+00  0.93654375023E+01  0.51100000000E-03 0. -1.
        -11    1    4    4    0    0 -0.38284195996E+02 -0.79730400129E+01 -0.98666037829E+01  0.40331115786E+02  0.51100000000E-03 0.  1.
        -12    1    4    4    0    0  0.28409963077E+01 -0.16047053885E+01  0.33417785776E+01  0.46705271080E+01  0.00000000000E+00 0.  1.
</event>
<event>
 8    1  0.1265908E-006  0.9118800E+02  0.7816164E-02  0.1184000E+00
        -11   -1    0    0    0    0  0.00000000000E+00  0.00000000000E+00  0.45593999997E+02  0.45594000000E+02  0.51100000000E-03 0. -1.
         11   -1    0    0    0    0 -0.00000000000E+00 -0.00000000000E+00 -0.45593999997E+02  0.45594000000E+02  0.51100000000E-03 0.  1.
         23    2    1    2    0    0  0.00000000000E+00  0.00000000000E+00  0.17763568394E-14  0.91188000000E+02  0.91188000000E+02 0.  0.
    9900012    2    3    3    0    0  0.33013229725E+02  0.10314071825E+02 -0.12630417260E+02  0.54367070426E+02  0.39999968651E+02 0.  0.
        -12    1    3    3    0    0 -0.33013229725E+02 -0.10314071825E+02  0.12630417260E+02  0.36820929574E+02  0.00000000000E+00 0.  1.
         11    1    4    4    0    0  0.14537905064E+02  0.18219490475E+01 -0.36088031857E+01  0.15089520956E+02  0.51100000000E-03 0. -1.
        -11    1    4    4    0    0  0.17471521214E+02  0.19989138909E+02 -0.47406472279E+01  0.26968378970E+02  0.51100000000E-03 0.  1.
         12    1    4    4    0    0  0.10038034470E+01 -0.11497016131E+02 -0.42809668462E+01  0.12309170501E+02  0.00000000000E+00 0. -1.
</event>
<event>
 8    1  0.1265908E-006  0.9118800E+02  0.7816164E-02  0.1184000E+00
        -11   -1    0    0    0    0  0.00000000000E+00  0.00000000000E+00  0.45593999997E+02  0.45594000000E+02  0.51100000000E-03 0. -1.
         11   -1    0    0    0    0 -0.00000000000E+00 -0.00000000000E+00 -0.45593999997E+02  0.45594000000E+02  0.51100000000E-03 0.  1.
         23    2    1    2    0    0  0.88817841970E-15  0.00000000000E+00  0.00000000000E+00  0.91188000000E+02  0.91188000000E+02 0.  0.
    9900012    2    3    3    0    0  0.71791970789E+01  0.73371830145E+01  0.35361070581E+02  0.54367076086E+02  0.39999981553E+02 0.  0.
        -12    1    3    3    0    0 -0.71791970789E+01 -0.73371830145E+01 -0.35361070581E+02  0.36820923914E+02  0.00000000000E+00 0.  1.
         11    1    4    4    0    0  0.52341491823E+01  0.58351769200E+01 -0.23915006103E+01  0.81954184018E+01  0.51100000000E-03 0. -1.
        -11    1    4    4    0    0 -0.11714066533E+01 -0.11794968337E+02  0.11174504907E+02  0.16289967213E+02  0.51100000000E-03 0.  1.
         12    1    4    4    0    0  0.31164545499E+01  0.13296974432E+02  0.26578066284E+02  0.29881690471E+02  0.00000000000E+00 0. -1.
</event>
<event>
 8    1  0.1265908E-006  0.9118800E+02  0.7816164E-02  0.1184000E+00
        -11   -1    0    0    0    0  0.00000000000E+00  0.00000000000E+00  0.45593999997E+02  0.45594000000E+02  0.51100000000E-03 0.  1.
         11   -1    0    0    0    0 -0.00000000000E+00 -0.00000000000E+00 -0.45593999997E+02  0.45594000000E+02  0.51100000000E-03 0. -1.
         23    2    1    2    0    0  0.00000000000E+00  0.00000000000E+00  0.00000000000E+00  0.91188000000E+02  0.91188000000E+02 0.  0.
    9900012    2    3    3    0    0 -0.33596188211E+02  0.12079198641E+02 -0.90092576946E+01  0.54367114265E+02  0.40000068590E+02 0.  0.
        -12    1    3    3    0    0  0.33596188211E+02 -0.12079198641E+02  0.90092576946E+01  0.36820885735E+02  0.00000000000E+00 0.  1.
         11    1    4    4    0    0  0.20120401162E+01  0.53472101298E+00 -0.14254589601E+02  0.14405816775E+02  0.51100000000E-03 0. -1.
        -11    1    4    4    0    0 -0.43537739776E+01  0.65831271125E+01  0.55552072081E-01  0.78927813046E+01  0.51100000000E-03 0.  1.
        -12    1    4    4    0    0 -0.31254454349E+02  0.49613505153E+01  0.51897798344E+01  0.32068516186E+02  0.00000000000E+00 0.  1.
</event>
<event>
 8    1  0.1265908E-006  0.9118800E+02  0.7816164E-02  0.1184000E+00
        -11   -1    0    0    0    0  0.00000000000E+00  0.00000000000E+00  0.45593999997E+02  0.45594000000E+02  0.51100000000E-03 0. -1.
         11   -1    0    0    0    0 -0.00000000000E+00 -0.00000000000E+00 -0.45593999997E+02  0.45594000000E+02  0.51100000000E-03 0.  1.
         23    2    1    2    0    0  0.00000000000E+00  0.17763568394E-14 -0.35527136788E-14  0.91188000000E+02  0.91188000000E+02 0.  0.
    9900012    2    3    3    0    0  0.20164034734E+02 -0.12190587958E+02  0.28294559819E+02  0.54367070533E+02  0.39999968893E+02 0.  0.
        -12    1    3    3    0    0 -0.20164034734E+02  0.12190587958E+02 -0.28294559819E+02  0.36820929467E+02  0.00000000000E+00 0.  1.
         11    1    4    4    0    0 -0.34228447379E+01  0.31091429208E+01  0.63625119501E+01  0.78653794809E+01  0.51100000000E-03 0. -1.
        -11    1    4    4    0    0  0.12897391769E+02 -0.21087323169E+02  0.23667955966E+02  0.34222654087E+02  0.51100000000E-03 0.  1.
        -12    1    4    4    0    0  0.10689487703E+02  0.57875922898E+01 -0.17359080975E+01  0.12279036965E+02  0.00000000000E+00 0.  1.
</event>
<event>
 8    1  0.1265908E-006  0.9118800E+02  0.7816164E-02  0.1184000E+00
        -11   -1    0    0    0    0  0.00000000000E+00  0.00000000000E+00  0.45593999997E+02  0.45594000000E+02  0.51100000000E-03 0.  1.
         11   -1    0    0    0    0 -0.00000000000E+00 -0.00000000000E+00 -0.45593999997E+02  0.45594000000E+02  0.51100000000E-03 0. -1.
         23    2    1    2    0    0 -0.88817841970E-15  0.17763568394E-14  0.00000000000E+00  0.91188000000E+02  0.91188000000E+02 0.  0.
    9900012    2    3    3    0    0 -0.76212191132E+01 -0.36057319309E+01 -0.35842692312E+02  0.54367042983E+02  0.39999906087E+02 0.  0.
        -12    1    3    3    0    0  0.76212191132E+01  0.36057319309E+01  0.35842692312E+02  0.36820957017E+02  0.00000000000E+00 0.  1.
         11    1    4    4    0    0 -0.10032493625E+01 -0.18533556958E-01 -0.11682123897E+02  0.11725138454E+02  0.51100000000E-03 0. -1.
        -11    1    4    4    0    0 -0.93680360668E+01 -0.13938401496E+02 -0.26785257966E+02  0.31614698806E+02  0.51100000000E-03 0.  1.
        -12    1    4    4    0    0  0.27500663160E+01  0.10351203122E+02  0.26246895511E+01  0.11027205723E+02  0.00000000000E+00 0.  1.
</event>
<event>
 8    1  0.1265908E-006  0.9118800E+02  0.7816164E-02  0.1184000E+00
        -11   -1    0    0    0    0  0.00000000000E+00  0.00000000000E+00  0.45593999997E+02  0.45594000000E+02  0.51100000000E-03 0. -1.
         11   -1    0    0    0    0 -0.00000000000E+00 -0.00000000000E+00 -0.45593999997E+02  0.45594000000E+02  0.51100000000E-03 0.  1.
         23    2    1    2    0    0  0.00000000000E+00  0.88817841970E-15  0.00000000000E+00  0.91188000000E+02  0.91188000000E+02 0.  0.
    9900012    2    3    3    0    0 -0.45306816260E+01  0.41063383188E+01 -0.36309650484E+02  0.54367084631E+02  0.40000001032E+02 0.  0.
         12    1    3    3    0    0  0.45306816260E+01 -0.41063383188E+01  0.36309650484E+02  0.36820915369E+02  0.00000000000E+00 0. -1.
         11    1    4    4    0    0  0.75302038557E+01 -0.80772006330E+01 -0.84023008213E+01  0.13876015261E+02  0.51100000000E-03 0. -1.
        -11    1    4    4    0    0  0.21624577739E+01 -0.37781203321E+01 -0.14769364573E+02  0.15397550033E+02  0.51100000000E-03 0.  1.
        -12    1    4    4    0    0 -0.14223343256E+02  0.15961659284E+02 -0.13137985089E+02  0.25093519336E+02  0.00000000000E+00 0.  1.
</event>
<event>
 8    1  0.1265908E-006  0.9118800E+02  0.7816164E-02  0.1184000E+00
        -11   -1    0    0    0    0  0.00000000000E+00  0.00000000000E+00  0.45593999997E+02  0.45594000000E+02  0.51100000000E-03 0.  1.
         11   -1    0    0    0    0 -0.00000000000E+00 -0.00000000000E+00 -0.45593999997E+02  0.45594000000E+02  0.51100000000E-03 0. -1.
         23    2    1    2    0    0  0.00000000000E+00  0.00000000000E+00 -0.35527136788E-14  0.91188000000E+02  0.91188000000E+02 0.  0.
    9900012    2    3    3    0    0  0.18219122524E+02  0.18200190960E+02 -0.26317225395E+02  0.54367085712E+02  0.40000003497E+02 0.  0.
        -12    1    3    3    0    0 -0.18219122524E+02 -0.18200190960E+02  0.26317225395E+02  0.36820914288E+02  0.00000000000E+00 0.  1.
         11    1    4    4    0    0 -0.76815062294E+01  0.12768611575E+02 -0.97104277308E+01  0.17785819815E+02  0.51100000000E-03 0. -1.
        -11    1    4    4    0    0  0.28665375342E+02  0.43745531145E+01 -0.16971926464E+02  0.33598909903E+02  0.51100000000E-03 0.  1.
         12    1    4    4    0    0 -0.27647465890E+01  0.10570262696E+01  0.36512879937E+00  0.29823559942E+01  0.00000000000E+00 0. -1.
</event>
<event>
 8    1  0.1265908E-006  0.9118800E+02  0.7816164E-02  0.1184000E+00
        -11   -1    0    0    0    0  0.00000000000E+00  0.00000000000E+00  0.45593999997E+02  0.45594000000E+02  0.51100000000E-03 0. -1.
         11   -1    0    0    0    0 -0.00000000000E+00 -0.00000000000E+00 -0.45593999997E+02  0.45594000000E+02  0.51100000000E-03 0.  1.
         23    2    1    2    0    0  0.00000000000E+00  0.00000000000E+00 -0.17763568394E-14  0.91188000000E+02  0.91188000000E+02 0.  0.
    9900012    2    3    3    0    0 -0.18581466300E+02  0.28425730884E+02 -0.14229761587E+02  0.54367093154E+02  0.40000020464E+02 0.  0.
         12    1    3    3    0    0  0.18581466300E+02 -0.28425730884E+02  0.14229761587E+02  0.36820906846E+02  0.00000000000E+00 0. -1.
         11    1    4    4    0    0 -0.16629127845E+01 -0.13623441551E+01 -0.14797234388E+02  0.14952571897E+02  0.51100000000E-03 0. -1.
        -11    1    4    4    0    0 -0.96651911268E+01  0.24018134113E+01 -0.39731545374E+01  0.10722433699E+02  0.51100000000E-03 0.  1.
        -12    1    4    4    0    0 -0.72533623886E+01  0.27386261627E+02  0.45406273384E+01  0.28692087559E+02  0.00000000000E+00 0.  1.
</event>
<event>
 8    1  0.1265908E-006  0.9118800E+02  0.7816164E-02  0.1184000E+00
        -11   -1    0    0    0    0  0.00000000000E+00  0.00000000000E+00  0.45593999997E+02  0.45594000000E+02  0.51100000000E-03 0. -1.
         11   -1    0    0    0    0 -0.00000000000E+00 -0.00000000000E+00 -0.45593999997E+02  0.45594000000E+02  0.51100000000E-03 0.  1.
         23    2    1    2    0    0  0.00000000000E+00  0.00000000000E+00  0.00000000000E+00  0.91188000000E+02  0.91188000000E+02 0.  0.
    9900012    2    3    3    0    0  0.15548940783E+01  0.11841882511E+02 -0.34830025374E+02  0.54367101796E+02  0.40000040165E+02 0.  0.
         12    1    3    3    0    0 -0.15548940783E+01 -0.11841882511E+02  0.34830025374E+02  0.36820898204E+02  0.00000000000E+00 0. -1.
         11    1    4    4    0    0  0.83441085382E+01 -0.28320178709E+01 -0.62646986568E+01  0.10811610520E+02  0.51100000000E-03 0. -1.
        -11    1    4    4    0    0  0.74152180548E+00  0.14933185925E+02 -0.10068786354E+01  0.14985449653E+02  0.51100000000E-03 0.  1.
        -12    1    4    4    0    0 -0.75307362654E+01 -0.25928554340E+00 -0.27558448081E+02  0.28570041623E+02  0.00000000000E+00 0.  1.
</event>
<event>
 8    1  0.1265908E-006  0.9118800E+02  0.7816164E-02  0.1184000E+00
        -11   -1    0    0    0    0  0.00000000000E+00  0.00000000000E+00  0.45593999997E+02  0.45594000000E+02  0.51100000000E-03 0.  1.
         11   -1    0    0    0    0 -0.00000000000E+00 -0.00000000000E+00 -0.45593999997E+02  0.45594000000E+02  0.51100000000E-03 0. -1.
         23    2    1    2    0    0  0.00000000000E+00  0.00000000000E+00  0.00000000000E+00  0.91188000000E+02  0.91188000000E+02 0.  0.
    9900012    2    3    3    0    0  0.88219880615E+01  0.35227589713E+02 -0.60802193686E+01  0.54367087220E+02  0.40000006936E+02 0.  0.
        -12    1    3    3    0    0 -0.88219880615E+01 -0.35227589713E+02  0.60802193686E+01  0.36820912780E+02  0.00000000000E+00 0.  1.
         11    1    4    4    0    0  0.37995082524E+01  0.11266248727E+02 -0.10134018803E+02  0.15622514544E+02  0.51100000000E-03 0. -1.
        -11    1    4    4    0    0  0.15787507287E+02  0.12238391711E+02  0.92344895096E+01  0.22006803829E+02  0.51100000000E-03 0.  1.
        -12    1    4    4    0    0 -0.10765027478E+02  0.11722949275E+02 -0.51806900755E+01  0.16737768846E+02  0.00000000000E+00 0.  1.
</event>
<event>
 8    1  0.1265908E-006  0.9118800E+02  0.7816164E-02  0.1184000E+00
        -11   -1    0    0    0    0  0.00000000000E+00  0.00000000000E+00  0.45593999997E+02  0.45594000000E+02  0.51100000000E-03 0.  1.
         11   -1    0    0    0    0 -0.00000000000E+00 -0.00000000000E+00 -0.45593999997E+02  0.45594000000E+02  0.51100000000E-03 0. -1.
         23    2    1    2    0    0  0.00000000000E+00  0.00000000000E+00  0.31086244690E-14  0.91188000000E+02  0.91188000000E+02 0.  0.
    9900012    2    3    3    0    0 -0.12761632705E+02 -0.34406183996E+02  0.30221012989E+01  0.54367111054E+02  0.40000061271E+02 0.  0.
        -12    1    3    3    0    0  0.12761632705E+02  0.34406183996E+02 -0.30221012989E+01  0.36820888946E+02  0.00000000000E+00 0.  1.
         11    1    4    4    0    0  0.98641601825E+01 -0.12684478148E+02 -0.82500298531E+01  0.18062686257E+02  0.51100000000E-03 0. -1.
        -11    1    4    4    0    0 -0.12990129363E+02 -0.80016121103E+01  0.12168007113E+02  0.19514857278E+02  0.51100000000E-03 0.  1.
        -12    1    4    4    0    0 -0.96356635245E+01 -0.13720093738E+02 -0.89587596063E+00  0.16789567519E+02  0.00000000000E+00 0.  1.
</event>
<event>
 8    1  0.1265908E-006  0.9118800E+02  0.7816164E-02  0.1184000E+00
        -11   -1    0    0    0    0  0.00000000000E+00  0.00000000000E+00  0.45593999997E+02  0.45594000000E+02  0.51100000000E-03 0.  1.
         11   -1    0    0    0    0 -0.00000000000E+00 -0.00000000000E+00 -0.45593999997E+02  0.45594000000E+02  0.51100000000E-03 0. -1.
         23    2    1    2    0    0  0.44408920985E-15  0.00000000000E+00  0.00000000000E+00  0.91188000000E+02  0.91188000000E+02 0.  0.
    9900012    2    3    3    0    0  0.64127432189E+00  0.10776944340E+02  0.35202626210E+02  0.54367100308E+02  0.40000036772E+02 0.  0.
        -12    1    3    3    0    0 -0.64127432189E+00 -0.10776944340E+02 -0.35202626210E+02  0.36820899692E+02  0.00000000000E+00 0.  1.
         11    1    4    4    0    0  0.31134246201E+01  0.19709931417E+02  0.33333690096E+02  0.38849835328E+02  0.51100000000E-03 0.  1.
        -11    1    4    4    0    0  0.26015063125E+01 -0.98762120149E+01  0.77847626178E+00  0.10242725439E+02  0.51100000000E-03 0. -1.
        -12    1    4    4    0    0 -0.50736566108E+01  0.94322493776E+00  0.10904598525E+01  0.52745395417E+01  0.00000000000E+00 0.  1.
</event>
<event>
 8    1  0.1265908E-006  0.9118800E+02  0.7816164E-02  0.1184000E+00
        -11   -1    0    0    0    0  0.00000000000E+00  0.00000000000E+00  0.45593999997E+02  0.45594000000E+02  0.51100000000E-03 0. -1.
         11   -1    0    0    0    0 -0.00000000000E+00 -0.00000000000E+00 -0.45593999997E+02  0.45594000000E+02  0.51100000000E-03 0.  1.
         23    2    1    2    0    0  0.00000000000E+00 -0.35527136788E-14  0.00000000000E+00  0.91188000000E+02  0.91188000000E+02 0.  0.
    9900012    2    3    3    0    0 -0.27637533146E+02 -0.19977268464E+02  0.13887252446E+02  0.54367078309E+02  0.39999986621E+02 0.  0.
        -12    1    3    3    0    0  0.27637533146E+02  0.19977268464E+02 -0.13887252446E+02  0.36820921691E+02  0.00000000000E+00 0.  1.
         11    1    4    4    0    0 -0.94933661501E+01 -0.19269891850E+02 -0.66717815995E+01  0.22493674727E+02  0.51100000000E-03 0. -1.
        -11    1    4    4    0    0  0.18876791433E+01  0.34096674503E+01  0.36072117833E+01  0.53104747227E+01  0.51100000000E-03 0.  1.
        -12    1    4    4    0    0 -0.20031846139E+02 -0.41170440647E+01  0.16951822262E+02  0.26562928859E+02  0.00000000000E+00 0.  1.
</event>
<event>
 8    1  0.1265908E-006  0.9118800E+02  0.7816164E-02  0.1184000E+00
        -11   -1    0    0    0    0  0.00000000000E+00  0.00000000000E+00  0.45593999997E+02  0.45594000000E+02  0.51100000000E-03 0. -1.
         11   -1    0    0    0    0 -0.00000000000E+00 -0.00000000000E+00 -0.45593999997E+02  0.45594000000E+02  0.51100000000E-03 0.  1.
         23    2    1    2    0    0  0.35527136788E-14  0.35527136788E-14  0.00000000000E+00  0.91188000000E+02  0.91188000000E+02 0.  0.
    9900012    2    3    3    0    0  0.29270461266E+02 -0.16990944649E+02  0.14502661053E+02  0.54367091803E+02  0.40000017384E+02 0.  0.
        -12    1    3    3    0    0 -0.29270461266E+02  0.16990944649E+02 -0.14502661053E+02  0.36820908197E+02  0.00000000000E+00 0.  1.
         11    1    4    4    0    0  0.12457308257E+02 -0.20079577228E+02  0.71572589944E+01  0.24690085201E+02  0.51100000000E-03 0. -1.
        -11    1    4    4    0    0  0.79296380215E+01 -0.67587710304E+01  0.11748316771E+02  0.15702964440E+02  0.51100000000E-03 0.  1.
        -12    1    4    4    0    0  0.88835149878E+01  0.98474036092E+01 -0.44029147128E+01  0.13974042162E+02  0.00000000000E+00 0.  1.
</event>
<event>
 8    1  0.1265908E-006  0.9118800E+02  0.7816164E-02  0.1184000E+00
        -11   -1    0    0    0    0  0.00000000000E+00  0.00000000000E+00  0.45593999997E+02  0.45594000000E+02  0.51100000000E-03 0. -1.
         11   -1    0    0    0    0 -0.00000000000E+00 -0.00000000000E+00 -0.45593999997E+02  0.45594000000E+02  0.51100000000E-03 0.  1.
         23    2    1    2    0    0 -0.35527136788E-14  0.00000000000E+00  0.00000000000E+00  0.91188000000E+02  0.91188000000E+02 0.  0.
    9900012    2    3    3    0    0  0.20914419356E+02 -0.22156278468E+02  0.20675252652E+02  0.54367086313E+02  0.40000004867E+02 0.  0.
        -12    1    3    3    0    0 -0.20914419356E+02  0.22156278468E+02 -0.20675252652E+02  0.36820913687E+02  0.00000000000E+00 0.  1.
         11    1    4    4    0    0  0.45460213692E+01 -0.62202899525E+01 -0.11569281105E+01  0.77908151240E+01  0.51100000000E-03 0. -1.
        -11    1    4    4    0    0 -0.67685653609E+01 -0.11289655306E+02 -0.16724112067E+01  0.13269014789E+02  0.51100000000E-03 0.  1.
        -12    1    4    4    0    0  0.23136963348E+02 -0.46463332094E+01  0.23504591969E+02  0.33307256400E+02  0.00000000000E+00 0.  1.
</event>
<event>
 8    1  0.1265908E-006  0.9118800E+02  0.7816164E-02  0.1184000E+00
        -11   -1    0    0    0    0  0.00000000000E+00  0.00000000000E+00  0.45593999997E+02  0.45594000000E+02  0.51100000000E-03 0. -1.
         11   -1    0    0    0    0 -0.00000000000E+00 -0.00000000000E+00 -0.45593999997E+02  0.45594000000E+02  0.51100000000E-03 0.  1.
         23    2    1    2    0    0  0.00000000000E+00 -0.35527136788E-14  0.17763568394E-14  0.91188000000E+02  0.91188000000E+02 0.  0.
    9900012    2    3    3    0    0 -0.28222291821E+02  0.22428217253E+02  0.75004773430E+01  0.54367084135E+02  0.39999999903E+02 0.  0.
        -12    1    3    3    0    0  0.28222291821E+02 -0.22428217253E+02 -0.75004773430E+01  0.36820915865E+02  0.00000000000E+00 0.  1.
         11    1    4    4    0    0 -0.37557793560E+00 -0.44826761692E+01  0.68837237416E+01  0.82232048032E+01  0.51100000000E-03 0. -1.
        -11    1    4    4    0    0 -0.19839684002E+02  0.20434173277E+02  0.11900221015E+02  0.30867195520E+02  0.51100000000E-03 0.  1.
        -12    1    4    4    0    0 -0.80070298834E+01  0.64767201452E+01 -0.11283467414E+02  0.15276683812E+02  0.00000000000E+00 0.  1.
</event>
<event>
 8    1  0.1265908E-006  0.9118800E+02  0.7816164E-02  0.1184000E+00
        -11   -1    0    0    0    0  0.00000000000E+00  0.00000000000E+00  0.45593999997E+02  0.45594000000E+02  0.51100000000E-03 0. -1.
         11   -1    0    0    0    0 -0.00000000000E+00 -0.00000000000E+00 -0.45593999997E+02  0.45594000000E+02  0.51100000000E-03 0.  1.
         23    2    1    2    0    0 -0.26645352591E-14 -0.17763568394E-14 -0.71054273576E-14  0.91188000000E+02  0.91188000000E+02 0.  0.
    9900012    2    3    3    0    0  0.65166541798E+01  0.10779266700E+02 -0.34599426410E+02  0.54367086375E+02  0.40000005009E+02 0.  0.
         12    1    3    3    0    0 -0.65166541798E+01 -0.10779266700E+02  0.34599426410E+02  0.36820913625E+02  0.00000000000E+00 0. -1.
         11    1    4    4    0    0 -0.64785342712E+01  0.16953944315E+01  0.33601801853E+01  0.74924348326E+01  0.51100000000E-03 0. -1.
        -11    1    4    4    0    0 -0.16238185168E+01  0.63699368632E+01 -0.52421930403E+00  0.65945195698E+01  0.51100000000E-03 0.  1.
        -12    1    4    4    0    0  0.14619006968E+02  0.27139354051E+01 -0.37435387291E+02  0.40280131973E+02  0.00000000000E+00 0.  1.
</event>
<event>
 8    1  0.1265908E-006  0.9118800E+02  0.7816164E-02  0.1184000E+00
        -11   -1    0    0    0    0  0.00000000000E+00  0.00000000000E+00  0.45593999997E+02  0.45594000000E+02  0.51100000000E-03 0. -1.
         11   -1    0    0    0    0 -0.00000000000E+00 -0.00000000000E+00 -0.45593999997E+02  0.45594000000E+02  0.51100000000E-03 0.  1.
         23    2    1    2    0    0 -0.17763568394E-14  0.17763568394E-14  0.00000000000E+00  0.91188000000E+02  0.91188000000E+02 0.  0.
    9900012    2    3    3    0    0  0.13773742792E+02 -0.48085092135E+01  0.33807433850E+02  0.54367077484E+02  0.39999984741E+02 0.  0.
        -12    1    3    3    0    0 -0.13773742792E+02  0.48085092135E+01 -0.33807433850E+02  0.36820922516E+02  0.00000000000E+00 0.  1.
         11    1    4    4    0    0  0.86113344280E+01 -0.15315652889E+02 -0.39294348177E+00  0.17574945487E+02  0.51100000000E-03 0.  1.
        -11    1    4    4    0    0  0.25060848435E+01  0.95993588019E+01  0.30930031904E+02  0.32482226286E+02  0.51100000000E-03 0. -1.
        -12    1    4    4    0    0  0.26563235201E+01  0.90778487334E+00  0.32703454286E+01  0.43099057115E+01  0.00000000000E+00 0.  1.
</event>
<event>
 8    1  0.1265908E-006  0.9118800E+02  0.7816164E-02  0.1184000E+00
        -11   -1    0    0    0    0  0.00000000000E+00  0.00000000000E+00  0.45593999997E+02  0.45594000000E+02  0.51100000000E-03 0.  1.
         11   -1    0    0    0    0 -0.00000000000E+00 -0.00000000000E+00 -0.45593999997E+02  0.45594000000E+02  0.51100000000E-03 0. -1.
         23    2    1    2    0    0  0.00000000000E+00  0.00000000000E+00 -0.17763568394E-14  0.91188000000E+02  0.91188000000E+02 0.  0.
    9900012    2    3    3    0    0 -0.28765060272E+02 -0.22577489027E+02  0.43135240350E+01  0.54367106572E+02  0.40000051053E+02 0.  0.
         12    1    3    3    0    0  0.28765060272E+02  0.22577489027E+02 -0.43135240350E+01  0.36820893428E+02  0.00000000000E+00 0. -1.
         11    1    4    4    0    0 -0.33839737197E+00 -0.12784396676E+02  0.75039124642E+01  0.14827812168E+02  0.51100000000E-03 0. -1.
        -11    1    4    4    0    0 -0.28911960221E+02 -0.39061641157E+01  0.48369332301E+01  0.29572884291E+02  0.51100000000E-03 0.  1.
         12    1    4    4    0    0  0.48529732111E+00 -0.58869282357E+01 -0.80273216594E+01  0.99664101142E+01  0.00000000000E+00 0. -1.
</event>
<event>
 8    1  0.1265908E-006  0.9118800E+02  0.7816164E-02  0.1184000E+00
        -11   -1    0    0    0    0  0.00000000000E+00  0.00000000000E+00  0.45593999997E+02  0.45594000000E+02  0.51100000000E-03 0. -1.
         11   -1    0    0    0    0 -0.00000000000E+00 -0.00000000000E+00 -0.45593999997E+02  0.45594000000E+02  0.51100000000E-03 0.  1.
         23    2    1    2    0    0  0.00000000000E+00  0.00000000000E+00  0.00000000000E+00  0.91188000000E+02  0.91188000000E+02 0.  0.
    9900012    2    3    3    0    0  0.63703000444E+01 -0.15489393181E+02  0.32791422866E+02  0.54367089673E+02  0.40000012526E+02 0.  0.
        -12    1    3    3    0    0 -0.63703000444E+01  0.15489393181E+02 -0.32791422866E+02  0.36820910327E+02  0.00000000000E+00 0.  1.
         11    1    4    4    0    0  0.35368797884E+01 -0.14716212064E+02  0.24395778744E+02  0.28709413734E+02  0.51100000000E-03 0. -1.
        -11    1    4    4    0    0 -0.51245233358E+00 -0.11087675379E+02  0.96937941344E+01  0.14736648115E+02  0.51100000000E-03 0.  1.
        -12    1    4    4    0    0  0.33458725895E+01  0.10314494262E+02 -0.12981500126E+01  0.10921027823E+02  0.00000000000E+00 0.  1.
</event>
<event>
 8    1  0.1265908E-006  0.9118800E+02  0.7816164E-02  0.1184000E+00
        -11   -1    0    0    0    0  0.00000000000E+00  0.00000000000E+00  0.45593999997E+02  0.45594000000E+02  0.51100000000E-03 0. -1.
         11   -1    0    0    0    0 -0.00000000000E+00 -0.00000000000E+00 -0.45593999997E+02  0.45594000000E+02  0.51100000000E-03 0.  1.
         23    2    1    2    0    0 -0.71054273576E-14 -0.88817841970E-15  0.00000000000E+00  0.91188000000E+02  0.91188000000E+02 0.  0.
    9900012    2    3    3    0    0  0.24888124854E+02 -0.49562741707E+01 -0.26679524621E+02  0.54367075970E+02  0.39999981288E+02 0.  0.
         12    1    3    3    0    0 -0.24888124854E+02  0.49562741707E+01  0.26679524621E+02  0.36820924030E+02  0.00000000000E+00 0. -1.
         11    1    4    4    0    0 -0.32244955567E+01 -0.97455728202E+01  0.13382488218E+01  0.10352027403E+02  0.51100000000E-03 0. -1.
        -11    1    4    4    0    0  0.62972799346E+01  0.22590674754E+01  0.18508543882E+01  0.69415259605E+01  0.51100000000E-03 0.  1.
        -12    1    4    4    0    0  0.21815340476E+02  0.25302311742E+01 -0.29868627831E+02  0.37073522606E+02  0.00000000000E+00 0.  1.
</event>
<event>
 8    1  0.1265908E-006  0.9118800E+02  0.7816164E-02  0.1184000E+00
        -11   -1    0    0    0    0  0.00000000000E+00  0.00000000000E+00  0.45593999997E+02  0.45594000000E+02  0.51100000000E-03 0.  1.
         11   -1    0    0    0    0 -0.00000000000E+00 -0.00000000000E+00 -0.45593999997E+02  0.45594000000E+02  0.51100000000E-03 0. -1.
         23    2    1    2    0    0  0.35527136788E-14  0.35527136788E-14 -0.35527136788E-14  0.91188000000E+02  0.91188000000E+02 0.  0.
    9900012    2    3    3    0    0  0.27428032111E+02 -0.16097640431E+02 -0.18556617134E+02  0.54367095443E+02  0.40000025682E+02 0.  0.
        -12    1    3    3    0    0 -0.27428032111E+02  0.16097640431E+02  0.18556617134E+02  0.36820904557E+02  0.00000000000E+00 0.  1.
         11    1    4    4    0    0  0.23177169454E+01  0.60527673465E+01  0.40882369122E+01  0.76629945648E+01  0.51100000000E-03 0. -1.
        -11    1    4    4    0    0 -0.25825958426E+01 -0.92477720077E+01 -0.19337469980E+01  0.97944099417E+01  0.51100000000E-03 0.  1.
         12    1    4    4    0    0  0.27692911008E+02 -0.12902635770E+02 -0.20711107048E+02  0.36909690937E+02  0.00000000000E+00 0. -1.
</event>
<event>
 8    1  0.1265908E-006  0.9118800E+02  0.7816164E-02  0.1184000E+00
        -11   -1    0    0    0    0  0.00000000000E+00  0.00000000000E+00  0.45593999997E+02  0.45594000000E+02  0.51100000000E-03 0. -1.
         11   -1    0    0    0    0 -0.00000000000E+00 -0.00000000000E+00 -0.45593999997E+02  0.45594000000E+02  0.51100000000E-03 0.  1.
         23    2    1    2    0    0  0.35527136788E-14  0.00000000000E+00  0.00000000000E+00  0.91188000000E+02  0.91188000000E+02 0.  0.
    9900012    2    3    3    0    0  0.23132648064E+02  0.13015896763E+02  0.25519397269E+02  0.54367182356E+02  0.40000223817E+02 0.  0.
        -12    1    3    3    0    0 -0.23132648064E+02 -0.13015896763E+02 -0.25519397269E+02  0.36820817644E+02  0.00000000000E+00 0.  1.
         11    1    4    4    0    0 -0.51689104644E+01  0.11751672007E+01  0.65989470075E+01  0.84643224896E+01  0.51100000000E-03 0. -1.
        -11    1    4    4    0    0 -0.32492820380E+01  0.82555411274E+01 -0.12968716117E+00  0.88729145206E+01  0.51100000000E-03 0.  1.
         12    1    4    4    0    0  0.31550840566E+02  0.35851884349E+01  0.19050137423E+02  0.37029945346E+02  0.00000000000E+00 0. -1.
</event>
<event>
 8    1  0.1265908E-006  0.9118800E+02  0.7816164E-02  0.1184000E+00
        -11   -1    0    0    0    0  0.00000000000E+00  0.00000000000E+00  0.45593999997E+02  0.45594000000E+02  0.51100000000E-03 0. -1.
         11   -1    0    0    0    0 -0.00000000000E+00 -0.00000000000E+00 -0.45593999997E+02  0.45594000000E+02  0.51100000000E-03 0.  1.
         23    2    1    2    0    0  0.00000000000E+00  0.00000000000E+00  0.00000000000E+00  0.91188000000E+02  0.91188000000E+02 0.  0.
    9900012    2    3    3    0    0  0.24421920210E+02 -0.10839122887E+02 -0.25335015793E+02  0.54367084789E+02  0.40000001394E+02 0.  0.
         12    1    3    3    0    0 -0.24421920210E+02  0.10839122887E+02  0.25335015793E+02  0.36820915211E+02  0.00000000000E+00 0. -1.
         11    1    4    4    0    0  0.21419003876E+02 -0.39222991268E+01 -0.12507810228E+01  0.21811066248E+02  0.51100000000E-03 0. -1.
        -11    1    4    4    0    0  0.88321784188E+01  0.30364545178E+01 -0.15802815367E+02  0.18356372339E+02  0.51100000000E-03 0.  1.
        -12    1    4    4    0    0 -0.58292620840E+01 -0.99532782784E+01 -0.82814194029E+01  0.14199646202E+02  0.00000000000E+00 0.  1.
</event>
<event>
 8    1  0.1265908E-006  0.9118800E+02  0.7816164E-02  0.1184000E+00
        -11   -1    0    0    0    0  0.00000000000E+00  0.00000000000E+00  0.45593999997E+02  0.45594000000E+02  0.51100000000E-03 0. -1.
         11   -1    0    0    0    0 -0.00000000000E+00 -0.00000000000E+00 -0.45593999997E+02  0.45594000000E+02  0.51100000000E-03 0.  1.
         23    2    1    2    0    0  0.00000000000E+00  0.00000000000E+00  0.00000000000E+00  0.91188000000E+02  0.91188000000E+02 0.  0.
    9900012    2    3    3    0    0 -0.17072605879E+02  0.68978312053E+01 -0.31885842079E+02  0.54367341778E+02  0.40000587247E+02 0.  0.
         12    1    3    3    0    0  0.17072605879E+02 -0.68978312053E+01  0.31885842079E+02  0.36820658222E+02  0.00000000000E+00 0. -1.
         11    1    4    4    0    0  0.52836561119E+01  0.13954999127E+02 -0.73282460664E+01  0.16624145489E+02  0.51100000000E-03 0. -1.
        -11    1    4    4    0    0 -0.65064234283E+01  0.26785295594E+01 -0.12712103432E+00  0.70373451277E+01  0.51100000000E-03 0.  1.
        -12    1    4    4    0    0 -0.15849838563E+02 -0.97356974814E+01 -0.24430474978E+02  0.30705851162E+02  0.00000000000E+00 0.  1.
</event>
<event>
 8    1  0.1265908E-006  0.9118800E+02  0.7816164E-02  0.1184000E+00
        -11   -1    0    0    0    0  0.00000000000E+00  0.00000000000E+00  0.45593999997E+02  0.45594000000E+02  0.51100000000E-03 0.  1.
         11   -1    0    0    0    0 -0.00000000000E+00 -0.00000000000E+00 -0.45593999997E+02  0.45594000000E+02  0.51100000000E-03 0. -1.
         23    2    1    2    0    0 -0.35527136788E-14 -0.35527136788E-14 -0.88817841970E-15  0.91188000000E+02  0.91188000000E+02 0.  0.
    9900012    2    3    3    0    0  0.30043936284E+02  0.19863160093E+02  0.76548383406E+01  0.54367084933E+02  0.40000001721E+02 0.  0.
         12    1    3    3    0    0 -0.30043936284E+02 -0.19863160093E+02 -0.76548383406E+01  0.36820915067E+02  0.00000000000E+00 0. -1.
         11    1    4    4    0    0  0.95144834929E+01  0.16510940902E+02 -0.22078440434E+01  0.19183616478E+02  0.51100000000E-03 0. -1.
        -11    1    4    4    0    0  0.25879867541E+02 -0.16946376434E+01  0.51314709263E+01  0.26438066019E+02  0.51100000000E-03 0.  1.
        -12    1    4    4    0    0 -0.53504147496E+01  0.50468568352E+01  0.47312114577E+01  0.87454024359E+01  0.00000000000E+00 0.  1.
</event>
<event>
 8    1  0.1265908E-006  0.9118800E+02  0.7816164E-02  0.1184000E+00
        -11   -1    0    0    0    0  0.00000000000E+00  0.00000000000E+00  0.45593999997E+02  0.45594000000E+02  0.51100000000E-03 0.  1.
         11   -1    0    0    0    0 -0.00000000000E+00 -0.00000000000E+00 -0.45593999997E+02  0.45594000000E+02  0.51100000000E-03 0. -1.
         23    2    1    2    0    0  0.00000000000E+00  0.17763568394E-14  0.00000000000E+00  0.91188000000E+02  0.91188000000E+02 0.  0.
    9900012    2    3    3    0    0 -0.12953109711E+02  0.12754377939E+02  0.32020628547E+02  0.54367111087E+02  0.40000061344E+02 0.  0.
         12    1    3    3    0    0  0.12953109711E+02 -0.12754377939E+02 -0.32020628547E+02  0.36820888913E+02  0.00000000000E+00 0. -1.
         11    1    4    4    0    0 -0.56692448975E+00 -0.34364083045E+01  0.10306224317E+01  0.36321465100E+01  0.51100000000E-03 0. -1.
        -11    1    4    4    0    0 -0.11892627222E+02  0.23215817366E+02  0.89184640141E+01  0.27567149995E+02  0.51100000000E-03 0.  1.
         12    1    4    4    0    0 -0.49355799954E+00 -0.70250311221E+01  0.22071542102E+02  0.23167814582E+02  0.00000000000E+00 0. -1.
</event>
<event>
 8    1  0.1265908E-006  0.9118800E+02  0.7816164E-02  0.1184000E+00
        -11   -1    0    0    0    0  0.00000000000E+00  0.00000000000E+00  0.45593999997E+02  0.45594000000E+02  0.51100000000E-03 0.  1.
         11   -1    0    0    0    0 -0.00000000000E+00 -0.00000000000E+00 -0.45593999997E+02  0.45594000000E+02  0.51100000000E-03 0. -1.
         23    2    1    2    0    0  0.00000000000E+00  0.00000000000E+00  0.17763568394E-14  0.91188000000E+02  0.91188000000E+02 0.  0.
    9900012    2    3    3    0    0  0.25402869861E+02 -0.25160213326E+02  0.87998745218E+01  0.54367083072E+02  0.39999997480E+02 0.  0.
         12    1    3    3    0    0 -0.25402869861E+02  0.25160213326E+02 -0.87998745218E+01  0.36820916928E+02  0.00000000000E+00 0. -1.
         11    1    4    4    0    0  0.55010970115E+01  0.28433320759E+01 -0.66926191711E+01  0.91179908562E+01  0.51100000000E-03 0. -1.
        -11    1    4    4    0    0  0.10070477538E+02 -0.30043102610E+02  0.15347975816E+02  0.35207426691E+02  0.51100000000E-03 0.  1.
        -12    1    4    4    0    0  0.98312953117E+01  0.20395572083E+01  0.14451787735E+00  0.10041665526E+02  0.00000000000E+00 0.  1.
</event>
<event>
 8    1  0.1265908E-006  0.9118800E+02  0.7816164E-02  0.1184000E+00
        -11   -1    0    0    0    0  0.00000000000E+00  0.00000000000E+00  0.45593999997E+02  0.45594000000E+02  0.51100000000E-03 0. -1.
         11   -1    0    0    0    0 -0.00000000000E+00 -0.00000000000E+00 -0.45593999997E+02  0.45594000000E+02  0.51100000000E-03 0.  1.
         23    2    1    2    0    0  0.00000000000E+00  0.00000000000E+00  0.00000000000E+00  0.91188000000E+02  0.91188000000E+02 0.  0.
    9900012    2    3    3    0    0  0.66774690455E+01  0.26943683071E+02 -0.24191511310E+02  0.54367083801E+02  0.39999999140E+02 0.  0.
         12    1    3    3    0    0 -0.66774690455E+01 -0.26943683071E+02  0.24191511310E+02  0.36820916199E+02  0.00000000000E+00 0. -1.
         11    1    4    4    0    0 -0.29927944616E+01  0.23415829674E+00 -0.91847216358E+01  0.96628546810E+01  0.51100000000E-03 0. -1.
        -11    1    4    4    0    0 -0.36500698748E+01  0.94428136333E+01 -0.19924583726E+02  0.22349021820E+02  0.51100000000E-03 0.  1.
         12    1    4    4    0    0  0.13320333382E+02  0.17266711141E+02  0.49177940521E+01  0.22355207299E+02  0.00000000000E+00 0. -1.
</event>
<event>
 8    1  0.1265908E-006  0.9118800E+02  0.7816164E-02  0.1184000E+00
        -11   -1    0    0    0    0  0.00000000000E+00  0.00000000000E+00  0.45593999997E+02  0.45594000000E+02  0.51100000000E-03 0.  1.
         11   -1    0    0    0    0 -0.00000000000E+00 -0.00000000000E+00 -0.45593999997E+02  0.45594000000E+02  0.51100000000E-03 0. -1.
         23    2    1    2    0    0  0.00000000000E+00  0.00000000000E+00  0.13322676296E-14  0.91188000000E+02  0.91188000000E+02 0.  0.
    9900012    2    3    3    0    0  0.36189781542E+02  0.62897169598E+01  0.25531560037E+01  0.54367089731E+02  0.40000012659E+02 0.  0.
         12    1    3    3    0    0 -0.36189781542E+02 -0.62897169598E+01 -0.25531560037E+01  0.36820910269E+02  0.00000000000E+00 0. -1.
         11    1    4    4    0    0 -0.41405168929E+01 -0.94295168425E+00  0.37778221769E+01  0.56837468875E+01  0.51100000000E-03 0. -1.
        -11    1    4    4    0    0  0.28243716855E+02  0.14351096725E+02  0.69696506285E+01  0.32438211250E+02  0.51100000000E-03 0.  1.
        -12    1    4    4    0    0  0.12086581580E+02 -0.71184280809E+01 -0.81943168017E+01  0.16245131593E+02  0.00000000000E+00 0.  1.
</event>
<event>
 8    1  0.1265908E-006  0.9118800E+02  0.7816164E-02  0.1184000E+00
        -11   -1    0    0    0    0  0.00000000000E+00  0.00000000000E+00  0.45593999997E+02  0.45594000000E+02  0.51100000000E-03 0.  1.
         11   -1    0    0    0    0 -0.00000000000E+00 -0.00000000000E+00 -0.45593999997E+02  0.45594000000E+02  0.51100000000E-03 0. -1.
         23    2    1    2    0    0 -0.88817841970E-15  0.17763568394E-14  0.00000000000E+00  0.91188000000E+02  0.91188000000E+02 0.  0.
    9900012    2    3    3    0    0  0.28732581691E+01 -0.15224298408E+02 -0.33402758093E+02  0.54367093945E+02  0.40000022266E+02 0.  0.
        -12    1    3    3    0    0 -0.28732581691E+01  0.15224298408E+02  0.33402758093E+02  0.36820906055E+02  0.00000000000E+00 0.  1.
         11    1    4    4    0    0  0.32505005114E+01  0.19429578447E+01 -0.11380304270E+02  0.11993838597E+02  0.51100000000E-03 0. -1.
        -11    1    4    4    0    0 -0.24790593519E+01  0.44570297703E+01  0.53732242457E+01  0.74082648912E+01  0.51100000000E-03 0.  1.
        -12    1    4    4    0    0  0.21018170096E+01 -0.21624286023E+02 -0.27395678069E+02  0.34964990456E+02  0.00000000000E+00 0.  1.
</event>
<event>
 8    1  0.1265908E-006  0.9118800E+02  0.7816164E-02  0.1184000E+00
        -11   -1    0    0    0    0  0.00000000000E+00  0.00000000000E+00  0.45593999997E+02  0.45594000000E+02  0.51100000000E-03 0. -1.
         11   -1    0    0    0    0 -0.00000000000E+00 -0.00000000000E+00 -0.45593999997E+02  0.45594000000E+02  0.51100000000E-03 0.  1.
         23    2    1    2    0    0  0.00000000000E+00  0.10658141036E-13  0.00000000000E+00  0.91188000000E+02  0.91188000000E+02 0.  0.
    9900012    2    3    3    0    0  0.23879313744E+01  0.25680313349E+02  0.26279247843E+02  0.54367087774E+02  0.40000008198E+02 0.  0.
        -12    1    3    3    0    0 -0.23879313744E+01 -0.25680313349E+02 -0.26279247843E+02  0.36820912226E+02  0.00000000000E+00 0.  1.
         11    1    4    4    0    0  0.38992313989E+01  0.60149816087E+01  0.41108755412E+01  0.82633714204E+01  0.51100000000E-03 0. -1.
        -11    1    4    4    0    0 -0.35635346428E+01 -0.99592614520E+01  0.41077362530E+01  0.11347209578E+02  0.51100000000E-03 0.  1.
        -12    1    4    4    0    0  0.20522346182E+01  0.29624593192E+02  0.18060636049E+02  0.34756506776E+02  0.00000000000E+00 0.  1.
</event>
<event>
 8    1  0.1265908E-006  0.9118800E+02  0.7816164E-02  0.1184000E+00
        -11   -1    0    0    0    0  0.00000000000E+00  0.00000000000E+00  0.45593999997E+02  0.45594000000E+02  0.51100000000E-03 0. -1.
         11   -1    0    0    0    0 -0.00000000000E+00 -0.00000000000E+00 -0.45593999997E+02  0.45594000000E+02  0.51100000000E-03 0.  1.
         23    2    1    2    0    0 -0.17763568394E-14  0.00000000000E+00  0.00000000000E+00  0.91188000000E+02  0.91188000000E+02 0.  0.
    9900012    2    3    3    0    0 -0.10090240782E+02 -0.14597838396E+02  0.32262519091E+02  0.54367082263E+02  0.39999995635E+02 0.  0.
        -12    1    3    3    0    0  0.10090240782E+02  0.14597838396E+02 -0.32262519091E+02  0.36820917737E+02  0.00000000000E+00 0.  1.
         11    1    4    4    0    0 -0.69192583760E+00  0.11647766014E+01  0.56618430027E+01  0.58216777946E+01  0.51100000000E-03 0. -1.
        -11    1    4    4    0    0 -0.23195204611E+02 -0.12721092026E+02  0.16509083790E+02  0.31183225413E+02  0.51100000000E-03 0.  1.
        -12    1    4    4    0    0  0.13796889666E+02 -0.30415229720E+01  0.10091592298E+02  0.17362179056E+02  0.00000000000E+00 0.  1.
</event>
<event>
 8    1  0.1265908E-006  0.9118800E+02  0.7816164E-02  0.1184000E+00
        -11   -1    0    0    0    0  0.00000000000E+00  0.00000000000E+00  0.45593999997E+02  0.45594000000E+02  0.51100000000E-03 0.  1.
         11   -1    0    0    0    0 -0.00000000000E+00 -0.00000000000E+00 -0.45593999997E+02  0.45594000000E+02  0.51100000000E-03 0. -1.
         23    2    1    2    0    0 -0.71054273576E-14  0.88817841970E-15  0.88817841970E-15  0.91188000000E+02  0.91188000000E+02 0.  0.
    9900012    2    3    3    0    0 -0.36140348384E+02  0.42117958316E+01 -0.56493300053E+01  0.54367096495E+02  0.40000028079E+02 0.  0.
         12    1    3    3    0    0  0.36140348384E+02 -0.42117958316E+01  0.56493300053E+01  0.36820903505E+02  0.00000000000E+00 0. -1.
         11    1    4    4    0    0 -0.20802697939E+02  0.91078399858E+01 -0.10270314206E+02  0.24923570068E+02  0.51100000000E-03 0. -1.
        -11    1    4    4    0    0 -0.20456916891E+02 -0.65798505765E+01 -0.11852876196E+01  0.21521728306E+02  0.51100000000E-03 0.  1.
         12    1    4    4    0    0  0.51192664463E+01  0.16838064223E+01  0.58062718206E+01  0.79217981211E+01  0.00000000000E+00 0. -1.
</event>
<event>
 8    1  0.1265908E-006  0.9118800E+02  0.7816164E-02  0.1184000E+00
        -11   -1    0    0    0    0  0.00000000000E+00  0.00000000000E+00  0.45593999997E+02  0.45594000000E+02  0.51100000000E-03 0.  1.
         11   -1    0    0    0    0 -0.00000000000E+00 -0.00000000000E+00 -0.45593999997E+02  0.45594000000E+02  0.51100000000E-03 0. -1.
         23    2    1    2    0    0  0.35527136788E-14  0.35527136788E-14  0.00000000000E+00  0.91188000000E+02  0.91188000000E+02 0.  0.
    9900012    2    3    3    0    0 -0.18694415166E+02  0.26423367717E+02  0.17552902947E+02  0.54367083095E+02  0.39999997531E+02 0.  0.
         12    1    3    3    0    0  0.18694415166E+02 -0.26423367717E+02 -0.17552902947E+02  0.36820916905E+02  0.00000000000E+00 0. -1.
         11    1    4    4    0    0  0.11064701173E+00 -0.75395427264E+00 -0.34007594440E+01  0.34850903666E+01  0.51100000000E-03 0. -1.
        -11    1    4    4    0    0  0.29922980763E+01  0.23168461761E+02  0.15571323724E+02  0.28074856917E+02  0.51100000000E-03 0.  1.
        -12    1    4    4    0    0 -0.21797360254E+02  0.40088602286E+01  0.53823386668E+01  0.22807135811E+02  0.00000000000E+00 0.  1.
</event>
<event>
 8    1  0.1265908E-006  0.9118800E+02  0.7816164E-02  0.1184000E+00
        -11   -1    0    0    0    0  0.00000000000E+00  0.00000000000E+00  0.45593999997E+02  0.45594000000E+02  0.51100000000E-03 0.  1.
         11   -1    0    0    0    0 -0.00000000000E+00 -0.00000000000E+00 -0.45593999997E+02  0.45594000000E+02  0.51100000000E-03 0. -1.
         23    2    1    2    0    0 -0.17763568394E-14 -0.15543122345E-14  0.00000000000E+00  0.91188000000E+02  0.91188000000E+02 0.  0.
    9900012    2    3    3    0    0  0.26183772201E+01 -0.19717004484E+01  0.36674727216E+02  0.54367094005E+02  0.40000022403E+02 0.  0.
         12    1    3    3    0    0 -0.26183772201E+01  0.19717004484E+01 -0.36674727216E+02  0.36820905995E+02  0.00000000000E+00 0. -1.
         11    1    4    4    0    0 -0.65667156951E+01 -0.10348914507E+02  0.15949169881E+02  0.20114616741E+02  0.51100000000E-03 0. -1.
        -11    1    4    4    0    0  0.12753764171E+02  0.51144987586E+01  0.24518844786E+02  0.28106766943E+02  0.51100000000E-03 0.  1.
        -12    1    4    4    0    0 -0.35686712555E+01  0.32627153001E+01 -0.37932874513E+01  0.61457103208E+01  0.00000000000E+00 0.  1.
</event>
<event>
 8    1  0.1265908E-006  0.9118800E+02  0.7816164E-02  0.1184000E+00
        -11   -1    0    0    0    0  0.00000000000E+00  0.00000000000E+00  0.45593999997E+02  0.45594000000E+02  0.51100000000E-03 0.  1.
         11   -1    0    0    0    0 -0.00000000000E+00 -0.00000000000E+00 -0.45593999997E+02  0.45594000000E+02  0.51100000000E-03 0. -1.
         23    2    1    2    0    0 -0.17763568394E-14 -0.35527136788E-14  0.00000000000E+00  0.91188000000E+02  0.91188000000E+02 0.  0.
    9900012    2    3    3    0    0 -0.93326093185E+01 -0.23463745228E+02 -0.26798045037E+02  0.54367079932E+02  0.39999990322E+02 0.  0.
        -12    1    3    3    0    0  0.93326093185E+01  0.23463745228E+02  0.26798045037E+02  0.36820920068E+02  0.00000000000E+00 0.  1.
         11    1    4    4    0    0 -0.14601535019E+01 -0.14545800238E+02 -0.14762949699E+02  0.20776357642E+02  0.51100000000E-03 0. -1.
        -11    1    4    4    0    0  0.68298845056E+01  0.62202734295E+00 -0.14357381266E+02  0.15911273911E+02  0.51100000000E-03 0.  1.
        -12    1    4    4    0    0 -0.14702340322E+02 -0.95399723339E+01  0.23222859282E+01  0.17679448380E+02  0.00000000000E+00 0.  1.
</event>
<event>
 8    1  0.1265908E-006  0.9118800E+02  0.7816164E-02  0.1184000E+00
        -11   -1    0    0    0    0  0.00000000000E+00  0.00000000000E+00  0.45593999997E+02  0.45594000000E+02  0.51100000000E-03 0. -1.
         11   -1    0    0    0    0 -0.00000000000E+00 -0.00000000000E+00 -0.45593999997E+02  0.45594000000E+02  0.51100000000E-03 0.  1.
         23    2    1    2    0    0  0.00000000000E+00  0.17763568394E-14  0.00000000000E+00  0.91188000000E+02  0.91188000000E+02 0.  0.
    9900012    2    3    3    0    0 -0.64519661840E+01  0.15590245796E+02  0.32727596061E+02  0.54367093227E+02  0.40000020631E+02 0.  0.
        -12    1    3    3    0    0  0.64519661840E+01 -0.15590245796E+02 -0.32727596061E+02  0.36820906773E+02  0.00000000000E+00 0.  1.
         11    1    4    4    0    0 -0.17076234523E+01  0.10512898729E+02  0.40834316738E+02  0.42200455462E+02  0.51100000000E-03 0. -1.
        -11    1    4    4    0    0 -0.10999604370E+01  0.40879808461E+01 -0.13803690558E+01  0.44527429022E+01  0.51100000000E-03 0.  1.
         12    1    4    4    0    0 -0.36443822947E+01  0.98936622136E+00 -0.67263516209E+01  0.77138948630E+01  0.00000000000E+00 0. -1.
</event>
<event>
 8    1  0.1265908E-006  0.9118800E+02  0.7816164E-02  0.1184000E+00
        -11   -1    0    0    0    0  0.00000000000E+00  0.00000000000E+00  0.45593999997E+02  0.45594000000E+02  0.51100000000E-03 0.  1.
         11   -1    0    0    0    0 -0.00000000000E+00 -0.00000000000E+00 -0.45593999997E+02  0.45594000000E+02  0.51100000000E-03 0. -1.
         23    2    1    2    0    0  0.17763568394E-14  0.00000000000E+00 -0.17763568394E-14  0.91188000000E+02  0.91188000000E+02 0.  0.
    9900012    2    3    3    0    0 -0.14005447345E+02  0.33069953938E+02  0.81243861453E+01  0.54367081230E+02  0.39999993281E+02 0.  0.
         12    1    3    3    0    0  0.14005447345E+02 -0.33069953938E+02 -0.81243861453E+01  0.36820918770E+02  0.00000000000E+00 0. -1.
         11    1    4    4    0    0 -0.85668004096E+01  0.25283037383E+02  0.51178500280E+01  0.27181141215E+02  0.51100000000E-03 0. -1.
        -11    1    4    4    0    0 -0.10972506143E+02  0.12852168449E+02  0.74483164026E+01  0.18467580848E+02  0.51100000000E-03 0.  1.
         12    1    4    4    0    0  0.55338592074E+01 -0.50652518933E+01 -0.44417802853E+01  0.87183591675E+01  0.00000000000E+00 0. -1.
</event>
<event>
 8    1  0.1265908E-006  0.9118800E+02  0.7816164E-02  0.1184000E+00
        -11   -1    0    0    0    0  0.00000000000E+00  0.00000000000E+00  0.45593999997E+02  0.45594000000E+02  0.51100000000E-03 0. -1.
         11   -1    0    0    0    0 -0.00000000000E+00 -0.00000000000E+00 -0.45593999997E+02  0.45594000000E+02  0.51100000000E-03 0.  1.
         23    2    1    2    0    0  0.00000000000E+00  0.00000000000E+00  0.00000000000E+00  0.91188000000E+02  0.91188000000E+02 0.  0.
    9900012    2    3    3    0    0 -0.19535073910E+02 -0.13355076253E+02  0.28209969094E+02  0.54367088405E+02  0.40000009636E+02 0.  0.
        -12    1    3    3    0    0  0.19535073910E+02  0.13355076253E+02 -0.28209969094E+02  0.36820911595E+02  0.00000000000E+00 0.  1.
         11    1    4    4    0    0 -0.16931299208E+02 -0.17997601140E+02  0.16394031136E+02  0.29653782167E+02  0.51100000000E-03 0. -1.
        -11    1    4    4    0    0  0.35616893767E+01 -0.67141084902E+01  0.63760488125E+00  0.76270193575E+01  0.51100000000E-03 0.  1.
         12    1    4    4    0    0 -0.61654640789E+01  0.11356633377E+02  0.11178333077E+02  0.17086286880E+02  0.00000000000E+00 0. -1.
</event>
<event>
 8    1  0.1265908E-006  0.9118800E+02  0.7816164E-02  0.1184000E+00
        -11   -1    0    0    0    0  0.00000000000E+00  0.00000000000E+00  0.45593999997E+02  0.45594000000E+02  0.51100000000E-03 0. -1.
         11   -1    0    0    0    0 -0.00000000000E+00 -0.00000000000E+00 -0.45593999997E+02  0.45594000000E+02  0.51100000000E-03 0.  1.
         23    2    1    2    0    0  0.00000000000E+00  0.00000000000E+00  0.44408920985E-15  0.91188000000E+02  0.91188000000E+02 0.  0.
    9900012    2    3    3    0    0 -0.35012274665E+02 -0.10914925793E+02 -0.32835947233E+01  0.54367123088E+02  0.40000088704E+02 0.  0.
         12    1    3    3    0    0  0.35012274665E+02  0.10914925793E+02  0.32835947233E+01  0.36820876912E+02  0.00000000000E+00 0. -1.
         11    1    4    4    0    0  0.25328170875E+01 -0.83901387169E+01 -0.41147283753E+01  0.96819719041E+01  0.51100000000E-03 0. -1.
        -11    1    4    4    0    0 -0.15053792086E+02  0.10545261681E+02 -0.21349271405E+01  0.18503435201E+02  0.51100000000E-03 0.  1.
         12    1    4    4    0    0 -0.22491299666E+02 -0.13070048757E+02  0.29660607926E+01  0.26181715983E+02  0.00000000000E+00 0. -1.
</event>
<event>
 8    1  0.1265908E-006  0.9118800E+02  0.7816164E-02  0.1184000E+00
        -11   -1    0    0    0    0  0.00000000000E+00  0.00000000000E+00  0.45593999997E+02  0.45594000000E+02  0.51100000000E-03 0.  1.
         11   -1    0    0    0    0 -0.00000000000E+00 -0.00000000000E+00 -0.45593999997E+02  0.45594000000E+02  0.51100000000E-03 0. -1.
         23    2    1    2    0    0 -0.71054273576E-14  0.35527136788E-14  0.00000000000E+00  0.91188000000E+02  0.91188000000E+02 0.  0.
    9900012    2    3    3    0    0 -0.33321560760E+02  0.13074850546E+02  0.86314318931E+01  0.54367085497E+02  0.40000003009E+02 0.  0.
        -12    1    3    3    0    0  0.33321560760E+02 -0.13074850546E+02 -0.86314318931E+01  0.36820914503E+02  0.00000000000E+00 0.  1.
         11    1    4    4    0    0 -0.14117266168E+02 -0.72501537978E+00  0.44953134942E+01  0.14833431668E+02  0.51100000000E-03 0. -1.
        -11    1    4    4    0    0  0.71974942771E+00  0.51023249079E+00  0.13712211442E+02  0.13740564738E+02  0.51100000000E-03 0.  1.
        -12    1    4    4    0    0 -0.19924044020E+02  0.13289633435E+02 -0.95760930431E+01  0.25793089092E+02  0.00000000000E+00 0.  1.
</event>
<event>
 8    1  0.1265908E-006  0.9118800E+02  0.7816164E-02  0.1184000E+00
        -11   -1    0    0    0    0  0.00000000000E+00  0.00000000000E+00  0.45593999997E+02  0.45594000000E+02  0.51100000000E-03 0. -1.
         11   -1    0    0    0    0 -0.00000000000E+00 -0.00000000000E+00 -0.45593999997E+02  0.45594000000E+02  0.51100000000E-03 0.  1.
         23    2    1    2    0    0  0.72164496601E-15  0.00000000000E+00  0.00000000000E+00  0.91188000000E+02  0.91188000000E+02 0.  0.
    9900012    2    3    3    0    0  0.44769426596E+00 -0.29580891021E+02  0.21921413846E+02  0.54367110158E+02  0.40000059227E+02 0.  0.
         12    1    3    3    0    0 -0.44769426596E+00  0.29580891021E+02 -0.21921413846E+02  0.36820889842E+02  0.00000000000E+00 0. -1.
         11    1    4    4    0    0 -0.99937083594E+01 -0.32648082472E+01  0.11432123929E+02  0.15531472482E+02  0.51100000000E-03 0. -1.
        -11    1    4    4    0    0  0.60647151140E+01  0.36670277558E+01  0.17597933872E+01  0.73023787222E+01  0.51100000000E-03 0.  1.
        -12    1    4    4    0    0  0.43766875113E+01 -0.29983110530E+02  0.87294965293E+01  0.31533258954E+02  0.00000000000E+00 0.  1.
</event>
<event>
 8    1  0.1265908E-006  0.9118800E+02  0.7816164E-02  0.1184000E+00
        -11   -1    0    0    0    0  0.00000000000E+00  0.00000000000E+00  0.45593999997E+02  0.45594000000E+02  0.51100000000E-03 0. -1.
         11   -1    0    0    0    0 -0.00000000000E+00 -0.00000000000E+00 -0.45593999997E+02  0.45594000000E+02  0.51100000000E-03 0.  1.
         23    2    1    2    0    0  0.00000000000E+00  0.00000000000E+00  0.00000000000E+00  0.91188000000E+02  0.91188000000E+02 0.  0.
    9900012    2    3    3    0    0  0.51070686403E+01  0.11384393207E+02  0.34642415013E+02  0.54367034821E+02  0.39999887481E+02 0.  0.
        -12    1    3    3    0    0 -0.51070686403E+01 -0.11384393207E+02 -0.34642415013E+02  0.36820965179E+02  0.00000000000E+00 0.  1.
         11    1    4    4    0    0  0.61460139878E+01 -0.68825443408E+01  0.13233102724E+01  0.93216980685E+01  0.51100000000E-03 0. -1.
        -11    1    4    4    0    0  0.25764344013E+01  0.20896665333E+02  0.14164668926E+02  0.25376100613E+02  0.51100000000E-03 0.  1.
         12    1    4    4    0    0 -0.36153797488E+01 -0.26297277849E+01  0.19154435815E+02  0.19669236140E+02  0.00000000000E+00 0. -1.
</event>
<event>
 8    1  0.1265908E-006  0.9118800E+02  0.7816164E-02  0.1184000E+00
        -11   -1    0    0    0    0  0.00000000000E+00  0.00000000000E+00  0.45593999997E+02  0.45594000000E+02  0.51100000000E-03 0.  1.
         11   -1    0    0    0    0 -0.00000000000E+00 -0.00000000000E+00 -0.45593999997E+02  0.45594000000E+02  0.51100000000E-03 0. -1.
         23    2    1    2    0    0  0.00000000000E+00 -0.71054273576E-14  0.00000000000E+00  0.91188000000E+02  0.91188000000E+02 0.  0.
    9900012    2    3    3    0    0  0.13730170899E+02 -0.29737920130E+02 -0.16820152552E+02  0.54367095361E+02  0.40000025495E+02 0.  0.
         12    1    3    3    0    0 -0.13730170899E+02  0.29737920130E+02  0.16820152552E+02  0.36820904639E+02  0.00000000000E+00 0. -1.
         11    1    4    4    0    0  0.67534635391E+00  0.25249950051E+01 -0.35585984093E+01  0.44153499718E+01  0.51100000000E-03 0. -1.
        -11    1    4    4    0    0 -0.91863563516E+01 -0.26632916378E+00 -0.26942278580E+01  0.95770004832E+01  0.51100000000E-03 0.  1.
        -12    1    4    4    0    0  0.22241180896E+02 -0.31996585971E+02 -0.10567326285E+02  0.40374744906E+02  0.00000000000E+00 0.  1.
</event>
<event>
 8    1  0.1265908E-006  0.9118800E+02  0.7816164E-02  0.1184000E+00
        -11   -1    0    0    0    0  0.00000000000E+00  0.00000000000E+00  0.45593999997E+02  0.45594000000E+02  0.51100000000E-03 0. -1.
         11   -1    0    0    0    0 -0.00000000000E+00 -0.00000000000E+00 -0.45593999997E+02  0.45594000000E+02  0.51100000000E-03 0.  1.
         23    2    1    2    0    0  0.17763568394E-14 -0.35527136788E-14  0.00000000000E+00  0.91188000000E+02  0.91188000000E+02 0.  0.
    9900012    2    3    3    0    0 -0.13105946542E+02 -0.30102255732E+02  0.16669436392E+02  0.54367058343E+02  0.39999941103E+02 0.  0.
        -12    1    3    3    0    0  0.13105946542E+02  0.30102255732E+02 -0.16669436392E+02  0.36820941657E+02  0.00000000000E+00 0.  1.
         11    1    4    4    0    0  0.81665025083E+01 -0.58124913772E+01 -0.20190769175E+01  0.10225140150E+02  0.51100000000E-03 0. -1.
        -11    1    4    4    0    0 -0.73214058339E+01  0.39787714479E+01  0.24715046786E+01  0.86914867115E+01  0.51100000000E-03 0.  1.
         12    1    4    4    0    0 -0.13951043216E+02 -0.28268535803E+02  0.16217008631E+02  0.35450431481E+02  0.00000000000E+00 0. -1.
</event>
<event>
 8    1  0.1265908E-006  0.9118800E+02  0.7816164E-02  0.1184000E+00
        -11   -1    0    0    0    0  0.00000000000E+00  0.00000000000E+00  0.45593999997E+02  0.45594000000E+02  0.51100000000E-03 0.  1.
         11   -1    0    0    0    0 -0.00000000000E+00 -0.00000000000E+00 -0.45593999997E+02  0.45594000000E+02  0.51100000000E-03 0. -1.
         23    2    1    2    0    0  0.35527136788E-14  0.00000000000E+00  0.00000000000E+00  0.91188000000E+02  0.91188000000E+02 0.  0.
    9900012    2    3    3    0    0 -0.31437152301E+02  0.11818686233E+02  0.15093165027E+02  0.54367088555E+02  0.40000009979E+02 0.  0.
         12    1    3    3    0    0  0.31437152301E+02 -0.11818686233E+02 -0.15093165027E+02  0.36820911445E+02  0.00000000000E+00 0. -1.
         11    1    4    4    0    0 -0.60225209435E+01  0.73205155638E+01 -0.57104113911E+01  0.11066594108E+02  0.51100000000E-03 0. -1.
        -11    1    4    4    0    0 -0.37346798715E+01 -0.31071421474E-01 -0.68915320338E+01  0.78384955961E+01  0.51100000000E-03 0.  1.
        -12    1    4    4    0    0 -0.21679951487E+02  0.45292420903E+01  0.27695108452E+02  0.35461998851E+02  0.00000000000E+00 0.  1.
</event>
<event>
 8    1  0.1265908E-006  0.9118800E+02  0.7816164E-02  0.1184000E+00
        -11   -1    0    0    0    0  0.00000000000E+00  0.00000000000E+00  0.45593999997E+02  0.45594000000E+02  0.51100000000E-03 0.  1.
         11   -1    0    0    0    0 -0.00000000000E+00 -0.00000000000E+00 -0.45593999997E+02  0.45594000000E+02  0.51100000000E-03 0. -1.
         23    2    1    2    0    0 -0.17763568394E-14  0.00000000000E+00 -0.71054273576E-14  0.91188000000E+02  0.91188000000E+02 0.  0.
    9900012    2    3    3    0    0  0.91208412050E+01 -0.21239015808E+02  0.28661727061E+02  0.54367080201E+02  0.39999990933E+02 0.  0.
         12    1    3    3    0    0 -0.91208412050E+01  0.21239015808E+02 -0.28661727061E+02  0.36820919799E+02  0.00000000000E+00 0. -1.
         11    1    4    4    0    0 -0.72265446833E+01  0.32593514831E+01  0.42347613866E+01  0.89877430099E+01  0.51100000000E-03 0. -1.
        -11    1    4    4    0    0  0.17890815855E+02 -0.87500234131E+01  0.54054552067E+01  0.20636451922E+02  0.51100000000E-03 0.  1.
        -12    1    4    4    0    0 -0.15434299664E+01 -0.15748343878E+02  0.19021510467E+02  0.24742885269E+02  0.00000000000E+00 0.  1.
</event>
<event>
 8    1  0.1265908E-006  0.9118800E+02  0.7816164E-02  0.1184000E+00
        -11   -1    0    0    0    0  0.00000000000E+00  0.00000000000E+00  0.45593999997E+02  0.45594000000E+02  0.51100000000E-03 0.  1.
         11   -1    0    0    0    0 -0.00000000000E+00 -0.00000000000E+00 -0.45593999997E+02  0.45594000000E+02  0.51100000000E-03 0. -1.
         23    2    1    2    0    0 -0.17763568394E-14 -0.35527136788E-14  0.00000000000E+00  0.91188000000E+02  0.91188000000E+02 0.  0.
    9900012    2    3    3    0    0  0.15906955080E+02  0.22395915721E+02  0.24518787457E+02  0.54367092906E+02  0.40000019897E+02 0.  0.
         12    1    3    3    0    0 -0.15906955080E+02 -0.22395915721E+02 -0.24518787457E+02  0.36820907094E+02  0.00000000000E+00 0. -1.
         11    1    4    4    0    0  0.62752642665E+01  0.39027880848E+00 -0.38214455024E+01  0.73576290442E+01  0.51100000000E-03 0. -1.
        -11    1    4    4    0    0  0.18774505160E+02  0.14357188732E+02  0.11257689985E+02  0.26179123293E+02  0.51100000000E-03 0.  1.
         12    1    4    4    0    0 -0.91428143469E+01  0.76484481802E+01  0.17082542974E+02  0.20830340569E+02  0.00000000000E+00 0. -1.
</event>
<event>
 8    1  0.1265908E-006  0.9118800E+02  0.7816164E-02  0.1184000E+00
        -11   -1    0    0    0    0  0.00000000000E+00  0.00000000000E+00  0.45593999997E+02  0.45594000000E+02  0.51100000000E-03 0. -1.
         11   -1    0    0    0    0 -0.00000000000E+00 -0.00000000000E+00 -0.45593999997E+02  0.45594000000E+02  0.51100000000E-03 0.  1.
         23    2    1    2    0    0 -0.17763568394E-14  0.00000000000E+00  0.99920072216E-15  0.91188000000E+02  0.91188000000E+02 0.  0.
    9900012    2    3    3    0    0 -0.14679207363E+02 -0.33757482595E+02  0.85620777889E+00  0.54367084046E+02  0.39999999699E+02 0.  0.
        -12    1    3    3    0    0  0.14679207363E+02  0.33757482595E+02 -0.85620777889E+00  0.36820915954E+02  0.00000000000E+00 0.  1.
         11    1    4    4    0    0 -0.15367790886E+01 -0.26082837905E+02  0.12333200899E+02  0.28892628261E+02  0.51100000000E-03 0. -1.
        -11    1    4    4    0    0 -0.54394113961E+01 -0.94851379569E+01 -0.13435795497E+02  0.17322691457E+02  0.51100000000E-03 0.  1.
        -12    1    4    4    0    0 -0.77030168789E+01  0.18104932675E+01  0.19588023768E+01  0.81517643280E+01  0.00000000000E+00 0.  1.
</event>
<event>
 8    1  0.1265908E-006  0.9118800E+02  0.7816164E-02  0.1184000E+00
        -11   -1    0    0    0    0  0.00000000000E+00  0.00000000000E+00  0.45593999997E+02  0.45594000000E+02  0.51100000000E-03 0.  1.
         11   -1    0    0    0    0 -0.00000000000E+00 -0.00000000000E+00 -0.45593999997E+02  0.45594000000E+02  0.51100000000E-03 0. -1.
         23    2    1    2    0    0  0.00000000000E+00 -0.35527136788E-14  0.00000000000E+00  0.91188000000E+02  0.91188000000E+02 0.  0.
    9900012    2    3    3    0    0 -0.21200695379E+02 -0.27437064125E+02 -0.12390214129E+02  0.54367090471E+02  0.40000014347E+02 0.  0.
        -12    1    3    3    0    0  0.21200695379E+02  0.27437064125E+02  0.12390214129E+02  0.36820909529E+02  0.00000000000E+00 0.  1.
         11    1    4    4    0    0 -0.59202453823E+01 -0.21767676117E+02 -0.62650044857E+00  0.22567089577E+02  0.51100000000E-03 0. -1.
        -11    1    4    4    0    0  0.53838155134E+01  0.30328822916E+01  0.57729377575E+00  0.62062156619E+01  0.51100000000E-03 0.  1.
        -12    1    4    4    0    0 -0.20664265511E+02 -0.87022703004E+01 -0.12341007456E+02  0.25593785232E+02  0.00000000000E+00 0.  1.
</event>
<event>
 8    1  0.1265908E-006  0.9118800E+02  0.7816164E-02  0.1184000E+00
        -11   -1    0    0    0    0  0.00000000000E+00  0.00000000000E+00  0.45593999997E+02  0.45594000000E+02  0.51100000000E-03 0.  1.
         11   -1    0    0    0    0 -0.00000000000E+00 -0.00000000000E+00 -0.45593999997E+02  0.45594000000E+02  0.51100000000E-03 0. -1.
         23    2    1    2    0    0 -0.17763568394E-14  0.00000000000E+00  0.00000000000E+00  0.91188000000E+02  0.91188000000E+02 0.  0.
    9900012    2    3    3    0    0  0.14789706672E+02 -0.16716068706E+02  0.29285031885E+02  0.54367143561E+02  0.40000135375E+02 0.  0.
         12    1    3    3    0    0 -0.14789706672E+02  0.16716068706E+02 -0.29285031885E+02  0.36820856439E+02  0.00000000000E+00 0. -1.
         11    1    4    4    0    0  0.25523925572E+01  0.62662046364E+01  0.15972959246E+02  0.17346914874E+02  0.51100000000E-03 0.  1.
        -11    1    4    4    0    0 -0.62794799721E+01 -0.10301528313E+02  0.54727936911E+01  0.13247823419E+02  0.51100000000E-03 0. -1.
        -12    1    4    4    0    0  0.18516794087E+02 -0.12680745030E+02  0.78392789477E+01  0.23772405268E+02  0.00000000000E+00 0.  1.
</event>
<event>
 8    1  0.1265908E-006  0.9118800E+02  0.7816164E-02  0.1184000E+00
        -11   -1    0    0    0    0  0.00000000000E+00  0.00000000000E+00  0.45593999997E+02  0.45594000000E+02  0.51100000000E-03 0. -1.
         11   -1    0    0    0    0 -0.00000000000E+00 -0.00000000000E+00 -0.45593999997E+02  0.45594000000E+02  0.51100000000E-03 0.  1.
         23    2    1    2    0    0  0.35527136788E-14  0.00000000000E+00  0.00000000000E+00  0.91188000000E+02  0.91188000000E+02 0.  0.
    9900012    2    3    3    0    0 -0.23870425144E+02  0.23267215469E+02  0.15640340804E+02  0.54367071539E+02  0.39999971187E+02 0.  0.
        -12    1    3    3    0    0  0.23870425144E+02 -0.23267215469E+02 -0.15640340804E+02  0.36820928461E+02  0.00000000000E+00 0.  1.
         11    1    4    4    0    0  0.13278326362E+01  0.34783192192E+01 -0.50475483713E+01  0.62721279421E+01  0.51100000000E-03 0. -1.
        -11    1    4    4    0    0  0.14740925298E+01  0.69687419114E+01 -0.51656976334E+01  0.87989058931E+01  0.51100000000E-03 0.  1.
         12    1    4    4    0    0 -0.26672350310E+02  0.12820154339E+02  0.25853586809E+02  0.39296037704E+02  0.00000000000E+00 0. -1.
</event>
<event>
 8    1  0.1265908E-006  0.9118800E+02  0.7816164E-02  0.1184000E+00
        -11   -1    0    0    0    0  0.00000000000E+00  0.00000000000E+00  0.45593999997E+02  0.45594000000E+02  0.51100000000E-03 0.  1.
         11   -1    0    0    0    0 -0.00000000000E+00 -0.00000000000E+00 -0.45593999997E+02  0.45594000000E+02  0.51100000000E-03 0. -1.
         23    2    1    2    0    0  0.17763568394E-14 -0.35527136788E-14  0.00000000000E+00  0.91188000000E+02  0.91188000000E+02 0.  0.
    9900012    2    3    3    0    0  0.85623842670E+01 -0.25792642617E+02 -0.24843621171E+02  0.54367077274E+02  0.39999984262E+02 0.  0.
        -12    1    3    3    0    0 -0.85623842670E+01  0.25792642617E+02  0.24843621171E+02  0.36820922726E+02  0.00000000000E+00 0.  1.
         11    1    4    4    0    0  0.64812073480E+00 -0.13263597507E+02 -0.16531909680E+02  0.21204884279E+02  0.51100000000E-03 0. -1.
        -11    1    4    4    0    0 -0.94786103965E+01 -0.96457548748E+01  0.33088524964E+00  0.13527532202E+02  0.51100000000E-03 0.  1.
         12    1    4    4    0    0  0.17392873929E+02 -0.28832902348E+01 -0.86425967403E+01  0.19634660794E+02  0.00000000000E+00 0. -1.
</event>
<event>
 8    1  0.1265908E-006  0.9118800E+02  0.7816164E-02  0.1184000E+00
        -11   -1    0    0    0    0  0.00000000000E+00  0.00000000000E+00  0.45593999997E+02  0.45594000000E+02  0.51100000000E-03 0.  1.
         11   -1    0    0    0    0 -0.00000000000E+00 -0.00000000000E+00 -0.45593999997E+02  0.45594000000E+02  0.51100000000E-03 0. -1.
         23    2    1    2    0    0  0.00000000000E+00 -0.71054273576E-14 -0.17763568394E-14  0.91188000000E+02  0.91188000000E+02 0.  0.
    9900012    2    3    3    0    0 -0.19772382354E+02  0.29678027097E+02  0.91677214166E+01  0.54367088655E+02  0.40000010207E+02 0.  0.
         12    1    3    3    0    0  0.19772382354E+02 -0.29678027097E+02 -0.91677214166E+01  0.36820911345E+02  0.00000000000E+00 0. -1.
         11    1    4    4    0    0  0.12456271983E+01  0.37698418074E+01  0.11547050629E+02  0.12210555797E+02  0.51100000000E-03 0. -1.
        -11    1    4    4    0    0 -0.13898472478E+02  0.83861805027E+01  0.10447511744E+02  0.19304042648E+02  0.51100000000E-03 0.  1.
         12    1    4    4    0    0 -0.71195370742E+01  0.17522004787E+02 -0.12826840957E+02  0.22852490210E+02  0.00000000000E+00 0. -1.
</event>
<event>
 8    1  0.1265908E-006  0.9118800E+02  0.7816164E-02  0.1184000E+00
        -11   -1    0    0    0    0  0.00000000000E+00  0.00000000000E+00  0.45593999997E+02  0.45594000000E+02  0.51100000000E-03 0. -1.
         11   -1    0    0    0    0 -0.00000000000E+00 -0.00000000000E+00 -0.45593999997E+02  0.45594000000E+02  0.51100000000E-03 0.  1.
         23    2    1    2    0    0 -0.88817841970E-15  0.17763568394E-14 -0.71054273576E-14  0.91188000000E+02  0.91188000000E+02 0.  0.
    9900012    2    3    3    0    0 -0.78908461455E+01 -0.10181311190E+02  0.34494294027E+02  0.54367070206E+02  0.39999968149E+02 0.  0.
        -12    1    3    3    0    0  0.78908461455E+01  0.10181311190E+02 -0.34494294027E+02  0.36820929794E+02  0.00000000000E+00 0.  1.
         11    1    4    4    0    0  0.25966514771E+01 -0.88565944229E+01  0.17652975483E+02  0.19920075485E+02  0.51100000000E-03 0. -1.
        -11    1    4    4    0    0 -0.40777505519E+01  0.13360530323E+02  0.89065241471E+01  0.16566773757E+02  0.51100000000E-03 0.  1.
        -12    1    4    4    0    0 -0.64097470707E+01 -0.14685247090E+02  0.79347943977E+01  0.17880220964E+02  0.00000000000E+00 0.  1.
</event>
<event>
 8    1  0.1265908E-006  0.9118800E+02  0.7816164E-02  0.1184000E+00
        -11   -1    0    0    0    0  0.00000000000E+00  0.00000000000E+00  0.45593999997E+02  0.45594000000E+02  0.51100000000E-03 0. -1.
         11   -1    0    0    0    0 -0.00000000000E+00 -0.00000000000E+00 -0.45593999997E+02  0.45594000000E+02  0.51100000000E-03 0.  1.
         23    2    1    2    0    0 -0.35527136788E-14  0.00000000000E+00 -0.35527136788E-14  0.91188000000E+02  0.91188000000E+02 0.  0.
    9900012    2    3    3    0    0  0.19368087179E+02 -0.18749563555E+02 -0.25082092176E+02  0.54367078197E+02  0.39999986365E+02 0.  0.
         12    1    3    3    0    0 -0.19368087179E+02  0.18749563555E+02  0.25082092176E+02  0.36820921803E+02  0.00000000000E+00 0. -1.
         11    1    4    4    0    0  0.24916260157E+02 -0.19119099387E+02 -0.25095264461E+02  0.40201147747E+02  0.51100000000E-03 0.  1.
        -11    1    4    4    0    0 -0.33360021092E+01 -0.43416045041E+01  0.46591302853E+01  0.71892930821E+01  0.51100000000E-03 0. -1.
        -12    1    4    4    0    0 -0.22121708681E+01  0.47111403361E+01 -0.46459580009E+01  0.69766373678E+01  0.00000000000E+00 0.  1.
</event>
<event>
 8    1  0.1265908E-006  0.9118800E+02  0.7816164E-02  0.1184000E+00
        -11   -1    0    0    0    0  0.00000000000E+00  0.00000000000E+00  0.45593999997E+02  0.45594000000E+02  0.51100000000E-03 0. -1.
         11   -1    0    0    0    0 -0.00000000000E+00 -0.00000000000E+00 -0.45593999997E+02  0.45594000000E+02  0.51100000000E-03 0.  1.
         23    2    1    2    0    0  0.00000000000E+00  0.00000000000E+00  0.71054273576E-14  0.91188000000E+02  0.91188000000E+02 0.  0.
    9900012    2    3    3    0    0 -0.10399026683E+02 -0.14666593673E+02  0.32133034234E+02  0.54367073680E+02  0.39999976069E+02 0.  0.
        -12    1    3    3    0    0  0.10399026683E+02  0.14666593673E+02 -0.32133034234E+02  0.36820926320E+02  0.00000000000E+00 0.  1.
         11    1    4    4    0    0 -0.11816425144E+02  0.98238650047E+01  0.10605828107E+02  0.18671363553E+02  0.51100000000E-03 0. -1.
        -11    1    4    4    0    0 -0.37543978339E+01 -0.33839472703E+00  0.26332555219E+01  0.45982658678E+01  0.51100000000E-03 0.  1.
         12    1    4    4    0    0  0.51717962948E+01 -0.24152063951E+02  0.18893950606E+02  0.31097444260E+02  0.00000000000E+00 0. -1.
</event>
<event>
 8    1  0.1265908E-006  0.9118800E+02  0.7816164E-02  0.1184000E+00
        -11   -1    0    0    0    0  0.00000000000E+00  0.00000000000E+00  0.45593999997E+02  0.45594000000E+02  0.51100000000E-03 0. -1.
         11   -1    0    0    0    0 -0.00000000000E+00 -0.00000000000E+00 -0.45593999997E+02  0.45594000000E+02  0.51100000000E-03 0.  1.
         23    2    1    2    0    0  0.00000000000E+00  0.17763568394E-14  0.00000000000E+00  0.91188000000E+02  0.91188000000E+02 0.  0.
    9900012    2    3    3    0    0 -0.29999409999E+02 -0.11028473463E+02 -0.18280808858E+02  0.54367084752E+02  0.40000001308E+02 0.  0.
         12    1    3    3    0    0  0.29999409999E+02  0.11028473463E+02  0.18280808858E+02  0.36820915248E+02  0.00000000000E+00 0. -1.
         11    1    4    4    0    0 -0.26319016453E+01  0.77959227249E+01  0.20051526756E+01  0.84689996408E+01  0.51100000000E-03 0. -1.
        -11    1    4    4    0    0 -0.20656271157E+01  0.28101699251E+01 -0.10701673450E+02  0.11255651259E+02  0.51100000000E-03 0.  1.
         12    1    4    4    0    0 -0.25301881238E+02 -0.21634566113E+02 -0.95842880838E+01  0.34642433852E+02  0.00000000000E+00 0. -1.
</event>
<event>
 8    1  0.1265908E-006  0.9118800E+02  0.7816164E-02  0.1184000E+00
        -11   -1    0    0    0    0  0.00000000000E+00  0.00000000000E+00  0.45593999997E+02  0.45594000000E+02  0.51100000000E-03 0.  1.
         11   -1    0    0    0    0 -0.00000000000E+00 -0.00000000000E+00 -0.45593999997E+02  0.45594000000E+02  0.51100000000E-03 0. -1.
         23    2    1    2    0    0  0.00000000000E+00  0.71054273576E-14  0.00000000000E+00  0.91188000000E+02  0.91188000000E+02 0.  0.
    9900012    2    3    3    0    0 -0.25807461791E+02 -0.25237990406E+02  0.72672165011E+01  0.54366896275E+02  0.39999571637E+02 0.  0.
         12    1    3    3    0    0  0.25807461791E+02  0.25237990406E+02 -0.72672165011E+01  0.36821103725E+02  0.00000000000E+00 0. -1.
         11    1    4    4    0    0 -0.17135067512E+01  0.24243121526E+01  0.75499388238E+01  0.81126426831E+01  0.51100000000E-03 0. -1.
        -11    1    4    4    0    0 -0.95595155455E+01 -0.58074432484E+01  0.12740898125E+02  0.16954091537E+02  0.51100000000E-03 0.  1.
        -12    1    4    4    0    0 -0.14534439494E+02 -0.21854859311E+02 -0.13023620448E+02  0.29300162055E+02  0.00000000000E+00 0.  1.
</event>
<event>
 8    1  0.1265908E-006  0.9118800E+02  0.7816164E-02  0.1184000E+00
        -11   -1    0    0    0    0  0.00000000000E+00  0.00000000000E+00  0.45593999997E+02  0.45594000000E+02  0.51100000000E-03 0. -1.
         11   -1    0    0    0    0 -0.00000000000E+00 -0.00000000000E+00 -0.45593999997E+02  0.45594000000E+02  0.51100000000E-03 0.  1.
         23    2    1    2    0    0 -0.35527136788E-14  0.00000000000E+00 -0.26645352591E-14  0.91188000000E+02  0.91188000000E+02 0.  0.
    9900012    2    3    3    0    0 -0.18110021458E+02 -0.31254653826E+02 -0.71380575809E+01  0.54367107438E+02  0.40000053026E+02 0.  0.
        -12    1    3    3    0    0  0.18110021458E+02  0.31254653826E+02  0.71380575809E+01  0.36820892562E+02  0.00000000000E+00 0.  1.
         11    1    4    4    0    0 -0.12446317892E+02 -0.89803578911E+01 -0.12519879930E+02  0.19806692067E+02  0.51100000000E-03 0. -1.
        -11    1    4    4    0    0 -0.13028933388E+02 -0.35576288352E+01  0.51235076219E+01  0.14445073858E+02  0.51100000000E-03 0.  1.
        -12    1    4    4    0    0  0.73652298220E+01 -0.18716667100E+02  0.25831472677E+00  0.20115341513E+02  0.00000000000E+00 0.  1.
</event>
<event>
 8    1  0.1265908E-006  0.9118800E+02  0.7816164E-02  0.1184000E+00
        -11   -1    0    0    0    0  0.00000000000E+00  0.00000000000E+00  0.45593999997E+02  0.45594000000E+02  0.51100000000E-03 0.  1.
         11   -1    0    0    0    0 -0.00000000000E+00 -0.00000000000E+00 -0.45593999997E+02  0.45594000000E+02  0.51100000000E-03 0. -1.
         23    2    1    2    0    0  0.00000000000E+00  0.35527136788E-14  0.00000000000E+00  0.91188000000E+02  0.91188000000E+02 0.  0.
    9900012    2    3    3    0    0 -0.28285430986E+02 -0.20548282192E+02  0.11553411400E+02  0.54367098027E+02  0.40000031573E+02 0.  0.
        -12    1    3    3    0    0  0.28285430986E+02  0.20548282192E+02 -0.11553411400E+02  0.36820901973E+02  0.00000000000E+00 0.  1.
         11    1    4    4    0    0  0.40867325566E+01 -0.39179790765E+01 -0.12517999408E-01  0.56614574091E+01  0.51100000000E-03 0. -1.
        -11    1    4    4    0    0 -0.29757674481E+02 -0.63960869425E+01 -0.31405224212E+01  0.30598888869E+02  0.51100000000E-03 0.  1.
        -12    1    4    4    0    0 -0.26144890613E+01 -0.10234216173E+02  0.14706451821E+02  0.18106751749E+02  0.00000000000E+00 0.  1.
</event>
<event>
 8    1  0.1265908E-006  0.9118800E+02  0.7816164E-02  0.1184000E+00
        -11   -1    0    0    0    0  0.00000000000E+00  0.00000000000E+00  0.45593999997E+02  0.45594000000E+02  0.51100000000E-03 0. -1.
         11   -1    0    0    0    0 -0.00000000000E+00 -0.00000000000E+00 -0.45593999997E+02  0.45594000000E+02  0.51100000000E-03 0.  1.
         23    2    1    2    0    0  0.00000000000E+00  0.44408920985E-15  0.00000000000E+00  0.91188000000E+02  0.91188000000E+02 0.  0.
    9900012    2    3    3    0    0  0.32915608695E+02 -0.30211660184E+01 -0.16223914381E+02  0.54367080162E+02  0.39999990845E+02 0.  0.
         12    1    3    3    0    0 -0.32915608695E+02  0.30211660184E+01  0.16223914381E+02  0.36820919838E+02  0.00000000000E+00 0. -1.
         11    1    4    4    0    0  0.18881866807E+02  0.73830560400E+01 -0.42450717142E+01  0.20713643926E+02  0.51100000000E-03 0. -1.
        -11    1    4    4    0    0  0.13802885176E+02 -0.11308288444E+02 -0.19293238567E+02  0.26279765627E+02  0.51100000000E-03 0.  1.
        -12    1    4    4    0    0  0.23085671267E+00  0.90406638511E+00  0.73143959008E+01  0.73736706086E+01  0.00000000000E+00 0.  1.
</event>
<event>
 8    1  0.1265908E-006  0.9118800E+02  0.7816164E-02  0.1184000E+00
        -11   -1    0    0    0    0  0.00000000000E+00  0.00000000000E+00  0.45593999997E+02  0.45594000000E+02  0.51100000000E-03 0.  1.
         11   -1    0    0    0    0 -0.00000000000E+00 -0.00000000000E+00 -0.45593999997E+02  0.45594000000E+02  0.51100000000E-03 0. -1.
         23    2    1    2    0    0  0.00000000000E+00  0.00000000000E+00  0.00000000000E+00  0.91188000000E+02  0.91188000000E+02 0.  0.
    9900012    2    3    3    0    0 -0.16687902119E+02  0.70935535837E+01  0.32046461916E+02  0.54367077946E+02  0.39999985793E+02 0.  0.
         12    1    3    3    0    0  0.16687902119E+02 -0.70935535837E+01 -0.32046461916E+02  0.36820922054E+02  0.00000000000E+00 0. -1.
         11    1    4    4    0    0 -0.18780066567E+01 -0.79739984872E+01  0.50061958238E+01  0.96007061075E+01  0.51100000000E-03 0. -1.
        -11    1    4    4    0    0  0.48117809376E+01  0.11881585875E+02  0.22906162170E+01  0.13021990693E+02  0.51100000000E-03 0.  1.
         12    1    4    4    0    0 -0.19621676400E+02  0.31859661964E+01  0.24749649875E+02  0.31744381145E+02  0.00000000000E+00 0. -1.
</event>
<event>
 8    1  0.1265908E-006  0.9118800E+02  0.7816164E-02  0.1184000E+00
        -11   -1    0    0    0    0  0.00000000000E+00  0.00000000000E+00  0.45593999997E+02  0.45594000000E+02  0.51100000000E-03 0. -1.
         11   -1    0    0    0    0 -0.00000000000E+00 -0.00000000000E+00 -0.45593999997E+02  0.45594000000E+02  0.51100000000E-03 0.  1.
         23    2    1    2    0    0  0.88817841970E-15  0.35527136788E-14  0.00000000000E+00  0.91188000000E+02  0.91188000000E+02 0.  0.
    9900012    2    3    3    0    0 -0.59150464037E+01  0.30425827435E+02 -0.19876206248E+02  0.54367050475E+02  0.39999923169E+02 0.  0.
         12    1    3    3    0    0  0.59150464037E+01 -0.30425827435E+02  0.19876206248E+02  0.36820949525E+02  0.00000000000E+00 0. -1.
         11    1    4    4    0    0 -0.10969041740E+02  0.28831994711E+02 -0.26361493381E+01  0.30960508382E+02  0.51100000000E-03 0.  1.
        -11    1    4    4    0    0  0.85682053832E+01 -0.27074438209E+01 -0.58158658685E+01  0.10703676546E+02  0.51100000000E-03 0. -1.
        -12    1    4    4    0    0 -0.35142100471E+01  0.43012765455E+01 -0.11424191041E+02  0.12702865548E+02  0.00000000000E+00 0.  1.
</event>
<event>
 8    1  0.1265908E-006  0.9118800E+02  0.7816164E-02  0.1184000E+00
        -11   -1    0    0    0    0  0.00000000000E+00  0.00000000000E+00  0.45593999997E+02  0.45594000000E+02  0.51100000000E-03 0.  1.
         11   -1    0    0    0    0 -0.00000000000E+00 -0.00000000000E+00 -0.45593999997E+02  0.45594000000E+02  0.51100000000E-03 0. -1.
         23    2    1    2    0    0 -0.55511151231E-15  0.12212453271E-14  0.71054273576E-14  0.91188000000E+02  0.91188000000E+02 0.  0.
    9900012    2    3    3    0    0 -0.60740830942E+00 -0.64075971161E+00  0.36810390765E+02  0.54367022472E+02  0.39999859329E+02 0.  0.
         12    1    3    3    0    0  0.60740830942E+00  0.64075971161E+00 -0.36810390765E+02  0.36820977528E+02  0.00000000000E+00 0. -1.
         11    1    4    4    0    0  0.13330171060E+02 -0.80283712985E+01  0.17434050887E+02  0.23368661425E+02  0.51100000000E-03 0. -1.
        -11    1    4    4    0    0  0.56399973077E+00  0.43659873942E+01 -0.21250179828E+01  0.48883170223E+01  0.51100000000E-03 0.  1.
        -12    1    4    4    0    0 -0.14501579100E+02  0.30216241927E+01  0.21501357860E+02  0.26110044025E+02  0.00000000000E+00 0.  1.
</event>
<event>
 8    1  0.1265908E-006  0.9118800E+02  0.7816164E-02  0.1184000E+00
        -11   -1    0    0    0    0  0.00000000000E+00  0.00000000000E+00  0.45593999997E+02  0.45594000000E+02  0.51100000000E-03 0. -1.
         11   -1    0    0    0    0 -0.00000000000E+00 -0.00000000000E+00 -0.45593999997E+02  0.45594000000E+02  0.51100000000E-03 0.  1.
         23    2    1    2    0    0 -0.88817841970E-15  0.35527136788E-14  0.35527136788E-14  0.91188000000E+02  0.91188000000E+02 0.  0.
    9900012    2    3    3    0    0 -0.49353965591E+01 -0.30134476859E+02  0.20575108839E+02  0.54367082867E+02  0.39999997012E+02 0.  0.
        -12    1    3    3    0    0  0.49353965591E+01  0.30134476859E+02 -0.20575108839E+02  0.36820917133E+02  0.00000000000E+00 0.  1.
         11    1    4    4    0    0 -0.17164313227E+02 -0.10900021394E+02  0.16178839779E+02  0.25984206199E+02  0.51100000000E-03 0. -1.
        -11    1    4    4    0    0  0.51510868008E+01 -0.46996565089E+00 -0.41020498176E+01  0.66016191885E+01  0.51100000000E-03 0.  1.
         12    1    4    4    0    0  0.70778298674E+01 -0.18764489815E+02  0.84983188770E+01  0.21781257479E+02  0.00000000000E+00 0. -1.
</event>
<event>
 8    1  0.1265908E-006  0.9118800E+02  0.7816164E-02  0.1184000E+00
        -11   -1    0    0    0    0  0.00000000000E+00  0.00000000000E+00  0.45593999997E+02  0.45594000000E+02  0.51100000000E-03 0. -1.
         11   -1    0    0    0    0 -0.00000000000E+00 -0.00000000000E+00 -0.45593999997E+02  0.45594000000E+02  0.51100000000E-03 0.  1.
         23    2    1    2    0    0  0.00000000000E+00 -0.49960036108E-15  0.00000000000E+00  0.91188000000E+02  0.91188000000E+02 0.  0.
    9900012    2    3    3    0    0 -0.10080775860E+02  0.31325961135E+00  0.35412778482E+02  0.54367013412E+02  0.39999838675E+02 0.  0.
        -12    1    3    3    0    0  0.10080775860E+02 -0.31325961135E+00 -0.35412778482E+02  0.36820986588E+02  0.00000000000E+00 0.  1.
         11    1    4    4    0    0 -0.16442016256E+02 -0.10011355847E+02  0.14215693125E+02  0.23930170826E+02  0.51100000000E-03 0. -1.
        -11    1    4    4    0    0  0.10239873024E+02 -0.58843412939E+00  0.10235025198E+02  0.14489892869E+02  0.51100000000E-03 0.  1.
        -12    1    4    4    0    0 -0.38786326282E+01  0.10913049588E+02  0.10962060159E+02  0.15946949717E+02  0.00000000000E+00 0.  1.
</event>
<event>
 8    1  0.1265908E-006  0.9118800E+02  0.7816164E-02  0.1184000E+00
        -11   -1    0    0    0    0  0.00000000000E+00  0.00000000000E+00  0.45593999997E+02  0.45594000000E+02  0.51100000000E-03 0. -1.
         11   -1    0    0    0    0 -0.00000000000E+00 -0.00000000000E+00 -0.45593999997E+02  0.45594000000E+02  0.51100000000E-03 0.  1.
         23    2    1    2    0    0  0.00000000000E+00  0.00000000000E+00  0.00000000000E+00  0.91188000000E+02  0.91188000000E+02 0.  0.
    9900012    2    3    3    0    0 -0.23466352574E+02  0.11460263845E+02  0.25957104994E+02  0.54367100361E+02  0.40000036893E+02 0.  0.
        -12    1    3    3    0    0  0.23466352574E+02 -0.11460263845E+02 -0.25957104994E+02  0.36820899639E+02  0.00000000000E+00 0.  1.
         11    1    4    4    0    0  0.20289347844E+01  0.85032515273E+01  0.15765618037E+02  0.18027106680E+02  0.51100000000E-03 0. -1.
        -11    1    4    4    0    0 -0.10181347906E+00 -0.70834088022E+01  0.46587406915E+01  0.84787328850E+01  0.51100000000E-03 0.  1.
         12    1    4    4    0    0 -0.25393473880E+02  0.10040421120E+02  0.55327462661E+01  0.27861260797E+02  0.00000000000E+00 0. -1.
</event>
<event>
 8    1  0.1265908E-006  0.9118800E+02  0.7816164E-02  0.1184000E+00
        -11   -1    0    0    0    0  0.00000000000E+00  0.00000000000E+00  0.45593999997E+02  0.45594000000E+02  0.51100000000E-03 0.  1.
         11   -1    0    0    0    0 -0.00000000000E+00 -0.00000000000E+00 -0.45593999997E+02  0.45594000000E+02  0.51100000000E-03 0. -1.
         23    2    1    2    0    0  0.35527136788E-14 -0.17763568394E-14 -0.35527136788E-14  0.91188000000E+02  0.91188000000E+02 0.  0.
    9900012    2    3    3    0    0  0.27400217694E+02 -0.12755001402E+02 -0.21031365318E+02  0.54367077719E+02  0.39999985277E+02 0.  0.
        -12    1    3    3    0    0 -0.27400217694E+02  0.12755001402E+02  0.21031365318E+02  0.36820922281E+02  0.00000000000E+00 0.  1.
         11    1    4    4    0    0  0.18119654269E+02 -0.10304077541E+01 -0.21734492524E+02  0.28315574804E+02  0.51100000000E-03 0. -1.
        -11    1    4    4    0    0  0.56274520907E+01 -0.53574277577E+00  0.97065791863E+01  0.11232671860E+02  0.51100000000E-03 0.  1.
        -12    1    4    4    0    0  0.36531113348E+01 -0.11188850872E+02 -0.90034519802E+01  0.14818831055E+02  0.00000000000E+00 0.  1.
</event>
<event>
 8    1  0.1265908E-006  0.9118800E+02  0.7816164E-02  0.1184000E+00
        -11   -1    0    0    0    0  0.00000000000E+00  0.00000000000E+00  0.45593999997E+02  0.45594000000E+02  0.51100000000E-03 0. -1.
         11   -1    0    0    0    0 -0.00000000000E+00 -0.00000000000E+00 -0.45593999997E+02  0.45594000000E+02  0.51100000000E-03 0.  1.
         23    2    1    2    0    0  0.00000000000E+00  0.00000000000E+00  0.35527136788E-14  0.91188000000E+02  0.91188000000E+02 0.  0.
    9900012    2    3    3    0    0 -0.17203756965E+02 -0.82599129023E+01 -0.31489422400E+02  0.54367093738E+02  0.40000021794E+02 0.  0.
         12    1    3    3    0    0  0.17203756965E+02  0.82599129023E+01  0.31489422400E+02  0.36820906262E+02  0.00000000000E+00 0. -1.
         11    1    4    4    0    0 -0.48052548475E+01 -0.18321170046E+02 -0.23927667913E+01  0.19091387566E+02  0.51100000000E-03 0. -1.
        -11    1    4    4    0    0 -0.35105745325E+01  0.99662242803E+01 -0.19610543131E+02  0.22276067025E+02  0.51100000000E-03 0.  1.
         12    1    4    4    0    0 -0.88879275853E+01  0.95032863419E-01 -0.94861124779E+01  0.12999639147E+02  0.00000000000E+00 0. -1.
</event>
<event>
 8    1  0.1265908E-006  0.9118800E+02  0.7816164E-02  0.1184000E+00
        -11   -1    0    0    0    0  0.00000000000E+00  0.00000000000E+00  0.45593999997E+02  0.45594000000E+02  0.51100000000E-03 0. -1.
         11   -1    0    0    0    0 -0.00000000000E+00 -0.00000000000E+00 -0.45593999997E+02  0.45594000000E+02  0.51100000000E-03 0.  1.
         23    2    1    2    0    0  0.00000000000E+00 -0.17763568394E-14 -0.71054273576E-14  0.91188000000E+02  0.91188000000E+02 0.  0.
    9900012    2    3    3    0    0 -0.28177813009E+02 -0.14134854007E+02 -0.19026191514E+02  0.54367092796E+02  0.40000019648E+02 0.  0.
         12    1    3    3    0    0  0.28177813009E+02  0.14134854007E+02  0.19026191514E+02  0.36820907204E+02  0.00000000000E+00 0. -1.
         11    1    4    4    0    0  0.55407903250E+00 -0.66368047098E+01 -0.64951655708E+01  0.93027606862E+01  0.51100000000E-03 0.  1.
        -11    1    4    4    0    0 -0.26807272287E+02 -0.14150019327E+02 -0.18845160043E+02  0.35693037861E+02  0.51100000000E-03 0. -1.
         12    1    4    4    0    0 -0.19246197545E+01  0.66519700296E+01  0.63141341002E+01  0.93712942495E+01  0.00000000000E+00 0. -1.
</event>
<event>
 8    1  0.1265908E-006  0.9118800E+02  0.7816164E-02  0.1184000E+00
        -11   -1    0    0    0    0  0.00000000000E+00  0.00000000000E+00  0.45593999997E+02  0.45594000000E+02  0.51100000000E-03 0.  1.
         11   -1    0    0    0    0 -0.00000000000E+00 -0.00000000000E+00 -0.45593999997E+02  0.45594000000E+02  0.51100000000E-03 0. -1.
         23    2    1    2    0    0  0.00000000000E+00 -0.88817841970E-15  0.00000000000E+00  0.91188000000E+02  0.91188000000E+02 0.  0.
    9900012    2    3    3    0    0  0.34942393389E+02 -0.47406428279E+01 -0.10598795069E+02  0.54367095515E+02  0.40000025844E+02 0.  0.
        -12    1    3    3    0    0 -0.34942393389E+02  0.47406428279E+01  0.10598795069E+02  0.36820904485E+02  0.00000000000E+00 0.  1.
         11    1    4    4    0    0  0.18608180035E+02 -0.41445577741E+01 -0.87618593152E+00  0.19084271676E+02  0.51100000000E-03 0. -1.
        -11    1    4    4    0    0  0.19166698186E+02 -0.73553351923E+01 -0.15684484432E+02  0.25835369696E+02  0.51100000000E-03 0.  1.
        -12    1    4    4    0    0 -0.28324848315E+01  0.67592501385E+01  0.59618752944E+01  0.94474541429E+01  0.00000000000E+00 0.  1.
</event>
<event>
 8    1  0.1265908E-006  0.9118800E+02  0.7816164E-02  0.1184000E+00
        -11   -1    0    0    0    0  0.00000000000E+00  0.00000000000E+00  0.45593999997E+02  0.45594000000E+02  0.51100000000E-03 0.  1.
         11   -1    0    0    0    0 -0.00000000000E+00 -0.00000000000E+00 -0.45593999997E+02  0.45594000000E+02  0.51100000000E-03 0. -1.
         23    2    1    2    0    0  0.55511151231E-16  0.17763568394E-14  0.00000000000E+00  0.91188000000E+02  0.91188000000E+02 0.  0.
    9900012    2    3    3    0    0 -0.25701051010E+00  0.14698119437E+02 -0.33759090880E+02  0.54367122954E+02  0.40000088397E+02 0.  0.
        -12    1    3    3    0    0  0.25701051010E+00 -0.14698119437E+02  0.33759090880E+02  0.36820877046E+02  0.00000000000E+00 0.  1.
         11    1    4    4    0    0  0.75014095758E+01 -0.38606323153E+01 -0.13193338033E+02  0.15660133978E+02  0.51100000000E-03 0. -1.
        -11    1    4    4    0    0 -0.17329041649E+02  0.10384918463E+02 -0.12420433143E+02  0.23715171846E+02  0.51100000000E-03 0.  1.
         12    1    4    4    0    0  0.95706215635E+01  0.81738332897E+01 -0.81453197042E+01  0.14991817129E+02  0.00000000000E+00 0. -1.
</event>
<event>
 8    1  0.1265908E-006  0.9118800E+02  0.7816164E-02  0.1184000E+00
        -11   -1    0    0    0    0  0.00000000000E+00  0.00000000000E+00  0.45593999997E+02  0.45594000000E+02  0.51100000000E-03 0. -1.
         11   -1    0    0    0    0 -0.00000000000E+00 -0.00000000000E+00 -0.45593999997E+02  0.45594000000E+02  0.51100000000E-03 0.  1.
         23    2    1    2    0    0  0.00000000000E+00 -0.35527136788E-14  0.17763568394E-14  0.91188000000E+02  0.91188000000E+02 0.  0.
    9900012    2    3    3    0    0 -0.30543422157E+02 -0.18734236255E+02  0.84798492076E+01  0.54367080841E+02  0.39999992393E+02 0.  0.
        -12    1    3    3    0    0  0.30543422157E+02  0.18734236255E+02 -0.84798492076E+01  0.36820919159E+02  0.00000000000E+00 0.  1.
         11    1    4    4    0    0 -0.85542947298E+01  0.19774484275E+01  0.38758689953E+01  0.95973236549E+01  0.51100000000E-03 0. -1.
        -11    1    4    4    0    0 -0.99505736356E+01 -0.55091493279E+01 -0.13903852683E+02  0.17963344947E+02  0.51100000000E-03 0.  1.
         12    1    4    4    0    0 -0.12038553792E+02 -0.15202535355E+02  0.18507832896E+02  0.26806412239E+02  0.00000000000E+00 0. -1.
</event>
<event>
 8    1  0.1265908E-006  0.9118800E+02  0.7816164E-02  0.1184000E+00
        -11   -1    0    0    0    0  0.00000000000E+00  0.00000000000E+00  0.45593999997E+02  0.45594000000E+02  0.51100000000E-03 0. -1.
         11   -1    0    0    0    0 -0.00000000000E+00 -0.00000000000E+00 -0.45593999997E+02  0.45594000000E+02  0.51100000000E-03 0.  1.
         23    2    1    2    0    0 -0.35527136788E-14  0.35527136788E-14 -0.35527136788E-14  0.91188000000E+02  0.91188000000E+02 0.  0.
    9900012    2    3    3    0    0 -0.20956875297E+02  0.16435432955E+02 -0.25425684746E+02  0.54367088503E+02  0.40000009860E+02 0.  0.
         12    1    3    3    0    0  0.20956875297E+02 -0.16435432955E+02  0.25425684746E+02  0.36820911497E+02  0.00000000000E+00 0. -1.
         11    1    4    4    0    0 -0.10652344910E+02  0.82571465096E+01 -0.61645219411E+01  0.14820737214E+02  0.51100000000E-03 0. -1.
        -11    1    4    4    0    0 -0.17369429269E+02  0.15651809638E+02 -0.17278470755E+02  0.29072698016E+02  0.51100000000E-03 0.  1.
         12    1    4    4    0    0  0.70648988811E+01 -0.74735231919E+01 -0.19826920497E+01  0.10473653272E+02  0.00000000000E+00 0. -1.
</event>
<event>
 8    1  0.1265908E-006  0.9118800E+02  0.7816164E-02  0.1184000E+00
        -11   -1    0    0    0    0  0.00000000000E+00  0.00000000000E+00  0.45593999997E+02  0.45594000000E+02  0.51100000000E-03 0.  1.
         11   -1    0    0    0    0 -0.00000000000E+00 -0.00000000000E+00 -0.45593999997E+02  0.45594000000E+02  0.51100000000E-03 0. -1.
         23    2    1    2    0    0 -0.71054273576E-14  0.88817841970E-15  0.88817841970E-15  0.91188000000E+02  0.91188000000E+02 0.  0.
    9900012    2    3    3    0    0 -0.36348843628E+02  0.53280267789E+01  0.24807246745E+01  0.54367077994E+02  0.39999985904E+02 0.  0.
         12    1    3    3    0    0  0.36348843628E+02 -0.53280267789E+01 -0.24807246745E+01  0.36820922006E+02  0.00000000000E+00 0. -1.
         11    1    4    4    0    0  0.68126576199E+01  0.29449216761E+01  0.17441205888E+01  0.76240949898E+01  0.51100000000E-03 0.  1.
        -11    1    4    4    0    0 -0.99917494822E+00 -0.11131249639E+01 -0.39053930380E+01  0.41820440941E+01  0.51100000000E-03 0. -1.
        -12    1    4    4    0    0 -0.42162326299E+02  0.34962300667E+01  0.46419971237E+01  0.42560938911E+02  0.00000000000E+00 0.  1.
</event>
<event>
 8    1  0.1265908E-006  0.9118800E+02  0.7816164E-02  0.1184000E+00
        -11   -1    0    0    0    0  0.00000000000E+00  0.00000000000E+00  0.45593999997E+02  0.45594000000E+02  0.51100000000E-03 0.  1.
         11   -1    0    0    0    0 -0.00000000000E+00 -0.00000000000E+00 -0.45593999997E+02  0.45594000000E+02  0.51100000000E-03 0. -1.
         23    2    1    2    0    0  0.00000000000E+00  0.00000000000E+00  0.00000000000E+00  0.91188000000E+02  0.91188000000E+02 0.  0.
    9900012    2    3    3    0    0 -0.89533125891E+01 -0.21858292728E+02 -0.28246017567E+02  0.54367023972E+02  0.39999862748E+02 0.  0.
        -12    1    3    3    0    0  0.89533125891E+01  0.21858292728E+02  0.28246017567E+02  0.36820976028E+02  0.00000000000E+00 0.  1.
         11    1    4    4    0    0 -0.11463256273E+02 -0.22722560330E+02 -0.29845382752E+02  0.39223307665E+02  0.51100000000E-03 0. -1.
        -11    1    4    4    0    0  0.65752753175E+01 -0.44421647179E+01 -0.94482529382E+00  0.79912306924E+01  0.51100000000E-03 0.  1.
         12    1    4    4    0    0 -0.40653316339E+01  0.53064323206E+01  0.25441904785E+01  0.71524856140E+01  0.00000000000E+00 0. -1.
</event>
<event>
 8    1  0.1265908E-006  0.9118800E+02  0.7816164E-02  0.1184000E+00
        -11   -1    0    0    0    0  0.00000000000E+00  0.00000000000E+00  0.45593999997E+02  0.45594000000E+02  0.51100000000E-03 0. -1.
         11   -1    0    0    0    0 -0.00000000000E+00 -0.00000000000E+00 -0.45593999997E+02  0.45594000000E+02  0.51100000000E-03 0.  1.
         23    2    1    2    0    0  0.44408920985E-15  0.00000000000E+00  0.00000000000E+00  0.91188000000E+02  0.91188000000E+02 0.  0.
    9900012    2    3    3    0    0  0.21777734631E+01  0.17178782717E+02 -0.32495033358E+02  0.54367075706E+02  0.39999980688E+02 0.  0.
         12    1    3    3    0    0 -0.21777734631E+01 -0.17178782717E+02  0.32495033358E+02  0.36820924294E+02  0.00000000000E+00 0. -1.
         11    1    4    4    0    0  0.10278814139E+02  0.44766039875E+01 -0.78256440266E+01  0.13672406813E+02  0.51100000000E-03 0. -1.
        -11    1    4    4    0    0  0.58223220617E+01  0.15228525624E+02 -0.19978799468E+02  0.25786815533E+02  0.51100000000E-03 0.  1.
        -12    1    4    4    0    0 -0.13923362738E+02 -0.25263468939E+01 -0.46905898634E+01  0.14907853361E+02  0.00000000000E+00 0.  1.
</event>
<event>
 8    1  0.1265908E-006  0.9118800E+02  0.7816164E-02  0.1184000E+00
        -11   -1    0    0    0    0  0.00000000000E+00  0.00000000000E+00  0.45593999997E+02  0.45594000000E+02  0.51100000000E-03 0. -1.
         11   -1    0    0    0    0 -0.00000000000E+00 -0.00000000000E+00 -0.45593999997E+02  0.45594000000E+02  0.51100000000E-03 0.  1.
         23    2    1    2    0    0  0.00000000000E+00  0.00000000000E+00 -0.55511151231E-16  0.91188000000E+02  0.91188000000E+02 0.  0.
    9900012    2    3    3    0    0  0.97142862011E+01  0.35514581620E+02  0.35410948977E+00  0.54367105693E+02  0.40000049049E+02 0.  0.
        -12    1    3    3    0    0 -0.97142862011E+01 -0.35514581620E+02 -0.35410948977E+00  0.36820894307E+02  0.00000000000E+00 0.  1.
         11    1    4    4    0    0  0.42687677377E+01  0.23547139600E+02 -0.34086582385E+01  0.24172486686E+02  0.51100000000E-03 0.  1.
        -11    1    4    4    0    0 -0.21629385188E+01 -0.74536614799E+01  0.51108799284E+01  0.92928180009E+01  0.51100000000E-03 0. -1.
        -12    1    4    4    0    0  0.76084569822E+01  0.19421103500E+02 -0.13481122001E+01  0.20901801007E+02  0.00000000000E+00 0.  1.
</event>
<event>
 8    1  0.1265908E-006  0.9118800E+02  0.7816164E-02  0.1184000E+00
        -11   -1    0    0    0    0  0.00000000000E+00  0.00000000000E+00  0.45593999997E+02  0.45594000000E+02  0.51100000000E-03 0.  1.
         11   -1    0    0    0    0 -0.00000000000E+00 -0.00000000000E+00 -0.45593999997E+02  0.45594000000E+02  0.51100000000E-03 0. -1.
         23    2    1    2    0    0  0.17763568394E-14  0.00000000000E+00  0.00000000000E+00  0.91188000000E+02  0.91188000000E+02 0.  0.
    9900012    2    3    3    0    0 -0.58990533332E+01  0.17047905327E+02  0.32099088949E+02  0.54367062782E+02  0.39999951224E+02 0.  0.
         12    1    3    3    0    0  0.58990533332E+01 -0.17047905327E+02 -0.32099088949E+02  0.36820937218E+02  0.00000000000E+00 0. -1.
         11    1    4    4    0    0  0.19760024260E+01  0.67921786898E+01 -0.42109998751E+00  0.70862968046E+01  0.51100000000E-03 0. -1.
        -11    1    4    4    0    0  0.10614639160E+02  0.10305085780E+02  0.20295373790E+02  0.25115086202E+02  0.51100000000E-03 0.  1.
         12    1    4    4    0    0 -0.18489694919E+02 -0.49359142640E-01  0.12224815146E+02  0.22165679775E+02  0.00000000000E+00 0. -1.
</event>
<event>
 8    1  0.1265908E-006  0.9118800E+02  0.7816164E-02  0.1184000E+00
        -11   -1    0    0    0    0  0.00000000000E+00  0.00000000000E+00  0.45593999997E+02  0.45594000000E+02  0.51100000000E-03 0.  1.
         11   -1    0    0    0    0 -0.00000000000E+00 -0.00000000000E+00 -0.45593999997E+02  0.45594000000E+02  0.51100000000E-03 0. -1.
         23    2    1    2    0    0  0.00000000000E+00 -0.35527136788E-14  0.35527136788E-14  0.91188000000E+02  0.91188000000E+02 0.  0.
    9900012    2    3    3    0    0 -0.26462387651E+02 -0.20627344475E+02  0.15166798071E+02  0.54367121901E+02  0.40000085997E+02 0.  0.
         12    1    3    3    0    0  0.26462387651E+02  0.20627344475E+02 -0.15166798071E+02  0.36820878099E+02  0.00000000000E+00 0. -1.
         11    1    4    4    0    0  0.13366345249E+01  0.94298970718E-01  0.12390862456E+02  0.12463103819E+02  0.51100000000E-03 0. -1.
        -11    1    4    4    0    0  0.22251388812E+01 -0.19606497390E+01  0.56528455761E+01  0.63835768820E+01  0.51100000000E-03 0.  1.
         12    1    4    4    0    0 -0.30024161057E+02 -0.18760993707E+02 -0.28769099614E+01  0.35520441199E+02  0.00000000000E+00 0. -1.
</event>
<event>
 8    1  0.1265908E-006  0.9118800E+02  0.7816164E-02  0.1184000E+00
        -11   -1    0    0    0    0  0.00000000000E+00  0.00000000000E+00  0.45593999997E+02  0.45594000000E+02  0.51100000000E-03 0. -1.
         11   -1    0    0    0    0 -0.00000000000E+00 -0.00000000000E+00 -0.45593999997E+02  0.45594000000E+02  0.51100000000E-03 0.  1.
         23    2    1    2    0    0 -0.17763568394E-14  0.00000000000E+00 -0.35527136788E-14  0.91188000000E+02  0.91188000000E+02 0.  0.
    9900012    2    3    3    0    0  0.12892396643E+02 -0.30080824431E+02 -0.16873375574E+02  0.54367072623E+02  0.39999973658E+02 0.  0.
         12    1    3    3    0    0 -0.12892396643E+02  0.30080824431E+02  0.16873375574E+02  0.36820927377E+02  0.00000000000E+00 0. -1.
         11    1    4    4    0    0 -0.24600581027E+01 -0.82529230521E+01  0.77843439323E+01  0.11608558717E+02  0.51100000000E-03 0. -1.
        -11    1    4    4    0    0  0.18071196267E+01 -0.12742244633E+02  0.38174100479E+00  0.12875410909E+02  0.51100000000E-03 0.  1.
        -12    1    4    4    0    0  0.13545335119E+02 -0.90856567462E+01 -0.25039460511E+02  0.29883102996E+02  0.00000000000E+00 0.  1.
</event>
<event>
 8    1  0.1265908E-006  0.9118800E+02  0.7816164E-02  0.1184000E+00
        -11   -1    0    0    0    0  0.00000000000E+00  0.00000000000E+00  0.45593999997E+02  0.45594000000E+02  0.51100000000E-03 0.  1.
         11   -1    0    0    0    0 -0.00000000000E+00 -0.00000000000E+00 -0.45593999997E+02  0.45594000000E+02  0.51100000000E-03 0. -1.
         23    2    1    2    0    0  0.35527136788E-14 -0.88817841970E-15  0.35527136788E-14  0.91188000000E+02  0.91188000000E+02 0.  0.
    9900012    2    3    3    0    0  0.21584114661E+02 -0.28446378185E+01  0.29695463682E+02  0.54366993315E+02  0.39999792860E+02 0.  0.
         12    1    3    3    0    0 -0.21584114661E+02  0.28446378185E+01 -0.29695463682E+02  0.36821006685E+02  0.00000000000E+00 0. -1.
         11    1    4    4    0    0  0.35572553974E+01  0.45141053320E+01  0.21326489593E+02  0.22087335094E+02  0.51100000000E-03 0. -1.
        -11    1    4    4    0    0 -0.40014854283E+01 -0.67986093316E+01  0.63963114910E+01  0.10156070866E+02  0.51100000000E-03 0.  1.
         12    1    4    4    0    0  0.22028344692E+02 -0.56013381886E+00  0.19726625979E+01  0.22123587356E+02  0.00000000000E+00 0. -1.
</event>
<event>
 8    1  0.1265908E-006  0.9118800E+02  0.7816164E-02  0.1184000E+00
        -11   -1    0    0    0    0  0.00000000000E+00  0.00000000000E+00  0.45593999997E+02  0.45594000000E+02  0.51100000000E-03 0. -1.
         11   -1    0    0    0    0 -0.00000000000E+00 -0.00000000000E+00 -0.45593999997E+02  0.45594000000E+02  0.51100000000E-03 0.  1.
         23    2    1    2    0    0  0.00000000000E+00  0.00000000000E+00  0.35527136788E-14  0.91188000000E+02  0.91188000000E+02 0.  0.
    9900012    2    3    3    0    0  0.11833067089E+02  0.19073059471E+02 -0.29188665739E+02  0.54367064625E+02  0.39999955425E+02 0.  0.
         12    1    3    3    0    0 -0.11833067089E+02 -0.19073059471E+02  0.29188665739E+02  0.36820935375E+02  0.00000000000E+00 0. -1.
         11    1    4    4    0    0  0.18463233444E+02  0.13942419904E+02 -0.78384859754E+01  0.24427933287E+02  0.51100000000E-03 0. -1.
        -11    1    4    4    0    0 -0.77221058475E+01  0.11799833451E+02 -0.12837571683E+02  0.19070139883E+02  0.51100000000E-03 0.  1.
         12    1    4    4    0    0  0.10919394919E+01 -0.66691938845E+01 -0.85126080805E+01  0.10868991455E+02  0.00000000000E+00 0. -1.
</event>
<event>
 8    1  0.1265908E-006  0.9118800E+02  0.7816164E-02  0.1184000E+00
        -11   -1    0    0    0    0  0.00000000000E+00  0.00000000000E+00  0.45593999997E+02  0.45594000000E+02  0.51100000000E-03 0. -1.
         11   -1    0    0    0    0 -0.00000000000E+00 -0.00000000000E+00 -0.45593999997E+02  0.45594000000E+02  0.51100000000E-03 0.  1.
         23    2    1    2    0    0  0.00000000000E+00  0.88817841970E-15  0.35527136788E-14  0.91188000000E+02  0.91188000000E+02 0.  0.
    9900012    2    3    3    0    0 -0.29104143058E+02 -0.33768606538E+01  0.22300785782E+02  0.54367090485E+02  0.40000014378E+02 0.  0.
        -12    1    3    3    0    0  0.29104143058E+02  0.33768606538E+01 -0.22300785782E+02  0.36820909515E+02  0.00000000000E+00 0.  1.
         11    1    4    4    0    0 -0.20769469349E+02 -0.11260107010E+02  0.13067549733E+01  0.23661540012E+02  0.51100000000E-03 0.  1.
        -11    1    4    4    0    0 -0.49803044290E+01  0.34171529144E+01 -0.25146333155E+01  0.65424572768E+01  0.51100000000E-03 0. -1.
         12    1    4    4    0    0 -0.33543692802E+01  0.44660934414E+01  0.23508664124E+02  0.24163093196E+02  0.00000000000E+00 0. -1.
</event>
<event>
 8    1  0.1265908E-006  0.9118800E+02  0.7816164E-02  0.1184000E+00
        -11   -1    0    0    0    0  0.00000000000E+00  0.00000000000E+00  0.45593999997E+02  0.45594000000E+02  0.51100000000E-03 0.  1.
         11   -1    0    0    0    0 -0.00000000000E+00 -0.00000000000E+00 -0.45593999997E+02  0.45594000000E+02  0.51100000000E-03 0. -1.
         23    2    1    2    0    0  0.17763568394E-14  0.17763568394E-14  0.00000000000E+00  0.91188000000E+02  0.91188000000E+02 0.  0.
    9900012    2    3    3    0    0 -0.77907647541E+01 -0.50055278284E+01 -0.35637448590E+02  0.54367094711E+02  0.40000024013E+02 0.  0.
        -12    1    3    3    0    0  0.77907647541E+01  0.50055278284E+01  0.35637448590E+02  0.36820905289E+02  0.00000000000E+00 0.  1.
         11    1    4    4    0    0 -0.12600620878E+02  0.57654815400E+01 -0.26481450710E+02  0.29887851309E+02  0.51100000000E-03 0. -1.
        -11    1    4    4    0    0 -0.43113318072E+01  0.52136568133E+00 -0.89656148770E+01  0.99620105656E+01  0.51100000000E-03 0.  1.
        -12    1    4    4    0    0  0.91211879314E+01 -0.11292375050E+02 -0.19038300317E+00  0.14517232837E+02  0.00000000000E+00 0.  1.
</event>
<event>
 8    1  0.1265908E-006  0.9118800E+02  0.7816164E-02  0.1184000E+00
        -11   -1    0    0    0    0  0.00000000000E+00  0.00000000000E+00  0.45593999997E+02  0.45594000000E+02  0.51100000000E-03 0. -1.
         11   -1    0    0    0    0 -0.00000000000E+00 -0.00000000000E+00 -0.45593999997E+02  0.45594000000E+02  0.51100000000E-03 0.  1.
         23    2    1    2    0    0 -0.17763568394E-14  0.00000000000E+00  0.35527136788E-14  0.91188000000E+02  0.91188000000E+02 0.  0.
    9900012    2    3    3    0    0 -0.12565246735E+02 -0.22368689579E+02 -0.26410904235E+02  0.54367087986E+02  0.40000008683E+02 0.  0.
         12    1    3    3    0    0  0.12565246735E+02  0.22368689579E+02  0.26410904235E+02  0.36820912014E+02  0.00000000000E+00 0. -1.
         11    1    4    4    0    0 -0.14814828662E+02 -0.70587528486E+00 -0.55888495535E+01  0.15849689202E+02  0.51100000000E-03 0. -1.
        -11    1    4    4    0    0  0.10709468073E+02 -0.18994903841E+02 -0.86567250515E+01  0.23461414433E+02  0.51100000000E-03 0.  1.
         12    1    4    4    0    0 -0.84598861453E+01 -0.26679104537E+01 -0.12165329630E+02  0.15055984351E+02  0.00000000000E+00 0. -1.
</event>
<event>
 8    1  0.1265908E-006  0.9118800E+02  0.7816164E-02  0.1184000E+00
        -11   -1    0    0    0    0  0.00000000000E+00  0.00000000000E+00  0.45593999997E+02  0.45594000000E+02  0.51100000000E-03 0.  1.
         11   -1    0    0    0    0 -0.00000000000E+00 -0.00000000000E+00 -0.45593999997E+02  0.45594000000E+02  0.51100000000E-03 0. -1.
         23    2    1    2    0    0 -0.35527136788E-14  0.00000000000E+00  0.00000000000E+00  0.91188000000E+02  0.91188000000E+02 0.  0.
    9900012    2    3    3    0    0  0.27774736428E+02  0.22237283368E+02 -0.94787742756E+01  0.54367083159E+02  0.39999997678E+02 0.  0.
         12    1    3    3    0    0 -0.27774736428E+02 -0.22237283368E+02  0.94787742756E+01  0.36820916841E+02  0.00000000000E+00 0. -1.
         11    1    4    4    0    0 -0.84255855354E+01  0.93757767277E+00 -0.64504092589E+01  0.10652573556E+02  0.51100000000E-03 0. -1.
        -11    1    4    4    0    0  0.45974699708E+01  0.79104576489E+01 -0.20610472576E+01  0.93786985455E+01  0.51100000000E-03 0.  1.
         12    1    4    4    0    0  0.31602851993E+02  0.13389248046E+02 -0.96731775909E+00  0.34335811057E+02  0.00000000000E+00 0. -1.
</event>
<event>
 8    1  0.1265908E-006  0.9118800E+02  0.7816164E-02  0.1184000E+00
        -11   -1    0    0    0    0  0.00000000000E+00  0.00000000000E+00  0.45593999997E+02  0.45594000000E+02  0.51100000000E-03 0.  1.
         11   -1    0    0    0    0 -0.00000000000E+00 -0.00000000000E+00 -0.45593999997E+02  0.45594000000E+02  0.51100000000E-03 0. -1.
         23    2    1    2    0    0  0.88817841970E-15  0.00000000000E+00  0.35527136788E-14  0.91188000000E+02  0.91188000000E+02 0.  0.
    9900012    2    3    3    0    0 -0.20575610520E+01  0.30396936572E+02 -0.20677808019E+02  0.54367094866E+02  0.40000024366E+02 0.  0.
        -12    1    3    3    0    0  0.20575610520E+01 -0.30396936572E+02  0.20677808019E+02  0.36820905134E+02  0.00000000000E+00 0.  1.
         11    1    4    4    0    0 -0.53675963607E+01  0.11436799702E+02  0.38256393157E+01  0.13200264942E+02  0.51100000000E-03 0. -1.
        -11    1    4    4    0    0  0.11240882882E+02  0.18175639223E+01 -0.16304029037E+01  0.11503008322E+02  0.51100000000E-03 0.  1.
        -12    1    4    4    0    0 -0.79308475731E+01  0.17142572948E+02 -0.22873044431E+02  0.29663821602E+02  0.00000000000E+00 0.  1.
</event>
<event>
 8    1  0.1265908E-006  0.9118800E+02  0.7816164E-02  0.1184000E+00
        -11   -1    0    0    0    0  0.00000000000E+00  0.00000000000E+00  0.45593999997E+02  0.45594000000E+02  0.51100000000E-03 0. -1.
         11   -1    0    0    0    0 -0.00000000000E+00 -0.00000000000E+00 -0.45593999997E+02  0.45594000000E+02  0.51100000000E-03 0.  1.
         23    2    1    2    0    0  0.00000000000E+00 -0.17763568394E-14  0.00000000000E+00  0.91188000000E+02  0.91188000000E+02 0.  0.
    9900012    2    3    3    0    0  0.12960814520E+02  0.86104357808E+01  0.33371525695E+02  0.54367067847E+02  0.39999962771E+02 0.  0.
        -12    1    3    3    0    0 -0.12960814520E+02 -0.86104357808E+01 -0.33371525695E+02  0.36820932153E+02  0.00000000000E+00 0.  1.
         11    1    4    4    0    0  0.74706074651E+01 -0.68310969055E+00  0.16893714865E+02  0.18484431745E+02  0.51100000000E-03 0. -1.
        -11    1    4    4    0    0 -0.61587179051E+01 -0.69653776807E+01  0.12352123100E+02  0.15460311699E+02  0.51100000000E-03 0.  1.
        -12    1    4    4    0    0  0.11648924960E+02  0.16258923152E+02  0.41256877304E+01  0.20422324404E+02  0.00000000000E+00 0.  1.
</event>
<event>
 8    1  0.1265908E-006  0.9118800E+02  0.7816164E-02  0.1184000E+00
        -11   -1    0    0    0    0  0.00000000000E+00  0.00000000000E+00  0.45593999997E+02  0.45594000000E+02  0.51100000000E-03 0.  1.
         11   -1    0    0    0    0 -0.00000000000E+00 -0.00000000000E+00 -0.45593999997E+02  0.45594000000E+02  0.51100000000E-03 0. -1.
         23    2    1    2    0    0 -0.29143354396E-14 -0.35527136788E-14 -0.35527136788E-14  0.91188000000E+02  0.91188000000E+02 0.  0.
    9900012    2    3    3    0    0  0.77355257651E-01 -0.31826958775E+02 -0.18515341051E+02  0.54367093671E+02  0.40000021641E+02 0.  0.
        -12    1    3    3    0    0 -0.77355257651E-01  0.31826958775E+02  0.18515341051E+02  0.36820906329E+02  0.00000000000E+00 0.  1.
         11    1    4    4    0    0 -0.11418388030E+02 -0.12478301109E+02 -0.19773744657E+02  0.26020925460E+02  0.51100000000E-03 0. -1.
        -11    1    4    4    0    0  0.13448014783E+02 -0.67925926033E+01  0.34386064623E+01  0.15453557213E+02  0.51100000000E-03 0.  1.
        -12    1    4    4    0    0 -0.19522714950E+01 -0.12556065062E+02 -0.21802028558E+01  0.12892610997E+02  0.00000000000E+00 0.  1.
</event>
<event>
 8    1  0.1265908E-006  0.9118800E+02  0.7816164E-02  0.1184000E+00
        -11   -1    0    0    0    0  0.00000000000E+00  0.00000000000E+00  0.45593999997E+02  0.45594000000E+02  0.51100000000E-03 0. -1.
         11   -1    0    0    0    0 -0.00000000000E+00 -0.00000000000E+00 -0.45593999997E+02  0.45594000000E+02  0.51100000000E-03 0.  1.
         23    2    1    2    0    0  0.22204460493E-14  0.00000000000E+00  0.00000000000E+00  0.91188000000E+02  0.91188000000E+02 0.  0.
    9900012    2    3    3    0    0 -0.23543016409E+01  0.34967704695E+02 -0.11291405332E+02  0.54367096396E+02  0.40000027854E+02 0.  0.
         12    1    3    3    0    0  0.23543016409E+01 -0.34967704695E+02  0.11291405332E+02  0.36820903604E+02  0.00000000000E+00 0. -1.
         11    1    4    4    0    0 -0.17610289454E+01 -0.35252665592E+01 -0.65498738280E+00  0.39947135057E+01  0.51100000000E-03 0. -1.
        -11    1    4    4    0    0  0.13959200593E+02  0.23676171522E+02 -0.10668116402E+01  0.27505607909E+02  0.51100000000E-03 0.  1.
        -12    1    4    4    0    0 -0.14552473288E+02  0.14816799732E+02 -0.95696063089E+01  0.22866774981E+02  0.00000000000E+00 0.  1.
</event>
<event>
 8    1  0.1265908E-006  0.9118800E+02  0.7816164E-02  0.1184000E+00
        -11   -1    0    0    0    0  0.00000000000E+00  0.00000000000E+00  0.45593999997E+02  0.45594000000E+02  0.51100000000E-03 0. -1.
         11   -1    0    0    0    0 -0.00000000000E+00 -0.00000000000E+00 -0.45593999997E+02  0.45594000000E+02  0.51100000000E-03 0.  1.
         23    2    1    2    0    0  0.00000000000E+00 -0.17763568394E-14  0.00000000000E+00  0.91188000000E+02  0.91188000000E+02 0.  0.
    9900012    2    3    3    0    0  0.65860838520E+01 -0.14540519495E+02 -0.33180970687E+02  0.54367081714E+02  0.39999994384E+02 0.  0.
         12    1    3    3    0    0 -0.65860838520E+01  0.14540519495E+02  0.33180970687E+02  0.36820918286E+02  0.00000000000E+00 0. -1.
         11    1    4    4    0    0  0.24589329247E+01  0.80477884489E+01 -0.13267508767E+01  0.85190092262E+01  0.51100000000E-03 0. -1.
        -11    1    4    4    0    0 -0.97752020823E+00  0.14680142153E+01  0.28274315482E+01  0.33324136770E+01  0.51100000000E-03 0.  1.
        -12    1    4    4    0    0  0.51046711356E+01 -0.24056322159E+02 -0.34681651358E+02  0.42515658811E+02  0.00000000000E+00 0.  1.
</event>
<event>
 8    1  0.1265908E-006  0.9118800E+02  0.7816164E-02  0.1184000E+00
        -11   -1    0    0    0    0  0.00000000000E+00  0.00000000000E+00  0.45593999997E+02  0.45594000000E+02  0.51100000000E-03 0.  1.
         11   -1    0    0    0    0 -0.00000000000E+00 -0.00000000000E+00 -0.45593999997E+02  0.45594000000E+02  0.51100000000E-03 0. -1.
         23    2    1    2    0    0  0.00000000000E+00  0.00000000000E+00 -0.88817841970E-15  0.91188000000E+02  0.91188000000E+02 0.  0.
    9900012    2    3    3    0    0 -0.34238553449E+02 -0.12536184667E+02  0.51326394227E+01  0.54367103002E+02  0.40000042913E+02 0.  0.
        -12    1    3    3    0    0  0.34238553449E+02  0.12536184667E+02 -0.51326394227E+01  0.36820896998E+02  0.00000000000E+00 0.  1.
         11    1    4    4    0    0 -0.45829566440E+01 -0.95952134663E+01 -0.27419768355E+01  0.10981350112E+02  0.51100000000E-03 0. -1.
        -11    1    4    4    0    0 -0.19118560207E+02 -0.61011970486E+01  0.19074302577E+02  0.27687054175E+02  0.51100000000E-03 0.  1.
        -12    1    4    4    0    0 -0.10537036598E+02  0.31602258476E+01 -0.11199686319E+02  0.15698698714E+02  0.00000000000E+00 0.  1.
</event>
<event>
 8    1  0.1265908E-006  0.9118800E+02  0.7816164E-02  0.1184000E+00
        -11   -1    0    0    0    0  0.00000000000E+00  0.00000000000E+00  0.45593999997E+02  0.45594000000E+02  0.51100000000E-03 0. -1.
         11   -1    0    0    0    0 -0.00000000000E+00 -0.00000000000E+00 -0.45593999997E+02  0.45594000000E+02  0.51100000000E-03 0.  1.
         23    2    1    2    0    0  0.17763568394E-14  0.00000000000E+00  0.00000000000E+00  0.91188000000E+02  0.91188000000E+02 0.  0.
    9900012    2    3    3    0    0 -0.13617030726E+02  0.13128804364E+02 -0.31590995222E+02  0.54367081911E+02  0.39999994832E+02 0.  0.
         12    1    3    3    0    0  0.13617030726E+02 -0.13128804364E+02  0.31590995222E+02  0.36820918089E+02  0.00000000000E+00 0. -1.
         11    1    4    4    0    0 -0.67677081419E+01 -0.13257522941E+02 -0.95333751523E+01  0.17676227824E+02  0.51100000000E-03 0. -1.
        -11    1    4    4    0    0 -0.81257769650E+01  0.13230458100E+02 -0.82726136125E+01  0.17592879499E+02  0.51100000000E-03 0.  1.
         12    1    4    4    0    0  0.12764543810E+01  0.13155869205E+02 -0.13785006457E+02  0.19097974587E+02  0.00000000000E+00 0. -1.
</event>
<event>
 8    1  0.1265908E-006  0.9118800E+02  0.7816164E-02  0.1184000E+00
        -11   -1    0    0    0    0  0.00000000000E+00  0.00000000000E+00  0.45593999997E+02  0.45594000000E+02  0.51100000000E-03 0.  1.
         11   -1    0    0    0    0 -0.00000000000E+00 -0.00000000000E+00 -0.45593999997E+02  0.45594000000E+02  0.51100000000E-03 0. -1.
         23    2    1    2    0    0 -0.35527136788E-14  0.35527136788E-14 -0.35527136788E-14  0.91188000000E+02  0.91188000000E+02 0.  0.
    9900012    2    3    3    0    0  0.11732628055E+02  0.29782686504E+02  0.18196611179E+02  0.54367086990E+02  0.40000006411E+02 0.  0.
         12    1    3    3    0    0 -0.11732628055E+02 -0.29782686504E+02 -0.18196611179E+02  0.36820913010E+02  0.00000000000E+00 0. -1.
         11    1    4    4    0    0  0.16285845355E+02  0.49478800708E+01  0.20346571677E+02  0.26527217257E+02  0.51100000000E-03 0. -1.
        -11    1    4    4    0    0  0.23638647198E+01  0.12167769024E+02  0.25625855979E+01  0.12657381429E+02  0.51100000000E-03 0.  1.
         12    1    4    4    0    0 -0.69170820199E+01  0.12667037410E+02 -0.47125460955E+01  0.15182488304E+02  0.00000000000E+00 0. -1.
</event>
<event>
 8    1  0.1265908E-006  0.9118800E+02  0.7816164E-02  0.1184000E+00
        -11   -1    0    0    0    0  0.00000000000E+00  0.00000000000E+00  0.45593999997E+02  0.45594000000E+02  0.51100000000E-03 0.  1.
         11   -1    0    0    0    0 -0.00000000000E+00 -0.00000000000E+00 -0.45593999997E+02  0.45594000000E+02  0.51100000000E-03 0. -1.
         23    2    1    2    0    0  0.00000000000E+00 -0.44408920985E-15 -0.17763568394E-14  0.91188000000E+02  0.91188000000E+02 0.  0.
    9900012    2    3    3    0    0 -0.36259389324E+02  0.13049680334E+01 -0.62715887996E+01  0.54367094501E+02  0.40000023534E+02 0.  0.
        -12    1    3    3    0    0  0.36259389324E+02 -0.13049680334E+01  0.62715887996E+01  0.36820905499E+02  0.00000000000E+00 0.  1.
         11    1    4    4    0    0 -0.10536437405E+02  0.64733960902E+01 -0.19812776816E+02  0.23355245568E+02  0.51100000000E-03 0. -1.
        -11    1    4    4    0    0 -0.11593870095E+02 -0.59450344948E+01  0.10001804539E+02  0.16425509222E+02  0.51100000000E-03 0.  1.
         12    1    4    4    0    0 -0.14129081824E+02  0.77660643790E+00  0.35393834780E+01  0.14586339711E+02  0.00000000000E+00 0. -1.
</event>
<event>
 8    1  0.1265908E-006  0.9118800E+02  0.7816164E-02  0.1184000E+00
        -11   -1    0    0    0    0  0.00000000000E+00  0.00000000000E+00  0.45593999997E+02  0.45594000000E+02  0.51100000000E-03 0. -1.
         11   -1    0    0    0    0 -0.00000000000E+00 -0.00000000000E+00 -0.45593999997E+02  0.45594000000E+02  0.51100000000E-03 0.  1.
         23    2    1    2    0    0  0.35527136788E-14  0.00000000000E+00  0.00000000000E+00  0.91188000000E+02  0.91188000000E+02 0.  0.
    9900012    2    3    3    0    0  0.28392572951E+02  0.11661682707E+02 -0.20338293820E+02  0.54367092382E+02  0.40000018703E+02 0.  0.
         12    1    3    3    0    0 -0.28392572951E+02 -0.11661682707E+02  0.20338293820E+02  0.36820907618E+02  0.00000000000E+00 0. -1.
         11    1    4    4    0    0  0.16216495236E+02  0.12361074686E+02 -0.13943032679E+02  0.24701802478E+02  0.51100000000E-03 0.  1.
        -11    1    4    4    0    0  0.14078447164E+02 -0.56815048573E+01  0.58808343337E+01  0.16280859458E+02  0.51100000000E-03 0. -1.
        -12    1    4    4    0    0 -0.19023694486E+01  0.49821128786E+01 -0.12276095474E+02  0.13384430445E+02  0.00000000000E+00 0.  1.
</event>
<event>
 8    1  0.1265908E-006  0.9118800E+02  0.7816164E-02  0.1184000E+00
        -11   -1    0    0    0    0  0.00000000000E+00  0.00000000000E+00  0.45593999997E+02  0.45594000000E+02  0.51100000000E-03 0.  1.
         11   -1    0    0    0    0 -0.00000000000E+00 -0.00000000000E+00 -0.45593999997E+02  0.45594000000E+02  0.51100000000E-03 0. -1.
         23    2    1    2    0    0  0.17763568394E-14  0.00000000000E+00  0.35527136788E-14  0.91188000000E+02  0.91188000000E+02 0.  0.
    9900012    2    3    3    0    0 -0.10396138096E+02  0.20291195833E+02 -0.28913021888E+02  0.54367147887E+02  0.40000145238E+02 0.  0.
        -12    1    3    3    0    0  0.10396138096E+02 -0.20291195833E+02  0.28913021888E+02  0.36820852113E+02  0.00000000000E+00 0.  1.
         11    1    4    4    0    0  0.10109526485E+02  0.11264331352E+02 -0.21480815570E+02  0.26277616413E+02  0.51100000000E-03 0. -1.
        -11    1    4    4    0    0 -0.94006626951E+01  0.10364999524E+02 -0.92266577193E+01  0.16761172011E+02  0.51100000000E-03 0.  1.
        -12    1    4    4    0    0 -0.11105001886E+02 -0.13381350440E+01  0.17944514009E+01  0.11328359463E+02  0.00000000000E+00 0.  1.
</event>
<event>
 8    1  0.1265908E-006  0.9118800E+02  0.7816164E-02  0.1184000E+00
        -11   -1    0    0    0    0  0.00000000000E+00  0.00000000000E+00  0.45593999997E+02  0.45594000000E+02  0.51100000000E-03 0.  1.
         11   -1    0    0    0    0 -0.00000000000E+00 -0.00000000000E+00 -0.45593999997E+02  0.45594000000E+02  0.51100000000E-03 0. -1.
         23    2    1    2    0    0  0.35527136788E-14  0.00000000000E+00 -0.35527136788E-14  0.91188000000E+02  0.91188000000E+02 0.  0.
    9900012    2    3    3    0    0 -0.28130180835E+02 -0.94758890058E+01  0.21787124073E+02  0.54367104823E+02  0.40000047064E+02 0.  0.
         12    1    3    3    0    0  0.28130180835E+02  0.94758890058E+01 -0.21787124073E+02  0.36820895177E+02  0.00000000000E+00 0. -1.
         11    1    4    4    0    0  0.13080965514E+01 -0.50209678620E+01  0.18955208212E+02  0.19652510106E+02  0.51100000000E-03 0. -1.
        -11    1    4    4    0    0 -0.11006248713E+02 -0.59878382875E+01  0.87644771776E+01  0.15290774295E+02  0.51100000000E-03 0.  1.
         12    1    4    4    0    0 -0.18432028674E+02  0.15329171438E+01 -0.59325613157E+01  0.19423820422E+02  0.00000000000E+00 0. -1.
</event>
<event>
 8    1  0.1265908E-006  0.9118800E+02  0.7816164E-02  0.1184000E+00
        -11   -1    0    0    0    0  0.00000000000E+00  0.00000000000E+00  0.45593999997E+02  0.45594000000E+02  0.51100000000E-03 0. -1.
         11   -1    0    0    0    0 -0.00000000000E+00 -0.00000000000E+00 -0.45593999997E+02  0.45594000000E+02  0.51100000000E-03 0.  1.
         23    2    1    2    0    0  0.00000000000E+00  0.35527136788E-14  0.00000000000E+00  0.91188000000E+02  0.91188000000E+02 0.  0.
    9900012    2    3    3    0    0 -0.14644240527E+02 -0.27175307686E+02 -0.20070601733E+02  0.54367079556E+02  0.39999989463E+02 0.  0.
        -12    1    3    3    0    0  0.14644240527E+02  0.27175307686E+02  0.20070601733E+02  0.36820920444E+02  0.00000000000E+00 0.  1.
         11    1    4    4    0    0 -0.60508423876E+01 -0.32173373441E+02 -0.44712804878E+01  0.33041352902E+02  0.51100000000E-03 0. -1.
        -11    1    4    4    0    0  0.12477548591E+01 -0.20535897615E+01 -0.20833608094E+01  0.31803326273E+01  0.51100000000E-03 0.  1.
         12    1    4    4    0    0 -0.98411529987E+01  0.70516555159E+01 -0.13515960436E+02  0.18145394026E+02  0.00000000000E+00 0. -1.
</event>
<event>
 8    1  0.1265908E-006  0.9118800E+02  0.7816164E-02  0.1184000E+00
        -11   -1    0    0    0    0  0.00000000000E+00  0.00000000000E+00  0.45593999997E+02  0.45594000000E+02  0.51100000000E-03 0.  1.
         11   -1    0    0    0    0 -0.00000000000E+00 -0.00000000000E+00 -0.45593999997E+02  0.45594000000E+02  0.51100000000E-03 0. -1.
         23    2    1    2    0    0  0.44408920985E-15 -0.71054273576E-14  0.35527136788E-14  0.91188000000E+02  0.91188000000E+02 0.  0.
    9900012    2    3    3    0    0  0.26107119178E+01  0.32742461194E+02  0.16640154087E+02  0.54367091404E+02  0.40000016474E+02 0.  0.
         12    1    3    3    0    0 -0.26107119178E+01 -0.32742461194E+02 -0.16640154087E+02  0.36820908596E+02  0.00000000000E+00 0. -1.
         11    1    4    4    0    0  0.45672147452E+01  0.12567322318E+02  0.27472816542E+02  0.30554094485E+02  0.51100000000E-03 0. -1.
        -11    1    4    4    0    0  0.80309670533E+00 -0.35289097032E-01 -0.50760623841E+00  0.95072287912E+00  0.51100000000E-03 0.  1.
         12    1    4    4    0    0 -0.27595995327E+01  0.20210427973E+02 -0.10325056216E+02  0.22862274040E+02  0.00000000000E+00 0. -1.
</event>
<event>
 8    1  0.1265908E-006  0.9118800E+02  0.7816164E-02  0.1184000E+00
        -11   -1    0    0    0    0  0.00000000000E+00  0.00000000000E+00  0.45593999997E+02  0.45594000000E+02  0.51100000000E-03 0. -1.
         11   -1    0    0    0    0 -0.00000000000E+00 -0.00000000000E+00 -0.45593999997E+02  0.45594000000E+02  0.51100000000E-03 0.  1.
         23    2    1    2    0    0  0.00000000000E+00  0.35527136788E-14 -0.35527136788E-14  0.91188000000E+02  0.91188000000E+02 0.  0.
    9900012    2    3    3    0    0 -0.58953717127E+01 -0.30793748420E+02 -0.19307243062E+02  0.54367082249E+02  0.39999995603E+02 0.  0.
         12    1    3    3    0    0  0.58953717127E+01  0.30793748420E+02  0.19307243062E+02  0.36820917751E+02  0.00000000000E+00 0. -1.
         11    1    4    4    0    0  0.19770096780E+01  0.76050457118E+00  0.84908379140E+01  0.87510721179E+01  0.51100000000E-03 0. -1.
        -11    1    4    4    0    0 -0.38139117879E+01 -0.15078095278E+02 -0.34378826284E+01  0.15928399718E+02  0.51100000000E-03 0.  1.
        -12    1    4    4    0    0 -0.40584696027E+01 -0.16476157713E+02 -0.24360198348E+02  0.29687610413E+02  0.00000000000E+00 0.  1.
</event>
<event>
 8    1  0.1265908E-006  0.9118800E+02  0.7816164E-02  0.1184000E+00
        -11   -1    0    0    0    0  0.00000000000E+00  0.00000000000E+00  0.45593999997E+02  0.45594000000E+02  0.51100000000E-03 0.  1.
         11   -1    0    0    0    0 -0.00000000000E+00 -0.00000000000E+00 -0.45593999997E+02  0.45594000000E+02  0.51100000000E-03 0. -1.
         23    2    1    2    0    0 -0.35527136788E-14  0.00000000000E+00 -0.35527136788E-14  0.91188000000E+02  0.91188000000E+02 0.  0.
    9900012    2    3    3    0    0  0.18117384616E+02 -0.69744639720E+01 -0.31287319650E+02  0.54367093657E+02  0.40000021610E+02 0.  0.
        -12    1    3    3    0    0 -0.18117384616E+02  0.69744639720E+01  0.31287319650E+02  0.36820906343E+02  0.00000000000E+00 0.  1.
         11    1    4    4    0    0  0.16468570278E+02  0.12566290106E+01 -0.26318969814E+02  0.31072191680E+02  0.51100000000E-03 0. -1.
        -11    1    4    4    0    0 -0.93112073605E+01 -0.52428559853E+01 -0.53042561829E+01  0.11929847246E+02  0.51100000000E-03 0.  1.
        -12    1    4    4    0    0  0.10960021698E+02 -0.29882369973E+01  0.33590634619E+00  0.11365054731E+02  0.00000000000E+00 0.  1.
</event>
<event>
 8    1  0.1265908E-006  0.9118800E+02  0.7816164E-02  0.1184000E+00
        -11   -1    0    0    0    0  0.00000000000E+00  0.00000000000E+00  0.45593999997E+02  0.45594000000E+02  0.51100000000E-03 0. -1.
         11   -1    0    0    0    0 -0.00000000000E+00 -0.00000000000E+00 -0.45593999997E+02  0.45594000000E+02  0.51100000000E-03 0.  1.
         23    2    1    2    0    0  0.66613381478E-15  0.00000000000E+00 -0.17763568394E-14  0.91188000000E+02  0.91188000000E+02 0.  0.
    9900012    2    3    3    0    0 -0.17098178672E+01  0.36142239225E+02  0.68260026480E+01  0.54367092278E+02  0.40000018467E+02 0.  0.
         12    1    3    3    0    0  0.17098178672E+01 -0.36142239225E+02 -0.68260026480E+01  0.36820907722E+02  0.00000000000E+00 0. -1.
         11    1    4    4    0    0 -0.60396179291E+01 -0.13197847448E+01 -0.33747372059E+01  0.70432711131E+01  0.51100000000E-03 0. -1.
        -11    1    4    4    0    0  0.78121771762E+01  0.50163114585E+00  0.61974862274E+01  0.99845171059E+01  0.51100000000E-03 0.  1.
        -12    1    4    4    0    0 -0.34823771143E+01  0.36960392823E+02  0.40032536265E+01  0.37339304059E+02  0.00000000000E+00 0.  1.
</event>
<event>
 8    1  0.1265908E-006  0.9118800E+02  0.7816164E-02  0.1184000E+00
        -11   -1    0    0    0    0  0.00000000000E+00  0.00000000000E+00  0.45593999997E+02  0.45594000000E+02  0.51100000000E-03 0. -1.
         11   -1    0    0    0    0 -0.00000000000E+00 -0.00000000000E+00 -0.45593999997E+02  0.45594000000E+02  0.51100000000E-03 0.  1.
         23    2    1    2    0    0  0.00000000000E+00  0.00000000000E+00  0.88817841970E-15  0.91188000000E+02  0.91188000000E+02 0.  0.
    9900012    2    3    3    0    0 -0.13133563552E+02 -0.33498218036E+02  0.78203317875E+01  0.54367099788E+02  0.40000035587E+02 0.  0.
        -12    1    3    3    0    0  0.13133563552E+02  0.33498218036E+02 -0.78203317875E+01  0.36820900212E+02  0.00000000000E+00 0.  1.
         11    1    4    4    0    0 -0.12937209556E+02 -0.28011187511E+02  0.18000934591E+02  0.35721585397E+02  0.51100000000E-03 0. -1.
        -11    1    4    4    0    0 -0.31495358925E+00 -0.29001430331E+01  0.35943913671E+01  0.46292196899E+01  0.51100000000E-03 0.  1.
        -12    1    4    4    0    0  0.11859959292E+00 -0.25868874914E+01 -0.13774994170E+02  0.14016294701E+02  0.00000000000E+00 0.  1.
</event>
<event>
 8    1  0.1265908E-006  0.9118800E+02  0.7816164E-02  0.1184000E+00
        -11   -1    0    0    0    0  0.00000000000E+00  0.00000000000E+00  0.45593999997E+02  0.45594000000E+02  0.51100000000E-03 0.  1.
         11   -1    0    0    0    0 -0.00000000000E+00 -0.00000000000E+00 -0.45593999997E+02  0.45594000000E+02  0.51100000000E-03 0. -1.
         23    2    1    2    0    0  0.00000000000E+00  0.00000000000E+00  0.00000000000E+00  0.91188000000E+02  0.91188000000E+02 0.  0.
    9900012    2    3    3    0    0 -0.11537581240E+02 -0.34768113852E+02  0.37204400389E+01  0.54367092953E+02  0.40000020005E+02 0.  0.
        -12    1    3    3    0    0  0.11537581240E+02  0.34768113852E+02 -0.37204400389E+01  0.36820907047E+02  0.00000000000E+00 0.  1.
         11    1    4    4    0    0 -0.12760604322E+02  0.44795945416E+01  0.32511479857E+01  0.13909340509E+02  0.51100000000E-03 0. -1.
        -11    1    4    4    0    0 -0.26898203955E+01 -0.31678688014E+02 -0.10148625546E+01  0.31808872258E+02  0.51100000000E-03 0.  1.
         12    1    4    4    0    0  0.39128434771E+01 -0.75690203788E+01  0.14841546078E+01  0.86488801860E+01  0.00000000000E+00 0. -1.
</event>
<event>
 8    1  0.1265908E-006  0.9118800E+02  0.7816164E-02  0.1184000E+00
        -11   -1    0    0    0    0  0.00000000000E+00  0.00000000000E+00  0.45593999997E+02  0.45594000000E+02  0.51100000000E-03 0.  1.
         11   -1    0    0    0    0 -0.00000000000E+00 -0.00000000000E+00 -0.45593999997E+02  0.45594000000E+02  0.51100000000E-03 0. -1.
         23    2    1    2    0    0 -0.17763568394E-14  0.35527136788E-14  0.35527136788E-14  0.91188000000E+02  0.91188000000E+02 0.  0.
    9900012    2    3    3    0    0  0.11119758123E+02  0.20663328381E+02  0.28375256916E+02  0.54367117806E+02  0.40000076663E+02 0.  0.
         12    1    3    3    0    0 -0.11119758123E+02 -0.20663328381E+02 -0.28375256916E+02  0.36820882194E+02  0.00000000000E+00 0. -1.
         11    1    4    4    0    0 -0.32064409916E+01  0.50748463821E+01  0.76101335708E+01  0.96927531105E+01  0.51100000000E-03 0. -1.
        -11    1    4    4    0    0  0.13575247544E+02 -0.22959574016E+01 -0.37966916034E+01  0.14281933821E+02  0.51100000000E-03 0.  1.
        -12    1    4    4    0    0  0.75095157049E+00  0.17884439400E+02  0.24561814948E+02  0.30392430875E+02  0.00000000000E+00 0.  1.
</event>
<event>
 8    1  0.1265908E-006  0.9118800E+02  0.7816164E-02  0.1184000E+00
        -11   -1    0    0    0    0  0.00000000000E+00  0.00000000000E+00  0.45593999997E+02  0.45594000000E+02  0.51100000000E-03 0. -1.
         11   -1    0    0    0    0 -0.00000000000E+00 -0.00000000000E+00 -0.45593999997E+02  0.45594000000E+02  0.51100000000E-03 0.  1.
         23    2    1    2    0    0 -0.26645352591E-14  0.00000000000E+00  0.71054273576E-14  0.91188000000E+02  0.91188000000E+02 0.  0.
    9900012    2    3    3    0    0  0.73217435040E+01 -0.94087566113E+01 -0.34837445418E+02  0.54367078880E+02  0.39999987922E+02 0.  0.
         12    1    3    3    0    0 -0.73217435040E+01  0.94087566113E+01  0.34837445418E+02  0.36820921120E+02  0.00000000000E+00 0. -1.
         11    1    4    4    0    0 -0.92519923380E+01  0.45493779165E+01 -0.79027626367E+01  0.12990375637E+02  0.51100000000E-03 0.  1.
        -11    1    4    4    0    0  0.36127083818E+01 -0.14244854818E+02 -0.23908609648E+02  0.28064019067E+02  0.51100000000E-03 0. -1.
         12    1    4    4    0    0  0.12961027460E+02  0.28672028987E+00 -0.30260731336E+01  0.13312684176E+02  0.00000000000E+00 0. -1.
</event>
<event>
 8    1  0.1265908E-006  0.9118800E+02  0.7816164E-02  0.1184000E+00
        -11   -1    0    0    0    0  0.00000000000E+00  0.00000000000E+00  0.45593999997E+02  0.45594000000E+02  0.51100000000E-03 0. -1.
         11   -1    0    0    0    0 -0.00000000000E+00 -0.00000000000E+00 -0.45593999997E+02  0.45594000000E+02  0.51100000000E-03 0.  1.
         23    2    1    2    0    0  0.35527136788E-14  0.35527136788E-14 -0.35527136788E-14  0.91188000000E+02  0.91188000000E+02 0.  0.
    9900012    2    3    3    0    0  0.22341521646E+02 -0.17652889643E+02 -0.23345510426E+02  0.54367069005E+02  0.39999965412E+02 0.  0.
         12    1    3    3    0    0 -0.22341521646E+02  0.17652889643E+02  0.23345510426E+02  0.36820930995E+02  0.00000000000E+00 0. -1.
         11    1    4    4    0    0  0.12754194800E+02  0.46841585239E+01 -0.84939780565E+01  0.16023685267E+02  0.51100000000E-03 0. -1.
        -11    1    4    4    0    0  0.11904167337E+02 -0.47953024667E+01  0.30307740873E+01  0.13186725051E+02  0.51100000000E-03 0.  1.
         12    1    4    4    0    0 -0.23168404902E+01 -0.17541745701E+02 -0.17882306457E+02  0.25156658687E+02  0.00000000000E+00 0. -1.
</event>
<event>
 8    1  0.1265908E-006  0.9118800E+02  0.7816164E-02  0.1184000E+00
        -11   -1    0    0    0    0  0.00000000000E+00  0.00000000000E+00  0.45593999997E+02  0.45594000000E+02  0.51100000000E-03 0.  1.
         11   -1    0    0    0    0 -0.00000000000E+00 -0.00000000000E+00 -0.45593999997E+02  0.45594000000E+02  0.51100000000E-03 0. -1.
         23    2    1    2    0    0  0.00000000000E+00  0.00000000000E+00  0.00000000000E+00  0.91188000000E+02  0.91188000000E+02 0.  0.
    9900012    2    3    3    0    0  0.19143229827E+02 -0.13280157700E+02  0.28512350467E+02  0.54367082495E+02  0.39999996164E+02 0.  0.
         12    1    3    3    0    0 -0.19143229827E+02  0.13280157700E+02 -0.28512350467E+02  0.36820917505E+02  0.00000000000E+00 0. -1.
         11    1    4    4    0    0  0.17799099154E+02  0.83887290077E+01  0.24869338025E+02  0.31712185027E+02  0.51100000000E-03 0. -1.
        -11    1    4    4    0    0  0.28187943605E+01 -0.12180086077E+02  0.37476282484E+01  0.13051621211E+02  0.51100000000E-03 0.  1.
         12    1    4    4    0    0 -0.14746636883E+01 -0.94888006315E+01 -0.10461580705E+00  0.96032762579E+01  0.00000000000E+00 0. -1.
</event>
<event>
 8    1  0.1265908E-006  0.9118800E+02  0.7816164E-02  0.1184000E+00
        -11   -1    0    0    0    0  0.00000000000E+00  0.00000000000E+00  0.45593999997E+02  0.45594000000E+02  0.51100000000E-03 0. -1.
         11   -1    0    0    0    0 -0.00000000000E+00 -0.00000000000E+00 -0.45593999997E+02  0.45594000000E+02  0.51100000000E-03 0.  1.
         23    2    1    2    0    0 -0.44408920985E-15  0.17763568394E-14  0.00000000000E+00  0.91188000000E+02  0.91188000000E+02 0.  0.
    9900012    2    3    3    0    0 -0.19711540106E+01  0.78960991747E+01  0.35910319012E+02  0.54367016284E+02  0.39999845221E+02 0.  0.
        -12    1    3    3    0    0  0.19711540106E+01 -0.78960991747E+01 -0.35910319012E+02  0.36820983716E+02  0.00000000000E+00 0.  1.
         11    1    4    4    0    0 -0.87702844639E+01  0.27266195520E+01  0.15209284157E+01  0.93094343150E+01  0.51100000000E-03 0. -1.
        -11    1    4    4    0    0 -0.33688384492E+01 -0.46282801059E+01  0.29597957340E+02  0.30146461288E+02  0.51100000000E-03 0.  1.
         12    1    4    4    0    0  0.10167968903E+02  0.97977597286E+01  0.47914332565E+01  0.14911120681E+02  0.00000000000E+00 0. -1.
</event>
<event>
 8    1  0.1265908E-006  0.9118800E+02  0.7816164E-02  0.1184000E+00
        -11   -1    0    0    0    0  0.00000000000E+00  0.00000000000E+00  0.45593999997E+02  0.45594000000E+02  0.51100000000E-03 0.  1.
         11   -1    0    0    0    0 -0.00000000000E+00 -0.00000000000E+00 -0.45593999997E+02  0.45594000000E+02  0.51100000000E-03 0. -1.
         23    2    1    2    0    0  0.00000000000E+00 -0.17763568394E-14  0.00000000000E+00  0.91188000000E+02  0.91188000000E+02 0.  0.
    9900012    2    3    3    0    0  0.32077040117E+02 -0.13161393211E+02 -0.12394398684E+02  0.54367083490E+02  0.39999998432E+02 0.  0.
         12    1    3    3    0    0 -0.32077040117E+02  0.13161393211E+02  0.12394398684E+02  0.36820916510E+02  0.00000000000E+00 0. -1.
         11    1    4    4    0    0  0.31249783752E+01  0.81456907706E+01 -0.63611976356E+01  0.10797342432E+02  0.51100000000E-03 0. -1.
        -11    1    4    4    0    0  0.27368205480E+02 -0.95653480789E+01  0.23028794439E+01  0.29082947050E+02  0.51100000000E-03 0.  1.
        -12    1    4    4    0    0  0.15838562614E+01 -0.11741735903E+02 -0.83360804920E+01  0.14486794008E+02  0.00000000000E+00 0.  1.
</event>
<event>
 8    1  0.1265908E-006  0.9118800E+02  0.7816164E-02  0.1184000E+00
        -11   -1    0    0    0    0  0.00000000000E+00  0.00000000000E+00  0.45593999997E+02  0.45594000000E+02  0.51100000000E-03 0.  1.
         11   -1    0    0    0    0 -0.00000000000E+00 -0.00000000000E+00 -0.45593999997E+02  0.45594000000E+02  0.51100000000E-03 0. -1.
         23    2    1    2    0    0  0.17763568394E-14  0.88817841970E-15  0.71054273576E-14  0.91188000000E+02  0.91188000000E+02 0.  0.
    9900012    2    3    3    0    0 -0.13939659616E+02 -0.55558329563E+01 -0.33624366829E+02  0.54367089709E+02  0.40000012609E+02 0.  0.
        -12    1    3    3    0    0  0.13939659616E+02  0.55558329563E+01  0.33624366829E+02  0.36820910291E+02  0.00000000000E+00 0.  1.
         11    1    4    4    0    0 -0.12264633310E+02  0.56461910045E+01 -0.71165874249E+01  0.15262585623E+02  0.51100000000E-03 0. -1.
        -11    1    4    4    0    0  0.11246254190E+02  0.51301105917E+00 -0.11529134188E+02  0.16114041983E+02  0.51100000000E-03 0.  1.
         12    1    4    4    0    0 -0.12921280496E+02 -0.11715035020E+02 -0.14978645216E+02  0.22990462102E+02  0.00000000000E+00 0. -1.
</event>
<event>
 8    1  0.1265908E-006  0.9118800E+02  0.7816164E-02  0.1184000E+00
        -11   -1    0    0    0    0  0.00000000000E+00  0.00000000000E+00  0.45593999997E+02  0.45594000000E+02  0.51100000000E-03 0.  1.
         11   -1    0    0    0    0 -0.00000000000E+00 -0.00000000000E+00 -0.45593999997E+02  0.45594000000E+02  0.51100000000E-03 0. -1.
         23    2    1    2    0    0  0.00000000000E+00 -0.44408920985E-15  0.00000000000E+00  0.91188000000E+02  0.91188000000E+02 0.  0.
    9900012    2    3    3    0    0  0.13906311018E+02 -0.34365535889E+01  0.33920264326E+02  0.54367085853E+02  0.40000003819E+02 0.  0.
         12    1    3    3    0    0 -0.13906311018E+02  0.34365535889E+01 -0.33920264326E+02  0.36820914147E+02  0.00000000000E+00 0. -1.
         11    1    4    4    0    0  0.24664361332E+01 -0.14818606771E+01 -0.72686685327E+01  0.78174651112E+01  0.51100000000E-03 0. -1.
        -11    1    4    4    0    0 -0.78278768520E+00 -0.75251447366E+01  0.20805353027E+02  0.22138276236E+02  0.51100000000E-03 0.  1.
         12    1    4    4    0    0  0.12222662570E+02  0.55704518248E+01  0.20383579831E+02  0.24411344506E+02  0.00000000000E+00 0. -1.
</event>
<event>
 8    1  0.1265908E-006  0.9118800E+02  0.7816164E-02  0.1184000E+00
        -11   -1    0    0    0    0  0.00000000000E+00  0.00000000000E+00  0.45593999997E+02  0.45594000000E+02  0.51100000000E-03 0. -1.
         11   -1    0    0    0    0 -0.00000000000E+00 -0.00000000000E+00 -0.45593999997E+02  0.45594000000E+02  0.51100000000E-03 0.  1.
         23    2    1    2    0    0 -0.17763568394E-14  0.22204460493E-15  0.00000000000E+00  0.91188000000E+02  0.91188000000E+02 0.  0.
    9900012    2    3    3    0    0  0.11006878802E+02 -0.16725102230E+00  0.35136879187E+02  0.54367087017E+02  0.40000006473E+02 0.  0.
        -12    1    3    3    0    0 -0.11006878802E+02  0.16725102230E+00 -0.35136879187E+02  0.36820912983E+02  0.00000000000E+00 0.  1.
         11    1    4    4    0    0 -0.83973018012E+01 -0.36420180828E+01  0.14555451583E+02  0.17194189260E+02  0.51100000000E-03 0. -1.
        -11    1    4    4    0    0 -0.55533412366E+01 -0.87322930332E+00  0.36786079098E+01  0.67182054688E+01  0.51100000000E-03 0.  1.
        -12    1    4    4    0    0  0.24957521840E+02  0.43479963638E+01  0.16902819694E+02  0.30454692288E+02  0.00000000000E+00 0.  1.
</event>
<event>
 8    1  0.1265908E-006  0.9118800E+02  0.7816164E-02  0.1184000E+00
        -11   -1    0    0    0    0  0.00000000000E+00  0.00000000000E+00  0.45593999997E+02  0.45594000000E+02  0.51100000000E-03 0.  1.
         11   -1    0    0    0    0 -0.00000000000E+00 -0.00000000000E+00 -0.45593999997E+02  0.45594000000E+02  0.51100000000E-03 0. -1.
         23    2    1    2    0    0  0.53290705182E-14  0.71054273576E-14  0.35527136788E-14  0.91188000000E+02  0.91188000000E+02 0.  0.
    9900012    2    3    3    0    0 -0.10553674602E+02 -0.21940827708E+02 -0.27622463278E+02  0.54367075981E+02  0.39999981313E+02 0.  0.
        -12    1    3    3    0    0  0.10553674602E+02  0.21940827708E+02  0.27622463278E+02  0.36820924019E+02  0.00000000000E+00 0.  1.
         11    1    4    4    0    0  0.82669602880E+01  0.42375687092E+01 -0.16239754655E+02  0.18709068723E+02  0.51100000000E-03 0. -1.
        -11    1    4    4    0    0  0.44775801910E+00 -0.34989857315E+01  0.59721093920E+00  0.35777156902E+01  0.51100000000E-03 0.  1.
         12    1    4    4    0    0 -0.19268392909E+02 -0.22679410685E+02 -0.11979919563E+02  0.32080291568E+02  0.00000000000E+00 0. -1.
</event>
<event>
 8    1  0.1265908E-006  0.9118800E+02  0.7816164E-02  0.1184000E+00
        -11   -1    0    0    0    0  0.00000000000E+00  0.00000000000E+00  0.45593999997E+02  0.45594000000E+02  0.51100000000E-03 0.  1.
         11   -1    0    0    0    0 -0.00000000000E+00 -0.00000000000E+00 -0.45593999997E+02  0.45594000000E+02  0.51100000000E-03 0. -1.
         23    2    1    2    0    0  0.00000000000E+00 -0.11102230246E-15  0.00000000000E+00  0.91188000000E+02  0.91188000000E+02 0.  0.
    9900012    2    3    3    0    0  0.16825911824E+02 -0.68518736653E+00  0.32744467056E+02  0.54367069631E+02  0.39999966838E+02 0.  0.
         12    1    3    3    0    0 -0.16825911824E+02  0.68518736653E+00 -0.32744467056E+02  0.36820930369E+02  0.00000000000E+00 0. -1.
         11    1    4    4    0    0  0.22662924227E+01 -0.15125066290E+02  0.24264051311E+02  0.28681839165E+02  0.51100000000E-03 0. -1.
        -11    1    4    4    0    0  0.95951204986E+01  0.20121019046E+01  0.73535767615E+01  0.12255202279E+02  0.51100000000E-03 0.  1.
         12    1    4    4    0    0  0.49644989031E+01  0.12427777019E+02  0.11268389835E+01  0.13430028186E+02  0.00000000000E+00 0. -1.
</event>
<event>
 8    1  0.1265908E-006  0.9118800E+02  0.7816164E-02  0.1184000E+00
        -11   -1    0    0    0    0  0.00000000000E+00  0.00000000000E+00  0.45593999997E+02  0.45594000000E+02  0.51100000000E-03 0.  1.
         11   -1    0    0    0    0 -0.00000000000E+00 -0.00000000000E+00 -0.45593999997E+02  0.45594000000E+02  0.51100000000E-03 0. -1.
         23    2    1    2    0    0  0.00000000000E+00  0.00000000000E+00  0.00000000000E+00  0.91188000000E+02  0.91188000000E+02 0.  0.
    9900012    2    3    3    0    0  0.19201615604E+02 -0.15986783020E+02  0.27046284528E+02  0.54367071442E+02  0.39999970965E+02 0.  0.
         12    1    3    3    0    0 -0.19201615604E+02  0.15986783020E+02 -0.27046284528E+02  0.36820928558E+02  0.00000000000E+00 0. -1.
         11    1    4    4    0    0  0.21940522809E+02  0.20447366477E+01  0.24767653963E+01  0.22174351314E+02  0.51100000000E-03 0. -1.
        -11    1    4    4    0    0 -0.15592746260E+00 -0.27701427063E+01 -0.41171471992E+00  0.28049087790E+01  0.51100000000E-03 0.  1.
        -12    1    4    4    0    0 -0.25829797426E+01 -0.15261376962E+02  0.24981233852E+02  0.29387811349E+02  0.00000000000E+00 0.  1.
</event>
<event>
 8    1  0.1265908E-006  0.9118800E+02  0.7816164E-02  0.1184000E+00
        -11   -1    0    0    0    0  0.00000000000E+00  0.00000000000E+00  0.45593999997E+02  0.45594000000E+02  0.51100000000E-03 0.  1.
         11   -1    0    0    0    0 -0.00000000000E+00 -0.00000000000E+00 -0.45593999997E+02  0.45594000000E+02  0.51100000000E-03 0. -1.
         23    2    1    2    0    0  0.00000000000E+00  0.22204460493E-15  0.00000000000E+00  0.91188000000E+02  0.91188000000E+02 0.  0.
    9900012    2    3    3    0    0 -0.36267954350E+02  0.19951081632E+01  0.60361013935E+01  0.54367088967E+02  0.40000010917E+02 0.  0.
         12    1    3    3    0    0  0.36267954350E+02 -0.19951081632E+01 -0.60361013935E+01  0.36820911033E+02  0.00000000000E+00 0. -1.
         11    1    4    4    0    0 -0.13477585668E+01  0.34342388012E+01  0.35395229537E+01  0.51125993681E+01  0.51100000000E-03 0. -1.
        -11    1    4    4    0    0 -0.13332017144E+02  0.62024175026E+01  0.16743689178E+02  0.22283711350E+02  0.51100000000E-03 0.  1.
        -12    1    4    4    0    0 -0.21588178639E+02 -0.76415481407E+01 -0.14247110738E+02  0.26970778248E+02  0.00000000000E+00 0.  1.
</event>
<event>
 8    1  0.1265908E-006  0.9118800E+02  0.7816164E-02  0.1184000E+00
        -11   -1    0    0    0    0  0.00000000000E+00  0.00000000000E+00  0.45593999997E+02  0.45594000000E+02  0.51100000000E-03 0.  1.
         11   -1    0    0    0    0 -0.00000000000E+00 -0.00000000000E+00 -0.45593999997E+02  0.45594000000E+02  0.51100000000E-03 0. -1.
         23    2    1    2    0    0  0.88817841970E-15  0.00000000000E+00  0.00000000000E+00  0.91188000000E+02  0.91188000000E+02 0.  0.
    9900012    2    3    3    0    0  0.66208472797E+01 -0.16225046676E+02 -0.32383533835E+02  0.54367068154E+02  0.39999963471E+02 0.  0.
        -12    1    3    3    0    0 -0.66208472797E+01  0.16225046676E+02  0.32383533835E+02  0.36820931846E+02  0.00000000000E+00 0.  1.
         11    1    4    4    0    0 -0.12112499957E+02 -0.64990263587E+01 -0.20694844772E+02  0.24844045549E+02  0.51100000000E-03 0. -1.
        -11    1    4    4    0    0  0.11911626209E+02  0.32738338568E+01 -0.64461107915E+01  0.13934029269E+02  0.51100000000E-03 0.  1.
         12    1    4    4    0    0  0.68217210275E+01 -0.12999854174E+02 -0.52425782714E+01  0.15588993337E+02  0.00000000000E+00 0. -1.
</event>
<event>
 8    1  0.1265908E-006  0.9118800E+02  0.7816164E-02  0.1184000E+00
        -11   -1    0    0    0    0  0.00000000000E+00  0.00000000000E+00  0.45593999997E+02  0.45594000000E+02  0.51100000000E-03 0. -1.
         11   -1    0    0    0    0 -0.00000000000E+00 -0.00000000000E+00 -0.45593999997E+02  0.45594000000E+02  0.51100000000E-03 0.  1.
         23    2    1    2    0    0  0.17763568394E-14  0.88817841970E-15  0.71054273576E-14  0.91188000000E+02  0.91188000000E+02 0.  0.
    9900012    2    3    3    0    0  0.12848781991E+02 -0.29447112558E+01  0.34380474097E+02  0.54367088521E+02  0.40000009900E+02 0.  0.
        -12    1    3    3    0    0 -0.12848781991E+02  0.29447112558E+01 -0.34380474097E+02  0.36820911479E+02  0.00000000000E+00 0.  1.
         11    1    4    4    0    0  0.16077956812E+02 -0.88068032719E+01  0.32694819281E+02  0.37483485526E+02  0.51100000000E-03 0. -1.
        -11    1    4    4    0    0 -0.34038076618E+01 -0.29464741577E+01  0.56484933819E+01  0.72230945104E+01  0.51100000000E-03 0.  1.
        -12    1    4    4    0    0  0.17463284046E+00  0.88085661738E+01 -0.39628385658E+01  0.96605084838E+01  0.00000000000E+00 0.  1.
</event>
<event>
 8    1  0.1265908E-006  0.9118800E+02  0.7816164E-02  0.1184000E+00
        -11   -1    0    0    0    0  0.00000000000E+00  0.00000000000E+00  0.45593999997E+02  0.45594000000E+02  0.51100000000E-03 0. -1.
         11   -1    0    0    0    0 -0.00000000000E+00 -0.00000000000E+00 -0.45593999997E+02  0.45594000000E+02  0.51100000000E-03 0.  1.
         23    2    1    2    0    0  0.00000000000E+00  0.00000000000E+00  0.00000000000E+00  0.91188000000E+02  0.91188000000E+02 0.  0.
    9900012    2    3    3    0    0  0.18477355585E+02  0.17386546096E+02 -0.26685074863E+02  0.54366839304E+02  0.39999441757E+02 0.  0.
         12    1    3    3    0    0 -0.18477355585E+02 -0.17386546096E+02  0.26685074863E+02  0.36821160696E+02  0.00000000000E+00 0. -1.
         11    1    4    4    0    0  0.40237827581E+01 -0.55174038111E+00  0.95874355751E+00  0.41730605798E+01  0.51100000000E-03 0. -1.
        -11    1    4    4    0    0  0.13703575687E+02 -0.32861891435E+01 -0.25125062499E+02  0.28807217699E+02  0.51100000000E-03 0.  1.
         12    1    4    4    0    0  0.74999713987E+00  0.21224475621E+02 -0.25187559214E+01  0.21386561025E+02  0.00000000000E+00 0. -1.
</event>
<event>
 8    1  0.1265908E-006  0.9118800E+02  0.7816164E-02  0.1184000E+00
        -11   -1    0    0    0    0  0.00000000000E+00  0.00000000000E+00  0.45593999997E+02  0.45594000000E+02  0.51100000000E-03 0. -1.
         11   -1    0    0    0    0 -0.00000000000E+00 -0.00000000000E+00 -0.45593999997E+02  0.45594000000E+02  0.51100000000E-03 0.  1.
         23    2    1    2    0    0  0.17763568394E-14  0.00000000000E+00 -0.17763568394E-14  0.91188000000E+02  0.91188000000E+02 0.  0.
    9900012    2    3    3    0    0  0.10846361254E+02 -0.33306657575E+02 -0.11349242847E+02  0.54367050739E+02  0.39999923770E+02 0.  0.
        -12    1    3    3    0    0 -0.10846361254E+02  0.33306657575E+02  0.11349242847E+02  0.36820949261E+02  0.00000000000E+00 0.  1.
         11    1    4    4    0    0  0.11287013702E+02 -0.21973945400E+02 -0.82664947709E+01  0.26049681204E+02  0.51100000000E-03 0. -1.
        -11    1    4    4    0    0 -0.20090891789E+01 -0.10443107144E+02 -0.13815312989E+02  0.17434385547E+02  0.51100000000E-03 0.  1.
         12    1    4    4    0    0  0.15684367313E+01 -0.88960503088E+00  0.10732564912E+02  0.10882983988E+02  0.00000000000E+00 0. -1.
</event>
<event>
 8    1  0.1265908E-006  0.9118800E+02  0.7816164E-02  0.1184000E+00
        -11   -1    0    0    0    0  0.00000000000E+00  0.00000000000E+00  0.45593999997E+02  0.45594000000E+02  0.51100000000E-03 0.  1.
         11   -1    0    0    0    0 -0.00000000000E+00 -0.00000000000E+00 -0.45593999997E+02  0.45594000000E+02  0.51100000000E-03 0. -1.
         23    2    1    2    0    0  0.00000000000E+00  0.88817841970E-15  0.00000000000E+00  0.91188000000E+02  0.91188000000E+02 0.  0.
    9900012    2    3    3    0    0 -0.29969516933E+02  0.43131801214E+01  0.20952461158E+02  0.54367067142E+02  0.39999961165E+02 0.  0.
         12    1    3    3    0    0  0.29969516933E+02 -0.43131801214E+01 -0.20952461158E+02  0.36820932858E+02  0.00000000000E+00 0. -1.
         11    1    4    4    0    0 -0.25981903162E+00  0.43794025580E+01  0.23101326448E+00  0.43931810893E+01  0.51100000000E-03 0. -1.
        -11    1    4    4    0    0 -0.32018134402E+02 -0.10351364944E+02  0.10398149844E+02  0.35219784315E+02  0.51100000000E-03 0.  1.
        -12    1    4    4    0    0  0.23084365009E+01  0.10285142507E+02  0.10323298050E+02  0.14754101738E+02  0.00000000000E+00 0.  1.
</event>
<event>
 8    1  0.1265908E-006  0.9118800E+02  0.7816164E-02  0.1184000E+00
        -11   -1    0    0    0    0  0.00000000000E+00  0.00000000000E+00  0.45593999997E+02  0.45594000000E+02  0.51100000000E-03 0.  1.
         11   -1    0    0    0    0 -0.00000000000E+00 -0.00000000000E+00 -0.45593999997E+02  0.45594000000E+02  0.51100000000E-03 0. -1.
         23    2    1    2    0    0  0.35527136788E-14  0.00000000000E+00 -0.17763568394E-14  0.91188000000E+02  0.91188000000E+02 0.  0.
    9900012    2    3    3    0    0 -0.14620888152E+02 -0.31379916071E+02  0.12542339794E+02  0.54367084877E+02  0.40000001595E+02 0.  0.
         12    1    3    3    0    0  0.14620888152E+02  0.31379916071E+02 -0.12542339794E+02  0.36820915123E+02  0.00000000000E+00 0. -1.
         11    1    4    4    0    0  0.68464313652E+01 -0.18640826793E+01  0.11529996035E+02  0.13538435490E+02  0.51100000000E-03 0. -1.
        -11    1    4    4    0    0  0.47779955414E+00 -0.13823677037E+02  0.66904469920E+00  0.13848103130E+02  0.51100000000E-03 0.  1.
         12    1    4    4    0    0 -0.21945119071E+02 -0.15692156355E+02  0.34329905926E+00  0.26980546258E+02  0.00000000000E+00 0. -1.
</event>
<event>
 8    1  0.1265908E-006  0.9118800E+02  0.7816164E-02  0.1184000E+00
        -11   -1    0    0    0    0  0.00000000000E+00  0.00000000000E+00  0.45593999997E+02  0.45594000000E+02  0.51100000000E-03 0.  1.
         11   -1    0    0    0    0 -0.00000000000E+00 -0.00000000000E+00 -0.45593999997E+02  0.45594000000E+02  0.51100000000E-03 0. -1.
         23    2    1    2    0    0  0.00000000000E+00 -0.88817841970E-15 -0.71054273576E-14  0.91188000000E+02  0.91188000000E+02 0.  0.
    9900012    2    3    3    0    0 -0.48612520285E+01 -0.73962495109E+01 -0.35741375798E+02  0.54367051859E+02  0.39999926322E+02 0.  0.
        -12    1    3    3    0    0  0.48612520285E+01  0.73962495109E+01  0.35741375798E+02  0.36820948141E+02  0.00000000000E+00 0.  1.
         11    1    4    4    0    0  0.49695635033E+01  0.55679746956E+01 -0.66841228843E+00  0.74930420306E+01  0.51100000000E-03 0. -1.
        -11    1    4    4    0    0 -0.33160442328E+01  0.69862018603E+01 -0.25037041366E+01  0.81284500646E+01  0.51100000000E-03 0.  1.
         12    1    4    4    0    0 -0.65147712990E+01 -0.19950426067E+02 -0.32569259373E+02  0.38745559764E+02  0.00000000000E+00 0. -1.
</event>
<event>
 8    1  0.1265908E-006  0.9118800E+02  0.7816164E-02  0.1184000E+00
        -11   -1    0    0    0    0  0.00000000000E+00  0.00000000000E+00  0.45593999997E+02  0.45594000000E+02  0.51100000000E-03 0.  1.
         11   -1    0    0    0    0 -0.00000000000E+00 -0.00000000000E+00 -0.45593999997E+02  0.45594000000E+02  0.51100000000E-03 0. -1.
         23    2    1    2    0    0  0.00000000000E+00  0.88817841970E-15 -0.35527136788E-14  0.91188000000E+02  0.91188000000E+02 0.  0.
    9900012    2    3    3    0    0  0.18666244682E+02 -0.43685448214E+01  0.31436765964E+02  0.54367039547E+02  0.39999898255E+02 0.  0.
         12    1    3    3    0    0 -0.18666244682E+02  0.43685448214E+01 -0.31436765964E+02  0.36820960453E+02  0.00000000000E+00 0. -1.
         11    1    4    4    0    0 -0.24379449627E+01  0.75131807864E+01  0.18310972680E+02  0.19941995435E+02  0.51100000000E-03 0. -1.
        -11    1    4    4    0    0  0.24833810333E+01 -0.12875410007E+02  0.43456175159E+01  0.13814041989E+02  0.51100000000E-03 0.  1.
         12    1    4    4    0    0  0.18620808611E+02  0.99368439937E+00  0.87801757684E+01  0.20611002124E+02  0.00000000000E+00 0. -1.
</event>
<event>
 8    1  0.1265908E-006  0.9118800E+02  0.7816164E-02  0.1184000E+00
        -11   -1    0    0    0    0  0.00000000000E+00  0.00000000000E+00  0.45593999997E+02  0.45594000000E+02  0.51100000000E-03 0.  1.
         11   -1    0    0    0    0 -0.00000000000E+00 -0.00000000000E+00 -0.45593999997E+02  0.45594000000E+02  0.51100000000E-03 0. -1.
         23    2    1    2    0    0  0.00000000000E+00 -0.17763568394E-14  0.00000000000E+00  0.91188000000E+02  0.91188000000E+02 0.  0.
    9900012    2    3    3    0    0  0.22320266946E+02 -0.10757749802E+02  0.27237004580E+02  0.54367110333E+02  0.40000059627E+02 0.  0.
         12    1    3    3    0    0 -0.22320266946E+02  0.10757749802E+02 -0.27237004580E+02  0.36820889667E+02  0.00000000000E+00 0. -1.
         11    1    4    4    0    0  0.79075798295E+01 -0.11391434426E+02  0.12412492346E+02  0.18610872187E+02  0.51100000000E-03 0. -1.
        -11    1    4    4    0    0  0.45631609166E+00 -0.12961116034E+02  0.46604666990E+01  0.13781099496E+02  0.51100000000E-03 0.  1.
        -12    1    4    4    0    0  0.13956371025E+02  0.13594800657E+02  0.10164045534E+02  0.21975138651E+02  0.00000000000E+00 0.  1.
</event>
<event>
 8    1  0.1265908E-006  0.9118800E+02  0.7816164E-02  0.1184000E+00
        -11   -1    0    0    0    0  0.00000000000E+00  0.00000000000E+00  0.45593999997E+02  0.45594000000E+02  0.51100000000E-03 0.  1.
         11   -1    0    0    0    0 -0.00000000000E+00 -0.00000000000E+00 -0.45593999997E+02  0.45594000000E+02  0.51100000000E-03 0. -1.
         23    2    1    2    0    0 -0.17763568394E-14 -0.35527136788E-14 -0.35527136788E-14  0.91188000000E+02  0.91188000000E+02 0.  0.
    9900012    2    3    3    0    0 -0.11292833017E+02 -0.30798646403E+02 -0.16724177383E+02  0.54367043916E+02  0.39999908215E+02 0.  0.
        -12    1    3    3    0    0  0.11292833017E+02  0.30798646403E+02  0.16724177383E+02  0.36820956084E+02  0.00000000000E+00 0.  1.
         11    1    4    4    0    0 -0.40910701903E+01 -0.90294422390E+01  0.69494387796E+01  0.12106295142E+02  0.51100000000E-03 0. -1.
        -11    1    4    4    0    0 -0.26605283090E+01 -0.33263458641E+01  0.58006749351E+01  0.71965837489E+01  0.51100000000E-03 0.  1.
         12    1    4    4    0    0 -0.45412345174E+01 -0.18442858300E+02 -0.29474291097E+02  0.35064165025E+02  0.00000000000E+00 0. -1.
</event>
<event>
 8    1  0.1265908E-006  0.9118800E+02  0.7816164E-02  0.1184000E+00
        -11   -1    0    0    0    0  0.00000000000E+00  0.00000000000E+00  0.45593999997E+02  0.45594000000E+02  0.51100000000E-03 0. -1.
         11   -1    0    0    0    0 -0.00000000000E+00 -0.00000000000E+00 -0.45593999997E+02  0.45594000000E+02  0.51100000000E-03 0.  1.
         23    2    1    2    0    0  0.00000000000E+00  0.00000000000E+00 -0.44408920985E-15  0.91188000000E+02  0.91188000000E+02 0.  0.
    9900012    2    3    3    0    0  0.20849987056E+02 -0.30098935418E+02 -0.38872801150E+01  0.54367098052E+02  0.40000031629E+02 0.  0.
        -12    1    3    3    0    0 -0.20849987056E+02  0.30098935418E+02  0.38872801150E+01  0.36820901948E+02  0.00000000000E+00 0.  1.
         11    1    4    4    0    0  0.10980196191E+02 -0.15661127082E+00  0.12027723700E+01  0.11046985884E+02  0.51100000000E-03 0. -1.
        -11    1    4    4    0    0  0.73683859105E+01 -0.35794432921E+02 -0.54328853665E+01  0.36946593655E+02  0.51100000000E-03 0.  1.
        -12    1    4    4    0    0  0.25014049547E+01  0.58521087736E+01  0.34283288152E+00  0.63735185125E+01  0.00000000000E+00 0.  1.
</event>
<event>
 8    1  0.1265908E-006  0.9118800E+02  0.7816164E-02  0.1184000E+00
        -11   -1    0    0    0    0  0.00000000000E+00  0.00000000000E+00  0.45593999997E+02  0.45594000000E+02  0.51100000000E-03 0. -1.
         11   -1    0    0    0    0 -0.00000000000E+00 -0.00000000000E+00 -0.45593999997E+02  0.45594000000E+02  0.51100000000E-03 0.  1.
         23    2    1    2    0    0  0.00000000000E+00 -0.35527136788E-14  0.00000000000E+00  0.91188000000E+02  0.91188000000E+02 0.  0.
    9900012    2    3    3    0    0 -0.21057130725E+02 -0.24106636973E+02  0.18200201871E+02  0.54367081371E+02  0.39999993602E+02 0.  0.
        -12    1    3    3    0    0  0.21057130725E+02  0.24106636973E+02 -0.18200201871E+02  0.36820918629E+02  0.00000000000E+00 0.  1.
         11    1    4    4    0    0  0.10204764330E+01 -0.58193101475E+01  0.14751992220E+02  0.15891098686E+02  0.51100000000E-03 0. -1.
        -11    1    4    4    0    0 -0.99621420160E+01  0.30834419613E+01 -0.61437872288E+01  0.12103636216E+02  0.51100000000E-03 0.  1.
        -12    1    4    4    0    0 -0.12115465143E+02 -0.21370768786E+02  0.95919968800E+01  0.26372346469E+02  0.00000000000E+00 0.  1.
</event>
<event>
 8    1  0.1265908E-006  0.9118800E+02  0.7816164E-02  0.1184000E+00
        -11   -1    0    0    0    0  0.00000000000E+00  0.00000000000E+00  0.45593999997E+02  0.45594000000E+02  0.51100000000E-03 0. -1.
         11   -1    0    0    0    0 -0.00000000000E+00 -0.00000000000E+00 -0.45593999997E+02  0.45594000000E+02  0.51100000000E-03 0.  1.
         23    2    1    2    0    0  0.00000000000E+00  0.00000000000E+00  0.17763568394E-14  0.91188000000E+02  0.91188000000E+02 0.  0.
    9900012    2    3    3    0    0 -0.35977251748E+01  0.34663194022E+02 -0.11886912360E+02  0.54367091107E+02  0.40000015797E+02 0.  0.
         12    1    3    3    0    0  0.35977251748E+01 -0.34663194022E+02  0.11886912360E+02  0.36820908893E+02  0.00000000000E+00 0. -1.
         11    1    4    4    0    0 -0.12786017688E+01  0.33993877884E+02  0.14002833940E+01  0.34046723042E+02  0.51100000000E-03 0. -1.
        -11    1    4    4    0    0  0.63540292307E+01  0.18184715527E+01 -0.52583930149E+01  0.84457814092E+01  0.51100000000E-03 0.  1.
         12    1    4    4    0    0 -0.86731526367E+01 -0.11491554144E+01 -0.80288027387E+01  0.11874586656E+02  0.00000000000E+00 0. -1.
</event>
<event>
 8    1  0.1265908E-006  0.9118800E+02  0.7816164E-02  0.1184000E+00
        -11   -1    0    0    0    0  0.00000000000E+00  0.00000000000E+00  0.45593999997E+02  0.45594000000E+02  0.51100000000E-03 0. -1.
         11   -1    0    0    0    0 -0.00000000000E+00 -0.00000000000E+00 -0.45593999997E+02  0.45594000000E+02  0.51100000000E-03 0.  1.
         23    2    1    2    0    0 -0.71054273576E-14  0.88817841970E-15  0.00000000000E+00  0.91188000000E+02  0.91188000000E+02 0.  0.
    9900012    2    3    3    0    0  0.36497642371E+02 -0.25393045963E+01  0.41537060892E+01  0.54367092342E+02  0.40000018612E+02 0.  0.
        -12    1    3    3    0    0 -0.36497642371E+02  0.25393045963E+01 -0.41537060892E+01  0.36820907658E+02  0.00000000000E+00 0.  1.
         11    1    4    4    0    0  0.11417832738E+02  0.74567021154E+01  0.10072879047E+02  0.16953825628E+02  0.51100000000E-03 0.  1.
        -11    1    4    4    0    0 -0.32707463851E+01 -0.54351370298E+01  0.34340868223E+01  0.72132828180E+01  0.51100000000E-03 0. -1.
        -12    1    4    4    0    0  0.28350556019E+02 -0.45608696819E+01 -0.93532597797E+01  0.30199983896E+02  0.00000000000E+00 0.  1.
</event>
<event>
 8    1  0.1265908E-006  0.9118800E+02  0.7816164E-02  0.1184000E+00
        -11   -1    0    0    0    0  0.00000000000E+00  0.00000000000E+00  0.45593999997E+02  0.45594000000E+02  0.51100000000E-03 0.  1.
         11   -1    0    0    0    0 -0.00000000000E+00 -0.00000000000E+00 -0.45593999997E+02  0.45594000000E+02  0.51100000000E-03 0. -1.
         23    2    1    2    0    0  0.35527136788E-14  0.00000000000E+00  0.35527136788E-14  0.91188000000E+02  0.91188000000E+02 0.  0.
    9900012    2    3    3    0    0 -0.20665108675E+02  0.12315293102E+02 -0.27875923649E+02  0.54367078230E+02  0.39999986440E+02 0.  0.
        -12    1    3    3    0    0  0.20665108675E+02 -0.12315293102E+02  0.27875923649E+02  0.36820921770E+02  0.00000000000E+00 0.  1.
         11    1    4    4    0    0 -0.29540921073E+01  0.84884262402E+01  0.87903037290E+00  0.90306552847E+01  0.51100000000E-03 0. -1.
        -11    1    4    4    0    0  0.83935682752E+01  0.29587659079E+01 -0.81613332936E+01  0.12075332106E+02  0.51100000000E-03 0.  1.
         12    1    4    4    0    0 -0.26104584843E+02  0.86810095364E+00 -0.20593620728E+02  0.33261090839E+02  0.00000000000E+00 0. -1.
</event>
<event>
 8    1  0.1265908E-006  0.9118800E+02  0.7816164E-02  0.1184000E+00
        -11   -1    0    0    0    0  0.00000000000E+00  0.00000000000E+00  0.45593999997E+02  0.45594000000E+02  0.51100000000E-03 0.  1.
         11   -1    0    0    0    0 -0.00000000000E+00 -0.00000000000E+00 -0.45593999997E+02  0.45594000000E+02  0.51100000000E-03 0. -1.
         23    2    1    2    0    0  0.35527136788E-14  0.00000000000E+00  0.00000000000E+00  0.91188000000E+02  0.91188000000E+02 0.  0.
    9900012    2    3    3    0    0 -0.19857071885E+02  0.30057894027E+02 -0.76157627348E+01  0.54367080141E+02  0.39999990798E+02 0.  0.
         12    1    3    3    0    0  0.19857071885E+02 -0.30057894027E+02  0.76157627348E+01  0.36820919859E+02  0.00000000000E+00 0. -1.
         11    1    4    4    0    0 -0.15355216531E+02 -0.26668779816E+01 -0.52055212795E+01  0.16431444396E+02  0.51100000000E-03 0. -1.
        -11    1    4    4    0    0 -0.25891948886E+01  0.29765333010E+02 -0.83559479661E+01  0.31024197750E+02  0.51100000000E-03 0.  1.
        -12    1    4    4    0    0 -0.19126604656E+01  0.29594389991E+01  0.59457065107E+01  0.69114379949E+01  0.00000000000E+00 0.  1.
</event>
<event>
 8    1  0.1265908E-006  0.9118800E+02  0.7816164E-02  0.1184000E+00
        -11   -1    0    0    0    0  0.00000000000E+00  0.00000000000E+00  0.45593999997E+02  0.45594000000E+02  0.51100000000E-03 0.  1.
         11   -1    0    0    0    0 -0.00000000000E+00 -0.00000000000E+00 -0.45593999997E+02  0.45594000000E+02  0.51100000000E-03 0. -1.
         23    2    1    2    0    0  0.00000000000E+00  0.35527136788E-14  0.00000000000E+00  0.91188000000E+02  0.91188000000E+02 0.  0.
    9900012    2    3    3    0    0  0.81053811169E+01 -0.21361092786E+02  0.28875343071E+02  0.54367096622E+02  0.40000028370E+02 0.  0.
        -12    1    3    3    0    0 -0.81053811169E+01  0.21361092786E+02 -0.28875343071E+02  0.36820903378E+02  0.00000000000E+00 0.  1.
         11    1    4    4    0    0 -0.80716108017E+01 -0.64811269973E+01  0.19018417945E+02  0.21653085912E+02  0.51100000000E-03 0. -1.
        -11    1    4    4    0    0  0.87496224131E+00  0.17498924199E+01  0.99241341701E+01  0.10115143187E+02  0.51100000000E-03 0.  1.
        -12    1    4    4    0    0  0.15302029677E+02 -0.16629858209E+02 -0.67209044532E-01  0.22598867524E+02  0.00000000000E+00 0.  1.
</event>
<event>
 8    1  0.1265908E-006  0.9118800E+02  0.7816164E-02  0.1184000E+00
        -11   -1    0    0    0    0  0.00000000000E+00  0.00000000000E+00  0.45593999997E+02  0.45594000000E+02  0.51100000000E-03 0.  1.
         11   -1    0    0    0    0 -0.00000000000E+00 -0.00000000000E+00 -0.45593999997E+02  0.45594000000E+02  0.51100000000E-03 0. -1.
         23    2    1    2    0    0  0.35527136788E-14  0.00000000000E+00  0.17763568394E-14  0.91188000000E+02  0.91188000000E+02 0.  0.
    9900012    2    3    3    0    0 -0.26387039534E+02  0.23911099060E+02 -0.93682151293E+01  0.54367082462E+02  0.39999996088E+02 0.  0.
         12    1    3    3    0    0  0.26387039534E+02 -0.23911099060E+02  0.93682151293E+01  0.36820917538E+02  0.00000000000E+00 0. -1.
         11    1    4    4    0    0  0.14899670738E+01 -0.33746137356E+01 -0.10932320452E+02  0.11537922277E+02  0.51100000000E-03 0. -1.
        -11    1    4    4    0    0 -0.16180362179E+02  0.25090241633E+02 -0.31665077473E+01  0.30022510172E+02  0.51100000000E-03 0.  1.
        -12    1    4    4    0    0 -0.11696644429E+02  0.21954711629E+01  0.47306130700E+01  0.12806650013E+02  0.00000000000E+00 0.  1.
</event>
<event>
 8    1  0.1265908E-006  0.9118800E+02  0.7816164E-02  0.1184000E+00
        -11   -1    0    0    0    0  0.00000000000E+00  0.00000000000E+00  0.45593999997E+02  0.45594000000E+02  0.51100000000E-03 0. -1.
         11   -1    0    0    0    0 -0.00000000000E+00 -0.00000000000E+00 -0.45593999997E+02  0.45594000000E+02  0.51100000000E-03 0.  1.
         23    2    1    2    0    0  0.35527136788E-14  0.35527136788E-14  0.00000000000E+00  0.91188000000E+02  0.91188000000E+02 0.  0.
    9900012    2    3    3    0    0 -0.22008405919E+02 -0.23941070780E+02 -0.17269500473E+02  0.54367075952E+02  0.39999981248E+02 0.  0.
         12    1    3    3    0    0  0.22008405919E+02  0.23941070780E+02  0.17269500473E+02  0.36820924048E+02  0.00000000000E+00 0. -1.
         11    1    4    4    0    0 -0.27234649150E+01 -0.52876781822E+00  0.48272948474E+01  0.55677313471E+01  0.51100000000E-03 0. -1.
        -11    1    4    4    0    0  0.23891085811E+01 -0.21465980027E+02 -0.13031990595E+02  0.25225560796E+02  0.51100000000E-03 0.  1.
        -12    1    4    4    0    0 -0.21674049585E+02 -0.19463229348E+01 -0.90648047254E+01  0.23573783809E+02  0.00000000000E+00 0.  1.
</event>
<event>
 8    1  0.1265908E-006  0.9118800E+02  0.7816164E-02  0.1184000E+00
        -11   -1    0    0    0    0  0.00000000000E+00  0.00000000000E+00  0.45593999997E+02  0.45594000000E+02  0.51100000000E-03 0.  1.
         11   -1    0    0    0    0 -0.00000000000E+00 -0.00000000000E+00 -0.45593999997E+02  0.45594000000E+02  0.51100000000E-03 0. -1.
         23    2    1    2    0    0  0.00000000000E+00 -0.71054273576E-14  0.88817841970E-15  0.91188000000E+02  0.91188000000E+02 0.  0.
    9900012    2    3    3    0    0  0.29334019850E+01  0.35952882887E+02  0.73868228254E+01  0.54367084930E+02  0.40000001715E+02 0.  0.
        -12    1    3    3    0    0 -0.29334019850E+01 -0.35952882887E+02 -0.73868228254E+01  0.36820915070E+02  0.00000000000E+00 0.  1.
         11    1    4    4    0    0  0.80553221551E+00 -0.66032811808E+01 -0.11491998850E+01  0.67507677445E+01  0.51100000000E-03 0. -1.
        -11    1    4    4    0    0  0.92115921816E+00  0.36555625764E+02  0.14247435962E+02  0.39244767053E+02  0.51100000000E-03 0.  1.
        -12    1    4    4    0    0  0.12067105514E+01  0.60005383039E+01 -0.57114132513E+01  0.83715501324E+01  0.00000000000E+00 0.  1.
</event>
<event>
 8    1  0.1265908E-006  0.9118800E+02  0.7816164E-02  0.1184000E+00
        -11   -1    0    0    0    0  0.00000000000E+00  0.00000000000E+00  0.45593999997E+02  0.45594000000E+02  0.51100000000E-03 0.  1.
         11   -1    0    0    0    0 -0.00000000000E+00 -0.00000000000E+00 -0.45593999997E+02  0.45594000000E+02  0.51100000000E-03 0. -1.
         23    2    1    2    0    0  0.17763568394E-14  0.35527136788E-14  0.35527136788E-14  0.91188000000E+02  0.91188000000E+02 0.  0.
    9900012    2    3    3    0    0  0.62957513998E+01  0.24052764058E+02 -0.27158958946E+02  0.54367068514E+02  0.39999964291E+02 0.  0.
        -12    1    3    3    0    0 -0.62957513998E+01 -0.24052764058E+02  0.27158958946E+02  0.36820931486E+02  0.00000000000E+00 0.  1.
         11    1    4    4    0    0 -0.52374861913E+01  0.83497750924E+01 -0.44214270352E+01  0.10802732200E+02  0.51100000000E-03 0. -1.
        -11    1    4    4    0    0 -0.44473139860E+01 -0.11251343569E+01  0.54037529438E+01  0.70883760588E+01  0.51100000000E-03 0.  1.
         12    1    4    4    0    0  0.15980551577E+02  0.16828123322E+02 -0.28141284854E+02  0.36475960255E+02  0.00000000000E+00 0. -1.
</event>
<event>
 8    1  0.1265908E-006  0.9118800E+02  0.7816164E-02  0.1184000E+00
        -11   -1    0    0    0    0  0.00000000000E+00  0.00000000000E+00  0.45593999997E+02  0.45594000000E+02  0.51100000000E-03 0. -1.
         11   -1    0    0    0    0 -0.00000000000E+00 -0.00000000000E+00 -0.45593999997E+02  0.45594000000E+02  0.51100000000E-03 0.  1.
         23    2    1    2    0    0  0.00000000000E+00  0.00000000000E+00  0.35527136788E-14  0.91188000000E+02  0.91188000000E+02 0.  0.
    9900012    2    3    3    0    0 -0.23601299240E+02  0.68553493426E+01  0.27418294791E+02  0.54367081629E+02  0.39999994190E+02 0.  0.
        -12    1    3    3    0    0  0.23601299240E+02 -0.68553493426E+01 -0.27418294791E+02  0.36820918371E+02  0.00000000000E+00 0.  1.
         11    1    4    4    0    0 -0.18460737616E+02  0.11642211559E+02  0.47625215770E+01  0.22338789926E+02  0.51100000000E-03 0. -1.
        -11    1    4    4    0    0  0.36809761135E+01 -0.32726561926E+00 -0.28547158582E+01  0.46696992222E+01  0.51100000000E-03 0.  1.
         12    1    4    4    0    0 -0.88215377380E+01 -0.44595965970E+01  0.25510489072E+02  0.27358592481E+02  0.00000000000E+00 0. -1.
</event>
<event>
 8    1  0.1265908E-006  0.9118800E+02  0.7816164E-02  0.1184000E+00
        -11   -1    0    0    0    0  0.00000000000E+00  0.00000000000E+00  0.45593999997E+02  0.45594000000E+02  0.51100000000E-03 0.  1.
         11   -1    0    0    0    0 -0.00000000000E+00 -0.00000000000E+00 -0.45593999997E+02  0.45594000000E+02  0.51100000000E-03 0. -1.
         23    2    1    2    0    0  0.00000000000E+00  0.22204460493E-15  0.00000000000E+00  0.91188000000E+02  0.91188000000E+02 0.  0.
    9900012    2    3    3    0    0  0.36628581970E+02  0.37531487405E+00 -0.37394835667E+01  0.54367114409E+02  0.40000068917E+02 0.  0.
         12    1    3    3    0    0 -0.36628581970E+02 -0.37531487405E+00  0.37394835667E+01  0.36820885591E+02  0.00000000000E+00 0. -1.
         11    1    4    4    0    0  0.64925899570E+01 -0.69221464764E+01  0.67414894985E+01  0.11641199127E+02  0.51100000000E-03 0. -1.
        -11    1    4    4    0    0  0.15609593560E+02  0.17540923638E+02 -0.40732983451E+01  0.23831390494E+02  0.51100000000E-03 0.  1.
        -12    1    4    4    0    0  0.14526398453E+02 -0.10243462288E+02 -0.64076747201E+01  0.18894524788E+02  0.00000000000E+00 0.  1.
</event>
<event>
 8    1  0.1265908E-006  0.9118800E+02  0.7816164E-02  0.1184000E+00
        -11   -1    0    0    0    0  0.00000000000E+00  0.00000000000E+00  0.45593999997E+02  0.45594000000E+02  0.51100000000E-03 0.  1.
         11   -1    0    0    0    0 -0.00000000000E+00 -0.00000000000E+00 -0.45593999997E+02  0.45594000000E+02  0.51100000000E-03 0. -1.
         23    2    1    2    0    0 -0.17763568394E-14  0.35527136788E-14  0.35527136788E-14  0.91188000000E+02  0.91188000000E+02 0.  0.
    9900012    2    3    3    0    0 -0.64386596455E+01 -0.18276237697E+02 -0.31309842441E+02  0.54367035373E+02  0.39999888740E+02 0.  0.
        -12    1    3    3    0    0  0.64386596455E+01  0.18276237697E+02  0.31309842441E+02  0.36820964627E+02  0.00000000000E+00 0.  1.
         11    1    4    4    0    0 -0.98374423050E+00 -0.98871581910E+01 -0.38249083532E+01  0.10646763545E+02  0.51100000000E-03 0. -1.
        -11    1    4    4    0    0  0.12250739824E+02 -0.52975932143E+01 -0.35924013145E+01  0.13822100693E+02  0.51100000000E-03 0.  1.
         12    1    4    4    0    0 -0.17705655239E+02 -0.30914862920E+01 -0.23892532773E+02  0.29898171135E+02  0.00000000000E+00 0. -1.
</event>
<event>
 8    1  0.1265908E-006  0.9118800E+02  0.7816164E-02  0.1184000E+00
        -11   -1    0    0    0    0  0.00000000000E+00  0.00000000000E+00  0.45593999997E+02  0.45594000000E+02  0.51100000000E-03 0.  1.
         11   -1    0    0    0    0 -0.00000000000E+00 -0.00000000000E+00 -0.45593999997E+02  0.45594000000E+02  0.51100000000E-03 0. -1.
         23    2    1    2    0    0  0.00000000000E+00  0.00000000000E+00  0.00000000000E+00  0.91188000000E+02  0.91188000000E+02 0.  0.
    9900012    2    3    3    0    0 -0.20798157368E+02  0.28275497614E+02  0.11122622054E+02  0.54367084251E+02  0.40000000166E+02 0.  0.
         12    1    3    3    0    0  0.20798157368E+02 -0.28275497614E+02 -0.11122622054E+02  0.36820915749E+02  0.00000000000E+00 0. -1.
         11    1    4    4    0    0  0.70023475511E+00  0.10267953755E+02  0.92211620994E+01  0.13818503311E+02  0.51100000000E-03 0. -1.
        -11    1    4    4    0    0  0.41298935189E+01  0.12545854196E+02  0.50828158317E+01  0.14152367117E+02  0.51100000000E-03 0.  1.
         12    1    4    4    0    0 -0.25628285642E+02  0.54616896637E+01 -0.31813558770E+01  0.26396213823E+02  0.00000000000E+00 0. -1.
</event>
<event>
 8    1  0.1265908E-006  0.9118800E+02  0.7816164E-02  0.1184000E+00
        -11   -1    0    0    0    0  0.00000000000E+00  0.00000000000E+00  0.45593999997E+02  0.45594000000E+02  0.51100000000E-03 0. -1.
         11   -1    0    0    0    0 -0.00000000000E+00 -0.00000000000E+00 -0.45593999997E+02  0.45594000000E+02  0.51100000000E-03 0.  1.
         23    2    1    2    0    0 -0.35527136788E-14  0.00000000000E+00 -0.35527136788E-14  0.91188000000E+02  0.91188000000E+02 0.  0.
    9900012    2    3    3    0    0 -0.16054804076E+02  0.11981295617E+02  0.30894510433E+02  0.54367096243E+02  0.40000027506E+02 0.  0.
        -12    1    3    3    0    0  0.16054804076E+02 -0.11981295617E+02 -0.30894510433E+02  0.36820903757E+02  0.00000000000E+00 0.  1.
         11    1    4    4    0    0 -0.29217323845E+01  0.49429389655E+01  0.20194916256E+02  0.20995328256E+02  0.51100000000E-03 0. -1.
        -11    1    4    4    0    0  0.77646092532E+01  0.51895493612E+00  0.82549092266E+01  0.11344690286E+02  0.51100000000E-03 0.  1.
        -12    1    4    4    0    0 -0.20897680944E+02  0.65194017151E+01  0.24446849507E+01  0.22027077702E+02  0.00000000000E+00 0.  1.
</event>
<event>
 8    1  0.1265908E-006  0.9118800E+02  0.7816164E-02  0.1184000E+00
        -11   -1    0    0    0    0  0.00000000000E+00  0.00000000000E+00  0.45593999997E+02  0.45594000000E+02  0.51100000000E-03 0.  1.
         11   -1    0    0    0    0 -0.00000000000E+00 -0.00000000000E+00 -0.45593999997E+02  0.45594000000E+02  0.51100000000E-03 0. -1.
         23    2    1    2    0    0  0.00000000000E+00  0.00000000000E+00  0.00000000000E+00  0.91188000000E+02  0.91188000000E+02 0.  0.
    9900012    2    3    3    0    0 -0.78989201300E+01 -0.20821137206E+02  0.29323481959E+02  0.54367091701E+02  0.40000017150E+02 0.  0.
         12    1    3    3    0    0  0.78989201300E+01  0.20821137206E+02 -0.29323481959E+02  0.36820908299E+02  0.00000000000E+00 0. -1.
         11    1    4    4    0    0 -0.11358898152E+02 -0.23437413516E+01 -0.23233798057E+01  0.11828600286E+02  0.51100000000E-03 0. -1.
        -11    1    4    4    0    0  0.11373716955E+02 -0.47407874390E+01  0.16668070651E+02  0.20728267713E+02  0.51100000000E-03 0.  1.
        -12    1    4    4    0    0 -0.79137389330E+01 -0.13736608416E+02  0.14978791114E+02  0.21810223701E+02  0.00000000000E+00 0.  1.
</event>
<event>
 8    1  0.1265908E-006  0.9118800E+02  0.7816164E-02  0.1184000E+00
        -11   -1    0    0    0    0  0.00000000000E+00  0.00000000000E+00  0.45593999997E+02  0.45594000000E+02  0.51100000000E-03 0. -1.
         11   -1    0    0    0    0 -0.00000000000E+00 -0.00000000000E+00 -0.45593999997E+02  0.45594000000E+02  0.51100000000E-03 0.  1.
         23    2    1    2    0    0  0.22204460493E-15 -0.13877787808E-14  0.00000000000E+00  0.91188000000E+02  0.91188000000E+02 0.  0.
    9900012    2    3    3    0    0  0.46678792917E+00  0.31362202055E+00 -0.36816575313E+02  0.54367130000E+02  0.40000104461E+02 0.  0.
         12    1    3    3    0    0 -0.46678792917E+00 -0.31362202055E+00  0.36816575313E+02  0.36820870000E+02  0.00000000000E+00 0. -1.
         11    1    4    4    0    0  0.37667123395E+01 -0.23049904478E+01  0.38697196240E+01  0.58716124738E+01  0.51100000000E-03 0. -1.
        -11    1    4    4    0    0 -0.34828870337E+00 -0.86143168203E+01 -0.31098038011E+01  0.91650771543E+01  0.51100000000E-03 0.  1.
        -12    1    4    4    0    0 -0.29516357069E+01  0.11232929289E+02 -0.37576491136E+02  0.39330440372E+02  0.00000000000E+00 0.  1.
</event>
<event>
 8    1  0.1265908E-006  0.9118800E+02  0.7816164E-02  0.1184000E+00
        -11   -1    0    0    0    0  0.00000000000E+00  0.00000000000E+00  0.45593999997E+02  0.45594000000E+02  0.51100000000E-03 0.  1.
         11   -1    0    0    0    0 -0.00000000000E+00 -0.00000000000E+00 -0.45593999997E+02  0.45594000000E+02  0.51100000000E-03 0. -1.
         23    2    1    2    0    0  0.00000000000E+00  0.17763568394E-14 -0.35527136788E-14  0.91188000000E+02  0.91188000000E+02 0.  0.
    9900012    2    3    3    0    0  0.29909187531E+02  0.10323443043E+02 -0.18832081428E+02  0.54367078421E+02  0.39999986875E+02 0.  0.
        -12    1    3    3    0    0 -0.29909187531E+02 -0.10323443043E+02  0.18832081428E+02  0.36820921579E+02  0.00000000000E+00 0.  1.
         11    1    4    4    0    0  0.33806472152E+01  0.10998600844E+02  0.30645164751E+01  0.11907529450E+02  0.51100000000E-03 0. -1.
        -11    1    4    4    0    0 -0.15169289881E+01 -0.93997245760E+00  0.39405997664E+01  0.43258465710E+01  0.51100000000E-03 0.  1.
         12    1    4    4    0    0  0.28045469304E+02  0.26481465686E+00 -0.25837197669E+02  0.38133702400E+02  0.00000000000E+00 0. -1.
</event>
<event>
 8    1  0.1265908E-006  0.9118800E+02  0.7816164E-02  0.1184000E+00
        -11   -1    0    0    0    0  0.00000000000E+00  0.00000000000E+00  0.45593999997E+02  0.45594000000E+02  0.51100000000E-03 0. -1.
         11   -1    0    0    0    0 -0.00000000000E+00 -0.00000000000E+00 -0.45593999997E+02  0.45594000000E+02  0.51100000000E-03 0.  1.
         23    2    1    2    0    0  0.00000000000E+00  0.17763568394E-14  0.00000000000E+00  0.91188000000E+02  0.91188000000E+02 0.  0.
    9900012    2    3    3    0    0  0.32329598337E+02  0.14716493458E+02 -0.96948871041E+01  0.54367232161E+02  0.40000337355E+02 0.  0.
        -12    1    3    3    0    0 -0.32329598337E+02 -0.14716493458E+02  0.96948871041E+01  0.36820767839E+02  0.00000000000E+00 0.  1.
         11    1    4    4    0    0  0.14470311265E+02 -0.10720269930E+02 -0.73293403039E+01  0.19443079104E+02  0.51100000000E-03 0. -1.
        -11    1    4    4    0    0  0.22744443737E+01  0.12545863920E+02  0.45671745682E+01  0.13543665771E+02  0.51100000000E-03 0.  1.
        -12    1    4    4    0    0  0.15584842698E+02  0.12890899468E+02 -0.69327213684E+01  0.21380487286E+02  0.00000000000E+00 0.  1.
</event>
<event>
 8    1  0.1265908E-006  0.9118800E+02  0.7816164E-02  0.1184000E+00
        -11   -1    0    0    0    0  0.00000000000E+00  0.00000000000E+00  0.45593999997E+02  0.45594000000E+02  0.51100000000E-03 0.  1.
         11   -1    0    0    0    0 -0.00000000000E+00 -0.00000000000E+00 -0.45593999997E+02  0.45594000000E+02  0.51100000000E-03 0. -1.
         23    2    1    2    0    0 -0.17763568394E-14  0.00000000000E+00 -0.17763568394E-14  0.91188000000E+02  0.91188000000E+02 0.  0.
    9900012    2    3    3    0    0 -0.12162153549E+02  0.33742986922E+02 -0.83229460907E+01  0.54367101356E+02  0.40000039160E+02 0.  0.
         12    1    3    3    0    0  0.12162153549E+02 -0.33742986922E+02  0.83229460907E+01  0.36820898644E+02  0.00000000000E+00 0. -1.
         11    1    4    4    0    0  0.35557014891E+01  0.19206217250E+00  0.11000621141E+02  0.11562593425E+02  0.51100000000E-03 0.  1.
        -11    1    4    4    0    0 -0.39523343138E+01  0.56977597231E+01 -0.78257649559E+01  0.10456003529E+02  0.51100000000E-03 0. -1.
         12    1    4    4    0    0 -0.11765520724E+02  0.27853165026E+02 -0.11497802276E+02  0.32348504402E+02  0.00000000000E+00 0. -1.
</event>
<event>
 8    1  0.1265908E-006  0.9118800E+02  0.7816164E-02  0.1184000E+00
        -11   -1    0    0    0    0  0.00000000000E+00  0.00000000000E+00  0.45593999997E+02  0.45594000000E+02  0.51100000000E-03 0.  1.
         11   -1    0    0    0    0 -0.00000000000E+00 -0.00000000000E+00 -0.45593999997E+02  0.45594000000E+02  0.51100000000E-03 0. -1.
         23    2    1    2    0    0  0.00000000000E+00  0.88817841970E-15  0.35527136788E-14  0.91188000000E+02  0.91188000000E+02 0.  0.
    9900012    2    3    3    0    0 -0.24860203889E+02  0.79561590979E+01  0.25970162976E+02  0.54367087872E+02  0.40000008421E+02 0.  0.
         12    1    3    3    0    0  0.24860203889E+02 -0.79561590979E+01 -0.25970162976E+02  0.36820912128E+02  0.00000000000E+00 0. -1.
         11    1    4    4    0    0 -0.14981423347E+02  0.14624375806E+01 -0.89117927557E+01  0.17492907693E+02  0.51100000000E-03 0. -1.
        -11    1    4    4    0    0 -0.51711240632E+01  0.42051735293E+01  0.21299608188E+02  0.22318093954E+02  0.51100000000E-03 0.  1.
         12    1    4    4    0    0 -0.47076564787E+01  0.22885479881E+01  0.13582347543E+02  0.14556086225E+02  0.00000000000E+00 0. -1.
</event>
<event>
 8    1  0.1265908E-006  0.9118800E+02  0.7816164E-02  0.1184000E+00
        -11   -1    0    0    0    0  0.00000000000E+00  0.00000000000E+00  0.45593999997E+02  0.45594000000E+02  0.51100000000E-03 0.  1.
         11   -1    0    0    0    0 -0.00000000000E+00 -0.00000000000E+00 -0.45593999997E+02  0.45594000000E+02  0.51100000000E-03 0. -1.
         23    2    1    2    0    0  0.17763568394E-14 -0.17763568394E-14 -0.71054273576E-14  0.91188000000E+02  0.91188000000E+02 0.  0.
    9900012    2    3    3    0    0 -0.83223652089E+01  0.97051044590E+01  0.34530109790E+02  0.54367091573E+02  0.40000016860E+02 0.  0.
         12    1    3    3    0    0  0.83223652089E+01 -0.97051044590E+01 -0.34530109790E+02  0.36820908427E+02  0.00000000000E+00 0. -1.
         11    1    4    4    0    0  0.21157213585E+01  0.17653436820E+01 -0.79417740514E+01  0.84062173732E+01  0.51100000000E-03 0. -1.
        -11    1    4    4    0    0  0.12847797585E+01 -0.17999899467E+01  0.38406456104E+01  0.44318372941E+01  0.51100000000E-03 0.  1.
        -12    1    4    4    0    0 -0.11722866326E+02  0.97397507237E+01  0.38631238231E+02  0.41529036906E+02  0.00000000000E+00 0.  1.
</event>
<event>
 8    1  0.1265908E-006  0.9118800E+02  0.7816164E-02  0.1184000E+00
        -11   -1    0    0    0    0  0.00000000000E+00  0.00000000000E+00  0.45593999997E+02  0.45594000000E+02  0.51100000000E-03 0.  1.
         11   -1    0    0    0    0 -0.00000000000E+00 -0.00000000000E+00 -0.45593999997E+02  0.45594000000E+02  0.51100000000E-03 0. -1.
         23    2    1    2    0    0  0.00000000000E+00  0.00000000000E+00  0.88817841970E-15  0.91188000000E+02  0.91188000000E+02 0.  0.
    9900012    2    3    3    0    0  0.21528129740E+02  0.29373991014E+02  0.54303841501E+01  0.54367071302E+02  0.39999970647E+02 0.  0.
         12    1    3    3    0    0 -0.21528129740E+02 -0.29373991014E+02 -0.54303841501E+01  0.36820928698E+02  0.00000000000E+00 0. -1.
         11    1    4    4    0    0  0.12205163452E+02  0.11540116929E+02  0.14124174204E+02  0.21946129746E+02  0.51100000000E-03 0.  1.
        -11    1    4    4    0    0 -0.49381987636E+01  0.44043180902E+00 -0.86017660526E+01  0.99282509382E+01  0.51100000000E-03 0. -1.
         12    1    4    4    0    0  0.14261165051E+02  0.17393442276E+02 -0.92024000862E-01  0.22492690618E+02  0.00000000000E+00 0. -1.
</event>
<event>
 8    1  0.1265908E-006  0.9118800E+02  0.7816164E-02  0.1184000E+00
        -11   -1    0    0    0    0  0.00000000000E+00  0.00000000000E+00  0.45593999997E+02  0.45594000000E+02  0.51100000000E-03 0.  1.
         11   -1    0    0    0    0 -0.00000000000E+00 -0.00000000000E+00 -0.45593999997E+02  0.45594000000E+02  0.51100000000E-03 0. -1.
         23    2    1    2    0    0  0.00000000000E+00  0.00000000000E+00  0.17763568394E-14  0.91188000000E+02  0.91188000000E+02 0.  0.
    9900012    2    3    3    0    0 -0.16565388194E+02 -0.31484744454E+02 -0.94909671319E+01  0.54367086425E+02  0.40000005124E+02 0.  0.
        -12    1    3    3    0    0  0.16565388194E+02  0.31484744454E+02  0.94909671319E+01  0.36820913575E+02  0.00000000000E+00 0.  1.
         11    1    4    4    0    0 -0.19266556001E+02 -0.16581160140E+02 -0.28404190486E+01  0.25577392993E+02  0.51100000000E-03 0. -1.
        -11    1    4    4    0    0  0.39344984758E+01 -0.69294202942E+01  0.84834565788E+01  0.11638993928E+02  0.51100000000E-03 0.  1.
        -12    1    4    4    0    0 -0.12333306686E+01 -0.79741640204E+01 -0.15134004662E+02  0.17150699504E+02  0.00000000000E+00 0.  1.
</event>
<event>
 8    1  0.1265908E-006  0.9118800E+02  0.7816164E-02  0.1184000E+00
        -11   -1    0    0    0    0  0.00000000000E+00  0.00000000000E+00  0.45593999997E+02  0.45594000000E+02  0.51100000000E-03 0.  1.
         11   -1    0    0    0    0 -0.00000000000E+00 -0.00000000000E+00 -0.45593999997E+02  0.45594000000E+02  0.51100000000E-03 0. -1.
         23    2    1    2    0    0 -0.17763568394E-14  0.00000000000E+00  0.00000000000E+00  0.91188000000E+02  0.91188000000E+02 0.  0.
    9900012    2    3    3    0    0  0.98370702534E+01 -0.25984596953E+02 -0.24162206683E+02  0.54367089341E+02  0.40000011770E+02 0.  0.
        -12    1    3    3    0    0 -0.98370702534E+01  0.25984596953E+02  0.24162206683E+02  0.36820910659E+02  0.00000000000E+00 0.  1.
         11    1    4    4    0    0  0.62363131407E+01 -0.46560869760E+01 -0.22337727752E+02  0.23654699932E+02  0.51100000000E-03 0. -1.
        -11    1    4    4    0    0 -0.81790607527E+01 -0.27401747046E+01  0.51011430359E-01  0.86260184694E+01  0.51100000000E-03 0.  1.
         12    1    4    4    0    0  0.11779817865E+02 -0.18588335273E+02 -0.18754903615E+01  0.22086370939E+02  0.00000000000E+00 0. -1.
</event>
<event>
 8    1  0.1265908E-006  0.9118800E+02  0.7816164E-02  0.1184000E+00
        -11   -1    0    0    0    0  0.00000000000E+00  0.00000000000E+00  0.45593999997E+02  0.45594000000E+02  0.51100000000E-03 0.  1.
         11   -1    0    0    0    0 -0.00000000000E+00 -0.00000000000E+00 -0.45593999997E+02  0.45594000000E+02  0.51100000000E-03 0. -1.
         23    2    1    2    0    0  0.00000000000E+00  0.00000000000E+00  0.00000000000E+00  0.91188000000E+02  0.91188000000E+02 0.  0.
    9900012    2    3    3    0    0  0.18743409481E+02  0.27874757413E+02 -0.15081864271E+02  0.54367080271E+02  0.39999991093E+02 0.  0.
        -12    1    3    3    0    0 -0.18743409481E+02 -0.27874757413E+02  0.15081864271E+02  0.36820919729E+02  0.00000000000E+00 0.  1.
         11    1    4    4    0    0  0.50259172297E+01  0.18094194355E+01 -0.91293610752E+01  0.10577290608E+02  0.51100000000E-03 0. -1.
        -11    1    4    4    0    0  0.14506572219E+02 -0.25634797231E+01 -0.25164027264E+01  0.14944709726E+02  0.51100000000E-03 0.  1.
        -12    1    4    4    0    0 -0.78907996824E+00  0.28628817701E+02 -0.34361004698E+01  0.28845079937E+02  0.00000000000E+00 0.  1.
</event>
<event>
 8    1  0.1265908E-006  0.9118800E+02  0.7816164E-02  0.1184000E+00
        -11   -1    0    0    0    0  0.00000000000E+00  0.00000000000E+00  0.45593999997E+02  0.45594000000E+02  0.51100000000E-03 0.  1.
         11   -1    0    0    0    0 -0.00000000000E+00 -0.00000000000E+00 -0.45593999997E+02  0.45594000000E+02  0.51100000000E-03 0. -1.
         23    2    1    2    0    0  0.00000000000E+00  0.35527136788E-14  0.11102230246E-14  0.91188000000E+02  0.91188000000E+02 0.  0.
    9900012    2    3    3    0    0 -0.28647184687E+02 -0.23080702573E+02  0.15515625619E+01  0.54366981979E+02  0.39999767016E+02 0.  0.
        -12    1    3    3    0    0  0.28647184687E+02  0.23080702573E+02 -0.15515625619E+01  0.36821018021E+02  0.00000000000E+00 0.  1.
         11    1    4    4    0    0 -0.11779707403E+02  0.27587754963E+01 -0.99367356361E+01  0.15656023253E+02  0.51100000000E-03 0. -1.
        -11    1    4    4    0    0 -0.41060540817E+01 -0.76472840497E+01  0.13869770393E+02  0.16361881447E+02  0.51100000000E-03 0.  1.
        -12    1    4    4    0    0 -0.12761423202E+02 -0.18192194020E+02 -0.23814721951E+01  0.22349077279E+02  0.00000000000E+00 0.  1.
</event>
<event>
 8    1  0.1265908E-006  0.9118800E+02  0.7816164E-02  0.1184000E+00
        -11   -1    0    0    0    0  0.00000000000E+00  0.00000000000E+00  0.45593999997E+02  0.45594000000E+02  0.51100000000E-03 0. -1.
         11   -1    0    0    0    0 -0.00000000000E+00 -0.00000000000E+00 -0.45593999997E+02  0.45594000000E+02  0.51100000000E-03 0.  1.
         23    2    1    2    0    0 -0.35527136788E-14  0.00000000000E+00 -0.35527136788E-14  0.91188000000E+02  0.91188000000E+02 0.  0.
    9900012    2    3    3    0    0  0.20620527693E+02 -0.43206924204E+01  0.30197768287E+02  0.54367085361E+02  0.40000002698E+02 0.  0.
        -12    1    3    3    0    0 -0.20620527693E+02  0.43206924204E+01 -0.30197768287E+02  0.36820914639E+02  0.00000000000E+00 0.  1.
         11    1    4    4    0    0 -0.24544904318E+01 -0.49136617085E+01  0.63801267811E+01  0.84187061161E+01  0.51100000000E-03 0. -1.
        -11    1    4    4    0    0 -0.53027802570E+01 -0.61178264013E+01  0.12018753150E+02  0.14491297591E+02  0.51100000000E-03 0.  1.
         12    1    4    4    0    0  0.28377798381E+02  0.67107956894E+01  0.11798888356E+02  0.31457081654E+02  0.00000000000E+00 0. -1.
</event>
<event>
 8    1  0.1265908E-006  0.9118800E+02  0.7816164E-02  0.1184000E+00
        -11   -1    0    0    0    0  0.00000000000E+00  0.00000000000E+00  0.45593999997E+02  0.45594000000E+02  0.51100000000E-03 0.  1.
         11   -1    0    0    0    0 -0.00000000000E+00 -0.00000000000E+00 -0.45593999997E+02  0.45594000000E+02  0.51100000000E-03 0. -1.
         23    2    1    2    0    0  0.22204460493E-15  0.00000000000E+00  0.71054273576E-14  0.91188000000E+02  0.91188000000E+02 0.  0.
    9900012    2    3    3    0    0 -0.16834201559E+01  0.17930127810E+02 -0.32116296174E+02  0.54367083843E+02  0.39999999236E+02 0.  0.
        -12    1    3    3    0    0  0.16834201559E+01 -0.17930127810E+02  0.32116296174E+02  0.36820916157E+02  0.00000000000E+00 0.  1.
         11    1    4    4    0    0  0.44011565937E+01  0.56026693961E+01  0.33966913797E+01  0.78928826366E+01  0.51100000000E-03 0. -1.
        -11    1    4    4    0    0 -0.10370137510E+01  0.49849956987E+00  0.43960318882E+01  0.45441166318E+01  0.51100000000E-03 0.  1.
         12    1    4    4    0    0 -0.50475629986E+01  0.11828958844E+02 -0.39909019442E+02  0.41930084574E+02  0.00000000000E+00 0. -1.
</event>
<event>
 8    1  0.1265908E-006  0.9118800E+02  0.7816164E-02  0.1184000E+00
        -11   -1    0    0    0    0  0.00000000000E+00  0.00000000000E+00  0.45593999997E+02  0.45594000000E+02  0.51100000000E-03 0.  1.
         11   -1    0    0    0    0 -0.00000000000E+00 -0.00000000000E+00 -0.45593999997E+02  0.45594000000E+02  0.51100000000E-03 0. -1.
         23    2    1    2    0    0  0.00000000000E+00 -0.17763568394E-14  0.17763568394E-14  0.91188000000E+02  0.91188000000E+02 0.  0.
    9900012    2    3    3    0    0 -0.32008265640E+02  0.13749431279E+02 -0.11924900016E+02  0.54367093301E+02  0.40000020798E+02 0.  0.
        -12    1    3    3    0    0  0.32008265640E+02 -0.13749431279E+02  0.11924900016E+02  0.36820906699E+02  0.00000000000E+00 0.  1.
         11    1    4    4    0    0 -0.22199561049E+02  0.19935498211E+02  0.27241361899E+01  0.29961066702E+02  0.51100000000E-03 0. -1.
        -11    1    4    4    0    0  0.72933102788E+00 -0.40057971303E+00 -0.12085366017E+02  0.12113977872E+02  0.51100000000E-03 0.  1.
         12    1    4    4    0    0 -0.10538035618E+02 -0.57854872189E+01 -0.25636701889E+01  0.12292048726E+02  0.00000000000E+00 0. -1.
</event>
<event>
 8    1  0.1265908E-006  0.9118800E+02  0.7816164E-02  0.1184000E+00
        -11   -1    0    0    0    0  0.00000000000E+00  0.00000000000E+00  0.45593999997E+02  0.45594000000E+02  0.51100000000E-03 0. -1.
         11   -1    0    0    0    0 -0.00000000000E+00 -0.00000000000E+00 -0.45593999997E+02  0.45594000000E+02  0.51100000000E-03 0.  1.
         23    2    1    2    0    0 -0.17763568394E-14  0.00000000000E+00  0.88817841970E-15  0.91188000000E+02  0.91188000000E+02 0.  0.
    9900012    2    3    3    0    0  0.14660883229E+02 -0.33421148197E+02 -0.48852249119E+01  0.54367081132E+02  0.39999993057E+02 0.  0.
         12    1    3    3    0    0 -0.14660883229E+02  0.33421148197E+02  0.48852249119E+01  0.36820918868E+02  0.00000000000E+00 0. -1.
         11    1    4    4    0    0 -0.68789088390E+01 -0.64215070080E+01  0.10384787690E+02  0.14014241138E+02  0.51100000000E-03 0. -1.
        -11    1    4    4    0    0  0.84543916960E+01 -0.77743140172E+01  0.16357463772E+01  0.11601394910E+02  0.51100000000E-03 0.  1.
         12    1    4    4    0    0  0.13085400372E+02 -0.19225327172E+02 -0.16905758979E+02  0.28751445083E+02  0.00000000000E+00 0. -1.
</event>
<event>
 8    1  0.1265908E-006  0.9118800E+02  0.7816164E-02  0.1184000E+00
        -11   -1    0    0    0    0  0.00000000000E+00  0.00000000000E+00  0.45593999997E+02  0.45594000000E+02  0.51100000000E-03 0. -1.
         11   -1    0    0    0    0 -0.00000000000E+00 -0.00000000000E+00 -0.45593999997E+02  0.45594000000E+02  0.51100000000E-03 0.  1.
         23    2    1    2    0    0  0.00000000000E+00  0.22204460493E-15 -0.35527136788E-14  0.91188000000E+02  0.91188000000E+02 0.  0.
    9900012    2    3    3    0    0  0.21952172396E+02 -0.12675766309E+01  0.29534308870E+02  0.54367081709E+02  0.39999994371E+02 0.  0.
        -12    1    3    3    0    0 -0.21952172396E+02  0.12675766309E+01 -0.29534308870E+02  0.36820918291E+02  0.00000000000E+00 0.  1.
         11    1    4    4    0    0  0.15305535252E+02 -0.13309250629E+02  0.80986173680E+01  0.21839944258E+02  0.51100000000E-03 0. -1.
        -11    1    4    4    0    0 -0.14103951150E+01  0.11760787178E+02  0.27263701357E+01  0.12154769591E+02  0.51100000000E-03 0.  1.
         12    1    4    4    0    0  0.80570322587E+01  0.28088682013E+00  0.18709321366E+02  0.20372367859E+02  0.00000000000E+00 0. -1.
</event>
<event>
 8    1  0.1265908E-006  0.9118800E+02  0.7816164E-02  0.1184000E+00
        -11   -1    0    0    0    0  0.00000000000E+00  0.00000000000E+00  0.45593999997E+02  0.45594000000E+02  0.51100000000E-03 0. -1.
         11   -1    0    0    0    0 -0.00000000000E+00 -0.00000000000E+00 -0.45593999997E+02  0.45594000000E+02  0.51100000000E-03 0.  1.
         23    2    1    2    0    0  0.00000000000E+00  0.00000000000E+00  0.17763568394E-14  0.91188000000E+02  0.91188000000E+02 0.  0.
    9900012    2    3    3    0    0  0.35324085676E+02  0.39281037600E+01  0.96210252043E+01  0.54367012045E+02  0.39999835558E+02 0.  0.
        -12    1    3    3    0    0 -0.35324085676E+02 -0.39281037600E+01 -0.96210252043E+01  0.36820987955E+02  0.00000000000E+00 0.  1.
         11    1    4    4    0    0  0.32427440756E+02  0.21035937628E+01  0.72746640607E+01  0.33299921293E+02  0.51100000000E-03 0. -1.
        -11    1    4    4    0    0 -0.99041530868E+00  0.33210272064E+01  0.10962369635E+02  0.11497116702E+02  0.51100000000E-03 0.  1.
        -12    1    4    4    0    0  0.38870602293E+01 -0.14965172092E+01 -0.86160084914E+01  0.95699740495E+01  0.00000000000E+00 0.  1.
</event>
<event>
 8    1  0.1265908E-006  0.9118800E+02  0.7816164E-02  0.1184000E+00
        -11   -1    0    0    0    0  0.00000000000E+00  0.00000000000E+00  0.45593999997E+02  0.45594000000E+02  0.51100000000E-03 0.  1.
         11   -1    0    0    0    0 -0.00000000000E+00 -0.00000000000E+00 -0.45593999997E+02  0.45594000000E+02  0.51100000000E-03 0. -1.
         23    2    1    2    0    0 -0.35527136788E-14 -0.88817841970E-15  0.35527136788E-14  0.91188000000E+02  0.91188000000E+02 0.  0.
    9900012    2    3    3    0    0  0.21960269617E+02  0.75894848867E+01 -0.28564425631E+02  0.54367080211E+02  0.39999990958E+02 0.  0.
        -12    1    3    3    0    0 -0.21960269617E+02 -0.75894848867E+01  0.28564425631E+02  0.36820919789E+02  0.00000000000E+00 0.  1.
         11    1    4    4    0    0  0.14288353989E+02 -0.18287655769E+01 -0.18651109141E+02  0.23566190097E+02  0.51100000000E-03 0. -1.
        -11    1    4    4    0    0  0.13865423705E+02  0.93611222698E+01  0.25122179904E+01  0.16917204975E+02  0.51100000000E-03 0.  1.
         12    1    4    4    0    0 -0.61935080771E+01  0.57128193751E-01 -0.12425534480E+02  0.13883685139E+02  0.00000000000E+00 0. -1.
</event>
<event>
 8    1  0.1265908E-006  0.9118800E+02  0.7816164E-02  0.1184000E+00
        -11   -1    0    0    0    0  0.00000000000E+00  0.00000000000E+00  0.45593999997E+02  0.45594000000E+02  0.51100000000E-03 0. -1.
         11   -1    0    0    0    0 -0.00000000000E+00 -0.00000000000E+00 -0.45593999997E+02  0.45594000000E+02  0.51100000000E-03 0.  1.
         23    2    1    2    0    0 -0.17763568394E-14  0.00000000000E+00  0.00000000000E+00  0.91188000000E+02  0.91188000000E+02 0.  0.
    9900012    2    3    3    0    0  0.11925009055E+02 -0.20078611611E+02  0.28467930592E+02  0.54367088042E+02  0.40000008810E+02 0.  0.
        -12    1    3    3    0    0 -0.11925009055E+02  0.20078611611E+02 -0.28467930592E+02  0.36820911958E+02  0.00000000000E+00 0.  1.
         11    1    4    4    0    0 -0.59780140757E+00 -0.17003280502E+01  0.23404258122E+02  0.23473554919E+02  0.51100000000E-03 0. -1.
        -11    1    4    4    0    0  0.14714061050E+02 -0.33480940996E+01  0.77254462526E+00  0.15109935544E+02  0.51100000000E-03 0.  1.
        -12    1    4    4    0    0 -0.21912505873E+01 -0.15030189462E+02  0.42911278443E+01  0.15783597580E+02  0.00000000000E+00 0.  1.
</event>
<event>
 8    1  0.1265908E-006  0.9118800E+02  0.7816164E-02  0.1184000E+00
        -11   -1    0    0    0    0  0.00000000000E+00  0.00000000000E+00  0.45593999997E+02  0.45594000000E+02  0.51100000000E-03 0.  1.
         11   -1    0    0    0    0 -0.00000000000E+00 -0.00000000000E+00 -0.45593999997E+02  0.45594000000E+02  0.51100000000E-03 0. -1.
         23    2    1    2    0    0  0.00000000000E+00  0.00000000000E+00  0.17763568394E-14  0.91188000000E+02  0.91188000000E+02 0.  0.
    9900012    2    3    3    0    0  0.12338872885E+02  0.34253246073E+02 -0.54995742700E+01  0.54367109628E+02  0.40000058019E+02 0.  0.
        -12    1    3    3    0    0 -0.12338872885E+02 -0.34253246073E+02  0.54995742700E+01  0.36820890372E+02  0.00000000000E+00 0.  1.
         11    1    4    4    0    0 -0.62602912206E+01  0.70299384127E+01  0.70022183224E+01  0.11732107311E+02  0.51100000000E-03 0. -1.
        -11    1    4    4    0    0  0.40990267522E+01  0.22442764949E+02  0.13732139040E+00  0.22814437892E+02  0.51100000000E-03 0.  1.
         12    1    4    4    0    0  0.14500137354E+02  0.47805427112E+01 -0.12639113983E+02  0.19820564426E+02  0.00000000000E+00 0. -1.
</event>
<event>
 8    1  0.1265908E-006  0.9118800E+02  0.7816164E-02  0.1184000E+00
        -11   -1    0    0    0    0  0.00000000000E+00  0.00000000000E+00  0.45593999997E+02  0.45594000000E+02  0.51100000000E-03 0.  1.
         11   -1    0    0    0    0 -0.00000000000E+00 -0.00000000000E+00 -0.45593999997E+02  0.45594000000E+02  0.51100000000E-03 0. -1.
         23    2    1    2    0    0  0.00000000000E+00  0.00000000000E+00  0.15543122345E-14  0.91188000000E+02  0.91188000000E+02 0.  0.
    9900012    2    3    3    0    0  0.34028066609E+02 -0.13931960945E+02  0.19417600873E+01  0.54367091739E+02  0.40000017237E+02 0.  0.
         12    1    3    3    0    0 -0.34028066609E+02  0.13931960945E+02 -0.19417600873E+01  0.36820908261E+02  0.00000000000E+00 0. -1.
         11    1    4    4    0    0  0.51087635995E+01  0.50873513980E+01  0.10254340170E+02  0.12535234435E+02  0.51100000000E-03 0. -1.
        -11    1    4    4    0    0  0.56678973776E+01 -0.13697785016E+02  0.34744389801E+01  0.15225836644E+02  0.51100000000E-03 0.  1.
        -12    1    4    4    0    0  0.23251405632E+02 -0.53215273272E+01 -0.11787019063E+02  0.26606020659E+02  0.00000000000E+00 0.  1.
</event>
<event>
 8    1  0.1265908E-006  0.9118800E+02  0.7816164E-02  0.1184000E+00
        -11   -1    0    0    0    0  0.00000000000E+00  0.00000000000E+00  0.45593999997E+02  0.45594000000E+02  0.51100000000E-03 0.  1.
         11   -1    0    0    0    0 -0.00000000000E+00 -0.00000000000E+00 -0.45593999997E+02  0.45594000000E+02  0.51100000000E-03 0. -1.
         23    2    1    2    0    0  0.00000000000E+00  0.00000000000E+00  0.00000000000E+00  0.91188000000E+02  0.91188000000E+02 0.  0.
    9900012    2    3    3    0    0  0.22075957572E+02 -0.14295986579E+01  0.29434481045E+02  0.54367077559E+02  0.39999984910E+02 0.  0.
         12    1    3    3    0    0 -0.22075957572E+02  0.14295986579E+01 -0.29434481045E+02  0.36820922441E+02  0.00000000000E+00 0. -1.
         11    1    4    4    0    0  0.37430118577E+01 -0.59171303660E+01  0.67857229717E+01  0.97503131255E+01  0.51100000000E-03 0.  1.
        -11    1    4    4    0    0 -0.39967606088E+01 -0.94548664523E+00 -0.63829335758E+01  0.75901173677E+01  0.51100000000E-03 0. -1.
        -12    1    4    4    0    0  0.22329706323E+02  0.54330183533E+01  0.29031691649E+02  0.37026647065E+02  0.00000000000E+00 0.  1.
</event>
<event>
 8    1  0.1265908E-006  0.9118800E+02  0.7816164E-02  0.1184000E+00
        -11   -1    0    0    0    0  0.00000000000E+00  0.00000000000E+00  0.45593999997E+02  0.45594000000E+02  0.51100000000E-03 0. -1.
         11   -1    0    0    0    0 -0.00000000000E+00 -0.00000000000E+00 -0.45593999997E+02  0.45594000000E+02  0.51100000000E-03 0.  1.
         23    2    1    2    0    0  0.00000000000E+00  0.00000000000E+00 -0.17763568394E-14  0.91188000000E+02  0.91188000000E+02 0.  0.
    9900012    2    3    3    0    0 -0.32271094460E+02  0.12190956692E+02 -0.12873977383E+02  0.54367051392E+02  0.39999925259E+02 0.  0.
        -12    1    3    3    0    0  0.32271094460E+02 -0.12190956692E+02  0.12873977383E+02  0.36820948608E+02  0.00000000000E+00 0.  1.
         11    1    4    4    0    0 -0.22972388563E+02  0.47720526003E+01  0.65788749750E+01  0.24367698260E+02  0.51100000000E-03 0. -1.
        -11    1    4    4    0    0 -0.75264017332E-01  0.12189929906E+02 -0.82242897374E+01  0.14705067077E+02  0.51100000000E-03 0.  1.
         12    1    4    4    0    0 -0.92234418797E+01 -0.47710258144E+01 -0.11228562621E+02  0.15294286056E+02  0.00000000000E+00 0. -1.
</event>
<event>
 8    1  0.1265908E-006  0.9118800E+02  0.7816164E-02  0.1184000E+00
        -11   -1    0    0    0    0  0.00000000000E+00  0.00000000000E+00  0.45593999997E+02  0.45594000000E+02  0.51100000000E-03 0.  1.
         11   -1    0    0    0    0 -0.00000000000E+00 -0.00000000000E+00 -0.45593999997E+02  0.45594000000E+02  0.51100000000E-03 0. -1.
         23    2    1    2    0    0 -0.17763568394E-14 -0.71054273576E-14  0.00000000000E+00  0.91188000000E+02  0.91188000000E+02 0.  0.
    9900012    2    3    3    0    0  0.11669210555E+02  0.30363396522E+02  0.17253238613E+02  0.54367074347E+02  0.39999977588E+02 0.  0.
         12    1    3    3    0    0 -0.11669210555E+02 -0.30363396522E+02 -0.17253238613E+02  0.36820925653E+02  0.00000000000E+00 0. -1.
         11    1    4    4    0    0  0.71022767005E+01 -0.61494983723E+01  0.58180883091E+01  0.11050285806E+02  0.51100000000E-03 0.  1.
        -11    1    4    4    0    0  0.40569456386E+01  0.31411356727E+02  0.99753941418E+00  0.31687966556E+02  0.51100000000E-03 0. -1.
         12    1    4    4    0    0  0.50998821550E+00  0.51015381675E+01  0.10437610890E+02  0.11628821984E+02  0.00000000000E+00 0. -1.
</event>
<event>
 8    1  0.1265908E-006  0.9118800E+02  0.7816164E-02  0.1184000E+00
        -11   -1    0    0    0    0  0.00000000000E+00  0.00000000000E+00  0.45593999997E+02  0.45594000000E+02  0.51100000000E-03 0.  1.
         11   -1    0    0    0    0 -0.00000000000E+00 -0.00000000000E+00 -0.45593999997E+02  0.45594000000E+02  0.51100000000E-03 0. -1.
         23    2    1    2    0    0  0.00000000000E+00  0.00000000000E+00  0.71054273576E-14  0.91188000000E+02  0.91188000000E+02 0.  0.
    9900012    2    3    3    0    0  0.27051477187E+02  0.17050823442E+02  0.18255604091E+02  0.54367080963E+02  0.39999992671E+02 0.  0.
         12    1    3    3    0    0 -0.27051477187E+02 -0.17050823442E+02 -0.18255604091E+02  0.36820919037E+02  0.00000000000E+00 0. -1.
         11    1    4    4    0    0  0.82076902117E+01 -0.42899015761E+01 -0.10235495287E+02  0.13803434289E+02  0.51100000000E-03 0. -1.
        -11    1    4    4    0    0  0.15423584672E+02  0.14277545819E+02  0.21168821920E+02  0.29830425751E+02  0.51100000000E-03 0.  1.
         12    1    4    4    0    0  0.34202023029E+01  0.70631791988E+01  0.73222774580E+01  0.10733220922E+02  0.00000000000E+00 0. -1.
</event>
<event>
 8    1  0.1265908E-006  0.9118800E+02  0.7816164E-02  0.1184000E+00
        -11   -1    0    0    0    0  0.00000000000E+00  0.00000000000E+00  0.45593999997E+02  0.45594000000E+02  0.51100000000E-03 0.  1.
         11   -1    0    0    0    0 -0.00000000000E+00 -0.00000000000E+00 -0.45593999997E+02  0.45594000000E+02  0.51100000000E-03 0. -1.
         23    2    1    2    0    0 -0.17763568394E-14  0.00000000000E+00 -0.35527136788E-14  0.91188000000E+02  0.91188000000E+02 0.  0.
    9900012    2    3    3    0    0 -0.15646562842E+02  0.18210125481E+02 -0.27916946608E+02  0.54367088731E+02  0.40000010380E+02 0.  0.
        -12    1    3    3    0    0  0.15646562842E+02 -0.18210125481E+02  0.27916946608E+02  0.36820911269E+02  0.00000000000E+00 0.  1.
         11    1    4    4    0    0 -0.19417953648E+02  0.13860340893E+02 -0.13280821190E+02  0.27304691634E+02  0.51100000000E-03 0. -1.
        -11    1    4    4    0    0  0.57422372762E+01  0.10371486130E+02 -0.16627382488E+02  0.20420843816E+02  0.51100000000E-03 0.  1.
         12    1    4    4    0    0 -0.19708464702E+01 -0.60217015410E+01  0.19912570704E+01  0.66415532806E+01  0.00000000000E+00 0. -1.
</event>
<event>
 8    1  0.1265908E-006  0.9118800E+02  0.7816164E-02  0.1184000E+00
        -11   -1    0    0    0    0  0.00000000000E+00  0.00000000000E+00  0.45593999997E+02  0.45594000000E+02  0.51100000000E-03 0. -1.
         11   -1    0    0    0    0 -0.00000000000E+00 -0.00000000000E+00 -0.45593999997E+02  0.45594000000E+02  0.51100000000E-03 0.  1.
         23    2    1    2    0    0 -0.17763568394E-14  0.35527136788E-14  0.00000000000E+00  0.91188000000E+02  0.91188000000E+02 0.  0.
    9900012    2    3    3    0    0 -0.15604108580E+02 -0.13974310051E+02  0.30282175154E+02  0.54367086404E+02  0.40000005075E+02 0.  0.
        -12    1    3    3    0    0  0.15604108580E+02  0.13974310051E+02 -0.30282175154E+02  0.36820913596E+02  0.00000000000E+00 0.  1.
         11    1    4    4    0    0 -0.17408058239E+01 -0.52555199994E+01  0.28019207453E+02  0.28560932792E+02  0.51100000000E-03 0. -1.
        -11    1    4    4    0    0 -0.10453804562E+01  0.55477393631E+01 -0.22933125139E+01  0.60933992883E+01  0.51100000000E-03 0.  1.
        -12    1    4    4    0    0 -0.12817922300E+02 -0.14266529415E+02  0.45562802150E+01  0.19712754324E+02  0.00000000000E+00 0.  1.
</event>
<event>
 8    1  0.1265908E-006  0.9118800E+02  0.7816164E-02  0.1184000E+00
        -11   -1    0    0    0    0  0.00000000000E+00  0.00000000000E+00  0.45593999997E+02  0.45594000000E+02  0.51100000000E-03 0.  1.
         11   -1    0    0    0    0 -0.00000000000E+00 -0.00000000000E+00 -0.45593999997E+02  0.45594000000E+02  0.51100000000E-03 0. -1.
         23    2    1    2    0    0  0.00000000000E+00  0.00000000000E+00  0.35527136788E-14  0.91188000000E+02  0.91188000000E+02 0.  0.
    9900012    2    3    3    0    0 -0.29558960185E+02  0.10058952767E+02  0.19515748396E+02  0.54367094342E+02  0.40000023172E+02 0.  0.
         12    1    3    3    0    0  0.29558960185E+02 -0.10058952767E+02 -0.19515748396E+02  0.36820905658E+02  0.00000000000E+00 0. -1.
         11    1    4    4    0    0 -0.58291397308E+00  0.24877754215E+01 -0.19738293412E+01  0.32287486395E+01  0.51100000000E-03 0. -1.
        -11    1    4    4    0    0 -0.28878591724E+02  0.70500036636E+01  0.84599909676E-01  0.29726802200E+02  0.51100000000E-03 0.  1.
         12    1    4    4    0    0 -0.97454487701E-01  0.52117368225E+00  0.21404977827E+02  0.21411543503E+02  0.00000000000E+00 0. -1.
</event>
<event>
 8    1  0.1265908E-006  0.9118800E+02  0.7816164E-02  0.1184000E+00
        -11   -1    0    0    0    0  0.00000000000E+00  0.00000000000E+00  0.45593999997E+02  0.45594000000E+02  0.51100000000E-03 0. -1.
         11   -1    0    0    0    0 -0.00000000000E+00 -0.00000000000E+00 -0.45593999997E+02  0.45594000000E+02  0.51100000000E-03 0.  1.
         23    2    1    2    0    0  0.17763568394E-14  0.00000000000E+00  0.00000000000E+00  0.91188000000E+02  0.91188000000E+02 0.  0.
    9900012    2    3    3    0    0  0.10724276274E+02  0.34322678091E+02  0.79199569295E+01  0.54367054185E+02  0.39999931626E+02 0.  0.
        -12    1    3    3    0    0 -0.10724276274E+02 -0.34322678091E+02 -0.79199569295E+01  0.36820945815E+02  0.00000000000E+00 0.  1.
         11    1    4    4    0    0 -0.16957846317E+01 -0.99783271103E+00 -0.59603792644E+01  0.62767409436E+01  0.51100000000E-03 0. -1.
        -11    1    4    4    0    0  0.82115164006E+01 -0.10991623284E+01  0.68731861308E+01  0.10764657322E+02  0.51100000000E-03 0.  1.
         12    1    4    4    0    0  0.42085445052E+01  0.36419673130E+02  0.70071500631E+01  0.37325655919E+02  0.00000000000E+00 0. -1.
</event>
<event>
 8    1  0.1265908E-006  0.9118800E+02  0.7816164E-02  0.1184000E+00
        -11   -1    0    0    0    0  0.00000000000E+00  0.00000000000E+00  0.45593999997E+02  0.45594000000E+02  0.51100000000E-03 0.  1.
         11   -1    0    0    0    0 -0.00000000000E+00 -0.00000000000E+00 -0.45593999997E+02  0.45594000000E+02  0.51100000000E-03 0. -1.
         23    2    1    2    0    0  0.00000000000E+00  0.00000000000E+00  0.17763568394E-14  0.91188000000E+02  0.91188000000E+02 0.  0.
    9900012    2    3    3    0    0  0.21091110430E+02 -0.26077792197E+02  0.15195207903E+02  0.54367074858E+02  0.39999978754E+02 0.  0.
         12    1    3    3    0    0 -0.21091110430E+02  0.26077792197E+02 -0.15195207903E+02  0.36820925142E+02  0.00000000000E+00 0. -1.
         11    1    4    4    0    0  0.16663375259E+01 -0.77391113179E+01 -0.37015869389E+01  0.87391230034E+01  0.51100000000E-03 0. -1.
        -11    1    4    4    0    0  0.10332374871E+02 -0.14760979362E+02  0.27320630697E+02  0.32727073565E+02  0.51100000000E-03 0.  1.
        -12    1    4    4    0    0  0.90923980340E+01 -0.35777015172E+01 -0.84238358543E+01  0.12900878290E+02  0.00000000000E+00 0.  1.
</event>
<event>
 8    1  0.1265908E-006  0.9118800E+02  0.7816164E-02  0.1184000E+00
        -11   -1    0    0    0    0  0.00000000000E+00  0.00000000000E+00  0.45593999997E+02  0.45594000000E+02  0.51100000000E-03 0.  1.
         11   -1    0    0    0    0 -0.00000000000E+00 -0.00000000000E+00 -0.45593999997E+02  0.45594000000E+02  0.51100000000E-03 0. -1.
         23    2    1    2    0    0  0.00000000000E+00 -0.13322676296E-14  0.35527136788E-14  0.91188000000E+02  0.91188000000E+02 0.  0.
    9900012    2    3    3    0    0  0.20223934845E+02 -0.24427644751E+01  0.30672549698E+02  0.54367082794E+02  0.39999996846E+02 0.  0.
         12    1    3    3    0    0 -0.20223934845E+02  0.24427644751E+01 -0.30672549698E+02  0.36820917206E+02  0.00000000000E+00 0. -1.
         11    1    4    4    0    0  0.83393128327E+01 -0.53013320356E+00 -0.69701331273E+01  0.10881541059E+02  0.51100000000E-03 0. -1.
        -11    1    4    4    0    0  0.68010923978E+01  0.80790710069E+01  0.18453921749E+02  0.21262019526E+02  0.51100000000E-03 0.  1.
        -12    1    4    4    0    0  0.50835296140E+01 -0.99917022783E+01  0.19188761076E+02  0.22223522210E+02  0.00000000000E+00 0.  1.
</event>
<event>
 8    1  0.1265908E-006  0.9118800E+02  0.7816164E-02  0.1184000E+00
        -11   -1    0    0    0    0  0.00000000000E+00  0.00000000000E+00  0.45593999997E+02  0.45594000000E+02  0.51100000000E-03 0.  1.
         11   -1    0    0    0    0 -0.00000000000E+00 -0.00000000000E+00 -0.45593999997E+02  0.45594000000E+02  0.51100000000E-03 0. -1.
         23    2    1    2    0    0  0.00000000000E+00  0.00000000000E+00  0.17763568394E-14  0.91188000000E+02  0.91188000000E+02 0.  0.
    9900012    2    3    3    0    0 -0.27511099423E+02  0.24280264370E+02 -0.30640631858E+01  0.54367077788E+02  0.39999985433E+02 0.  0.
         12    1    3    3    0    0  0.27511099423E+02 -0.24280264370E+02  0.30640631858E+01  0.36820922212E+02  0.00000000000E+00 0. -1.
         11    1    4    4    0    0 -0.26935230689E+01 -0.11741314836E+01 -0.53715341758E+01  0.61226653449E+01  0.51100000000E-03 0. -1.
        -11    1    4    4    0    0 -0.40888793233E+01  0.12037437791E+02  0.15662182212E+02  0.20172327446E+02  0.51100000000E-03 0.  1.
        -12    1    4    4    0    0 -0.20728697031E+02  0.13416958063E+02 -0.13354711222E+02  0.28072084997E+02  0.00000000000E+00 0.  1.
</event>
<event>
 8    1  0.1265908E-006  0.9118800E+02  0.7816164E-02  0.1184000E+00
        -11   -1    0    0    0    0  0.00000000000E+00  0.00000000000E+00  0.45593999997E+02  0.45594000000E+02  0.51100000000E-03 0.  1.
         11   -1    0    0    0    0 -0.00000000000E+00 -0.00000000000E+00 -0.45593999997E+02  0.45594000000E+02  0.51100000000E-03 0. -1.
         23    2    1    2    0    0  0.00000000000E+00  0.00000000000E+00  0.35527136788E-14  0.91188000000E+02  0.91188000000E+02 0.  0.
    9900012    2    3    3    0    0 -0.20527931085E+02  0.25762199121E+02  0.16452746659E+02  0.54367085687E+02  0.40000003441E+02 0.  0.
         12    1    3    3    0    0  0.20527931085E+02 -0.25762199121E+02 -0.16452746659E+02  0.36820914313E+02  0.00000000000E+00 0. -1.
         11    1    4    4    0    0 -0.12067421604E+02  0.10196258647E+01  0.13878716063E+01  0.12189687811E+02  0.51100000000E-03 0. -1.
        -11    1    4    4    0    0 -0.96020096793E+01  0.28665075526E+02  0.41387541905E+01  0.30512529088E+02  0.51100000000E-03 0.  1.
        -12    1    4    4    0    0  0.11415001980E+01 -0.39225022695E+01  0.10926120862E+02  0.11664868789E+02  0.00000000000E+00 0.  1.
</event>
<event>
 8    1  0.1265908E-006  0.9118800E+02  0.7816164E-02  0.1184000E+00
        -11   -1    0    0    0    0  0.00000000000E+00  0.00000000000E+00  0.45593999997E+02  0.45594000000E+02  0.51100000000E-03 0. -1.
         11   -1    0    0    0    0 -0.00000000000E+00 -0.00000000000E+00 -0.45593999997E+02  0.45594000000E+02  0.51100000000E-03 0.  1.
         23    2    1    2    0    0  0.00000000000E+00  0.00000000000E+00  0.00000000000E+00  0.91188000000E+02  0.91188000000E+02 0.  0.
    9900012    2    3    3    0    0  0.85555784553E+01 -0.26608255891E+02  0.23970477689E+02  0.54367068387E+02  0.39999964001E+02 0.  0.
        -12    1    3    3    0    0 -0.85555784553E+01  0.26608255891E+02 -0.23970477689E+02  0.36820931613E+02  0.00000000000E+00 0.  1.
         11    1    4    4    0    0  0.73777254489E+01 -0.48436645131E+01  0.25409634798E+02  0.26898725983E+02  0.51100000000E-03 0. -1.
        -11    1    4    4    0    0 -0.71063611954E+01 -0.98487303719E+01  0.25664588124E+01  0.12413080620E+02  0.51100000000E-03 0.  1.
         12    1    4    4    0    0  0.82842142019E+01 -0.11915861006E+02 -0.40056159215E+01  0.15055261783E+02  0.00000000000E+00 0. -1.
</event>
<event>
 8    1  0.1265908E-006  0.9118800E+02  0.7816164E-02  0.1184000E+00
        -11   -1    0    0    0    0  0.00000000000E+00  0.00000000000E+00  0.45593999997E+02  0.45594000000E+02  0.51100000000E-03 0. -1.
         11   -1    0    0    0    0 -0.00000000000E+00 -0.00000000000E+00 -0.45593999997E+02  0.45594000000E+02  0.51100000000E-03 0.  1.
         23    2    1    2    0    0 -0.35527136788E-14 -0.44408920985E-15 -0.35527136788E-14  0.91188000000E+02  0.91188000000E+02 0.  0.
    9900012    2    3    3    0    0  0.20439266808E+02 -0.20878675513E+01 -0.30555803650E+02  0.54367082639E+02  0.39999996493E+02 0.  0.
         12    1    3    3    0    0 -0.20439266808E+02  0.20878675513E+01  0.30555803650E+02  0.36820917361E+02  0.00000000000E+00 0. -1.
         11    1    4    4    0    0 -0.67044656039E+01  0.54052407036E+01 -0.78525283730E+00  0.86477227278E+01  0.51100000000E-03 0. -1.
        -11    1    4    4    0    0  0.36625724211E+01  0.41021519293E+01  0.69743948991E+00  0.55433301628E+01  0.51100000000E-03 0.  1.
        -12    1    4    4    0    0  0.23481159991E+02 -0.11595260184E+02 -0.30467990303E+02  0.40176029749E+02  0.00000000000E+00 0.  1.
</event>
<event>
 8    1  0.1265908E-006  0.9118800E+02  0.7816164E-02  0.1184000E+00
        -11   -1    0    0    0    0  0.00000000000E+00  0.00000000000E+00  0.45593999997E+02  0.45594000000E+02  0.51100000000E-03 0.  1.
         11   -1    0    0    0    0 -0.00000000000E+00 -0.00000000000E+00 -0.45593999997E+02  0.45594000000E+02  0.51100000000E-03 0. -1.
         23    2    1    2    0    0  0.00000000000E+00  0.00000000000E+00  0.00000000000E+00  0.91188000000E+02  0.91188000000E+02 0.  0.
    9900012    2    3    3    0    0 -0.14278516684E+02  0.19612625296E+02  0.27699503499E+02  0.54366897304E+02  0.39999573981E+02 0.  0.
         12    1    3    3    0    0  0.14278516684E+02 -0.19612625296E+02 -0.27699503499E+02  0.36821102696E+02  0.00000000000E+00 0. -1.
         11    1    4    4    0    0 -0.98875638121E+01 -0.53919368173E+01  0.12465439941E+02  0.16799526599E+02  0.51100000000E-03 0. -1.
        -11    1    4    4    0    0 -0.61707399032E+01  0.92679849994E+01 -0.47191227131E+01  0.12093125996E+02  0.51100000000E-03 0.  1.
        -12    1    4    4    0    0  0.17797870314E+01  0.15736577113E+02  0.19953186271E+02  0.25474244709E+02  0.00000000000E+00 0.  1.
</event>
<event>
 8    1  0.1265908E-006  0.9118800E+02  0.7816164E-02  0.1184000E+00
        -11   -1    0    0    0    0  0.00000000000E+00  0.00000000000E+00  0.45593999997E+02  0.45594000000E+02  0.51100000000E-03 0.  1.
         11   -1    0    0    0    0 -0.00000000000E+00 -0.00000000000E+00 -0.45593999997E+02  0.45594000000E+02  0.51100000000E-03 0. -1.
         23    2    1    2    0    0  0.00000000000E+00  0.00000000000E+00  0.17763568394E-14  0.91188000000E+02  0.91188000000E+02 0.  0.
    9900012    2    3    3    0    0 -0.29596208738E+02 -0.17178166519E+02 -0.13592451139E+02  0.54367086044E+02  0.40000004254E+02 0.  0.
         12    1    3    3    0    0  0.29596208738E+02  0.17178166519E+02  0.13592451139E+02  0.36820913956E+02  0.00000000000E+00 0. -1.
         11    1    4    4    0    0  0.24244957372E+01  0.14004463833E+01  0.39537287059E+01  0.48447291558E+01  0.51100000000E-03 0. -1.
        -11    1    4    4    0    0 -0.31578927440E+02 -0.19603931820E+02 -0.56762458230E+01  0.37600034149E+02  0.51100000000E-03 0.  1.
        -12    1    4    4    0    0 -0.44177703468E+00  0.10253189176E+01 -0.11869934022E+02  0.11922322740E+02  0.00000000000E+00 0.  1.
</event>
<event>
 8    1  0.1265908E-006  0.9118800E+02  0.7816164E-02  0.1184000E+00
        -11   -1    0    0    0    0  0.00000000000E+00  0.00000000000E+00  0.45593999997E+02  0.45594000000E+02  0.51100000000E-03 0.  1.
         11   -1    0    0    0    0 -0.00000000000E+00 -0.00000000000E+00 -0.45593999997E+02  0.45594000000E+02  0.51100000000E-03 0. -1.
         23    2    1    2    0    0 -0.35527136788E-14  0.00000000000E+00 -0.22204460493E-15  0.91188000000E+02  0.91188000000E+02 0.  0.
    9900012    2    3    3    0    0  0.29259023145E+02  0.22317999238E+02  0.12629728069E+01  0.54367100694E+02  0.40000037652E+02 0.  0.
        -12    1    3    3    0    0 -0.29259023145E+02 -0.22317999238E+02 -0.12629728069E+01  0.36820899306E+02  0.00000000000E+00 0.  1.
         11    1    4    4    0    0 -0.51555092728E+01  0.77536530453E+01  0.97155390674E+00  0.93617481628E+01  0.51100000000E-03 0. -1.
        -11    1    4    4    0    0  0.41706350736E+01 -0.33359158444E+01 -0.73054970556E+01  0.90494651183E+01  0.51100000000E-03 0.  1.
         12    1    4    4    0    0  0.30243897345E+02  0.17900262037E+02  0.75969159558E+01  0.35955887413E+02  0.00000000000E+00 0. -1.
</event>
<event>
 8    1  0.1265908E-006  0.9118800E+02  0.7816164E-02  0.1184000E+00
        -11   -1    0    0    0    0  0.00000000000E+00  0.00000000000E+00  0.45593999997E+02  0.45594000000E+02  0.51100000000E-03 0. -1.
         11   -1    0    0    0    0 -0.00000000000E+00 -0.00000000000E+00 -0.45593999997E+02  0.45594000000E+02  0.51100000000E-03 0.  1.
         23    2    1    2    0    0  0.00000000000E+00  0.00000000000E+00 -0.35527136788E-14  0.91188000000E+02  0.91188000000E+02 0.  0.
    9900012    2    3    3    0    0  0.17925977672E+02 -0.27154287411E+02  0.17236142058E+02  0.54367073975E+02  0.39999976740E+02 0.  0.
        -12    1    3    3    0    0 -0.17925977672E+02  0.27154287411E+02 -0.17236142058E+02  0.36820926025E+02  0.00000000000E+00 0.  1.
         11    1    4    4    0    0  0.89211702166E+01 -0.19576107586E+01  0.10364358230E+02  0.13814464872E+02  0.51100000000E-03 0. -1.
        -11    1    4    4    0    0 -0.44592314417E+01 -0.21258798490E+02  0.12923041814E+02  0.25275012725E+02  0.51100000000E-03 0.  1.
        -12    1    4    4    0    0  0.13464038897E+02 -0.39378781630E+01 -0.60512579862E+01  0.15277596377E+02  0.00000000000E+00 0.  1.
</event>
<event>
 8    1  0.1265908E-006  0.9118800E+02  0.7816164E-02  0.1184000E+00
        -11   -1    0    0    0    0  0.00000000000E+00  0.00000000000E+00  0.45593999997E+02  0.45594000000E+02  0.51100000000E-03 0. -1.
         11   -1    0    0    0    0 -0.00000000000E+00 -0.00000000000E+00 -0.45593999997E+02  0.45594000000E+02  0.51100000000E-03 0.  1.
         23    2    1    2    0    0  0.17763568394E-14  0.00000000000E+00  0.00000000000E+00  0.91188000000E+02  0.91188000000E+02 0.  0.
    9900012    2    3    3    0    0  0.12377885185E+02 -0.27345899620E+01 -0.34570066144E+02  0.54367088861E+02  0.40000010677E+02 0.  0.
         12    1    3    3    0    0 -0.12377885185E+02  0.27345899620E+01  0.34570066144E+02  0.36820911139E+02  0.00000000000E+00 0. -1.
         11    1    4    4    0    0  0.18741285615E+02 -0.78772625245E+01 -0.31994854453E+02  0.37907225737E+02  0.51100000000E-03 0. -1.
        -11    1    4    4    0    0  0.40148676705E+01 -0.10530401180E+01 -0.10115275389E+01  0.42721474840E+01  0.51100000000E-03 0.  1.
         12    1    4    4    0    0 -0.10378268101E+02  0.61957126805E+01 -0.15636841523E+01  0.12187715640E+02  0.00000000000E+00 0. -1.
</event>
<event>
 8    1  0.1265908E-006  0.9118800E+02  0.7816164E-02  0.1184000E+00
        -11   -1    0    0    0    0  0.00000000000E+00  0.00000000000E+00  0.45593999997E+02  0.45594000000E+02  0.51100000000E-03 0.  1.
         11   -1    0    0    0    0 -0.00000000000E+00 -0.00000000000E+00 -0.45593999997E+02  0.45594000000E+02  0.51100000000E-03 0. -1.
         23    2    1    2    0    0  0.17763568394E-14  0.35527136788E-14 -0.35527136788E-14  0.91188000000E+02  0.91188000000E+02 0.  0.
    9900012    2    3    3    0    0  0.13527613292E+02  0.29765692200E+02 -0.16934808869E+02  0.54367075175E+02  0.39999979477E+02 0.  0.
        -12    1    3    3    0    0 -0.13527613292E+02 -0.29765692200E+02  0.16934808869E+02  0.36820924825E+02  0.00000000000E+00 0.  1.
         11    1    4    4    0    0 -0.27511400687E+01  0.89619135635E+01  0.17587327470E+01  0.95382287419E+01  0.51100000000E-03 0. -1.
        -11    1    4    4    0    0  0.12788767834E+02  0.24738402582E+02 -0.26840527382E+01  0.27977585392E+02  0.51100000000E-03 0.  1.
         12    1    4    4    0    0  0.34899855271E+01 -0.39346239453E+01 -0.16009488878E+02  0.16851261042E+02  0.00000000000E+00 0. -1.
</event>
<event>
 8    1  0.1265908E-006  0.9118800E+02  0.7816164E-02  0.1184000E+00
        -11   -1    0    0    0    0  0.00000000000E+00  0.00000000000E+00  0.45593999997E+02  0.45594000000E+02  0.51100000000E-03 0. -1.
         11   -1    0    0    0    0 -0.00000000000E+00 -0.00000000000E+00 -0.45593999997E+02  0.45594000000E+02  0.51100000000E-03 0.  1.
         23    2    1    2    0    0  0.17763568394E-14 -0.88817841970E-15  0.00000000000E+00  0.91188000000E+02  0.91188000000E+02 0.  0.
    9900012    2    3    3    0    0 -0.71425827970E+01  0.57222484913E+01 -0.35665379031E+02  0.54367083686E+02  0.39999998878E+02 0.  0.
         12    1    3    3    0    0  0.71425827970E+01 -0.57222484913E+01  0.35665379031E+02  0.36820916314E+02  0.00000000000E+00 0. -1.
         11    1    4    4    0    0  0.85804785244E+01 -0.57264681802E+01 -0.14434252740E+02  0.17741609339E+02  0.51100000000E-03 0. -1.
        -11    1    4    4    0    0 -0.21356782414E+02  0.85982894761E+01 -0.13671300804E+02  0.26775869789E+02  0.51100000000E-03 0.  1.
        -12    1    4    4    0    0  0.56337210930E+01  0.28504271954E+01 -0.75598254867E+01  0.98496045575E+01  0.00000000000E+00 0.  1.
</event>
<event>
 8    1  0.1265908E-006  0.9118800E+02  0.7816164E-02  0.1184000E+00
        -11   -1    0    0    0    0  0.00000000000E+00  0.00000000000E+00  0.45593999997E+02  0.45594000000E+02  0.51100000000E-03 0.  1.
         11   -1    0    0    0    0 -0.00000000000E+00 -0.00000000000E+00 -0.45593999997E+02  0.45594000000E+02  0.51100000000E-03 0. -1.
         23    2    1    2    0    0 -0.88817841970E-15  0.00000000000E+00 -0.35527136788E-14  0.91188000000E+02  0.91188000000E+02 0.  0.
    9900012    2    3    3    0    0 -0.49606460796E+01 -0.33144033720E+02  0.15252700652E+02  0.54367083961E+02  0.39999999506E+02 0.  0.
         12    1    3    3    0    0  0.49606460796E+01  0.33144033720E+02 -0.15252700652E+02  0.36820916039E+02  0.00000000000E+00 0. -1.
         11    1    4    4    0    0  0.39627243726E+01  0.46077823442E+01  0.25941347318E+01  0.66079026818E+01  0.51100000000E-03 0. -1.
        -11    1    4    4    0    0  0.48167383987E+01 -0.23020686420E+02  0.14337704059E+02  0.27544922037E+02  0.51100000000E-03 0.  1.
        -12    1    4    4    0    0 -0.13740108851E+02 -0.14731129644E+02 -0.16791381388E+01  0.20214259242E+02  0.00000000000E+00 0.  1.
</event>
<event>
 8    1  0.1265908E-006  0.9118800E+02  0.7816164E-02  0.1184000E+00
        -11   -1    0    0    0    0  0.00000000000E+00  0.00000000000E+00  0.45593999997E+02  0.45594000000E+02  0.51100000000E-03 0. -1.
         11   -1    0    0    0    0 -0.00000000000E+00 -0.00000000000E+00 -0.45593999997E+02  0.45594000000E+02  0.51100000000E-03 0.  1.
         23    2    1    2    0    0 -0.35527136788E-14 -0.35527136788E-14  0.11102230246E-15  0.91188000000E+02  0.91188000000E+02 0.  0.
    9900012    2    3    3    0    0 -0.23234657290E+02  0.28559252667E+02  0.54737750433E+00  0.54367084281E+02  0.40000000235E+02 0.  0.
         12    1    3    3    0    0  0.23234657290E+02 -0.28559252667E+02 -0.54737750433E+00  0.36820915719E+02  0.00000000000E+00 0. -1.
         11    1    4    4    0    0  0.51259978192E+01  0.16485936538E+01  0.32396988457E+01  0.62840562975E+01  0.51100000000E-03 0. -1.
        -11    1    4    4    0    0 -0.88435374213E+01  0.13860091355E+01 -0.11682468675E+02  0.14717650969E+02  0.51100000000E-03 0.  1.
         12    1    4    4    0    0 -0.19517117688E+02  0.25524649878E+02  0.89901473336E+01  0.33365377014E+02  0.00000000000E+00 0. -1.
</event>
<event>
 8    1  0.1265908E-006  0.9118800E+02  0.7816164E-02  0.1184000E+00
        -11   -1    0    0    0    0  0.00000000000E+00  0.00000000000E+00  0.45593999997E+02  0.45594000000E+02  0.51100000000E-03 0.  1.
         11   -1    0    0    0    0 -0.00000000000E+00 -0.00000000000E+00 -0.45593999997E+02  0.45594000000E+02  0.51100000000E-03 0. -1.
         23    2    1    2    0    0 -0.17763568394E-14  0.35527136788E-14  0.00000000000E+00  0.91188000000E+02  0.91188000000E+02 0.  0.
    9900012    2    3    3    0    0 -0.40951629104E+01 -0.20574469094E+02  0.30260551382E+02  0.54367080570E+02  0.39999991775E+02 0.  0.
         12    1    3    3    0    0  0.40951629104E+01  0.20574469094E+02 -0.30260551382E+02  0.36820919430E+02  0.00000000000E+00 0. -1.
         11    1    4    4    0    0  0.15088596037E+02 -0.80716316123E+01  0.37057306432E+01  0.17508552399E+02  0.51100000000E-03 0.  1.
        -11    1    4    4    0    0 -0.20886302116E+01  0.21419130362E+01  0.23504260345E+01  0.38045591624E+01  0.51100000000E-03 0. -1.
        -12    1    4    4    0    0 -0.17095128736E+02 -0.14644750518E+02  0.24204394704E+02  0.33053969008E+02  0.00000000000E+00 0.  1.
</event>
<event>
 8    1  0.1265908E-006  0.9118800E+02  0.7816164E-02  0.1184000E+00
        -11   -1    0    0    0    0  0.00000000000E+00  0.00000000000E+00  0.45593999997E+02  0.45594000000E+02  0.51100000000E-03 0.  1.
         11   -1    0    0    0    0 -0.00000000000E+00 -0.00000000000E+00 -0.45593999997E+02  0.45594000000E+02  0.51100000000E-03 0. -1.
         23    2    1    2    0    0  0.00000000000E+00  0.00000000000E+00  0.00000000000E+00  0.91188000000E+02  0.91188000000E+02 0.  0.
    9900012    2    3    3    0    0 -0.14640361248E+02  0.16903098932E+02  0.29252804181E+02  0.54367061889E+02  0.39999949187E+02 0.  0.
         12    1    3    3    0    0  0.14640361248E+02 -0.16903098932E+02 -0.29252804181E+02  0.36820938111E+02  0.00000000000E+00 0. -1.
         11    1    4    4    0    0 -0.97665912843E+00 -0.61858921297E+01  0.28662700254E+01  0.68872802044E+01  0.51100000000E-03 0. -1.
        -11    1    4    4    0    0  0.10987413893E+01 -0.63989013849E+01  0.45674201018E+01  0.79381671828E+01  0.51100000000E-03 0.  1.
        -12    1    4    4    0    0 -0.14762443509E+02  0.29487892447E+02  0.21819114053E+02  0.39541614501E+02  0.00000000000E+00 0.  1.
</event>
<event>
 8    1  0.1265908E-006  0.9118800E+02  0.7816164E-02  0.1184000E+00
        -11   -1    0    0    0    0  0.00000000000E+00  0.00000000000E+00  0.45593999997E+02  0.45594000000E+02  0.51100000000E-03 0. -1.
         11   -1    0    0    0    0 -0.00000000000E+00 -0.00000000000E+00 -0.45593999997E+02  0.45594000000E+02  0.51100000000E-03 0.  1.
         23    2    1    2    0    0 -0.35527136788E-14  0.00000000000E+00  0.35527136788E-14  0.91188000000E+02  0.91188000000E+02 0.  0.
    9900012    2    3    3    0    0 -0.17955797613E+02  0.27018271025E+02  0.17417945015E+02  0.54367048822E+02  0.39999919400E+02 0.  0.
        -12    1    3    3    0    0  0.17955797613E+02 -0.27018271025E+02 -0.17417945015E+02  0.36820951178E+02  0.00000000000E+00 0.  1.
         11    1    4    4    0    0 -0.21986684586E+02  0.11509243151E+02 -0.32319865608E+01  0.25026440306E+02  0.51100000000E-03 0. -1.
        -11    1    4    4    0    0 -0.66665980484E+00 -0.69261107844E+00  0.84937891677E+01  0.85480173191E+01  0.51100000000E-03 0.  1.
         12    1    4    4    0    0  0.46975467772E+01  0.16201638952E+02  0.12156142408E+02  0.20792591197E+02  0.00000000000E+00 0. -1.
</event>
<event>
 8    1  0.1265908E-006  0.9118800E+02  0.7816164E-02  0.1184000E+00
        -11   -1    0    0    0    0  0.00000000000E+00  0.00000000000E+00  0.45593999997E+02  0.45594000000E+02  0.51100000000E-03 0.  1.
         11   -1    0    0    0    0 -0.00000000000E+00 -0.00000000000E+00 -0.45593999997E+02  0.45594000000E+02  0.51100000000E-03 0. -1.
         23    2    1    2    0    0  0.00000000000E+00 -0.88817841970E-15  0.17763568394E-14  0.91188000000E+02  0.91188000000E+02 0.  0.
    9900012    2    3    3    0    0 -0.36032318400E+02  0.22112882730E+01 -0.72499186634E+01  0.54367094448E+02  0.40000023412E+02 0.  0.
         12    1    3    3    0    0  0.36032318400E+02 -0.22112882730E+01  0.72499186634E+01  0.36820905552E+02  0.00000000000E+00 0. -1.
         11    1    4    4    0    0  0.12478505512E+01 -0.41000561879E+01 -0.14959197231E+01  0.45393135849E+01  0.51100000000E-03 0. -1.
        -11    1    4    4    0    0 -0.34406935718E+02  0.82552396874E+01  0.74640352005E+01  0.36162107648E+02  0.51100000000E-03 0.  1.
        -12    1    4    4    0    0 -0.28732332324E+01 -0.19438952265E+01 -0.13218034141E+02  0.13665673214E+02  0.00000000000E+00 0.  1.
</event>
<event>
 8    1  0.1265908E-006  0.9118800E+02  0.7816164E-02  0.1184000E+00
        -11   -1    0    0    0    0  0.00000000000E+00  0.00000000000E+00  0.45593999997E+02  0.45594000000E+02  0.51100000000E-03 0.  1.
         11   -1    0    0    0    0 -0.00000000000E+00 -0.00000000000E+00 -0.45593999997E+02  0.45594000000E+02  0.51100000000E-03 0. -1.
         23    2    1    2    0    0  0.00000000000E+00  0.00000000000E+00  0.00000000000E+00  0.91188000000E+02  0.91188000000E+02 0.  0.
    9900012    2    3    3    0    0  0.25482877920E+02 -0.99159522509E+01 -0.24659286881E+02  0.54367033071E+02  0.39999883491E+02 0.  0.
        -12    1    3    3    0    0 -0.25482877920E+02  0.99159522509E+01  0.24659286881E+02  0.36820966929E+02  0.00000000000E+00 0.  1.
         11    1    4    4    0    0  0.98207160652E+00  0.12755880369E+02 -0.26304085994E+01  0.13061240304E+02  0.51100000000E-03 0. -1.
        -11    1    4    4    0    0  0.62416368319E+01 -0.47330422199E+01 -0.10830981967E+02  0.13366745663E+02  0.51100000000E-03 0.  1.
         12    1    4    4    0    0  0.18259169481E+02 -0.17938790400E+02 -0.11197896315E+02  0.27939047103E+02  0.00000000000E+00 0. -1.
</event>
<event>
 8    1  0.1265908E-006  0.9118800E+02  0.7816164E-02  0.1184000E+00
        -11   -1    0    0    0    0  0.00000000000E+00  0.00000000000E+00  0.45593999997E+02  0.45594000000E+02  0.51100000000E-03 0. -1.
         11   -1    0    0    0    0 -0.00000000000E+00 -0.00000000000E+00 -0.45593999997E+02  0.45594000000E+02  0.51100000000E-03 0.  1.
         23    2    1    2    0    0  0.00000000000E+00  0.00000000000E+00  0.00000000000E+00  0.91188000000E+02  0.91188000000E+02 0.  0.
    9900012    2    3    3    0    0  0.34746164937E+02  0.85522161295E+01  0.86800494301E+01  0.54367086966E+02  0.40000006356E+02 0.  0.
        -12    1    3    3    0    0 -0.34746164937E+02 -0.85522161295E+01 -0.86800494301E+01  0.36820913034E+02  0.00000000000E+00 0.  1.
         11    1    4    4    0    0  0.65565230927E+01  0.13211039394E+02  0.14025827285E+02  0.20352970010E+02  0.51100000000E-03 0. -1.
        -11    1    4    4    0    0  0.13406124485E+02  0.25927270166E+01  0.50299351220E+01  0.14551517264E+02  0.51100000000E-03 0.  1.
        -12    1    4    4    0    0  0.14783517359E+02 -0.72515502810E+01 -0.10375712977E+02  0.19462599692E+02  0.00000000000E+00 0.  1.
</event>
<event>
 8    1  0.1265908E-006  0.9118800E+02  0.7816164E-02  0.1184000E+00
        -11   -1    0    0    0    0  0.00000000000E+00  0.00000000000E+00  0.45593999997E+02  0.45594000000E+02  0.51100000000E-03 0. -1.
         11   -1    0    0    0    0 -0.00000000000E+00 -0.00000000000E+00 -0.45593999997E+02  0.45594000000E+02  0.51100000000E-03 0.  1.
         23    2    1    2    0    0  0.35527136788E-14  0.00000000000E+00 -0.88817841970E-15  0.91188000000E+02  0.91188000000E+02 0.  0.
    9900012    2    3    3    0    0 -0.17729055278E+02  0.31791088588E+02  0.55485858274E+01  0.54367088559E+02  0.40000009988E+02 0.  0.
        -12    1    3    3    0    0  0.17729055278E+02 -0.31791088588E+02 -0.55485858274E+01  0.36820911441E+02  0.00000000000E+00 0.  1.
         11    1    4    4    0    0 -0.29277003688E+02  0.23860005644E+02  0.80094262327E+01  0.38608207976E+02  0.51100000000E-03 0. -1.
        -11    1    4    4    0    0  0.38765965827E+01  0.20433582110E+01 -0.40402387611E+01  0.59604398622E+01  0.51100000000E-03 0.  1.
         12    1    4    4    0    0  0.76713518274E+01  0.58877247331E+01  0.15793983559E+01  0.97984407208E+01  0.00000000000E+00 0. -1.
</event>
<event>
 8    1  0.1265908E-006  0.9118800E+02  0.7816164E-02  0.1184000E+00
        -11   -1    0    0    0    0  0.00000000000E+00  0.00000000000E+00  0.45593999997E+02  0.45594000000E+02  0.51100000000E-03 0.  1.
         11   -1    0    0    0    0 -0.00000000000E+00 -0.00000000000E+00 -0.45593999997E+02  0.45594000000E+02  0.51100000000E-03 0. -1.
         23    2    1    2    0    0  0.00000000000E+00  0.00000000000E+00  0.00000000000E+00  0.91188000000E+02  0.91188000000E+02 0.  0.
    9900012    2    3    3    0    0 -0.19776294852E+02  0.29036804206E+02 -0.11024613600E+02  0.54367082825E+02  0.39999996917E+02 0.  0.
        -12    1    3    3    0    0  0.19776294852E+02 -0.29036804206E+02  0.11024613600E+02  0.36820917175E+02  0.00000000000E+00 0.  1.
         11    1    4    4    0    0 -0.11725600840E+02 -0.28607975201E+01 -0.27186601719E+01  0.12371943699E+02  0.51100000000E-03 0. -1.
        -11    1    4    4    0    0  0.15954395845E+01 -0.18517033210E+01  0.40943137468E+01  0.47683999387E+01  0.51100000000E-03 0.  1.
         12    1    4    4    0    0 -0.96461335963E+01  0.33749305047E+02 -0.12400267175E+02  0.37226739187E+02  0.00000000000E+00 0. -1.
</event>
<event>
 8    1  0.1265908E-006  0.9118800E+02  0.7816164E-02  0.1184000E+00
        -11   -1    0    0    0    0  0.00000000000E+00  0.00000000000E+00  0.45593999997E+02  0.45594000000E+02  0.51100000000E-03 0. -1.
         11   -1    0    0    0    0 -0.00000000000E+00 -0.00000000000E+00 -0.45593999997E+02  0.45594000000E+02  0.51100000000E-03 0.  1.
         23    2    1    2    0    0 -0.35527136788E-14  0.35527136788E-14  0.35527136788E-14  0.91188000000E+02  0.91188000000E+02 0.  0.
    9900012    2    3    3    0    0  0.27583382909E+02 -0.14372837051E+02 -0.19706822290E+02  0.54367077926E+02  0.39999985748E+02 0.  0.
         12    1    3    3    0    0 -0.27583382909E+02  0.14372837051E+02  0.19706822290E+02  0.36820922074E+02  0.00000000000E+00 0. -1.
         11    1    4    4    0    0  0.11267100751E+02  0.49105158035E+01 -0.55821668840E+01  0.13498937446E+02  0.51100000000E-03 0. -1.
        -11    1    4    4    0    0  0.15737497528E+02 -0.90726784386E+01  0.52938961921E+01  0.18921090340E+02  0.51100000000E-03 0.  1.
        -12    1    4    4    0    0  0.57878463019E+00 -0.10210674416E+02 -0.19418551598E+02  0.21947050140E+02  0.00000000000E+00 0.  1.
</event>
<event>
 8    1  0.1265908E-006  0.9118800E+02  0.7816164E-02  0.1184000E+00
        -11   -1    0    0    0    0  0.00000000000E+00  0.00000000000E+00  0.45593999997E+02  0.45594000000E+02  0.51100000000E-03 0. -1.
         11   -1    0    0    0    0 -0.00000000000E+00 -0.00000000000E+00 -0.45593999997E+02  0.45594000000E+02  0.51100000000E-03 0.  1.
         23    2    1    2    0    0  0.00000000000E+00  0.00000000000E+00  0.17763568394E-14  0.91188000000E+02  0.91188000000E+02 0.  0.
    9900012    2    3    3    0    0  0.29293245762E+02 -0.19026370930E+02 -0.11648233489E+02  0.54367104011E+02  0.40000045213E+02 0.  0.
         12    1    3    3    0    0 -0.29293245762E+02  0.19026370930E+02  0.11648233489E+02  0.36820895989E+02  0.00000000000E+00 0. -1.
         11    1    4    4    0    0  0.43001212724E+01  0.30020010300E+01 -0.63121825262E+01  0.82065036188E+01  0.51100000000E-03 0. -1.
        -11    1    4    4    0    0  0.21788817443E+02 -0.27611003988E+02  0.33695403047E+01  0.35333750281E+02  0.51100000000E-03 0.  1.
        -12    1    4    4    0    0  0.32043070466E+01  0.55826320281E+01 -0.87055912674E+01  0.10826850111E+02  0.00000000000E+00 0.  1.
</event>
<event>
 8    1  0.1265908E-006  0.9118800E+02  0.7816164E-02  0.1184000E+00
        -11   -1    0    0    0    0  0.00000000000E+00  0.00000000000E+00  0.45593999997E+02  0.45594000000E+02  0.51100000000E-03 0.  1.
         11   -1    0    0    0    0 -0.00000000000E+00 -0.00000000000E+00 -0.45593999997E+02  0.45594000000E+02  0.51100000000E-03 0. -1.
         23    2    1    2    0    0 -0.71054273576E-14  0.00000000000E+00  0.17763568394E-14  0.91188000000E+02  0.91188000000E+02 0.  0.
    9900012    2    3    3    0    0  0.32835642802E+02 -0.13718691590E+02 -0.94550078201E+01  0.54367094117E+02  0.40000022658E+02 0.  0.
         12    1    3    3    0    0 -0.32835642802E+02  0.13718691590E+02  0.94550078201E+01  0.36820905883E+02  0.00000000000E+00 0. -1.
         11    1    4    4    0    0  0.56816480823E+01 -0.17522002176E+02 -0.19693684451E+01  0.18525120715E+02  0.51100000000E-03 0.  1.
        -11    1    4    4    0    0  0.24646074096E+02 -0.42995409597E+01 -0.10079079246E+02  0.26972260927E+02  0.51100000000E-03 0. -1.
         12    1    4    4    0    0  0.25079206239E+01  0.81028515451E+01  0.25934398706E+01  0.88697124745E+01  0.00000000000E+00 0. -1.
</event>
<event>
 8    1  0.1265908E-006  0.9118800E+02  0.7816164E-02  0.1184000E+00
        -11   -1    0    0    0    0  0.00000000000E+00  0.00000000000E+00  0.45593999997E+02  0.45594000000E+02  0.51100000000E-03 0.  1.
         11   -1    0    0    0    0 -0.00000000000E+00 -0.00000000000E+00 -0.45593999997E+02  0.45594000000E+02  0.51100000000E-03 0. -1.
         23    2    1    2    0    0  0.35527136788E-14  0.26645352591E-14  0.00000000000E+00  0.91188000000E+02  0.91188000000E+02 0.  0.
    9900012    2    3    3    0    0  0.86640938658E+01  0.51960761294E+01  0.35407823944E+02  0.54367085752E+02  0.40000003588E+02 0.  0.
         12    1    3    3    0    0 -0.86640938658E+01 -0.51960761294E+01 -0.35407823944E+02  0.36820914248E+02  0.00000000000E+00 0. -1.
         11    1    4    4    0    0  0.10678905100E+02 -0.12906905109E+02  0.22150890169E+02  0.27772092992E+02  0.51100000000E-03 0. -1.
        -11    1    4    4    0    0 -0.70808676593E+01  0.42456128633E+01  0.55587340245E+01  0.99530618209E+01  0.51100000000E-03 0.  1.
        -12    1    4    4    0    0  0.50660564250E+01  0.13857368375E+02  0.76981997500E+01  0.16641930939E+02  0.00000000000E+00 0.  1.
</event>
<event>
 8    1  0.1265908E-006  0.9118800E+02  0.7816164E-02  0.1184000E+00
        -11   -1    0    0    0    0  0.00000000000E+00  0.00000000000E+00  0.45593999997E+02  0.45594000000E+02  0.51100000000E-03 0.  1.
         11   -1    0    0    0    0 -0.00000000000E+00 -0.00000000000E+00 -0.45593999997E+02  0.45594000000E+02  0.51100000000E-03 0. -1.
         23    2    1    2    0    0  0.00000000000E+00  0.00000000000E+00  0.00000000000E+00  0.91188000000E+02  0.91188000000E+02 0.  0.
    9900012    2    3    3    0    0 -0.18248389420E+02  0.30984918798E+02  0.79190624887E+01  0.54367075785E+02  0.39999980866E+02 0.  0.
        -12    1    3    3    0    0  0.18248389420E+02 -0.30984918798E+02 -0.79190624887E+01  0.36820924215E+02  0.00000000000E+00 0.  1.
         11    1    4    4    0    0 -0.15568728129E+02  0.46082147451E+01  0.14515622333E+02  0.21778985988E+02  0.51100000000E-03 0. -1.
        -11    1    4    4    0    0  0.39234716672E+01  0.14155022180E+02  0.38758648398E+01  0.15191465083E+02  0.51100000000E-03 0.  1.
         12    1    4    4    0    0 -0.66031329587E+01  0.12221681873E+02 -0.10472424684E+02  0.17396624714E+02  0.00000000000E+00 0. -1.
</event>
<event>
 8    1  0.1265908E-006  0.9118800E+02  0.7816164E-02  0.1184000E+00
        -11   -1    0    0    0    0  0.00000000000E+00  0.00000000000E+00  0.45593999997E+02  0.45594000000E+02  0.51100000000E-03 0.  1.
         11   -1    0    0    0    0 -0.00000000000E+00 -0.00000000000E+00 -0.45593999997E+02  0.45594000000E+02  0.51100000000E-03 0. -1.
         23    2    1    2    0    0  0.00000000000E+00  0.00000000000E+00  0.35527136788E-14  0.91188000000E+02  0.91188000000E+02 0.  0.
    9900012    2    3    3    0    0 -0.80841697778E+01  0.29074774924E+02 -0.21097052563E+02  0.54367055353E+02  0.39999934287E+02 0.  0.
        -12    1    3    3    0    0  0.80841697778E+01 -0.29074774924E+02  0.21097052563E+02  0.36820944647E+02  0.00000000000E+00 0.  1.
         11    1    4    4    0    0  0.52772500925E+01  0.18555999405E+01 -0.77164640361E+01  0.95308151361E+01  0.51100000000E-03 0. -1.
        -11    1    4    4    0    0 -0.18006017359E+02  0.31531288653E+02 -0.12676705619E+02  0.38459559161E+02  0.51100000000E-03 0.  1.
        -12    1    4    4    0    0  0.46445974885E+01 -0.43121136699E+01 -0.70388290820E+00  0.63766810553E+01  0.00000000000E+00 0.  1.
</event>
<event>
 8    1  0.1265908E-006  0.9118800E+02  0.7816164E-02  0.1184000E+00
        -11   -1    0    0    0    0  0.00000000000E+00  0.00000000000E+00  0.45593999997E+02  0.45594000000E+02  0.51100000000E-03 0.  1.
         11   -1    0    0    0    0 -0.00000000000E+00 -0.00000000000E+00 -0.45593999997E+02  0.45594000000E+02  0.51100000000E-03 0. -1.
         23    2    1    2    0    0  0.00000000000E+00 -0.35527136788E-14 -0.35527136788E-14  0.91188000000E+02  0.91188000000E+02 0.  0.
    9900012    2    3    3    0    0 -0.28481950179E+02  0.18817751693E+02  0.13800453306E+02  0.54367057912E+02  0.39999940122E+02 0.  0.
        -12    1    3    3    0    0  0.28481950179E+02 -0.18817751693E+02 -0.13800453306E+02  0.36820942088E+02  0.00000000000E+00 0.  1.
         11    1    4    4    0    0 -0.11985862908E+02  0.37539855758E+01  0.13115851817E+02  0.18159815156E+02  0.51100000000E-03 0. -1.
        -11    1    4    4    0    0 -0.22476322992E+01  0.18467783860E+02 -0.67355036376E+01  0.19785800494E+02  0.51100000000E-03 0.  1.
        -12    1    4    4    0    0 -0.14248454973E+02 -0.34040177434E+01  0.74201051267E+01  0.16421442263E+02  0.00000000000E+00 0.  1.
</event>
<event>
 8    1  0.1265908E-006  0.9118800E+02  0.7816164E-02  0.1184000E+00
        -11   -1    0    0    0    0  0.00000000000E+00  0.00000000000E+00  0.45593999997E+02  0.45594000000E+02  0.51100000000E-03 0.  1.
         11   -1    0    0    0    0 -0.00000000000E+00 -0.00000000000E+00 -0.45593999997E+02  0.45594000000E+02  0.51100000000E-03 0. -1.
         23    2    1    2    0    0  0.00000000000E+00  0.88817841970E-15  0.00000000000E+00  0.91188000000E+02  0.91188000000E+02 0.  0.
    9900012    2    3    3    0    0  0.11814034298E+02  0.70785242856E+01  0.34148256743E+02  0.54367077265E+02  0.39999984240E+02 0.  0.
         12    1    3    3    0    0 -0.11814034298E+02 -0.70785242856E+01 -0.34148256743E+02  0.36820922735E+02  0.00000000000E+00 0. -1.
         11    1    4    4    0    0 -0.11257157750E+01  0.47756192090E+01  0.21274200500E+02  0.21832667772E+02  0.51100000000E-03 0. -1.
        -11    1    4    4    0    0  0.11101743170E+02  0.95130857709E+01  0.18228612463E+02  0.23367280862E+02  0.51100000000E-03 0.  1.
         12    1    4    4    0    0  0.18380069030E+01 -0.72101806943E+01 -0.53545562200E+01  0.91671286308E+01  0.00000000000E+00 0. -1.
</event>
<event>
 8    1  0.1265908E-006  0.9118800E+02  0.7816164E-02  0.1184000E+00
        -11   -1    0    0    0    0  0.00000000000E+00  0.00000000000E+00  0.45593999997E+02  0.45594000000E+02  0.51100000000E-03 0. -1.
         11   -1    0    0    0    0 -0.00000000000E+00 -0.00000000000E+00 -0.45593999997E+02  0.45594000000E+02  0.51100000000E-03 0.  1.
         23    2    1    2    0    0  0.00000000000E+00  0.00000000000E+00  0.00000000000E+00  0.91188000000E+02  0.91188000000E+02 0.  0.
    9900012    2    3    3    0    0  0.11572997706E+02  0.83630597608E+01  0.33939710398E+02  0.54367095797E+02  0.40000026488E+02 0.  0.
        -12    1    3    3    0    0 -0.11572997706E+02 -0.83630597608E+01 -0.33939710398E+02  0.36820904203E+02  0.00000000000E+00 0.  1.
         11    1    4    4    0    0  0.98062827876E+01 -0.93224007721E+01  0.29042935480E+02  0.32040013106E+02  0.51100000000E-03 0. -1.
        -11    1    4    4    0    0 -0.38633432760E+01  0.43844922781E+01  0.52839979958E+01  0.78784407649E+01  0.51100000000E-03 0.  1.
        -12    1    4    4    0    0  0.56300581943E+01  0.13300968255E+02 -0.38722307853E+00  0.14448641926E+02  0.00000000000E+00 0.  1.
</event>
<event>
 8    1  0.1265908E-006  0.9118800E+02  0.7816164E-02  0.1184000E+00
        -11   -1    0    0    0    0  0.00000000000E+00  0.00000000000E+00  0.45593999997E+02  0.45594000000E+02  0.51100000000E-03 0.  1.
         11   -1    0    0    0    0 -0.00000000000E+00 -0.00000000000E+00 -0.45593999997E+02  0.45594000000E+02  0.51100000000E-03 0. -1.
         23    2    1    2    0    0  0.00000000000E+00  0.71054273576E-14  0.11102230246E-14  0.91188000000E+02  0.91188000000E+02 0.  0.
    9900012    2    3    3    0    0 -0.13506593807E+02  0.34218776001E+02  0.15582668336E+01  0.54367069773E+02  0.39999967161E+02 0.  0.
        -12    1    3    3    0    0  0.13506593807E+02 -0.34218776001E+02 -0.15582668336E+01  0.36820930227E+02  0.00000000000E+00 0.  1.
         11    1    4    4    0    0 -0.37917419715E+00  0.75182470342E+01 -0.18145913002E+01  0.77434200058E+01  0.51100000000E-03 0. -1.
        -11    1    4    4    0    0  0.64103429997E+01 -0.49565479542E+01 -0.34420606377E+01  0.88038427229E+01  0.51100000000E-03 0.  1.
        -12    1    4    4    0    0 -0.19537762610E+02  0.31657076921E+02  0.68149187714E+01  0.37819807044E+02  0.00000000000E+00 0.  1.
</event>
<event>
 8    1  0.1265908E-006  0.9118800E+02  0.7816164E-02  0.1184000E+00
        -11   -1    0    0    0    0  0.00000000000E+00  0.00000000000E+00  0.45593999997E+02  0.45594000000E+02  0.51100000000E-03 0.  1.
         11   -1    0    0    0    0 -0.00000000000E+00 -0.00000000000E+00 -0.45593999997E+02  0.45594000000E+02  0.51100000000E-03 0. -1.
         23    2    1    2    0    0  0.00000000000E+00 -0.35527136788E-14  0.00000000000E+00  0.91188000000E+02  0.91188000000E+02 0.  0.
    9900012    2    3    3    0    0 -0.20596471244E+02  0.19524576155E+02 -0.23459676750E+02  0.54367080200E+02  0.39999990931E+02 0.  0.
        -12    1    3    3    0    0  0.20596471244E+02 -0.19524576155E+02  0.23459676750E+02  0.36820919800E+02  0.00000000000E+00 0.  1.
         11    1    4    4    0    0 -0.24990664244E+02 -0.19241040556E+01 -0.11914783545E+02  0.27752433100E+02  0.51100000000E-03 0. -1.
        -11    1    4    4    0    0  0.64487540043E+01  0.11122426669E+02 -0.33870546434E+01  0.13295372978E+02  0.51100000000E-03 0.  1.
         12    1    4    4    0    0 -0.20545610041E+01  0.10326253542E+02 -0.81578385622E+01  0.13319274122E+02  0.00000000000E+00 0. -1.
</event>
<event>
 8    1  0.1265908E-006  0.9118800E+02  0.7816164E-02  0.1184000E+00
        -11   -1    0    0    0    0  0.00000000000E+00  0.00000000000E+00  0.45593999997E+02  0.45594000000E+02  0.51100000000E-03 0. -1.
         11   -1    0    0    0    0 -0.00000000000E+00 -0.00000000000E+00 -0.45593999997E+02  0.45594000000E+02  0.51100000000E-03 0.  1.
         23    2    1    2    0    0  0.00000000000E+00  0.00000000000E+00  0.00000000000E+00  0.91188000000E+02  0.91188000000E+02 0.  0.
    9900012    2    3    3    0    0  0.21930039038E+02 -0.14822824626E+02  0.25595642577E+02  0.54367086635E+02  0.40000005601E+02 0.  0.
        -12    1    3    3    0    0 -0.21930039038E+02  0.14822824626E+02 -0.25595642577E+02  0.36820913365E+02  0.00000000000E+00 0.  1.
         11    1    4    4    0    0  0.93095845981E+01 -0.75279677658E+01  0.15976500590E+02  0.19964649645E+02  0.51100000000E-03 0. -1.
        -11    1    4    4    0    0  0.74913441105E+01  0.91328769018E+01  0.12221569728E+02  0.16996953961E+02  0.51100000000E-03 0.  1.
        -12    1    4    4    0    0  0.51291103298E+01 -0.16427733762E+02 -0.26024277407E+01  0.17405483029E+02  0.00000000000E+00 0.  1.
</event>
<event>
 8    1  0.1265908E-006  0.9118800E+02  0.7816164E-02  0.1184000E+00
        -11   -1    0    0    0    0  0.00000000000E+00  0.00000000000E+00  0.45593999997E+02  0.45594000000E+02  0.51100000000E-03 0. -1.
         11   -1    0    0    0    0 -0.00000000000E+00 -0.00000000000E+00 -0.45593999997E+02  0.45594000000E+02  0.51100000000E-03 0.  1.
         23    2    1    2    0    0  0.00000000000E+00  0.35527136788E-14 -0.35527136788E-14  0.91188000000E+02  0.91188000000E+02 0.  0.
    9900012    2    3    3    0    0  0.67868508725E+01 -0.28795663031E+02 -0.21920985762E+02  0.54367066132E+02  0.39999958861E+02 0.  0.
         12    1    3    3    0    0 -0.67868508725E+01  0.28795663031E+02  0.21920985762E+02  0.36820933868E+02  0.00000000000E+00 0. -1.
         11    1    4    4    0    0 -0.49576339121E+01  0.16501004169E+01 -0.39059267093E-01  0.52251785883E+01  0.51100000000E-03 0. -1.
        -11    1    4    4    0    0  0.65848018936E+01 -0.32584885217E+02 -0.25999088186E+02  0.42202925815E+02  0.51100000000E-03 0.  1.
        -12    1    4    4    0    0  0.51596828910E+01  0.21391217694E+01  0.41171616910E+01  0.69389617285E+01  0.00000000000E+00 0.  1.
</event>
<event>
 8    1  0.1265908E-006  0.9118800E+02  0.7816164E-02  0.1184000E+00
        -11   -1    0    0    0    0  0.00000000000E+00  0.00000000000E+00  0.45593999997E+02  0.45594000000E+02  0.51100000000E-03 0.  1.
         11   -1    0    0    0    0 -0.00000000000E+00 -0.00000000000E+00 -0.45593999997E+02  0.45594000000E+02  0.51100000000E-03 0. -1.
         23    2    1    2    0    0  0.44408920985E-15  0.00000000000E+00  0.35527136788E-14  0.91188000000E+02  0.91188000000E+02 0.  0.
    9900012    2    3    3    0    0 -0.32562856426E+01 -0.22542763072E+02 -0.28931020290E+02  0.54367034530E+02  0.39999886818E+02 0.  0.
         12    1    3    3    0    0  0.32562856426E+01  0.22542763072E+02  0.28931020290E+02  0.36820965470E+02  0.00000000000E+00 0. -1.
         11    1    4    4    0    0 -0.28074479304E+01 -0.86257445589E+01 -0.10138641213E+01  0.91276039460E+01  0.51100000000E-03 0. -1.
        -11    1    4    4    0    0  0.48378736519E+01 -0.23057359464E+02 -0.12836192758E+02  0.26829362491E+02  0.51100000000E-03 0.  1.
         12    1    4    4    0    0 -0.52867113640E+01  0.91403409515E+01 -0.15080963412E+02  0.18410068093E+02  0.00000000000E+00 0. -1.
</event>
<event>
 8    1  0.1265908E-006  0.9118800E+02  0.7816164E-02  0.1184000E+00
        -11   -1    0    0    0    0  0.00000000000E+00  0.00000000000E+00  0.45593999997E+02  0.45594000000E+02  0.51100000000E-03 0. -1.
         11   -1    0    0    0    0 -0.00000000000E+00 -0.00000000000E+00 -0.45593999997E+02  0.45594000000E+02  0.51100000000E-03 0.  1.
         23    2    1    2    0    0 -0.35527136788E-14  0.17763568394E-14 -0.35527136788E-14  0.91188000000E+02  0.91188000000E+02 0.  0.
    9900012    2    3    3    0    0  0.30200099819E+02 -0.12395875990E+02 -0.17031683017E+02  0.54367054914E+02  0.39999933288E+02 0.  0.
        -12    1    3    3    0    0 -0.30200099819E+02  0.12395875990E+02  0.17031683017E+02  0.36820945086E+02  0.00000000000E+00 0.  1.
         11    1    4    4    0    0  0.11618052972E+01  0.62455028777E+01 -0.53919619458E+01  0.83324277152E+01  0.51100000000E-03 0. -1.
        -11    1    4    4    0    0  0.96027608559E+01  0.43426969997E+01 -0.11949507146E+02  0.15933071097E+02  0.51100000000E-03 0.  1.
         12    1    4    4    0    0  0.19435533666E+02 -0.22984075867E+02  0.30978607499E+00  0.30101556102E+02  0.00000000000E+00 0. -1.
</event>
<event>
 8    1  0.1265908E-006  0.9118800E+02  0.7816164E-02  0.1184000E+00
        -11   -1    0    0    0    0  0.00000000000E+00  0.00000000000E+00  0.45593999997E+02  0.45594000000E+02  0.51100000000E-03 0. -1.
         11   -1    0    0    0    0 -0.00000000000E+00 -0.00000000000E+00 -0.45593999997E+02  0.45594000000E+02  0.51100000000E-03 0.  1.
         23    2    1    2    0    0  0.00000000000E+00  0.35527136788E-14 -0.35527136788E-14  0.91188000000E+02  0.91188000000E+02 0.  0.
    9900012    2    3    3    0    0  0.21553983936E+02  0.18342423212E+02 -0.23553372064E+02  0.54367081375E+02  0.39999993611E+02 0.  0.
        -12    1    3    3    0    0 -0.21553983936E+02 -0.18342423212E+02  0.23553372064E+02  0.36820918625E+02  0.00000000000E+00 0.  1.
         11    1    4    4    0    0 -0.62026336678E+01  0.49296855042E+01  0.19564633486E+01  0.81610178705E+01  0.51100000000E-03 0.  1.
        -11    1    4    4    0    0  0.69689104587E+01  0.15646980752E+02 -0.78653383583E+01  0.18848269613E+02  0.51100000000E-03 0. -1.
         12    1    4    4    0    0  0.20787707145E+02 -0.22342430447E+01 -0.17644497054E+02  0.27357793892E+02  0.00000000000E+00 0. -1.
</event>
<event>
 8    1  0.1265908E-006  0.9118800E+02  0.7816164E-02  0.1184000E+00
        -11   -1    0    0    0    0  0.00000000000E+00  0.00000000000E+00  0.45593999997E+02  0.45594000000E+02  0.51100000000E-03 0.  1.
         11   -1    0    0    0    0 -0.00000000000E+00 -0.00000000000E+00 -0.45593999997E+02  0.45594000000E+02  0.51100000000E-03 0. -1.
         23    2    1    2    0    0  0.00000000000E+00 -0.35527136788E-14 -0.35527136788E-14  0.91188000000E+02  0.91188000000E+02 0.  0.
    9900012    2    3    3    0    0 -0.19434791321E+02 -0.19936920069E+02 -0.24095376883E+02  0.54367094489E+02  0.40000023507E+02 0.  0.
         12    1    3    3    0    0  0.19434791321E+02  0.19936920069E+02  0.24095376883E+02  0.36820905511E+02  0.00000000000E+00 0. -1.
         11    1    4    4    0    0  0.24718749865E+01 -0.38154694671E+01  0.42691718988E+01  0.62364895708E+01  0.51100000000E-03 0. -1.
        -11    1    4    4    0    0 -0.23472157238E+02 -0.20459429165E+02 -0.16154144725E+02  0.35078295273E+02  0.51100000000E-03 0.  1.
         12    1    4    4    0    0  0.15654909306E+01  0.43379785630E+01 -0.12210404056E+02  0.13052309646E+02  0.00000000000E+00 0. -1.
</event>
<event>
 8    1  0.1265908E-006  0.9118800E+02  0.7816164E-02  0.1184000E+00
        -11   -1    0    0    0    0  0.00000000000E+00  0.00000000000E+00  0.45593999997E+02  0.45594000000E+02  0.51100000000E-03 0.  1.
         11   -1    0    0    0    0 -0.00000000000E+00 -0.00000000000E+00 -0.45593999997E+02  0.45594000000E+02  0.51100000000E-03 0. -1.
         23    2    1    2    0    0  0.00000000000E+00  0.00000000000E+00 -0.35527136788E-14  0.91188000000E+02  0.91188000000E+02 0.  0.
    9900012    2    3    3    0    0 -0.19448251143E+02 -0.12194182822E+02  0.28789774852E+02  0.54367031744E+02  0.39999880468E+02 0.  0.
         12    1    3    3    0    0  0.19448251143E+02  0.12194182822E+02 -0.28789774852E+02  0.36820968256E+02  0.00000000000E+00 0. -1.
         11    1    4    4    0    0  0.49835043401E+01  0.10603870204E+02  0.80150816705E+01  0.14195735742E+02  0.51100000000E-03 0. -1.
        -11    1    4    4    0    0 -0.49021559015E+01 -0.65877733244E+01  0.90287356993E+01  0.12204423724E+02  0.51100000000E-03 0.  1.
        -12    1    4    4    0    0 -0.19529599582E+02 -0.16210279702E+02  0.11745957483E+02  0.27966872278E+02  0.00000000000E+00 0.  1.
</event>
<event>
 8    1  0.1265908E-006  0.9118800E+02  0.7816164E-02  0.1184000E+00
        -11   -1    0    0    0    0  0.00000000000E+00  0.00000000000E+00  0.45593999997E+02  0.45594000000E+02  0.51100000000E-03 0. -1.
         11   -1    0    0    0    0 -0.00000000000E+00 -0.00000000000E+00 -0.45593999997E+02  0.45594000000E+02  0.51100000000E-03 0.  1.
         23    2    1    2    0    0  0.00000000000E+00  0.00000000000E+00  0.00000000000E+00  0.91188000000E+02  0.91188000000E+02 0.  0.
    9900012    2    3    3    0    0  0.19754056580E+02  0.10125366608E+02 -0.29377435451E+02  0.54367088632E+02  0.40000010153E+02 0.  0.
         12    1    3    3    0    0 -0.19754056580E+02 -0.10125366608E+02  0.29377435451E+02  0.36820911368E+02  0.00000000000E+00 0. -1.
         11    1    4    4    0    0 -0.54209082184E+01 -0.60540170356E+01 -0.14867727060E+01  0.82612263932E+01  0.51100000000E-03 0. -1.
        -11    1    4    4    0    0  0.27878574484E+02  0.13481380028E+02 -0.18754690305E+02  0.36203603846E+02  0.51100000000E-03 0.  1.
        -12    1    4    4    0    0 -0.27036096861E+01  0.26980036157E+01 -0.91359724397E+01  0.99022583921E+01  0.00000000000E+00 0.  1.
</event>
<event>
 8    1  0.1265908E-006  0.9118800E+02  0.7816164E-02  0.1184000E+00
        -11   -1    0    0    0    0  0.00000000000E+00  0.00000000000E+00  0.45593999997E+02  0.45594000000E+02  0.51100000000E-03 0.  1.
         11   -1    0    0    0    0 -0.00000000000E+00 -0.00000000000E+00 -0.45593999997E+02  0.45594000000E+02  0.51100000000E-03 0. -1.
         23    2    1    2    0    0  0.35527136788E-14 -0.35527136788E-14 -0.35527136788E-14  0.91188000000E+02  0.91188000000E+02 0.  0.
    9900012    2    3    3    0    0  0.19555507799E+02 -0.28429847625E+02 -0.12849338413E+02  0.54367087207E+02  0.40000006907E+02 0.  0.
        -12    1    3    3    0    0 -0.19555507799E+02  0.28429847625E+02  0.12849338413E+02  0.36820912793E+02  0.00000000000E+00 0.  1.
         11    1    4    4    0    0 -0.68637311004E+01 -0.55629496131E+01 -0.67586809385E+00  0.88608132221E+01  0.51100000000E-03 0. -1.
        -11    1    4    4    0    0  0.21652773140E+02 -0.42542497229E+01  0.11960574013E+01  0.22099135253E+02  0.51100000000E-03 0.  1.
        -12    1    4    4    0    0  0.47664657589E+01 -0.18612648289E+02 -0.13369527720E+02  0.23407138732E+02  0.00000000000E+00 0.  1.
</event>
<event>
 8    1  0.1265908E-006  0.9118800E+02  0.7816164E-02  0.1184000E+00
        -11   -1    0    0    0    0  0.00000000000E+00  0.00000000000E+00  0.45593999997E+02  0.45594000000E+02  0.51100000000E-03 0.  1.
         11   -1    0    0    0    0 -0.00000000000E+00 -0.00000000000E+00 -0.45593999997E+02  0.45594000000E+02  0.51100000000E-03 0. -1.
         23    2    1    2    0    0 -0.35527136788E-14  0.35527136788E-14  0.66613381478E-15  0.91188000000E+02  0.91188000000E+02 0.  0.
    9900012    2    3    3    0    0  0.22501087720E+02 -0.29133943298E+02 -0.83536681819E+00  0.54367035342E+02  0.39999888668E+02 0.  0.
         12    1    3    3    0    0 -0.22501087720E+02  0.29133943298E+02  0.83536681819E+00  0.36820964658E+02  0.00000000000E+00 0. -1.
         11    1    4    4    0    0  0.66713962379E+01 -0.35146124680E+01 -0.12522232585E+02  0.14617330048E+02  0.51100000000E-03 0. -1.
        -11    1    4    4    0    0  0.16157392543E+02 -0.46798204320E+01  0.30460965893E+01  0.17095050680E+02  0.51100000000E-03 0.  1.
        -12    1    4    4    0    0 -0.32770106094E+00 -0.20939510398E+02  0.86407691772E+01  0.22654654614E+02  0.00000000000E+00 0.  1.
</event>
<event>
 8    1  0.1265908E-006  0.9118800E+02  0.7816164E-02  0.1184000E+00
        -11   -1    0    0    0    0  0.00000000000E+00  0.00000000000E+00  0.45593999997E+02  0.45594000000E+02  0.51100000000E-03 0.  1.
         11   -1    0    0    0    0 -0.00000000000E+00 -0.00000000000E+00 -0.45593999997E+02  0.45594000000E+02  0.51100000000E-03 0. -1.
         23    2    1    2    0    0  0.35527136788E-14 -0.35527136788E-14 -0.88817841970E-15  0.91188000000E+02  0.91188000000E+02 0.  0.
    9900012    2    3    3    0    0 -0.28786935286E+02 -0.21936935429E+02  0.67723223263E+01  0.54367066703E+02  0.39999960163E+02 0.  0.
         12    1    3    3    0    0  0.28786935286E+02  0.21936935429E+02 -0.67723223263E+01  0.36820933297E+02  0.00000000000E+00 0. -1.
         11    1    4    4    0    0  0.32187600217E+01  0.70591790134E+01 -0.40251201951E+01  0.87403671128E+01  0.51100000000E-03 0. -1.
        -11    1    4    4    0    0 -0.23561946678E+01 -0.64169213972E+01  0.35861094034E-01  0.68359212847E+01  0.51100000000E-03 0.  1.
        -12    1    4    4    0    0 -0.29649500640E+02 -0.22579193045E+02  0.10761581427E+02  0.38790778306E+02  0.00000000000E+00 0.  1.
</event>
<event>
 8    1  0.1265908E-006  0.9118800E+02  0.7816164E-02  0.1184000E+00
        -11   -1    0    0    0    0  0.00000000000E+00  0.00000000000E+00  0.45593999997E+02  0.45594000000E+02  0.51100000000E-03 0.  1.
         11   -1    0    0    0    0 -0.00000000000E+00 -0.00000000000E+00 -0.45593999997E+02  0.45594000000E+02  0.51100000000E-03 0. -1.
         23    2    1    2    0    0 -0.44408920985E-15  0.00000000000E+00 -0.88817841970E-15  0.91188000000E+02  0.91188000000E+02 0.  0.
    9900012    2    3    3    0    0  0.28571050178E+01 -0.36624741668E+02 -0.24991566668E+01  0.54367074762E+02  0.39999978534E+02 0.  0.
        -12    1    3    3    0    0 -0.28571050178E+01  0.36624741668E+02  0.24991566668E+01  0.36820925238E+02  0.00000000000E+00 0.  1.
         11    1    4    4    0    0 -0.11864554057E+02 -0.15180515434E+02 -0.96885706942E+01  0.21565808452E+02  0.51100000000E-03 0. -1.
        -11    1    4    4    0    0  0.30185557941E+01 -0.98483376627E+01  0.11829154620E+02  0.15685354095E+02  0.51100000000E-03 0.  1.
        -12    1    4    4    0    0  0.11703103281E+02 -0.11595888572E+02 -0.46397405930E+01  0.17115912215E+02  0.00000000000E+00 0.  1.
</event>
<event>
 8    1  0.1265908E-006  0.9118800E+02  0.7816164E-02  0.1184000E+00
        -11   -1    0    0    0    0  0.00000000000E+00  0.00000000000E+00  0.45593999997E+02  0.45594000000E+02  0.51100000000E-03 0.  1.
         11   -1    0    0    0    0 -0.00000000000E+00 -0.00000000000E+00 -0.45593999997E+02  0.45594000000E+02  0.51100000000E-03 0. -1.
         23    2    1    2    0    0  0.71054273576E-14 -0.88817841970E-15  0.00000000000E+00  0.91188000000E+02  0.91188000000E+02 0.  0.
    9900012    2    3    3    0    0  0.33841140517E+02 -0.75796868575E+01  0.12373551163E+02  0.54367092723E+02  0.40000019481E+02 0.  0.
         12    1    3    3    0    0 -0.33841140517E+02  0.75796868575E+01 -0.12373551163E+02  0.36820907277E+02  0.00000000000E+00 0. -1.
         11    1    4    4    0    0  0.69586653132E+01  0.74542730490E+01  0.53838505085E+00  0.10211712313E+02  0.51100000000E-03 0. -1.
        -11    1    4    4    0    0  0.17048477872E+02 -0.21861493616E+02  0.58844011888E+00  0.27729438561E+02  0.51100000000E-03 0.  1.
        -12    1    4    4    0    0  0.98339973312E+01  0.68275337098E+01  0.11246725993E+02  0.16425941849E+02  0.00000000000E+00 0.  1.
</event>
<event>
 8    1  0.1265908E-006  0.9118800E+02  0.7816164E-02  0.1184000E+00
        -11   -1    0    0    0    0  0.00000000000E+00  0.00000000000E+00  0.45593999997E+02  0.45594000000E+02  0.51100000000E-03 0.  1.
         11   -1    0    0    0    0 -0.00000000000E+00 -0.00000000000E+00 -0.45593999997E+02  0.45594000000E+02  0.51100000000E-03 0. -1.
         23    2    1    2    0    0  0.35527136788E-14  0.00000000000E+00  0.00000000000E+00  0.91188000000E+02  0.91188000000E+02 0.  0.
    9900012    2    3    3    0    0  0.30088675549E+02  0.20083254098E+02  0.68640306922E+01  0.54367076481E+02  0.39999982453E+02 0.  0.
         12    1    3    3    0    0 -0.30088675549E+02 -0.20083254098E+02 -0.68640306922E+01  0.36820923519E+02  0.00000000000E+00 0. -1.
         11    1    4    4    0    0  0.13847222824E+02  0.30259039435E+02 -0.17654388126E+01  0.33323742616E+02  0.51100000000E-03 0.  1.
        -11    1    4    4    0    0  0.43327395560E+01 -0.22129299349E+01  0.23115176506E+01  0.53863535965E+01  0.51100000000E-03 0. -1.
        -12    1    4    4    0    0  0.11908713169E+02 -0.79628554019E+01  0.63179518542E+01  0.15656980268E+02  0.00000000000E+00 0.  1.
</event>
<event>
 8    1  0.1265908E-006  0.9118800E+02  0.7816164E-02  0.1184000E+00
        -11   -1    0    0    0    0  0.00000000000E+00  0.00000000000E+00  0.45593999997E+02  0.45594000000E+02  0.51100000000E-03 0.  1.
         11   -1    0    0    0    0 -0.00000000000E+00 -0.00000000000E+00 -0.45593999997E+02  0.45594000000E+02  0.51100000000E-03 0. -1.
         23    2    1    2    0    0  0.00000000000E+00 -0.11102230246E-15 -0.17763568394E-14  0.91188000000E+02  0.91188000000E+02 0.  0.
    9900012    2    3    3    0    0 -0.33632236633E+02 -0.50362037172E+00  0.14979895543E+02  0.54367105865E+02  0.40000049441E+02 0.  0.
         12    1    3    3    0    0  0.33632236633E+02  0.50362037172E+00 -0.14979895543E+02  0.36820894135E+02  0.00000000000E+00 0. -1.
         11    1    4    4    0    0  0.17794865169E+01 -0.11641329317E+02  0.29294332859E+01  0.12135431602E+02  0.51100000000E-03 0. -1.
        -11    1    4    4    0    0  0.16591084075E+01 -0.18374293519E+00  0.91102060655E+00  0.19016732056E+01  0.51100000000E-03 0.  1.
        -12    1    4    4    0    0 -0.37070831557E+02  0.11321451881E+02  0.11139441651E+02  0.40330001058E+02  0.00000000000E+00 0.  1.
</event>
<event>
 8    1  0.1265908E-006  0.9118800E+02  0.7816164E-02  0.1184000E+00
        -11   -1    0    0    0    0  0.00000000000E+00  0.00000000000E+00  0.45593999997E+02  0.45594000000E+02  0.51100000000E-03 0. -1.
         11   -1    0    0    0    0 -0.00000000000E+00 -0.00000000000E+00 -0.45593999997E+02  0.45594000000E+02  0.51100000000E-03 0.  1.
         23    2    1    2    0    0  0.00000000000E+00  0.00000000000E+00 -0.53290705182E-14  0.91188000000E+02  0.91188000000E+02 0.  0.
    9900012    2    3    3    0    0 -0.17620915379E+02  0.29712581167E+02  0.12745373655E+02  0.54367099848E+02  0.40000035724E+02 0.  0.
        -12    1    3    3    0    0  0.17620915379E+02 -0.29712581167E+02 -0.12745373655E+02  0.36820900152E+02  0.00000000000E+00 0.  1.
         11    1    4    4    0    0  0.83376424120E+00  0.15970060941E+02 -0.86109784294E+01  0.18162790508E+02  0.51100000000E-03 0. -1.
        -11    1    4    4    0    0  0.83486861354E+00 -0.47046693895E+00 -0.23257684165E+01  0.25154609380E+01  0.51100000000E-03 0.  1.
         12    1    4    4    0    0 -0.19289548234E+02  0.14212987164E+02  0.23682120501E+02  0.33688848402E+02  0.00000000000E+00 0. -1.
</event>
<event>
 8    1  0.1265908E-006  0.9118800E+02  0.7816164E-02  0.1184000E+00
        -11   -1    0    0    0    0  0.00000000000E+00  0.00000000000E+00  0.45593999997E+02  0.45594000000E+02  0.51100000000E-03 0.  1.
         11   -1    0    0    0    0 -0.00000000000E+00 -0.00000000000E+00 -0.45593999997E+02  0.45594000000E+02  0.51100000000E-03 0. -1.
         23    2    1    2    0    0  0.00000000000E+00  0.00000000000E+00  0.00000000000E+00  0.91188000000E+02  0.91188000000E+02 0.  0.
    9900012    2    3    3    0    0 -0.16057996319E+02  0.94459107402E+01  0.31759964547E+02  0.54367084429E+02  0.40000000572E+02 0.  0.
         12    1    3    3    0    0  0.16057996319E+02 -0.94459107402E+01 -0.31759964547E+02  0.36820915571E+02  0.00000000000E+00 0. -1.
         11    1    4    4    0    0 -0.20862892068E+02  0.12707956054E+02  0.83013259618E+01  0.25800473358E+02  0.51100000000E-03 0.  1.
        -11    1    4    4    0    0  0.77745789240E+01 -0.72902030823E+01  0.11922796728E+02  0.15992004893E+02  0.51100000000E-03 0. -1.
        -12    1    4    4    0    0 -0.29696831754E+01  0.40281577684E+01  0.11535841857E+02  0.12574606177E+02  0.00000000000E+00 0.  1.
</event>
<event>
 8    1  0.1265908E-006  0.9118800E+02  0.7816164E-02  0.1184000E+00
        -11   -1    0    0    0    0  0.00000000000E+00  0.00000000000E+00  0.45593999997E+02  0.45594000000E+02  0.51100000000E-03 0. -1.
         11   -1    0    0    0    0 -0.00000000000E+00 -0.00000000000E+00 -0.45593999997E+02  0.45594000000E+02  0.51100000000E-03 0.  1.
         23    2    1    2    0    0  0.88817841970E-15  0.00000000000E+00  0.53290705182E-14  0.91188000000E+02  0.91188000000E+02 0.  0.
    9900012    2    3    3    0    0  0.61852450634E+01 -0.34643409508E+02  0.10833120603E+02  0.54367087724E+02  0.40000008084E+02 0.  0.
        -12    1    3    3    0    0 -0.61852450634E+01  0.34643409508E+02 -0.10833120603E+02  0.36820912276E+02  0.00000000000E+00 0.  1.
         11    1    4    4    0    0  0.10383167807E+02 -0.25768379142E+01 -0.10266701536E+02  0.14827522654E+02  0.51100000000E-03 0. -1.
        -11    1    4    4    0    0 -0.10570494157E+01 -0.23064558478E+02  0.18690448109E+02  0.29705623408E+02  0.51100000000E-03 0.  1.
         12    1    4    4    0    0 -0.31408733281E+01 -0.90020131158E+01  0.24093740306E+01  0.98339416624E+01  0.00000000000E+00 0. -1.
</event>
<event>
 8    1  0.1265908E-006  0.9118800E+02  0.7816164E-02  0.1184000E+00
        -11   -1    0    0    0    0  0.00000000000E+00  0.00000000000E+00  0.45593999997E+02  0.45594000000E+02  0.51100000000E-03 0. -1.
         11   -1    0    0    0    0 -0.00000000000E+00 -0.00000000000E+00 -0.45593999997E+02  0.45594000000E+02  0.51100000000E-03 0.  1.
         23    2    1    2    0    0  0.71054273576E-14 -0.22204460493E-15  0.00000000000E+00  0.91188000000E+02  0.91188000000E+02 0.  0.
    9900012    2    3    3    0    0  0.36652871325E+02 -0.13885779739E+01  0.32272630676E+01  0.54367131568E+02  0.40000108036E+02 0.  0.
         12    1    3    3    0    0 -0.36652871325E+02  0.13885779739E+01 -0.32272630676E+01  0.36820868432E+02  0.00000000000E+00 0. -1.
         11    1    4    4    0    0  0.40398799463E+00  0.86661138387E+01  0.89540242803E+01  0.12467529284E+02  0.51100000000E-03 0. -1.
        -11    1    4    4    0    0  0.13816697964E+02 -0.58356581654E+01 -0.10843330727E+02  0.18507670582E+02  0.51100000000E-03 0.  1.
         12    1    4    4    0    0  0.22432185366E+02 -0.42190336473E+01  0.51165695139E+01  0.23391931703E+02  0.00000000000E+00 0. -1.
</event>
<event>
 8    1  0.1265908E-006  0.9118800E+02  0.7816164E-02  0.1184000E+00
        -11   -1    0    0    0    0  0.00000000000E+00  0.00000000000E+00  0.45593999997E+02  0.45594000000E+02  0.51100000000E-03 0.  1.
         11   -1    0    0    0    0 -0.00000000000E+00 -0.00000000000E+00 -0.45593999997E+02  0.45594000000E+02  0.51100000000E-03 0. -1.
         23    2    1    2    0    0  0.00000000000E+00 -0.35527136788E-14 -0.35527136788E-14  0.91188000000E+02  0.91188000000E+02 0.  0.
    9900012    2    3    3    0    0  0.21354643975E+02 -0.17819543571E+02 -0.24129347888E+02  0.54367049688E+02  0.39999921375E+02 0.  0.
        -12    1    3    3    0    0 -0.21354643975E+02  0.17819543571E+02  0.24129347888E+02  0.36820950312E+02  0.00000000000E+00 0.  1.
         11    1    4    4    0    0  0.17325290933E+02 -0.76354213915E+01 -0.42878705252E+01  0.19412655656E+02  0.51100000000E-03 0. -1.
        -11    1    4    4    0    0  0.23701146127E+01 -0.12913335284E+02  0.16451107851E+01  0.13231706663E+02  0.51100000000E-03 0.  1.
        -12    1    4    4    0    0  0.16592384293E+01  0.27292131049E+01 -0.21486588147E+02  0.21722687369E+02  0.00000000000E+00 0.  1.
</event>
<event>
 8    1  0.1265908E-006  0.9118800E+02  0.7816164E-02  0.1184000E+00
        -11   -1    0    0    0    0  0.00000000000E+00  0.00000000000E+00  0.45593999997E+02  0.45594000000E+02  0.51100000000E-03 0.  1.
         11   -1    0    0    0    0 -0.00000000000E+00 -0.00000000000E+00 -0.45593999997E+02  0.45594000000E+02  0.51100000000E-03 0. -1.
         23    2    1    2    0    0  0.35527136788E-14  0.35527136788E-14  0.00000000000E+00  0.91188000000E+02  0.91188000000E+02 0.  0.
    9900012    2    3    3    0    0  0.17622115463E+02  0.12815616183E+02 -0.29681597482E+02  0.54367133625E+02  0.40000112724E+02 0.  0.
        -12    1    3    3    0    0 -0.17622115463E+02 -0.12815616183E+02  0.29681597482E+02  0.36820866375E+02  0.00000000000E+00 0.  1.
         11    1    4    4    0    0  0.26899189759E+01 -0.73397198558E+01  0.17905323438E+01  0.80195484906E+01  0.51100000000E-03 0. -1.
        -11    1    4    4    0    0 -0.40773649556E+01  0.45196805462E+01 -0.16381992649E+02  0.17476329724E+02  0.51100000000E-03 0.  1.
        -12    1    4    4    0    0  0.19009561443E+02  0.15635655492E+02 -0.15090137176E+02  0.28871255410E+02  0.00000000000E+00 0.  1.
</event>
<event>
 8    1  0.1265908E-006  0.9118800E+02  0.7816164E-02  0.1184000E+00
        -11   -1    0    0    0    0  0.00000000000E+00  0.00000000000E+00  0.45593999997E+02  0.45594000000E+02  0.51100000000E-03 0.  1.
         11   -1    0    0    0    0 -0.00000000000E+00 -0.00000000000E+00 -0.45593999997E+02  0.45594000000E+02  0.51100000000E-03 0. -1.
         23    2    1    2    0    0 -0.88817841970E-15  0.00000000000E+00 -0.53290705182E-14  0.91188000000E+02  0.91188000000E+02 0.  0.
    9900012    2    3    3    0    0 -0.39553558383E+01 -0.35657082101E+02 -0.82889812272E+01  0.54367088094E+02  0.40000008929E+02 0.  0.
        -12    1    3    3    0    0  0.39553558383E+01  0.35657082101E+02  0.82889812272E+01  0.36820911906E+02  0.00000000000E+00 0.  1.
         11    1    4    4    0    0 -0.86419209068E+01 -0.25219276395E+02 -0.17945243219E+02  0.32136061571E+02  0.51100000000E-03 0. -1.
        -11    1    4    4    0    0 -0.79736170104E+00 -0.10025387720E+02  0.12497063108E+02  0.16041221002E+02  0.51100000000E-03 0.  1.
        -12    1    4    4    0    0  0.54839267696E+01 -0.41241798542E+00 -0.28408011166E+01  0.61898055214E+01  0.00000000000E+00 0.  1.
</event>
<event>
 8    1  0.1265908E-006  0.9118800E+02  0.7816164E-02  0.1184000E+00
        -11   -1    0    0    0    0  0.00000000000E+00  0.00000000000E+00  0.45593999997E+02  0.45594000000E+02  0.51100000000E-03 0. -1.
         11   -1    0    0    0    0 -0.00000000000E+00 -0.00000000000E+00 -0.45593999997E+02  0.45594000000E+02  0.51100000000E-03 0.  1.
         23    2    1    2    0    0  0.17763568394E-14  0.71054273576E-14 -0.17763568394E-14  0.91188000000E+02  0.91188000000E+02 0.  0.
    9900012    2    3    3    0    0 -0.92618131467E+01 -0.35093802374E+02  0.61986089125E+01  0.54367096965E+02  0.40000029152E+02 0.  0.
         12    1    3    3    0    0  0.92618131467E+01  0.35093802374E+02 -0.61986089125E+01  0.36820903035E+02  0.00000000000E+00 0. -1.
         11    1    4    4    0    0  0.88926114786E+01 -0.12967320728E+02  0.14133926179E+02  0.21142322845E+02  0.51100000000E-03 0. -1.
        -11    1    4    4    0    0 -0.27004112621E+01  0.13874717459E+01  0.17042637135E+01  0.34816395415E+01  0.51100000000E-03 0.  1.
        -12    1    4    4    0    0 -0.15454013363E+02 -0.23513953392E+02 -0.96395809800E+01  0.29743134579E+02  0.00000000000E+00 0.  1.
</event>
<event>
 8    1  0.1265908E-006  0.9118800E+02  0.7816164E-02  0.1184000E+00
        -11   -1    0    0    0    0  0.00000000000E+00  0.00000000000E+00  0.45593999997E+02  0.45594000000E+02  0.51100000000E-03 0.  1.
         11   -1    0    0    0    0 -0.00000000000E+00 -0.00000000000E+00 -0.45593999997E+02  0.45594000000E+02  0.51100000000E-03 0. -1.
         23    2    1    2    0    0  0.00000000000E+00  0.88817841970E-15  0.00000000000E+00  0.91188000000E+02  0.91188000000E+02 0.  0.
    9900012    2    3    3    0    0 -0.14595342435E+02  0.67183762262E+01 -0.33130323825E+02  0.54367096200E+02  0.40000027407E+02 0.  0.
        -12    1    3    3    0    0  0.14595342435E+02 -0.67183762262E+01  0.33130323825E+02  0.36820903800E+02  0.00000000000E+00 0.  1.
         11    1    4    4    0    0 -0.24673595389E+02  0.67598582855E+01 -0.21476925567E+02  0.33402699375E+02  0.51100000000E-03 0. -1.
        -11    1    4    4    0    0 -0.21577883218E+01 -0.31644658237E+01 -0.73892752408E-01  0.38308425693E+01  0.51100000000E-03 0.  1.
         12    1    4    4    0    0  0.12236041276E+02  0.31229837643E+01 -0.11579505505E+02  0.17133554256E+02  0.00000000000E+00 0. -1.
</event>
<event>
 8    1  0.1265908E-006  0.9118800E+02  0.7816164E-02  0.1184000E+00
        -11   -1    0    0    0    0  0.00000000000E+00  0.00000000000E+00  0.45593999997E+02  0.45594000000E+02  0.51100000000E-03 0. -1.
         11   -1    0    0    0    0 -0.00000000000E+00 -0.00000000000E+00 -0.45593999997E+02  0.45594000000E+02  0.51100000000E-03 0.  1.
         23    2    1    2    0    0 -0.17763568394E-14  0.35527136788E-14  0.35527136788E-14  0.91188000000E+02  0.91188000000E+02 0.  0.
    9900012    2    3    3    0    0  0.87538074588E+01 -0.20180842723E+02 -0.29527670841E+02  0.54367096924E+02  0.40000029057E+02 0.  0.
         12    1    3    3    0    0 -0.87538074588E+01  0.20180842723E+02  0.29527670841E+02  0.36820903076E+02  0.00000000000E+00 0. -1.
         11    1    4    4    0    0  0.10331473384E+02 -0.24335826142E+02 -0.16182361646E+02  0.30997429006E+02  0.51100000000E-03 0. -1.
        -11    1    4    4    0    0  0.65609204416E+01  0.45718978975E+01 -0.12938474153E+02  0.15210261046E+02  0.51100000000E-03 0.  1.
         12    1    4    4    0    0 -0.81385863670E+01 -0.41691447857E+00 -0.40683504220E+00  0.81594068710E+01  0.00000000000E+00 0. -1.
</event>
<event>
 8    1  0.1265908E-006  0.9118800E+02  0.7816164E-02  0.1184000E+00
        -11   -1    0    0    0    0  0.00000000000E+00  0.00000000000E+00  0.45593999997E+02  0.45594000000E+02  0.51100000000E-03 0. -1.
         11   -1    0    0    0    0 -0.00000000000E+00 -0.00000000000E+00 -0.45593999997E+02  0.45594000000E+02  0.51100000000E-03 0.  1.
         23    2    1    2    0    0  0.35527136788E-14  0.00000000000E+00 -0.35527136788E-14  0.91188000000E+02  0.91188000000E+02 0.  0.
    9900012    2    3    3    0    0  0.17113320570E+02  0.19160158547E+02  0.26378045929E+02  0.54367099366E+02  0.40000034625E+02 0.  0.
        -12    1    3    3    0    0 -0.17113320570E+02 -0.19160158547E+02 -0.26378045929E+02  0.36820900634E+02  0.00000000000E+00 0.  1.
         11    1    4    4    0    0  0.16984165473E+02  0.76042721762E+01  0.21925351518E+02  0.28757744549E+02  0.51100000000E-03 0. -1.
        -11    1    4    4    0    0 -0.97682528928E+01  0.12687777112E+00 -0.26140330307E+00  0.97725735861E+01  0.51100000000E-03 0.  1.
        -12    1    4    4    0    0  0.98974079904E+01  0.11429008599E+02  0.47140977141E+01  0.15836781231E+02  0.00000000000E+00 0.  1.
</event>
<event>
 8    1  0.1265908E-006  0.9118800E+02  0.7816164E-02  0.1184000E+00
        -11   -1    0    0    0    0  0.00000000000E+00  0.00000000000E+00  0.45593999997E+02  0.45594000000E+02  0.51100000000E-03 0. -1.
         11   -1    0    0    0    0 -0.00000000000E+00 -0.00000000000E+00 -0.45593999997E+02  0.45594000000E+02  0.51100000000E-03 0.  1.
         23    2    1    2    0    0  0.00000000000E+00  0.35527136788E-14 -0.35527136788E-14  0.91188000000E+02  0.91188000000E+02 0.  0.
    9900012    2    3    3    0    0 -0.52043884104E+01  0.28214470012E+02 -0.23078937845E+02  0.54367090875E+02  0.40000015267E+02 0.  0.
         12    1    3    3    0    0  0.52043884104E+01 -0.28214470012E+02  0.23078937845E+02  0.36820909125E+02  0.00000000000E+00 0. -1.
         11    1    4    4    0    0  0.60314537097E+01 -0.12593564724E+01  0.33015800882E+01  0.69903393278E+01  0.51100000000E-03 0. -1.
        -11    1    4    4    0    0 -0.90835780340E+01  0.10773831955E+01 -0.94920537589E+00  0.91963653449E+01  0.51100000000E-03 0.  1.
        -12    1    4    4    0    0 -0.21522640861E+01  0.28396443289E+02 -0.25431312557E+02  0.38180386202E+02  0.00000000000E+00 0.  1.
</event>
<event>
 8    1  0.1265908E-006  0.9118800E+02  0.7816164E-02  0.1184000E+00
        -11   -1    0    0    0    0  0.00000000000E+00  0.00000000000E+00  0.45593999997E+02  0.45594000000E+02  0.51100000000E-03 0. -1.
         11   -1    0    0    0    0 -0.00000000000E+00 -0.00000000000E+00 -0.45593999997E+02  0.45594000000E+02  0.51100000000E-03 0.  1.
         23    2    1    2    0    0  0.17763568394E-14  0.00000000000E+00 -0.17763568394E-14  0.91188000000E+02  0.91188000000E+02 0.  0.
    9900012    2    3    3    0    0  0.15410166441E+02 -0.31763680351E+02  0.10458640411E+02  0.54366976407E+02  0.39999754314E+02 0.  0.
        -12    1    3    3    0    0 -0.15410166441E+02  0.31763680351E+02 -0.10458640411E+02  0.36821023593E+02  0.00000000000E+00 0.  1.
         11    1    4    4    0    0 -0.52571778771E+00  0.11620106314E+01  0.84335079905E+01  0.85294023933E+01  0.51100000000E-03 0. -1.
        -11    1    4    4    0    0 -0.73803912610E+01 -0.75015707089E+01  0.40629190623E+01  0.11280560706E+02  0.51100000000E-03 0.  1.
        -12    1    4    4    0    0  0.23316275489E+02 -0.25424120274E+02 -0.20377866414E+01  0.34557013308E+02  0.00000000000E+00 0.  1.
</event>
<event>
 8    1  0.1265908E-006  0.9118800E+02  0.7816164E-02  0.1184000E+00
        -11   -1    0    0    0    0  0.00000000000E+00  0.00000000000E+00  0.45593999997E+02  0.45594000000E+02  0.51100000000E-03 0. -1.
         11   -1    0    0    0    0 -0.00000000000E+00 -0.00000000000E+00 -0.45593999997E+02  0.45594000000E+02  0.51100000000E-03 0.  1.
         23    2    1    2    0    0  0.17763568394E-14  0.17763568394E-14  0.00000000000E+00  0.91188000000E+02  0.91188000000E+02 0.  0.
    9900012    2    3    3    0    0 -0.11898871149E+02 -0.42052273432E+01  0.34590641790E+02  0.54367087857E+02  0.40000008386E+02 0.  0.
        -12    1    3    3    0    0  0.11898871149E+02  0.42052273432E+01 -0.34590641790E+02  0.36820912143E+02  0.00000000000E+00 0.  1.
         11    1    4    4    0    0 -0.53520351723E+01  0.15227802451E+02  0.17297721085E+02  0.23658854642E+02  0.51100000000E-03 0. -1.
        -11    1    4    4    0    0 -0.84277863475E+01 -0.10011894567E+02  0.16512376448E+02  0.21069508578E+02  0.51100000000E-03 0.  1.
         12    1    4    4    0    0  0.18809503713E+01 -0.94211352276E+01  0.78054425791E+00  0.96387246363E+01  0.00000000000E+00 0. -1.
</event>
<event>
 8    1  0.1265908E-006  0.9118800E+02  0.7816164E-02  0.1184000E+00
        -11   -1    0    0    0    0  0.00000000000E+00  0.00000000000E+00  0.45593999997E+02  0.45594000000E+02  0.51100000000E-03 0. -1.
         11   -1    0    0    0    0 -0.00000000000E+00 -0.00000000000E+00 -0.45593999997E+02  0.45594000000E+02  0.51100000000E-03 0.  1.
         23    2    1    2    0    0  0.49960036108E-15  0.00000000000E+00  0.13322676296E-14  0.91188000000E+02  0.91188000000E+02 0.  0.
    9900012    2    3    3    0    0 -0.42630349420E+00  0.36673481276E+02  0.32640495866E+01  0.54367082259E+02  0.39999995627E+02 0.  0.
        -12    1    3    3    0    0  0.42630349420E+00 -0.36673481276E+02 -0.32640495866E+01  0.36820917741E+02  0.00000000000E+00 0.  1.
         11    1    4    4    0    0  0.12619467600E+01  0.57762491354E+01 -0.39697286068E+01  0.71215383993E+01  0.51100000000E-03 0.  1.
        -11    1    4    4    0    0 -0.13816315667E+02  0.12669920953E+02  0.15007000592E+02  0.24013070245E+02  0.51100000000E-03 0. -1.
         12    1    4    4    0    0  0.12128065413E+02  0.18227311188E+02 -0.77732223989E+01  0.23232473615E+02  0.00000000000E+00 0. -1.
</event>
<event>
 8    1  0.1265908E-006  0.9118800E+02  0.7816164E-02  0.1184000E+00
        -11   -1    0    0    0    0  0.00000000000E+00  0.00000000000E+00  0.45593999997E+02  0.45594000000E+02  0.51100000000E-03 0.  1.
         11   -1    0    0    0    0 -0.00000000000E+00 -0.00000000000E+00 -0.45593999997E+02  0.45594000000E+02  0.51100000000E-03 0. -1.
         23    2    1    2    0    0  0.00000000000E+00  0.00000000000E+00 -0.17763568394E-14  0.91188000000E+02  0.91188000000E+02 0.  0.
    9900012    2    3    3    0    0  0.23159377326E+02 -0.24130382130E+02  0.15399578419E+02  0.54367094045E+02  0.40000022495E+02 0.  0.
         12    1    3    3    0    0 -0.23159377326E+02  0.24130382130E+02 -0.15399578419E+02  0.36820905955E+02  0.00000000000E+00 0. -1.
         11    1    4    4    0    0  0.44436867144E+01 -0.15225094058E+02 -0.31811632211E+01  0.16176205995E+02  0.51100000000E-03 0. -1.
        -11    1    4    4    0    0 -0.13017554495E+00 -0.21888982545E+01  0.18044029962E+02  0.18176777458E+02  0.51100000000E-03 0.  1.
         12    1    4    4    0    0  0.18845866156E+02 -0.67163898167E+01  0.53671167875E+00  0.20014110592E+02  0.00000000000E+00 0. -1.
</event>
<event>
 8    1  0.1265908E-006  0.9118800E+02  0.7816164E-02  0.1184000E+00
        -11   -1    0    0    0    0  0.00000000000E+00  0.00000000000E+00  0.45593999997E+02  0.45594000000E+02  0.51100000000E-03 0. -1.
         11   -1    0    0    0    0 -0.00000000000E+00 -0.00000000000E+00 -0.45593999997E+02  0.45594000000E+02  0.51100000000E-03 0.  1.
         23    2    1    2    0    0  0.55511151231E-15 -0.71054273576E-14  0.00000000000E+00  0.91188000000E+02  0.91188000000E+02 0.  0.
    9900012    2    3    3    0    0 -0.73481936863E+00  0.31476761109E+02 -0.19090697552E+02  0.54367065975E+02  0.39999958503E+02 0.  0.
         12    1    3    3    0    0  0.73481936863E+00 -0.31476761109E+02  0.19090697552E+02  0.36820934025E+02  0.00000000000E+00 0. -1.
         11    1    4    4    0    0  0.23999439225E+01 -0.75139875233E+01 -0.47976013802E+01  0.92323733999E+01  0.51100000000E-03 0. -1.
        -11    1    4    4    0    0 -0.71842829056E+01  0.68499825023E+01 -0.63380005360E+01  0.11777369494E+02  0.51100000000E-03 0.  1.
        -12    1    4    4    0    0  0.40495196145E+01  0.32140766130E+02 -0.79550956360E+01  0.33357323081E+02  0.00000000000E+00 0.  1.
</event>
<event>
 8    1  0.1265908E-006  0.9118800E+02  0.7816164E-02  0.1184000E+00
        -11   -1    0    0    0    0  0.00000000000E+00  0.00000000000E+00  0.45593999997E+02  0.45594000000E+02  0.51100000000E-03 0. -1.
         11   -1    0    0    0    0 -0.00000000000E+00 -0.00000000000E+00 -0.45593999997E+02  0.45594000000E+02  0.51100000000E-03 0.  1.
         23    2    1    2    0    0  0.35527136788E-14 -0.71054273576E-14  0.00000000000E+00  0.91188000000E+02  0.91188000000E+02 0.  0.
    9900012    2    3    3    0    0  0.12149437065E+02 -0.28279933581E+02  0.20209301841E+02  0.54367090923E+02  0.40000015377E+02 0.  0.
        -12    1    3    3    0    0 -0.12149437065E+02  0.28279933581E+02 -0.20209301841E+02  0.36820909077E+02  0.00000000000E+00 0.  1.
         11    1    4    4    0    0  0.98159867361E+01 -0.39262096099E+01  0.22624431243E+02  0.24972657184E+02  0.51100000000E-03 0. -1.
        -11    1    4    4    0    0  0.30073776434E+01 -0.41673885653E+01  0.56576200259E+01  0.76433050680E+01  0.51100000000E-03 0.  1.
        -12    1    4    4    0    0 -0.67392731418E+00 -0.20186335406E+02 -0.80727494275E+01  0.21751128671E+02  0.00000000000E+00 0.  1.
</event>
<event>
 8    1  0.1265908E-006  0.9118800E+02  0.7816164E-02  0.1184000E+00
        -11   -1    0    0    0    0  0.00000000000E+00  0.00000000000E+00  0.45593999997E+02  0.45594000000E+02  0.51100000000E-03 0.  1.
         11   -1    0    0    0    0 -0.00000000000E+00 -0.00000000000E+00 -0.45593999997E+02  0.45594000000E+02  0.51100000000E-03 0. -1.
         23    2    1    2    0    0  0.00000000000E+00  0.17763568394E-14 -0.35527136788E-14  0.91188000000E+02  0.91188000000E+02 0.  0.
    9900012    2    3    3    0    0 -0.17542626081E+02  0.11098912328E+02  0.30411357389E+02  0.54367078734E+02  0.39999987589E+02 0.  0.
         12    1    3    3    0    0  0.17542626081E+02 -0.11098912328E+02 -0.30411357389E+02  0.36820921266E+02  0.00000000000E+00 0. -1.
         11    1    4    4    0    0 -0.78157109244E+01  0.14590031371E+02  0.11138863930E+02  0.19950655192E+02  0.51100000000E-03 0. -1.
        -11    1    4    4    0    0  0.50792699390E+01 -0.27531358630E+00  0.18564202065E+02  0.19248490311E+02  0.51100000000E-03 0.  1.
         12    1    4    4    0    0 -0.14806185095E+02 -0.32158054562E+01  0.70829139380E+00  0.15167933231E+02  0.00000000000E+00 0. -1.
</event>
<event>
 8    1  0.1265908E-006  0.9118800E+02  0.7816164E-02  0.1184000E+00
        -11   -1    0    0    0    0  0.00000000000E+00  0.00000000000E+00  0.45593999997E+02  0.45594000000E+02  0.51100000000E-03 0. -1.
         11   -1    0    0    0    0 -0.00000000000E+00 -0.00000000000E+00 -0.45593999997E+02  0.45594000000E+02  0.51100000000E-03 0.  1.
         23    2    1    2    0    0  0.00000000000E+00  0.00000000000E+00  0.17763568394E-14  0.91188000000E+02  0.91188000000E+02 0.  0.
    9900012    2    3    3    0    0  0.62780001822E+01 -0.32652626116E+02 -0.15816888573E+02  0.54367065158E+02  0.39999956640E+02 0.  0.
         12    1    3    3    0    0 -0.62780001822E+01  0.32652626116E+02  0.15816888573E+02  0.36820934842E+02  0.00000000000E+00 0. -1.
         11    1    4    4    0    0  0.15261747759E+01  0.19898802125E+01 -0.21693429822E+01  0.33158531243E+01  0.51100000000E-03 0. -1.
        -11    1    4    4    0    0  0.74280639768E+01 -0.29653741500E+02 -0.24257770567E+02  0.39025119507E+02  0.51100000000E-03 0.  1.
        -12    1    4    4    0    0 -0.26762385705E+01 -0.49887648278E+01  0.10610224976E+02  0.12026092526E+02  0.00000000000E+00 0.  1.
</event>
<event>
 8    1  0.1265908E-006  0.9118800E+02  0.7816164E-02  0.1184000E+00
        -11   -1    0    0    0    0  0.00000000000E+00  0.00000000000E+00  0.45593999997E+02  0.45594000000E+02  0.51100000000E-03 0. -1.
         11   -1    0    0    0    0 -0.00000000000E+00 -0.00000000000E+00 -0.45593999997E+02  0.45594000000E+02  0.51100000000E-03 0.  1.
         23    2    1    2    0    0  0.35527136788E-14  0.00000000000E+00  0.00000000000E+00  0.91188000000E+02  0.91188000000E+02 0.  0.
    9900012    2    3    3    0    0  0.19407688831E+02  0.24415331360E+02  0.19570720993E+02  0.54367083235E+02  0.39999997852E+02 0.  0.
        -12    1    3    3    0    0 -0.19407688831E+02 -0.24415331360E+02 -0.19570720993E+02  0.36820916765E+02  0.00000000000E+00 0.  1.
         11    1    4    4    0    0  0.49342082534E+01  0.74279681703E+01 -0.73123392390E+01  0.11532190930E+02  0.51100000000E-03 0. -1.
        -11    1    4    4    0    0  0.89957962894E+01  0.22667782344E+02  0.15200532043E+02  0.28736890609E+02  0.51100000000E-03 0.  1.
        -12    1    4    4    0    0  0.54776842884E+01 -0.56804191541E+01  0.11682528190E+02  0.14098001696E+02  0.00000000000E+00 0.  1.
</event>
<event>
 8    1  0.1265908E-006  0.9118800E+02  0.7816164E-02  0.1184000E+00
        -11   -1    0    0    0    0  0.00000000000E+00  0.00000000000E+00  0.45593999997E+02  0.45594000000E+02  0.51100000000E-03 0.  1.
         11   -1    0    0    0    0 -0.00000000000E+00 -0.00000000000E+00 -0.45593999997E+02  0.45594000000E+02  0.51100000000E-03 0. -1.
         23    2    1    2    0    0  0.17763568394E-14  0.71054273576E-14 -0.66613381478E-15  0.91188000000E+02  0.91188000000E+02 0.  0.
    9900012    2    3    3    0    0  0.15428102219E+02  0.33411253467E+02 -0.12007519397E+01  0.54367082011E+02  0.39999995060E+02 0.  0.
         12    1    3    3    0    0 -0.15428102219E+02 -0.33411253467E+02  0.12007519397E+01  0.36820917989E+02  0.00000000000E+00 0. -1.
         11    1    4    4    0    0  0.28482777172E+01 -0.88270310715E+01  0.11386817992E+01  0.93448253056E+01  0.51100000000E-03 0. -1.
        -11    1    4    4    0    0  0.72138871863E+01  0.23006657214E+02 -0.56987498000E+01  0.24775435295E+02  0.51100000000E-03 0.  1.
         12    1    4    4    0    0  0.53659373153E+01  0.19231627325E+02  0.33593160611E+01  0.20246821411E+02  0.00000000000E+00 0. -1.
</event>
<event>
 8    1  0.1265908E-006  0.9118800E+02  0.7816164E-02  0.1184000E+00
        -11   -1    0    0    0    0  0.00000000000E+00  0.00000000000E+00  0.45593999997E+02  0.45594000000E+02  0.51100000000E-03 0.  1.
         11   -1    0    0    0    0 -0.00000000000E+00 -0.00000000000E+00 -0.45593999997E+02  0.45594000000E+02  0.51100000000E-03 0. -1.
         23    2    1    2    0    0  0.00000000000E+00  0.71054273576E-14 -0.88817841970E-15  0.91188000000E+02  0.91188000000E+02 0.  0.
    9900012    2    3    3    0    0  0.92092223567E+01  0.34853376670E+02 -0.74975055540E+01  0.54367078892E+02  0.39999987950E+02 0.  0.
         12    1    3    3    0    0 -0.92092223567E+01 -0.34853376670E+02  0.74975055540E+01  0.36820921108E+02  0.00000000000E+00 0. -1.
         11    1    4    4    0    0 -0.42519414749E+01  0.52314053704E+01  0.67993874889E+01  0.95748774896E+01  0.51100000000E-03 0. -1.
        -11    1    4    4    0    0  0.98860249512E+01  0.37043035527E+01 -0.15324408179E+02  0.18608945173E+02  0.51100000000E-03 0.  1.
        -12    1    4    4    0    0  0.35751388804E+01  0.25917667747E+02  0.10275151359E+01  0.26183256230E+02  0.00000000000E+00 0.  1.
</event>
<event>
 8    1  0.1265908E-006  0.9118800E+02  0.7816164E-02  0.1184000E+00
        -11   -1    0    0    0    0  0.00000000000E+00  0.00000000000E+00  0.45593999997E+02  0.45594000000E+02  0.51100000000E-03 0. -1.
         11   -1    0    0    0    0 -0.00000000000E+00 -0.00000000000E+00 -0.45593999997E+02  0.45594000000E+02  0.51100000000E-03 0.  1.
         23    2    1    2    0    0  0.00000000000E+00  0.00000000000E+00  0.00000000000E+00  0.91188000000E+02  0.91188000000E+02 0.  0.
    9900012    2    3    3    0    0 -0.41036728725E+01  0.28721016280E+02  0.22672704614E+02  0.54366967400E+02  0.39999733781E+02 0.  0.
        -12    1    3    3    0    0  0.41036728725E+01 -0.28721016280E+02 -0.22672704614E+02  0.36821032600E+02  0.00000000000E+00 0.  1.
         11    1    4    4    0    0 -0.34743867463E+01  0.20564070266E+02 -0.96283497389E+00  0.20877724987E+02  0.51100000000E-03 0. -1.
        -11    1    4    4    0    0 -0.63857931517E+01 -0.50940068545E+01  0.13716434379E+02  0.15964580557E+02  0.51100000000E-03 0.  1.
        -12    1    4    4    0    0  0.57565070255E+01  0.13250952868E+02  0.99191052089E+01  0.17524661857E+02  0.00000000000E+00 0.  1.
</event>
<event>
 8    1  0.1265908E-006  0.9118800E+02  0.7816164E-02  0.1184000E+00
        -11   -1    0    0    0    0  0.00000000000E+00  0.00000000000E+00  0.45593999997E+02  0.45594000000E+02  0.51100000000E-03 0. -1.
         11   -1    0    0    0    0 -0.00000000000E+00 -0.00000000000E+00 -0.45593999997E+02  0.45594000000E+02  0.51100000000E-03 0.  1.
         23    2    1    2    0    0  0.35527136788E-14 -0.35527136788E-14  0.00000000000E+00  0.91188000000E+02  0.91188000000E+02 0.  0.
    9900012    2    3    3    0    0  0.26813199468E+02 -0.23853310800E+02 -0.82372092157E+01  0.54367085868E+02  0.40000003854E+02 0.  0.
         12    1    3    3    0    0 -0.26813199468E+02  0.23853310800E+02  0.82372092157E+01  0.36820914132E+02  0.00000000000E+00 0. -1.
         11    1    4    4    0    0  0.26613230184E+01  0.95245690744E+00  0.59872259418E+01  0.66209281153E+01  0.51100000000E-03 0. -1.
        -11    1    4    4    0    0  0.72405916605E+01 -0.10744063073E+02  0.89883758203E+01  0.15768701883E+02  0.51100000000E-03 0.  1.
        -12    1    4    4    0    0  0.16911284789E+02 -0.14061704634E+02 -0.23212810978E+02  0.31977455870E+02  0.00000000000E+00 0.  1.
</event>
<event>
 8    1  0.1265908E-006  0.9118800E+02  0.7816164E-02  0.1184000E+00
        -11   -1    0    0    0    0  0.00000000000E+00  0.00000000000E+00  0.45593999997E+02  0.45594000000E+02  0.51100000000E-03 0. -1.
         11   -1    0    0    0    0 -0.00000000000E+00 -0.00000000000E+00 -0.45593999997E+02  0.45594000000E+02  0.51100000000E-03 0.  1.
         23    2    1    2    0    0  0.17763568394E-14 -0.35527136788E-14  0.35527136788E-14  0.91188000000E+02  0.91188000000E+02 0.  0.
    9900012    2    3    3    0    0  0.10681614507E+02 -0.26171160553E+02 -0.23595636066E+02  0.54367074231E+02  0.39999977324E+02 0.  0.
         12    1    3    3    0    0 -0.10681614507E+02  0.26171160553E+02  0.23595636066E+02  0.36820925769E+02  0.00000000000E+00 0. -1.
         11    1    4    4    0    0 -0.15912893127E+01  0.72058551891E+01 -0.15823055100E+02  0.17459256102E+02  0.51100000000E-03 0. -1.
        -11    1    4    4    0    0  0.57948853424E+00 -0.45235121211E+01 -0.28774640921E+01  0.53923806184E+01  0.51100000000E-03 0.  1.
         12    1    4    4    0    0  0.11693415286E+02 -0.28853503621E+02 -0.48951168731E+01  0.31515437510E+02  0.00000000000E+00 0. -1.
</event>
<event>
 8    1  0.1265908E-006  0.9118800E+02  0.7816164E-02  0.1184000E+00
        -11   -1    0    0    0    0  0.00000000000E+00  0.00000000000E+00  0.45593999997E+02  0.45594000000E+02  0.51100000000E-03 0. -1.
         11   -1    0    0    0    0 -0.00000000000E+00 -0.00000000000E+00 -0.45593999997E+02  0.45594000000E+02  0.51100000000E-03 0.  1.
         23    2    1    2    0    0  0.17763568394E-14  0.44408920985E-15  0.00000000000E+00  0.91188000000E+02  0.91188000000E+02 0.  0.
    9900012    2    3    3    0    0  0.14708921498E+02  0.26279445949E+01  0.33652956758E+02  0.54367082535E+02  0.39999996255E+02 0.  0.
        -12    1    3    3    0    0 -0.14708921498E+02 -0.26279445949E+01 -0.33652956758E+02  0.36820917465E+02  0.00000000000E+00 0.  1.
         11    1    4    4    0    0 -0.40645011690E+01 -0.18252947848E+01 -0.22993918323E+01  0.50138880985E+01  0.51100000000E-03 0. -1.
        -11    1    4    4    0    0  0.58427477098E+01  0.48587588347E+01 -0.31050783670E+01  0.82089433023E+01  0.51100000000E-03 0.  1.
         12    1    4    4    0    0  0.12930674958E+02 -0.40551945496E+00  0.39057426957E+02  0.41144251134E+02  0.00000000000E+00 0. -1.
</event>
<event>
 8    1  0.1265908E-006  0.9118800E+02  0.7816164E-02  0.1184000E+00
        -11   -1    0    0    0    0  0.00000000000E+00  0.00000000000E+00  0.45593999997E+02  0.45594000000E+02  0.51100000000E-03 0.  1.
         11   -1    0    0    0    0 -0.00000000000E+00 -0.00000000000E+00 -0.45593999997E+02  0.45594000000E+02  0.51100000000E-03 0. -1.
         23    2    1    2    0    0  0.71054273576E-14 -0.71054273576E-14  0.88817841970E-15  0.91188000000E+02  0.91188000000E+02 0.  0.
    9900012    2    3    3    0    0  0.28484907639E+02 -0.22767591599E+02  0.51016626440E+01  0.54367079966E+02  0.39999990399E+02 0.  0.
         12    1    3    3    0    0 -0.28484907639E+02  0.22767591599E+02 -0.51016626440E+01  0.36820920034E+02  0.00000000000E+00 0. -1.
         11    1    4    4    0    0  0.42578738305E+00 -0.22914917003E+01  0.41260255817E+00  0.23669537892E+01  0.51100000000E-03 0. -1.
        -11    1    4    4    0    0 -0.64669289343E+01 -0.14053987330E+02 -0.36719711073E+01  0.15900286217E+02  0.51100000000E-03 0.  1.
         12    1    4    4    0    0  0.34526049190E+02 -0.64221125691E+01  0.83610311931E+01  0.36099839960E+02  0.00000000000E+00 0. -1.
</event>
<event>
 8    1  0.1265908E-006  0.9118800E+02  0.7816164E-02  0.1184000E+00
        -11   -1    0    0    0    0  0.00000000000E+00  0.00000000000E+00  0.45593999997E+02  0.45594000000E+02  0.51100000000E-03 0.  1.
         11   -1    0    0    0    0 -0.00000000000E+00 -0.00000000000E+00 -0.45593999997E+02  0.45594000000E+02  0.51100000000E-03 0. -1.
         23    2    1    2    0    0  0.77715611724E-15  0.88817841970E-15  0.00000000000E+00  0.91188000000E+02  0.91188000000E+02 0.  0.
    9900012    2    3    3    0    0  0.53045819592E+00  0.40047500905E+01  0.36598658870E+02  0.54367065190E+02  0.39999956713E+02 0.  0.
         12    1    3    3    0    0 -0.53045819592E+00 -0.40047500905E+01 -0.36598658870E+02  0.36820934810E+02  0.00000000000E+00 0. -1.
         11    1    4    4    0    0 -0.54420318841E+01  0.86226959324E+01  0.13677719656E+02  0.17060088260E+02  0.51100000000E-03 0. -1.
        -11    1    4    4    0    0 -0.11427712893E+02 -0.28157049616E+01  0.11223567421E+02  0.16263126461E+02  0.51100000000E-03 0.  1.
         12    1    4    4    0    0  0.17400202973E+02 -0.18022408802E+01  0.11697371793E+02  0.21043850469E+02  0.00000000000E+00 0. -1.
</event>
<event>
 8    1  0.1265908E-006  0.9118800E+02  0.7816164E-02  0.1184000E+00
        -11   -1    0    0    0    0  0.00000000000E+00  0.00000000000E+00  0.45593999997E+02  0.45594000000E+02  0.51100000000E-03 0. -1.
         11   -1    0    0    0    0 -0.00000000000E+00 -0.00000000000E+00 -0.45593999997E+02  0.45594000000E+02  0.51100000000E-03 0.  1.
         23    2    1    2    0    0 -0.35527136788E-14  0.00000000000E+00  0.00000000000E+00  0.91188000000E+02  0.91188000000E+02 0.  0.
    9900012    2    3    3    0    0  0.22185875889E+02  0.14337018298E+02 -0.25651861084E+02  0.54367066284E+02  0.39999959208E+02 0.  0.
         12    1    3    3    0    0 -0.22185875889E+02 -0.14337018298E+02  0.25651861084E+02  0.36820933716E+02  0.00000000000E+00 0. -1.
         11    1    4    4    0    0  0.45136673062E+01  0.11340815646E+02  0.36404670763E+01  0.12737358159E+02  0.51100000000E-03 0. -1.
        -11    1    4    4    0    0 -0.36352750194E+01  0.68739323498E+01 -0.96360557527E+01  0.12382234901E+02  0.51100000000E-03 0.  1.
        -12    1    4    4    0    0  0.21307483602E+02 -0.38777296980E+01 -0.19656272407E+02  0.29247473225E+02  0.00000000000E+00 0.  1.
</event>
<event>
 8    1  0.1265908E-006  0.9118800E+02  0.7816164E-02  0.1184000E+00
        -11   -1    0    0    0    0  0.00000000000E+00  0.00000000000E+00  0.45593999997E+02  0.45594000000E+02  0.51100000000E-03 0. -1.
         11   -1    0    0    0    0 -0.00000000000E+00 -0.00000000000E+00 -0.45593999997E+02  0.45594000000E+02  0.51100000000E-03 0.  1.
         23    2    1    2    0    0  0.00000000000E+00  0.00000000000E+00  0.00000000000E+00  0.91188000000E+02  0.91188000000E+02 0.  0.
    9900012    2    3    3    0    0  0.34953186066E+02 -0.10354817490E+02  0.51798711400E+01  0.54367102041E+02  0.40000040724E+02 0.  0.
        -12    1    3    3    0    0 -0.34953186066E+02  0.10354817490E+02 -0.51798711400E+01  0.36820897959E+02  0.00000000000E+00 0.  1.
         11    1    4    4    0    0  0.28309354586E+02 -0.11241641514E+01  0.15918869905E+02  0.32497595625E+02  0.51100000000E-03 0. -1.
        -11    1    4    4    0    0  0.77601864603E+01 -0.12619554152E+02 -0.61104452050E+01  0.16025329381E+02  0.51100000000E-03 0.  1.
        -12    1    4    4    0    0 -0.11163549795E+01  0.33889008141E+01 -0.46285535597E+01  0.58441770355E+01  0.00000000000E+00 0.  1.
</event>
<event>
 8    1  0.1265908E-006  0.9118800E+02  0.7816164E-02  0.1184000E+00
        -11   -1    0    0    0    0  0.00000000000E+00  0.00000000000E+00  0.45593999997E+02  0.45594000000E+02  0.51100000000E-03 0. -1.
         11   -1    0    0    0    0 -0.00000000000E+00 -0.00000000000E+00 -0.45593999997E+02  0.45594000000E+02  0.51100000000E-03 0.  1.
         23    2    1    2    0    0 -0.88817841970E-15  0.71054273576E-14  0.00000000000E+00  0.91188000000E+02  0.91188000000E+02 0.  0.
    9900012    2    3    3    0    0 -0.88888209560E+00 -0.33168912598E+02  0.15962903280E+02  0.54367066342E+02  0.39999959340E+02 0.  0.
        -12    1    3    3    0    0  0.88888209560E+00  0.33168912598E+02 -0.15962903280E+02  0.36820933658E+02  0.00000000000E+00 0.  1.
         11    1    4    4    0    0  0.97858920899E+01 -0.34434488082E+01  0.22357531782E+00  0.10376464228E+02  0.51100000000E-03 0. -1.
        -11    1    4    4    0    0 -0.10050200018E+02 -0.31552922707E+02  0.54972516371E+01  0.33568038781E+02  0.51100000000E-03 0.  1.
         12    1    4    4    0    0 -0.62457416709E+00  0.18274589173E+01  0.10242076325E+02  0.10422563333E+02  0.00000000000E+00 0. -1.
</event>
<event>
 8    1  0.1265908E-006  0.9118800E+02  0.7816164E-02  0.1184000E+00
        -11   -1    0    0    0    0  0.00000000000E+00  0.00000000000E+00  0.45593999997E+02  0.45594000000E+02  0.51100000000E-03 0. -1.
         11   -1    0    0    0    0 -0.00000000000E+00 -0.00000000000E+00 -0.45593999997E+02  0.45594000000E+02  0.51100000000E-03 0.  1.
         23    2    1    2    0    0  0.00000000000E+00  0.00000000000E+00  0.00000000000E+00  0.91188000000E+02  0.91188000000E+02 0.  0.
    9900012    2    3    3    0    0 -0.18366191835E+02  0.30663167352E+02 -0.88449400262E+01  0.54367084766E+02  0.40000001341E+02 0.  0.
        -12    1    3    3    0    0  0.18366191835E+02 -0.30663167352E+02  0.88449400262E+01  0.36820915234E+02  0.00000000000E+00 0.  1.
         11    1    4    4    0    0 -0.97090621355E+01  0.22153959462E+02 -0.87280847194E+01  0.25714650893E+02  0.51100000000E-03 0. -1.
        -11    1    4    4    0    0  0.80691990424E+01  0.41716235024E+01 -0.54194056701E+01  0.10577541014E+02  0.51100000000E-03 0.  1.
         12    1    4    4    0    0 -0.16726328742E+02  0.43375843880E+01  0.53025503633E+01  0.18074892859E+02  0.00000000000E+00 0. -1.
</event>
<event>
 8    1  0.1265908E-006  0.9118800E+02  0.7816164E-02  0.1184000E+00
        -11   -1    0    0    0    0  0.00000000000E+00  0.00000000000E+00  0.45593999997E+02  0.45594000000E+02  0.51100000000E-03 0. -1.
         11   -1    0    0    0    0 -0.00000000000E+00 -0.00000000000E+00 -0.45593999997E+02  0.45594000000E+02  0.51100000000E-03 0.  1.
         23    2    1    2    0    0  0.17763568394E-14  0.10658141036E-13  0.00000000000E+00  0.91188000000E+02  0.91188000000E+02 0.  0.
    9900012    2    3    3    0    0 -0.78473479107E+01 -0.30828249194E+02 -0.18542342294E+02  0.54367078293E+02  0.39999986584E+02 0.  0.
         12    1    3    3    0    0  0.78473479107E+01  0.30828249194E+02  0.18542342294E+02  0.36820921707E+02  0.00000000000E+00 0. -1.
         11    1    4    4    0    0  0.86876690437E+01  0.27717239225E-01 -0.39819568345E+01  0.95567956006E+01  0.51100000000E-03 0. -1.
        -11    1    4    4    0    0  0.35809300016E+00 -0.37696254181E-01  0.47137131294E+01  0.47274457513E+01  0.51100000000E-03 0.  1.
        -12    1    4    4    0    0 -0.16893109955E+02 -0.30818270180E+02 -0.19274098589E+02  0.40082836941E+02  0.00000000000E+00 0.  1.
</event>
<event>
 8    1  0.1265908E-006  0.9118800E+02  0.7816164E-02  0.1184000E+00
        -11   -1    0    0    0    0  0.00000000000E+00  0.00000000000E+00  0.45593999997E+02  0.45594000000E+02  0.51100000000E-03 0. -1.
         11   -1    0    0    0    0 -0.00000000000E+00 -0.00000000000E+00 -0.45593999997E+02  0.45594000000E+02  0.51100000000E-03 0.  1.
         23    2    1    2    0    0  0.00000000000E+00 -0.71054273576E-14 -0.88817841970E-15  0.91188000000E+02  0.91188000000E+02 0.  0.
    9900012    2    3    3    0    0 -0.14739686545E+02 -0.33287359093E+02 -0.55201534069E+01  0.54367099299E+02  0.40000034471E+02 0.  0.
         12    1    3    3    0    0  0.14739686545E+02  0.33287359093E+02  0.55201534069E+01  0.36820900701E+02  0.00000000000E+00 0. -1.
         11    1    4    4    0    0 -0.63423276004E+01 -0.46543065209E+01  0.35127215254E+01  0.86155035464E+01  0.51100000000E-03 0. -1.
        -11    1    4    4    0    0 -0.20659801632E+02 -0.12114325899E+02 -0.76106876697E+01  0.25129800288E+02  0.51100000000E-03 0.  1.
        -12    1    4    4    0    0  0.12262442687E+02 -0.16518726672E+02 -0.14221872626E+01  0.20621795464E+02  0.00000000000E+00 0.  1.
</event>
<event>
 8    1  0.1265908E-006  0.9118800E+02  0.7816164E-02  0.1184000E+00
        -11   -1    0    0    0    0  0.00000000000E+00  0.00000000000E+00  0.45593999997E+02  0.45594000000E+02  0.51100000000E-03 0.  1.
         11   -1    0    0    0    0 -0.00000000000E+00 -0.00000000000E+00 -0.45593999997E+02  0.45594000000E+02  0.51100000000E-03 0. -1.
         23    2    1    2    0    0 -0.88817841970E-15  0.00000000000E+00  0.00000000000E+00  0.91188000000E+02  0.91188000000E+02 0.  0.
    9900012    2    3    3    0    0 -0.43301715282E+01  0.15279098332E+02 -0.33220144489E+02  0.54367092472E+02  0.40000018909E+02 0.  0.
        -12    1    3    3    0    0  0.43301715282E+01 -0.15279098332E+02  0.33220144489E+02  0.36820907528E+02  0.00000000000E+00 0.  1.
         11    1    4    4    0    0 -0.75408283766E+01  0.90278850844E+01 -0.44989615647E+01  0.12593945257E+02  0.51100000000E-03 0. -1.
        -11    1    4    4    0    0 -0.48685683984E+00  0.22095379195E+01  0.61091650763E+01  0.65146746343E+01  0.51100000000E-03 0.  1.
         12    1    4    4    0    0  0.36975136882E+01  0.40416753280E+01 -0.34830348001E+02  0.35258472581E+02  0.00000000000E+00 0. -1.
</event>
<event>
 8    1  0.1265908E-006  0.9118800E+02  0.7816164E-02  0.1184000E+00
        -11   -1    0    0    0    0  0.00000000000E+00  0.00000000000E+00  0.45593999997E+02  0.45594000000E+02  0.51100000000E-03 0.  1.
         11   -1    0    0    0    0 -0.00000000000E+00 -0.00000000000E+00 -0.45593999997E+02  0.45594000000E+02  0.51100000000E-03 0. -1.
         23    2    1    2    0    0  0.35527136788E-14  0.00000000000E+00  0.00000000000E+00  0.91188000000E+02  0.91188000000E+02 0.  0.
    9900012    2    3    3    0    0  0.20401008932E+01  0.33481365901E+02 -0.15186045601E+02  0.54367083998E+02  0.39999999590E+02 0.  0.
        -12    1    3    3    0    0 -0.20401008932E+01 -0.33481365901E+02  0.15186045601E+02  0.36820916002E+02  0.00000000000E+00 0.  1.
         11    1    4    4    0    0 -0.50411039475E+00  0.30525798056E+01 -0.35853400556E+01  0.47357189882E+01  0.51100000000E-03 0. -1.
        -11    1    4    4    0    0 -0.16940548843E+02  0.10876064751E+02 -0.85064762606E+01  0.21854773351E+02  0.51100000000E-03 0.  1.
        -12    1    4    4    0    0  0.19484760131E+02  0.19552721344E+02 -0.30942292853E+01  0.27776591659E+02  0.00000000000E+00 0.  1.
</event>
<event>
 8    1  0.1265908E-006  0.9118800E+02  0.7816164E-02  0.1184000E+00
        -11   -1    0    0    0    0  0.00000000000E+00  0.00000000000E+00  0.45593999997E+02  0.45594000000E+02  0.51100000000E-03 0.  1.
         11   -1    0    0    0    0 -0.00000000000E+00 -0.00000000000E+00 -0.45593999997E+02  0.45594000000E+02  0.51100000000E-03 0. -1.
         23    2    1    2    0    0  0.00000000000E+00  0.00000000000E+00  0.00000000000E+00  0.91188000000E+02  0.91188000000E+02 0.  0.
    9900012    2    3    3    0    0 -0.29841309348E+02 -0.62881835787E+01  0.20633340799E+02  0.54367085443E+02  0.40000002884E+02 0.  0.
         12    1    3    3    0    0  0.29841309348E+02  0.62881835787E+01 -0.20633340799E+02  0.36820914557E+02  0.00000000000E+00 0. -1.
         11    1    4    4    0    0  0.94211335690E+00 -0.13943283112E+02  0.28440741316E+01  0.14261538467E+02  0.51100000000E-03 0. -1.
        -11    1    4    4    0    0 -0.28740563396E+02  0.15775803083E+01  0.11128346639E+02  0.30860149758E+02  0.51100000000E-03 0.  1.
        -12    1    4    4    0    0 -0.20428593086E+01  0.60775192245E+01  0.66609200292E+01  0.92453972178E+01  0.00000000000E+00 0.  1.
</event>
<event>
 8    1  0.1265908E-006  0.9118800E+02  0.7816164E-02  0.1184000E+00
        -11   -1    0    0    0    0  0.00000000000E+00  0.00000000000E+00  0.45593999997E+02  0.45594000000E+02  0.51100000000E-03 0. -1.
         11   -1    0    0    0    0 -0.00000000000E+00 -0.00000000000E+00 -0.45593999997E+02  0.45594000000E+02  0.51100000000E-03 0.  1.
         23    2    1    2    0    0 -0.71054273576E-14 -0.17208456882E-14  0.00000000000E+00  0.91188000000E+02  0.91188000000E+02 0.  0.
    9900012    2    3    3    0    0 -0.36255381470E+02  0.25510153640E+00  0.64234714043E+01  0.54367099044E+02  0.40000033891E+02 0.  0.
         12    1    3    3    0    0  0.36255381470E+02 -0.25510153640E+00 -0.64234714043E+01  0.36820900956E+02  0.00000000000E+00 0. -1.
         11    1    4    4    0    0 -0.71914058757E+00  0.50352318804E+01 -0.99959449913E+00  0.51836196522E+01  0.51100000000E-03 0. -1.
        -11    1    4    4    0    0 -0.20255148157E+02  0.97543596366E+01 -0.71013382103E+01  0.23576419648E+02  0.51100000000E-03 0.  1.
         12    1    4    4    0    0 -0.15281092725E+02 -0.14534489981E+02  0.14524404114E+02  0.25607059744E+02  0.00000000000E+00 0. -1.
</event>
<event>
 8    1  0.1265908E-006  0.9118800E+02  0.7816164E-02  0.1184000E+00
        -11   -1    0    0    0    0  0.00000000000E+00  0.00000000000E+00  0.45593999997E+02  0.45594000000E+02  0.51100000000E-03 0.  1.
         11   -1    0    0    0    0 -0.00000000000E+00 -0.00000000000E+00 -0.45593999997E+02  0.45594000000E+02  0.51100000000E-03 0. -1.
         23    2    1    2    0    0  0.88817841970E-15  0.00000000000E+00  0.00000000000E+00  0.91188000000E+02  0.91188000000E+02 0.  0.
    9900012    2    3    3    0    0  0.46971920384E+01  0.24871039820E+02  0.26742256619E+02  0.54367074918E+02  0.39999978891E+02 0.  0.
         12    1    3    3    0    0 -0.46971920384E+01 -0.24871039820E+02 -0.26742256619E+02  0.36820925082E+02  0.00000000000E+00 0. -1.
         11    1    4    4    0    0  0.13294883534E+02 -0.41040381385E+01  0.13294616861E+02  0.19244321110E+02  0.51100000000E-03 0. -1.
        -11    1    4    4    0    0 -0.41458913007E+01  0.15537879574E+02  0.13454127997E+02  0.20967300178E+02  0.51100000000E-03 0.  1.
        -12    1    4    4    0    0 -0.44518001947E+01  0.13437198385E+02 -0.64882388053E-02  0.14155453631E+02  0.00000000000E+00 0.  1.
</event>
<event>
 8    1  0.1265908E-006  0.9118800E+02  0.7816164E-02  0.1184000E+00
        -11   -1    0    0    0    0  0.00000000000E+00  0.00000000000E+00  0.45593999997E+02  0.45594000000E+02  0.51100000000E-03 0.  1.
         11   -1    0    0    0    0 -0.00000000000E+00 -0.00000000000E+00 -0.45593999997E+02  0.45594000000E+02  0.51100000000E-03 0. -1.
         23    2    1    2    0    0 -0.66613381478E-15  0.00000000000E+00  0.35527136788E-14  0.91188000000E+02  0.91188000000E+02 0.  0.
    9900012    2    3    3    0    0 -0.15883788721E+01  0.31473298114E+02  0.19044394331E+02  0.54367076640E+02  0.39999982817E+02 0.  0.
         12    1    3    3    0    0  0.15883788721E+01 -0.31473298114E+02 -0.19044394331E+02  0.36820923360E+02  0.00000000000E+00 0. -1.
         11    1    4    4    0    0  0.21369890847E+01  0.20701856608E+02  0.34096325948E+01  0.21089314453E+02  0.51100000000E-03 0. -1.
        -11    1    4    4    0    0 -0.61872831371E+01  0.16443169362E+02  0.12413631827E+01  0.17612531734E+02  0.51100000000E-03 0.  1.
         12    1    4    4    0    0  0.24619151804E+01 -0.56717278561E+01  0.14393398554E+02  0.15665230453E+02  0.00000000000E+00 0. -1.
</event>
<event>
 8    1  0.1265908E-006  0.9118800E+02  0.7816164E-02  0.1184000E+00
        -11   -1    0    0    0    0  0.00000000000E+00  0.00000000000E+00  0.45593999997E+02  0.45594000000E+02  0.51100000000E-03 0.  1.
         11   -1    0    0    0    0 -0.00000000000E+00 -0.00000000000E+00 -0.45593999997E+02  0.45594000000E+02  0.51100000000E-03 0. -1.
         23    2    1    2    0    0 -0.17763568394E-14  0.17763568394E-14  0.00000000000E+00  0.91188000000E+02  0.91188000000E+02 0.  0.
    9900012    2    3    3    0    0 -0.97069876255E+01  0.86383837895E+01  0.34451906631E+02  0.54367066365E+02  0.39999959392E+02 0.  0.
         12    1    3    3    0    0  0.97069876255E+01 -0.86383837895E+01 -0.34451906631E+02  0.36820933635E+02  0.00000000000E+00 0. -1.
         11    1    4    4    0    0 -0.18045515990E+01  0.54803705661E+01 -0.15781980732E+01  0.59817704265E+01  0.51100000000E-03 0. -1.
        -11    1    4    4    0    0 -0.13616188157E+02  0.10461276363E+02  0.35088798603E+02  0.39064852115E+02  0.51100000000E-03 0.  1.
         12    1    4    4    0    0  0.57137521310E+01 -0.73032631396E+01  0.94130610115E+00  0.93204438241E+01  0.00000000000E+00 0. -1.
</event>
<event>
 8    1  0.1265908E-006  0.9118800E+02  0.7816164E-02  0.1184000E+00
        -11   -1    0    0    0    0  0.00000000000E+00  0.00000000000E+00  0.45593999997E+02  0.45594000000E+02  0.51100000000E-03 0.  1.
         11   -1    0    0    0    0 -0.00000000000E+00 -0.00000000000E+00 -0.45593999997E+02  0.45594000000E+02  0.51100000000E-03 0. -1.
         23    2    1    2    0    0 -0.44408920985E-15  0.00000000000E+00  0.00000000000E+00  0.91188000000E+02  0.91188000000E+02 0.  0.
    9900012    2    3    3    0    0 -0.35297897351E+01  0.34942186431E+02  0.11061825161E+02  0.54367084964E+02  0.40000001793E+02 0.  0.
         12    1    3    3    0    0  0.35297897351E+01 -0.34942186431E+02 -0.11061825161E+02  0.36820915036E+02  0.00000000000E+00 0. -1.
         11    1    4    4    0    0 -0.20102219468E+01  0.74854650632E+01 -0.59548868203E+01  0.97741422535E+01  0.51100000000E-03 0. -1.
        -11    1    4    4    0    0 -0.10421579149E+02  0.10860862737E+02  0.20508365630E+02  0.25439353617E+02  0.51100000000E-03 0.  1.
         12    1    4    4    0    0  0.89020113611E+01  0.16595858631E+02 -0.34916536495E+01  0.19153589094E+02  0.00000000000E+00 0. -1.
</event>
<event>
 8    1  0.1265908E-006  0.9118800E+02  0.7816164E-02  0.1184000E+00
        -11   -1    0    0    0    0  0.00000000000E+00  0.00000000000E+00  0.45593999997E+02  0.45594000000E+02  0.51100000000E-03 0.  1.
         11   -1    0    0    0    0 -0.00000000000E+00 -0.00000000000E+00 -0.45593999997E+02  0.45594000000E+02  0.51100000000E-03 0. -1.
         23    2    1    2    0    0  0.00000000000E+00  0.35527136788E-14 -0.35527136788E-14  0.91188000000E+02  0.91188000000E+02 0.  0.
    9900012    2    3    3    0    0  0.18086892415E+02 -0.25384990557E+02 -0.19602249797E+02  0.54367060035E+02  0.39999944962E+02 0.  0.
        -12    1    3    3    0    0 -0.18086892415E+02  0.25384990557E+02  0.19602249797E+02  0.36820939965E+02  0.00000000000E+00 0.  1.
         11    1    4    4    0    0  0.12583213840E+02 -0.24576207669E+02 -0.69676230260E+01  0.28475867411E+02  0.51100000000E-03 0. -1.
        -11    1    4    4    0    0  0.54035666926E+01  0.25613889823E+01 -0.18325505307E+02  0.19276498425E+02  0.51100000000E-03 0.  1.
        -12    1    4    4    0    0  0.10011188285E+00 -0.33701718705E+01  0.56908785364E+01  0.66146941987E+01  0.00000000000E+00 0.  1.
</event>
<event>
 8    1  0.1265908E-006  0.9118800E+02  0.7816164E-02  0.1184000E+00
        -11   -1    0    0    0    0  0.00000000000E+00  0.00000000000E+00  0.45593999997E+02  0.45594000000E+02  0.51100000000E-03 0. -1.
         11   -1    0    0    0    0 -0.00000000000E+00 -0.00000000000E+00 -0.45593999997E+02  0.45594000000E+02  0.51100000000E-03 0.  1.
         23    2    1    2    0    0  0.00000000000E+00  0.17763568394E-14  0.88817841970E-15  0.91188000000E+02  0.91188000000E+02 0.  0.
    9900012    2    3    3    0    0  0.35800319485E+02 -0.78370223641E+01 -0.35634038624E+01  0.54367086896E+02  0.40000006196E+02 0.  0.
         12    1    3    3    0    0 -0.35800319485E+02  0.78370223641E+01  0.35634038624E+01  0.36820913104E+02  0.00000000000E+00 0. -1.
         11    1    4    4    0    0  0.44270548558E+01  0.89331173404E+01  0.74157773059E+01  0.12425504152E+02  0.51100000000E-03 0. -1.
        -11    1    4    4    0    0  0.76626125678E+01 -0.13664280817E+02 -0.87006063451E+01  0.17920065643E+02  0.51100000000E-03 0.  1.
         12    1    4    4    0    0  0.23710652061E+02 -0.31058588872E+01 -0.22785748233E+01  0.24021517101E+02  0.00000000000E+00 0. -1.
</event>
<event>
 8    1  0.1265908E-006  0.9118800E+02  0.7816164E-02  0.1184000E+00
        -11   -1    0    0    0    0  0.00000000000E+00  0.00000000000E+00  0.45593999997E+02  0.45594000000E+02  0.51100000000E-03 0. -1.
         11   -1    0    0    0    0 -0.00000000000E+00 -0.00000000000E+00 -0.45593999997E+02  0.45594000000E+02  0.51100000000E-03 0.  1.
         23    2    1    2    0    0 -0.35527136788E-14 -0.35527136788E-14 -0.17763568394E-14  0.91188000000E+02  0.91188000000E+02 0.  0.
    9900012    2    3    3    0    0  0.30553179123E+02 -0.19612781144E+02  0.61338370245E+01  0.54367056294E+02  0.39999936433E+02 0.  0.
         12    1    3    3    0    0 -0.30553179123E+02  0.19612781144E+02 -0.61338370245E+01  0.36820943706E+02  0.00000000000E+00 0. -1.
         11    1    4    4    0    0  0.92054819562E+01 -0.14744777249E+02  0.51419222113E+01  0.18127016259E+02  0.51100000000E-03 0. -1.
        -11    1    4    4    0    0  0.16610217799E+02 -0.95043075636E-01 -0.12750768455E+02  0.20940163919E+02  0.51100000000E-03 0.  1.
        -12    1    4    4    0    0  0.47374793684E+01 -0.47729608197E+01  0.13742683268E+02  0.15299876116E+02  0.00000000000E+00 0.  1.
</event>
<event>
 8    1  0.1265908E-006  0.9118800E+02  0.7816164E-02  0.1184000E+00
        -11   -1    0    0    0    0  0.00000000000E+00  0.00000000000E+00  0.45593999997E+02  0.45594000000E+02  0.51100000000E-03 0.  1.
         11   -1    0    0    0    0 -0.00000000000E+00 -0.00000000000E+00 -0.45593999997E+02  0.45594000000E+02  0.51100000000E-03 0. -1.
         23    2    1    2    0    0 -0.17763568394E-14  0.00000000000E+00  0.35527136788E-14  0.91188000000E+02  0.91188000000E+02 0.  0.
    9900012    2    3    3    0    0  0.82121468570E+01  0.26367409604E+02 -0.24353661758E+02  0.54367075429E+02  0.39999980056E+02 0.  0.
        -12    1    3    3    0    0 -0.82121468570E+01 -0.26367409604E+02  0.24353661758E+02  0.36820924571E+02  0.00000000000E+00 0.  1.
         11    1    4    4    0    0  0.16574751394E+02  0.19078168164E+02 -0.18631984753E+02  0.31398244224E+02  0.51100000000E-03 0. -1.
        -11    1    4    4    0    0 -0.49524157334E+01  0.91214522603E+01  0.50355682313E+01  0.11536215177E+02  0.51100000000E-03 0.  1.
        -12    1    4    4    0    0 -0.34101888041E+01 -0.18322108205E+01 -0.10757245236E+02  0.11432616028E+02  0.00000000000E+00 0.  1.
</event>
<event>
 8    1  0.1265908E-006  0.9118800E+02  0.7816164E-02  0.1184000E+00
        -11   -1    0    0    0    0  0.00000000000E+00  0.00000000000E+00  0.45593999997E+02  0.45594000000E+02  0.51100000000E-03 0. -1.
         11   -1    0    0    0    0 -0.00000000000E+00 -0.00000000000E+00 -0.45593999997E+02  0.45594000000E+02  0.51100000000E-03 0.  1.
         23    2    1    2    0    0  0.17763568394E-14  0.35527136788E-14 -0.35527136788E-14  0.91188000000E+02  0.91188000000E+02 0.  0.
    9900012    2    3    3    0    0  0.14795324452E+02 -0.16976176253E+02  0.29132238488E+02  0.54367088752E+02  0.40000010427E+02 0.  0.
        -12    1    3    3    0    0 -0.14795324452E+02  0.16976176253E+02 -0.29132238488E+02  0.36820911248E+02  0.00000000000E+00 0.  1.
         11    1    4    4    0    0  0.76864955092E+01 -0.19223845837E+01  0.20109420373E+02  0.21614036266E+02  0.51100000000E-03 0. -1.
        -11    1    4    4    0    0 -0.67058052376E+01 -0.21112978226E+01  0.11684695129E+02  0.13636623588E+02  0.51100000000E-03 0.  1.
         12    1    4    4    0    0  0.13814634181E+02 -0.12942493847E+02 -0.26618770141E+01  0.19116428897E+02  0.00000000000E+00 0. -1.
</event>
<event>
 8    1  0.1265908E-006  0.9118800E+02  0.7816164E-02  0.1184000E+00
        -11   -1    0    0    0    0  0.00000000000E+00  0.00000000000E+00  0.45593999997E+02  0.45594000000E+02  0.51100000000E-03 0. -1.
         11   -1    0    0    0    0 -0.00000000000E+00 -0.00000000000E+00 -0.45593999997E+02  0.45594000000E+02  0.51100000000E-03 0.  1.
         23    2    1    2    0    0  0.00000000000E+00  0.00000000000E+00  0.17763568394E-14  0.91188000000E+02  0.91188000000E+02 0.  0.
    9900012    2    3    3    0    0  0.27761789737E+02 -0.21760128761E+02 -0.10562331860E+02  0.54367040922E+02  0.39999901390E+02 0.  0.
         12    1    3    3    0    0 -0.27761789737E+02  0.21760128761E+02  0.10562331860E+02  0.36820959078E+02  0.00000000000E+00 0. -1.
         11    1    4    4    0    0  0.23679231915E+02  0.34809891559E+00  0.31966797107E+00  0.23683947830E+02  0.51100000000E-03 0. -1.
        -11    1    4    4    0    0  0.42720800728E+01 -0.75019814284E+01 -0.13320539621E+02  0.15873473771E+02  0.51100000000E-03 0.  1.
        -12    1    4    4    0    0 -0.18952225121E+00 -0.14606246248E+02  0.24385397892E+01  0.14809619322E+02  0.00000000000E+00 0.  1.
</event>
<event>
 8    1  0.1265908E-006  0.9118800E+02  0.7816164E-02  0.1184000E+00
        -11   -1    0    0    0    0  0.00000000000E+00  0.00000000000E+00  0.45593999997E+02  0.45594000000E+02  0.51100000000E-03 0.  1.
         11   -1    0    0    0    0 -0.00000000000E+00 -0.00000000000E+00 -0.45593999997E+02  0.45594000000E+02  0.51100000000E-03 0. -1.
         23    2    1    2    0    0  0.00000000000E+00 -0.17763568394E-14  0.00000000000E+00  0.91188000000E+02  0.91188000000E+02 0.  0.
    9900012    2    3    3    0    0  0.14235828259E+02 -0.15109097663E+02  0.30411114059E+02  0.54367088866E+02  0.40000010688E+02 0.  0.
         12    1    3    3    0    0 -0.14235828259E+02  0.15109097663E+02 -0.30411114059E+02  0.36820911134E+02  0.00000000000E+00 0. -1.
         11    1    4    4    0    0 -0.49659187460E+01  0.65446515441E+01  0.12783215244E+02  0.15195506081E+02  0.51100000000E-03 0. -1.
        -11    1    4    4    0    0  0.20778234425E+02 -0.18146495534E+02  0.20501952851E+02  0.34370923714E+02  0.51100000000E-03 0.  1.
         12    1    4    4    0    0 -0.15764874196E+01 -0.35072536733E+01 -0.28740540360E+01  0.48006590709E+01  0.00000000000E+00 0. -1.
</event>
<event>
 8    1  0.1265908E-006  0.9118800E+02  0.7816164E-02  0.1184000E+00
        -11   -1    0    0    0    0  0.00000000000E+00  0.00000000000E+00  0.45593999997E+02  0.45594000000E+02  0.51100000000E-03 0. -1.
         11   -1    0    0    0    0 -0.00000000000E+00 -0.00000000000E+00 -0.45593999997E+02  0.45594000000E+02  0.51100000000E-03 0.  1.
         23    2    1    2    0    0  0.00000000000E+00 -0.35527136788E-14 -0.35527136788E-14  0.91188000000E+02  0.91188000000E+02 0.  0.
    9900012    2    3    3    0    0  0.17581594234E+02 -0.27049190150E+02 -0.17748799042E+02  0.54366932512E+02  0.39999654245E+02 0.  0.
        -12    1    3    3    0    0 -0.17581594234E+02  0.27049190150E+02  0.17748799042E+02  0.36821067488E+02  0.00000000000E+00 0.  1.
         11    1    4    4    0    0  0.19683983614E+01  0.31148897293E+01 -0.44632747191E+01  0.57877414951E+01  0.51100000000E-03 0. -1.
        -11    1    4    4    0    0 -0.22637357658E+01  0.50152792621E+01  0.25433220847E+01  0.60618489903E+01  0.51100000000E-03 0.  1.
         12    1    4    4    0    0  0.17876931639E+02 -0.35179359141E+02 -0.15828846407E+02  0.42517342026E+02  0.00000000000E+00 0. -1.
</event>
<event>
 8    1  0.1265908E-006  0.9118800E+02  0.7816164E-02  0.1184000E+00
        -11   -1    0    0    0    0  0.00000000000E+00  0.00000000000E+00  0.45593999997E+02  0.45594000000E+02  0.51100000000E-03 0. -1.
         11   -1    0    0    0    0 -0.00000000000E+00 -0.00000000000E+00 -0.45593999997E+02  0.45594000000E+02  0.51100000000E-03 0.  1.
         23    2    1    2    0    0  0.00000000000E+00  0.00000000000E+00  0.00000000000E+00  0.91188000000E+02  0.91188000000E+02 0.  0.
    9900012    2    3    3    0    0  0.25149121570E+02  0.19904402707E+02 -0.18086356272E+02  0.54367084122E+02  0.39999999874E+02 0.  0.
         12    1    3    3    0    0 -0.25149121570E+02 -0.19904402707E+02  0.18086356272E+02  0.36820915878E+02  0.00000000000E+00 0. -1.
         11    1    4    4    0    0  0.21681466003E+01  0.15836708035E+01  0.79621502567E+01  0.84026608801E+01  0.51100000000E-03 0. -1.
        -11    1    4    4    0    0 -0.94921169863E+00  0.86025876651E+01 -0.16114655868E+02  0.18291737244E+02  0.51100000000E-03 0.  1.
        -12    1    4    4    0    0  0.23930186668E+02  0.97181442385E+01 -0.99338506608E+01  0.27672685999E+02  0.00000000000E+00 0.  1.
</event>
<event>
 8    1  0.1265908E-006  0.9118800E+02  0.7816164E-02  0.1184000E+00
        -11   -1    0    0    0    0  0.00000000000E+00  0.00000000000E+00  0.45593999997E+02  0.45594000000E+02  0.51100000000E-03 0. -1.
         11   -1    0    0    0    0 -0.00000000000E+00 -0.00000000000E+00 -0.45593999997E+02  0.45594000000E+02  0.51100000000E-03 0.  1.
         23    2    1    2    0    0  0.00000000000E+00  0.00000000000E+00  0.17763568394E-14  0.91188000000E+02  0.91188000000E+02 0.  0.
    9900012    2    3    3    0    0 -0.95267974493E+01  0.32647915329E+02 -0.14111425743E+02  0.54367101294E+02  0.40000039021E+02 0.  0.
        -12    1    3    3    0    0  0.95267974493E+01 -0.32647915329E+02  0.14111425743E+02  0.36820898706E+02  0.00000000000E+00 0.  1.
         11    1    4    4    0    0  0.97071303517E+01 -0.30206190662E+01  0.52210838279E+00  0.10179642264E+02  0.51100000000E-03 0. -1.
        -11    1    4    4    0    0 -0.10753647257E+02  0.16829452801E+02 -0.12154343071E+02  0.23379466774E+02  0.51100000000E-03 0.  1.
         12    1    4    4    0    0 -0.84802805439E+01  0.18839081595E+02 -0.24791910549E+01  0.20807992256E+02  0.00000000000E+00 0. -1.
</event>
<event>
 8    1  0.1265908E-006  0.9118800E+02  0.7816164E-02  0.1184000E+00
        -11   -1    0    0    0    0  0.00000000000E+00  0.00000000000E+00  0.45593999997E+02  0.45594000000E+02  0.51100000000E-03 0.  1.
         11   -1    0    0    0    0 -0.00000000000E+00 -0.00000000000E+00 -0.45593999997E+02  0.45594000000E+02  0.51100000000E-03 0. -1.
         23    2    1    2    0    0  0.00000000000E+00 -0.17763568394E-14  0.00000000000E+00  0.91188000000E+02  0.91188000000E+02 0.  0.
    9900012    2    3    3    0    0  0.19316631240E+02 -0.14963458841E+02 -0.27545262153E+02  0.54367098191E+02  0.40000031946E+02 0.  0.
        -12    1    3    3    0    0 -0.19316631240E+02  0.14963458841E+02  0.27545262153E+02  0.36820901809E+02  0.00000000000E+00 0.  1.
         11    1    4    4    0    0  0.18510774967E+02 -0.11872985032E+01 -0.28578984806E+02  0.34070762252E+02  0.51100000000E-03 0. -1.
        -11    1    4    4    0    0 -0.33872411772E+01  0.12069753025E+01  0.29086343940E+01  0.46249698888E+01  0.51100000000E-03 0.  1.
         12    1    4    4    0    0  0.41930974505E+01 -0.14983135641E+02 -0.18749117406E+01  0.15671366051E+02  0.00000000000E+00 0. -1.
</event>
<event>
 8    1  0.1265908E-006  0.9118800E+02  0.7816164E-02  0.1184000E+00
        -11   -1    0    0    0    0  0.00000000000E+00  0.00000000000E+00  0.45593999997E+02  0.45594000000E+02  0.51100000000E-03 0.  1.
         11   -1    0    0    0    0 -0.00000000000E+00 -0.00000000000E+00 -0.45593999997E+02  0.45594000000E+02  0.51100000000E-03 0. -1.
         23    2    1    2    0    0  0.15543122345E-14  0.44408920985E-15  0.00000000000E+00  0.91188000000E+02  0.91188000000E+02 0.  0.
    9900012    2    3    3    0    0  0.93315771015E+00  0.30664615687E+01  0.36681152616E+02  0.54367069443E+02  0.39999966409E+02 0.  0.
         12    1    3    3    0    0 -0.93315771015E+00 -0.30664615687E+01 -0.36681152616E+02  0.36820930557E+02  0.00000000000E+00 0. -1.
         11    1    4    4    0    0  0.86297055943E+01 -0.79548137353E+01  0.30332791570E+02  0.32524285156E+02  0.51100000000E-03 0. -1.
        -11    1    4    4    0    0 -0.99036527577E+01  0.12242187563E+02  0.90376205077E+01  0.18155772608E+02  0.51100000000E-03 0.  1.
         12    1    4    4    0    0  0.22071048735E+01 -0.12209122594E+01 -0.26892594618E+01  0.36870116790E+01  0.00000000000E+00 0. -1.
</event>
<event>
 8    1  0.1265908E-006  0.9118800E+02  0.7816164E-02  0.1184000E+00
        -11   -1    0    0    0    0  0.00000000000E+00  0.00000000000E+00  0.45593999997E+02  0.45594000000E+02  0.51100000000E-03 0.  1.
         11   -1    0    0    0    0 -0.00000000000E+00 -0.00000000000E+00 -0.45593999997E+02  0.45594000000E+02  0.51100000000E-03 0. -1.
         23    2    1    2    0    0  0.00000000000E+00  0.00000000000E+00  0.35527136788E-14  0.91188000000E+02  0.91188000000E+02 0.  0.
    9900012    2    3    3    0    0 -0.25055532598E+02  0.12802403472E+02  0.23750742081E+02  0.54367095641E+02  0.40000026132E+02 0.  0.
         12    1    3    3    0    0  0.25055532598E+02 -0.12802403472E+02 -0.23750742081E+02  0.36820904359E+02  0.00000000000E+00 0. -1.
         11    1    4    4    0    0 -0.81373398403E+00  0.36929272130E+01 -0.79497778425E+01  0.88033426836E+01  0.51100000000E-03 0. -1.
        -11    1    4    4    0    0 -0.51183313533E+01 -0.62961311910E+01  0.67368851363E+01  0.10546288704E+02  0.51100000000E-03 0.  1.
        -12    1    4    4    0    0 -0.19123467261E+02  0.15405607450E+02  0.24963634787E+02  0.35017464254E+02  0.00000000000E+00 0.  1.
</event>
<event>
 8    1  0.1265908E-006  0.9118800E+02  0.7816164E-02  0.1184000E+00
        -11   -1    0    0    0    0  0.00000000000E+00  0.00000000000E+00  0.45593999997E+02  0.45594000000E+02  0.51100000000E-03 0.  1.
         11   -1    0    0    0    0 -0.00000000000E+00 -0.00000000000E+00 -0.45593999997E+02  0.45594000000E+02  0.51100000000E-03 0. -1.
         23    2    1    2    0    0  0.00000000000E+00  0.00000000000E+00  0.00000000000E+00  0.91188000000E+02  0.91188000000E+02 0.  0.
    9900012    2    3    3    0    0  0.29057028000E+02  0.19318528432E+02  0.11758558823E+02  0.54367080368E+02  0.39999991315E+02 0.  0.
         12    1    3    3    0    0 -0.29057028000E+02 -0.19318528432E+02 -0.11758558823E+02  0.36820919632E+02  0.00000000000E+00 0. -1.
         11    1    4    4    0    0  0.39508817255E+01  0.39928419477E+01 -0.57078452717E+01  0.80082302125E+01  0.51100000000E-03 0. -1.
        -11    1    4    4    0    0  0.17324232868E+02 -0.31920375827E+01 -0.27859497918E+01  0.17834788053E+02  0.51100000000E-03 0.  1.
        -12    1    4    4    0    0  0.77819134059E+01  0.18517724067E+02  0.20252353886E+02  0.28524062102E+02  0.00000000000E+00 0.  1.
</event>
<event>
 8    1  0.1265908E-006  0.9118800E+02  0.7816164E-02  0.1184000E+00
        -11   -1    0    0    0    0  0.00000000000E+00  0.00000000000E+00  0.45593999997E+02  0.45594000000E+02  0.51100000000E-03 0.  1.
         11   -1    0    0    0    0 -0.00000000000E+00 -0.00000000000E+00 -0.45593999997E+02  0.45594000000E+02  0.51100000000E-03 0. -1.
         23    2    1    2    0    0  0.22204460493E-15  0.88817841970E-15  0.00000000000E+00  0.91188000000E+02  0.91188000000E+02 0.  0.
    9900012    2    3    3    0    0 -0.19722949706E+01 -0.55270436972E+01  0.36350267449E+02  0.54367080632E+02  0.39999991916E+02 0.  0.
         12    1    3    3    0    0  0.19722949706E+01  0.55270436972E+01 -0.36350267449E+02  0.36820919368E+02  0.00000000000E+00 0. -1.
         11    1    4    4    0    0 -0.53372582695E+01 -0.73069591853E+01 -0.43185031974E+01  0.10026337741E+02  0.51100000000E-03 0. -1.
        -11    1    4    4    0    0  0.10457855751E+02  0.63661040842E+00  0.23546750544E+02  0.25772494663E+02  0.51100000000E-03 0.  1.
         12    1    4    4    0    0 -0.70928924517E+01  0.11433050797E+01  0.17122020102E+02  0.18568248227E+02  0.00000000000E+00 0. -1.
</event>
<event>
 8    1  0.1265908E-006  0.9118800E+02  0.7816164E-02  0.1184000E+00
        -11   -1    0    0    0    0  0.00000000000E+00  0.00000000000E+00  0.45593999997E+02  0.45594000000E+02  0.51100000000E-03 0.  1.
         11   -1    0    0    0    0 -0.00000000000E+00 -0.00000000000E+00 -0.45593999997E+02  0.45594000000E+02  0.51100000000E-03 0. -1.
         23    2    1    2    0    0 -0.17763568394E-14  0.00000000000E+00  0.00000000000E+00  0.91188000000E+02  0.91188000000E+02 0.  0.
    9900012    2    3    3    0    0  0.11826047228E+02  0.24119904103E+02 -0.25182397716E+02  0.54367104822E+02  0.40000047063E+02 0.  0.
        -12    1    3    3    0    0 -0.11826047228E+02 -0.24119904103E+02  0.25182397716E+02  0.36820895178E+02  0.00000000000E+00 0.  1.
         11    1    4    4    0    0 -0.72086907445E+01 -0.69210187995E+01 -0.21832607332E+01  0.10228995609E+02  0.51100000000E-03 0.  1.
        -11    1    4    4    0    0  0.12578429020E+02  0.24434795234E+02 -0.12612582203E+02  0.30238275825E+02  0.51100000000E-03 0. -1.
        -12    1    4    4    0    0  0.64563089521E+01  0.66061276684E+01 -0.10386554779E+02  0.13899833389E+02  0.00000000000E+00 0.  1.
</event>
<event>
 8    1  0.1265908E-006  0.9118800E+02  0.7816164E-02  0.1184000E+00
        -11   -1    0    0    0    0  0.00000000000E+00  0.00000000000E+00  0.45593999997E+02  0.45594000000E+02  0.51100000000E-03 0.  1.
         11   -1    0    0    0    0 -0.00000000000E+00 -0.00000000000E+00 -0.45593999997E+02  0.45594000000E+02  0.51100000000E-03 0. -1.
         23    2    1    2    0    0  0.00000000000E+00  0.00000000000E+00  0.17763568394E-14  0.91188000000E+02  0.91188000000E+02 0.  0.
    9900012    2    3    3    0    0 -0.32846718592E+02 -0.83542959994E+01  0.14390082208E+02  0.54367141103E+02  0.40000129773E+02 0.  0.
         12    1    3    3    0    0  0.32846718592E+02  0.83542959994E+01 -0.14390082208E+02  0.36820858897E+02  0.00000000000E+00 0. -1.
         11    1    4    4    0    0 -0.12410759930E+02 -0.11617659002E+02  0.11806423974E+02  0.20697550822E+02  0.51100000000E-03 0. -1.
        -11    1    4    4    0    0 -0.40696592596E+00  0.38869670405E+01  0.11196014129E+02  0.11858535604E+02  0.51100000000E-03 0.  1.
         12    1    4    4    0    0 -0.20028992737E+02 -0.62360403799E+00 -0.86123558957E+01  0.21811054677E+02  0.00000000000E+00 0. -1.
</event>
<event>
 8    1  0.1265908E-006  0.9118800E+02  0.7816164E-02  0.1184000E+00
        -11   -1    0    0    0    0  0.00000000000E+00  0.00000000000E+00  0.45593999997E+02  0.45594000000E+02  0.51100000000E-03 0.  1.
         11   -1    0    0    0    0 -0.00000000000E+00 -0.00000000000E+00 -0.45593999997E+02  0.45594000000E+02  0.51100000000E-03 0. -1.
         23    2    1    2    0    0  0.00000000000E+00 -0.88817841970E-15  0.00000000000E+00  0.91188000000E+02  0.91188000000E+02 0.  0.
    9900012    2    3    3    0    0 -0.31770516968E+02 -0.40066878741E+01 -0.18175825189E+02  0.54367083153E+02  0.39999997664E+02 0.  0.
         12    1    3    3    0    0  0.31770516968E+02  0.40066878741E+01  0.18175825189E+02  0.36820916847E+02  0.00000000000E+00 0. -1.
         11    1    4    4    0    0 -0.10094639551E+02 -0.11491179805E+02 -0.12345974499E+02  0.19656348785E+02  0.51100000000E-03 0. -1.
        -11    1    4    4    0    0 -0.76793022540E+00 -0.16059871654E+01 -0.11156874010E+02  0.11297997590E+02  0.51100000000E-03 0.  1.
        -12    1    4    4    0    0 -0.20907947192E+02  0.90904790959E+01  0.53270233205E+01  0.23412736778E+02  0.00000000000E+00 0.  1.
</event>
<event>
 8    1  0.1265908E-006  0.9118800E+02  0.7816164E-02  0.1184000E+00
        -11   -1    0    0    0    0  0.00000000000E+00  0.00000000000E+00  0.45593999997E+02  0.45594000000E+02  0.51100000000E-03 0.  1.
         11   -1    0    0    0    0 -0.00000000000E+00 -0.00000000000E+00 -0.45593999997E+02  0.45594000000E+02  0.51100000000E-03 0. -1.
         23    2    1    2    0    0  0.71054273576E-14 -0.35527136788E-14  0.00000000000E+00  0.91188000000E+02  0.91188000000E+02 0.  0.
    9900012    2    3    3    0    0 -0.32157218200E+02  0.17635177982E+02  0.32701194392E+01  0.54367083853E+02  0.39999999259E+02 0.  0.
         12    1    3    3    0    0  0.32157218200E+02 -0.17635177982E+02 -0.32701194392E+01  0.36820916147E+02  0.00000000000E+00 0. -1.
         11    1    4    4    0    0  0.38436418697E+01  0.49186447635E+01 -0.42718276870E+00  0.62569269223E+01  0.51100000000E-03 0. -1.
        -11    1    4    4    0    0 -0.15023905241E+02  0.20651357928E+02  0.21990704810E+01  0.25632639821E+02  0.51100000000E-03 0.  1.
        -12    1    4    4    0    0 -0.20976954829E+02 -0.79348247104E+01  0.14982317269E+01  0.22477517109E+02  0.00000000000E+00 0.  1.
</event>
<event>
 8    1  0.1265908E-006  0.9118800E+02  0.7816164E-02  0.1184000E+00
        -11   -1    0    0    0    0  0.00000000000E+00  0.00000000000E+00  0.45593999997E+02  0.45594000000E+02  0.51100000000E-03 0.  1.
         11   -1    0    0    0    0 -0.00000000000E+00 -0.00000000000E+00 -0.45593999997E+02  0.45594000000E+02  0.51100000000E-03 0. -1.
         23    2    1    2    0    0  0.35527136788E-14  0.00000000000E+00 -0.71054273576E-14  0.91188000000E+02  0.91188000000E+02 0.  0.
    9900012    2    3    3    0    0 -0.22753897331E+02 -0.93217859142E+01 -0.27406999898E+02  0.54367093170E+02  0.40000020499E+02 0.  0.
        -12    1    3    3    0    0  0.22753897331E+02  0.93217859142E+01  0.27406999898E+02  0.36820906830E+02  0.00000000000E+00 0.  1.
         11    1    4    4    0    0 -0.40556255786E+01  0.88475000925E+01 -0.82144979171E+01  0.12735946491E+02  0.51100000000E-03 0. -1.
        -11    1    4    4    0    0 -0.23928323111E+01 -0.16958904306E+02 -0.97823970335E+00  0.17154796266E+02  0.51100000000E-03 0.  1.
         12    1    4    4    0    0 -0.16305439441E+02 -0.12103817005E+01 -0.18214262278E+02  0.24476350413E+02  0.00000000000E+00 0. -1.
</event>
<event>
 8    1  0.1265908E-006  0.9118800E+02  0.7816164E-02  0.1184000E+00
        -11   -1    0    0    0    0  0.00000000000E+00  0.00000000000E+00  0.45593999997E+02  0.45594000000E+02  0.51100000000E-03 0.  1.
         11   -1    0    0    0    0 -0.00000000000E+00 -0.00000000000E+00 -0.45593999997E+02  0.45594000000E+02  0.51100000000E-03 0. -1.
         23    2    1    2    0    0  0.00000000000E+00  0.00000000000E+00 -0.17763568394E-14  0.91188000000E+02  0.91188000000E+02 0.  0.
    9900012    2    3    3    0    0  0.10024381038E+02 -0.34495640810E+02 -0.80834994068E+01  0.54367076427E+02  0.39999982331E+02 0.  0.
        -12    1    3    3    0    0 -0.10024381038E+02  0.34495640810E+02  0.80834994068E+01  0.36820923573E+02  0.00000000000E+00 0.  1.
         11    1    4    4    0    0 -0.71718940757E+01 -0.14815380810E+02 -0.89462510535E+01  0.18734112772E+02  0.51100000000E-03 0. -1.
        -11    1    4    4    0    0  0.91978055882E+01  0.36720079880E+01 -0.36211139327E+01  0.10544938913E+02  0.51100000000E-03 0.  1.
        -12    1    4    4    0    0  0.79984695256E+01 -0.23352267988E+02  0.44838655793E+01  0.25088024742E+02  0.00000000000E+00 0.  1.
</event>
<event>
 8    1  0.1265908E-006  0.9118800E+02  0.7816164E-02  0.1184000E+00
        -11   -1    0    0    0    0  0.00000000000E+00  0.00000000000E+00  0.45593999997E+02  0.45594000000E+02  0.51100000000E-03 0. -1.
         11   -1    0    0    0    0 -0.00000000000E+00 -0.00000000000E+00 -0.45593999997E+02  0.45594000000E+02  0.51100000000E-03 0.  1.
         23    2    1    2    0    0  0.00000000000E+00  0.44408920985E-15  0.00000000000E+00  0.91188000000E+02  0.91188000000E+02 0.  0.
    9900012    2    3    3    0    0  0.35294495410E+02  0.36794126047E+01  0.98254797601E+01  0.54367088334E+02  0.40000009476E+02 0.  0.
         12    1    3    3    0    0 -0.35294495410E+02 -0.36794126047E+01 -0.98254797601E+01  0.36820911666E+02  0.00000000000E+00 0. -1.
         11    1    4    4    0    0 -0.67012666806E+00 -0.78845350931E+01  0.69909520341E+01  0.10558805519E+02  0.51100000000E-03 0. -1.
        -11    1    4    4    0    0  0.37119951150E+02  0.65824164128E+01  0.54054939360E+01  0.38084620835E+02  0.51100000000E-03 0.  1.
        -12    1    4    4    0    0 -0.11553290718E+01  0.49815312850E+01 -0.25709662100E+01  0.57236619799E+01  0.00000000000E+00 0.  1.
</event>
<event>
 8    1  0.1265908E-006  0.9118800E+02  0.7816164E-02  0.1184000E+00
        -11   -1    0    0    0    0  0.00000000000E+00  0.00000000000E+00  0.45593999997E+02  0.45594000000E+02  0.51100000000E-03 0.  1.
         11   -1    0    0    0    0 -0.00000000000E+00 -0.00000000000E+00 -0.45593999997E+02  0.45594000000E+02  0.51100000000E-03 0. -1.
         23    2    1    2    0    0  0.00000000000E+00  0.00000000000E+00  0.00000000000E+00  0.91188000000E+02  0.91188000000E+02 0.  0.
    9900012    2    3    3    0    0  0.31993394792E+02  0.11219252155E+02  0.14364127066E+02  0.54367121742E+02  0.40000085636E+02 0.  0.
         12    1    3    3    0    0 -0.31993394792E+02 -0.11219252155E+02 -0.14364127066E+02  0.36820878258E+02  0.00000000000E+00 0. -1.
         11    1    4    4    0    0 -0.25264546823E+01  0.73673192687E+01  0.36908447072E+01  0.86187412876E+01  0.51100000000E-03 0.  1.
        -11    1    4    4    0    0  0.19587675381E+02  0.12439019617E+02 -0.34688481474E+01  0.23461439504E+02  0.51100000000E-03 0. -1.
         12    1    4    4    0    0  0.14932174094E+02 -0.85870867304E+01  0.14142130507E+02  0.22286940951E+02  0.00000000000E+00 0. -1.
</event>
<event>
 8    1  0.1265908E-006  0.9118800E+02  0.7816164E-02  0.1184000E+00
        -11   -1    0    0    0    0  0.00000000000E+00  0.00000000000E+00  0.45593999997E+02  0.45594000000E+02  0.51100000000E-03 0.  1.
         11   -1    0    0    0    0 -0.00000000000E+00 -0.00000000000E+00 -0.45593999997E+02  0.45594000000E+02  0.51100000000E-03 0. -1.
         23    2    1    2    0    0  0.35527136788E-14 -0.88817841970E-15  0.35527136788E-14  0.91188000000E+02  0.91188000000E+02 0.  0.
    9900012    2    3    3    0    0  0.30982880921E+02 -0.28581129491E+01  0.19689404438E+02  0.54367077050E+02  0.39999983750E+02 0.  0.
         12    1    3    3    0    0 -0.30982880921E+02  0.28581129491E+01 -0.19689404438E+02  0.36820922950E+02  0.00000000000E+00 0. -1.
         11    1    4    4    0    0  0.12970049885E+02 -0.22683624682E+01  0.72924142904E+00  0.13187094283E+02  0.51100000000E-03 0. -1.
        -11    1    4    4    0    0  0.13213037626E+02  0.15122972773E+02  0.94218016537E+01  0.22182403284E+02  0.51100000000E-03 0.  1.
         12    1    4    4    0    0  0.47997934098E+01 -0.15712723254E+02  0.95383613551E+01  0.18997579482E+02  0.00000000000E+00 0. -1.
</event>
<event>
 8    1  0.1265908E-006  0.9118800E+02  0.7816164E-02  0.1184000E+00
        -11   -1    0    0    0    0  0.00000000000E+00  0.00000000000E+00  0.45593999997E+02  0.45594000000E+02  0.51100000000E-03 0. -1.
         11   -1    0    0    0    0 -0.00000000000E+00 -0.00000000000E+00 -0.45593999997E+02  0.45594000000E+02  0.51100000000E-03 0.  1.
         23    2    1    2    0    0 -0.88817841970E-15  0.71054273576E-14 -0.17763568394E-14  0.91188000000E+02  0.91188000000E+02 0.  0.
    9900012    2    3    3    0    0  0.65431727581E+01 -0.33153585684E+02  0.14622101824E+02  0.54367092689E+02  0.40000019404E+02 0.  0.
        -12    1    3    3    0    0 -0.65431727581E+01  0.33153585684E+02 -0.14622101824E+02  0.36820907311E+02  0.00000000000E+00 0.  1.
         11    1    4    4    0    0 -0.10402038798E+02 -0.10306158742E+02 -0.51804800190E+01  0.15532440010E+02  0.51100000000E-03 0. -1.
        -11    1    4    4    0    0  0.19806730299E+01  0.24097717023E+01  0.51564632997E+01  0.60265395818E+01  0.51100000000E-03 0.  1.
        -12    1    4    4    0    0  0.14964538526E+02 -0.25257198644E+02  0.14646118543E+02  0.32808113098E+02  0.00000000000E+00 0.  1.
</event>
<event>
 8    1  0.1265908E-006  0.9118800E+02  0.7816164E-02  0.1184000E+00
        -11   -1    0    0    0    0  0.00000000000E+00  0.00000000000E+00  0.45593999997E+02  0.45594000000E+02  0.51100000000E-03 0.  1.
         11   -1    0    0    0    0 -0.00000000000E+00 -0.00000000000E+00 -0.45593999997E+02  0.45594000000E+02  0.51100000000E-03 0. -1.
         23    2    1    2    0    0 -0.17763568394E-14  0.00000000000E+00 -0.35527136788E-14  0.91188000000E+02  0.91188000000E+02 0.  0.
    9900012    2    3    3    0    0  0.12674624064E+02 -0.21430242633E+02 -0.27127066701E+02  0.54367093679E+02  0.40000021661E+02 0.  0.
        -12    1    3    3    0    0 -0.12674624064E+02  0.21430242633E+02  0.27127066701E+02  0.36820906321E+02  0.00000000000E+00 0.  1.
         11    1    4    4    0    0  0.39972055468E+01 -0.12271065573E+01 -0.12666883452E+02  0.13339167115E+02  0.51100000000E-03 0. -1.
        -11    1    4    4    0    0 -0.10393986613E+02 -0.15582854051E+02 -0.80084720367E+01  0.20371448714E+02  0.51100000000E-03 0.  1.
        -12    1    4    4    0    0  0.19071405130E+02 -0.46202820252E+01 -0.64517112126E+01  0.20656477851E+02  0.00000000000E+00 0.  1.
</event>
<event>
 8    1  0.1265908E-006  0.9118800E+02  0.7816164E-02  0.1184000E+00
        -11   -1    0    0    0    0  0.00000000000E+00  0.00000000000E+00  0.45593999997E+02  0.45594000000E+02  0.51100000000E-03 0. -1.
         11   -1    0    0    0    0 -0.00000000000E+00 -0.00000000000E+00 -0.45593999997E+02  0.45594000000E+02  0.51100000000E-03 0.  1.
         23    2    1    2    0    0 -0.35527136788E-14  0.00000000000E+00  0.17763568394E-14  0.91188000000E+02  0.91188000000E+02 0.  0.
    9900012    2    3    3    0    0 -0.19707442697E+02  0.27462916803E+02  0.14600349503E+02  0.54367281612E+02  0.40000450089E+02 0.  0.
        -12    1    3    3    0    0  0.19707442697E+02 -0.27462916803E+02 -0.14600349503E+02  0.36820718388E+02  0.00000000000E+00 0.  1.
         11    1    4    4    0    0 -0.43791699272E+01  0.11301104596E+02 -0.74061798989E+01  0.14203647253E+02  0.51100000000E-03 0. -1.
        -11    1    4    4    0    0 -0.13816926008E+02  0.38440815895E+01 -0.62231875110E+00  0.14355197263E+02  0.51100000000E-03 0.  1.
         12    1    4    4    0    0 -0.15113467615E+01  0.12317730617E+02  0.22628848153E+02  0.25808437096E+02  0.00000000000E+00 0. -1.
</event>
<event>
 8    1  0.1265908E-006  0.9118800E+02  0.7816164E-02  0.1184000E+00
        -11   -1    0    0    0    0  0.00000000000E+00  0.00000000000E+00  0.45593999997E+02  0.45594000000E+02  0.51100000000E-03 0.  1.
         11   -1    0    0    0    0 -0.00000000000E+00 -0.00000000000E+00 -0.45593999997E+02  0.45594000000E+02  0.51100000000E-03 0. -1.
         23    2    1    2    0    0  0.71054273576E-14  0.00000000000E+00  0.00000000000E+00  0.91188000000E+02  0.91188000000E+02 0.  0.
    9900012    2    3    3    0    0  0.29248529460E+02 -0.14749065140E+02 -0.16815726053E+02  0.54367081479E+02  0.39999993847E+02 0.  0.
        -12    1    3    3    0    0 -0.29248529460E+02  0.14749065140E+02  0.16815726053E+02  0.36820918521E+02  0.00000000000E+00 0.  1.
         11    1    4    4    0    0  0.26385729344E+01 -0.18334809405E+02 -0.76621459242E+01  0.20045842049E+02  0.51100000000E-03 0. -1.
        -11    1    4    4    0    0  0.18701824752E+00 -0.27377385520E+01  0.34191173073E+01  0.43841249556E+01  0.51100000000E-03 0.  1.
        -12    1    4    4    0    0  0.26422938278E+02  0.63234828168E+01 -0.12572697436E+02  0.29937114473E+02  0.00000000000E+00 0.  1.
</event>
<event>
 8    1  0.1265908E-006  0.9118800E+02  0.7816164E-02  0.1184000E+00
        -11   -1    0    0    0    0  0.00000000000E+00  0.00000000000E+00  0.45593999997E+02  0.45594000000E+02  0.51100000000E-03 0.  1.
         11   -1    0    0    0    0 -0.00000000000E+00 -0.00000000000E+00 -0.45593999997E+02  0.45594000000E+02  0.51100000000E-03 0. -1.
         23    2    1    2    0    0  0.00000000000E+00 -0.61062266354E-15  0.00000000000E+00  0.91188000000E+02  0.91188000000E+02 0.  0.
    9900012    2    3    3    0    0 -0.17762087548E+02  0.23594434688E+00  0.32252643053E+02  0.54367076496E+02  0.39999982488E+02 0.  0.
         12    1    3    3    0    0  0.17762087548E+02 -0.23594434688E+00 -0.32252643053E+02  0.36820923504E+02  0.00000000000E+00 0. -1.
         11    1    4    4    0    0  0.10758112030E+01 -0.73498241422E+00  0.26842117875E+02  0.26873720643E+02  0.51100000000E-03 0. -1.
        -11    1    4    4    0    0 -0.13692627708E+02 -0.67060552011E+01  0.88539084405E+01  0.17630964944E+02  0.51100000000E-03 0.  1.
         12    1    4    4    0    0 -0.51452710426E+01  0.76769819622E+01 -0.34433832629E+01  0.98623909092E+01  0.00000000000E+00 0. -1.
</event>
<event>
 8    1  0.1265908E-006  0.9118800E+02  0.7816164E-02  0.1184000E+00
        -11   -1    0    0    0    0  0.00000000000E+00  0.00000000000E+00  0.45593999997E+02  0.45594000000E+02  0.51100000000E-03 0.  1.
         11   -1    0    0    0    0 -0.00000000000E+00 -0.00000000000E+00 -0.45593999997E+02  0.45594000000E+02  0.51100000000E-03 0. -1.
         23    2    1    2    0    0  0.00000000000E+00  0.00000000000E+00  0.17763568394E-14  0.91188000000E+02  0.91188000000E+02 0.  0.
    9900012    2    3    3    0    0  0.40859370880E+01 -0.34213200372E+02 -0.12982357803E+02  0.54367087794E+02  0.40000008244E+02 0.  0.
        -12    1    3    3    0    0 -0.40859370880E+01  0.34213200372E+02  0.12982357803E+02  0.36820912206E+02  0.00000000000E+00 0.  1.
         11    1    4    4    0    0 -0.44060555245E+01 -0.11864095581E+01  0.60627698690E+01  0.75880215913E+01  0.51100000000E-03 0.  1.
        -11    1    4    4    0    0  0.51799499414E+01 -0.24608257019E+02  0.59606762125E+00  0.25154591863E+02  0.51100000000E-03 0. -1.
         12    1    4    4    0    0  0.33120426710E+01 -0.84185337944E+01 -0.19641195294E+02  0.21624474340E+02  0.00000000000E+00 0. -1.
</event>
<event>
 8    1  0.1265908E-006  0.9118800E+02  0.7816164E-02  0.1184000E+00
        -11   -1    0    0    0    0  0.00000000000E+00  0.00000000000E+00  0.45593999997E+02  0.45594000000E+02  0.51100000000E-03 0.  1.
         11   -1    0    0    0    0 -0.00000000000E+00 -0.00000000000E+00 -0.45593999997E+02  0.45594000000E+02  0.51100000000E-03 0. -1.
         23    2    1    2    0    0  0.00000000000E+00  0.17763568394E-14 -0.17763568394E-14  0.91188000000E+02  0.91188000000E+02 0.  0.
    9900012    2    3    3    0    0  0.34318619711E+02  0.13093274777E+02 -0.25646658984E+01  0.54367095416E+02  0.40000025620E+02 0.  0.
        -12    1    3    3    0    0 -0.34318619711E+02 -0.13093274777E+02  0.25646658984E+01  0.36820904584E+02  0.00000000000E+00 0.  1.
         11    1    4    4    0    0  0.35709600241E+02  0.16804924859E+02 -0.11099587164E+02  0.40997339967E+02  0.51100000000E-03 0. -1.
        -11    1    4    4    0    0  0.21111687438E+01 -0.57865882335E+01  0.58384083985E+01  0.84869694083E+01  0.51100000000E-03 0.  1.
        -12    1    4    4    0    0 -0.35021492745E+01  0.20749381507E+01  0.26965128676E+01  0.48827860403E+01  0.00000000000E+00 0.  1.
</event>
<event>
 8    1  0.1265908E-006  0.9118800E+02  0.7816164E-02  0.1184000E+00
        -11   -1    0    0    0    0  0.00000000000E+00  0.00000000000E+00  0.45593999997E+02  0.45594000000E+02  0.51100000000E-03 0. -1.
         11   -1    0    0    0    0 -0.00000000000E+00 -0.00000000000E+00 -0.45593999997E+02  0.45594000000E+02  0.51100000000E-03 0.  1.
         23    2    1    2    0    0  0.71054273576E-14  0.00000000000E+00  0.00000000000E+00  0.91188000000E+02  0.91188000000E+02 0.  0.
    9900012    2    3    3    0    0 -0.34237195529E+02 -0.93310696109E+01 -0.98247264521E+01  0.54367086545E+02  0.40000005397E+02 0.  0.
        -12    1    3    3    0    0  0.34237195529E+02  0.93310696109E+01  0.98247264521E+01  0.36820913455E+02  0.00000000000E+00 0.  1.
         11    1    4    4    0    0 -0.65474288666E+01  0.32384741378E+01 -0.79516882568E+01  0.10797494427E+02  0.51100000000E-03 0. -1.
        -11    1    4    4    0    0 -0.56009366515E+01  0.88730209731E+01  0.55958328893E+01  0.11891776089E+02  0.51100000000E-03 0.  1.
        -12    1    4    4    0    0 -0.22088830011E+02 -0.21442564722E+02 -0.74688710846E+01  0.31677816029E+02  0.00000000000E+00 0.  1.
</event>
<event>
 8    1  0.1265908E-006  0.9118800E+02  0.7816164E-02  0.1184000E+00
        -11   -1    0    0    0    0  0.00000000000E+00  0.00000000000E+00  0.45593999997E+02  0.45594000000E+02  0.51100000000E-03 0.  1.
         11   -1    0    0    0    0 -0.00000000000E+00 -0.00000000000E+00 -0.45593999997E+02  0.45594000000E+02  0.51100000000E-03 0. -1.
         23    2    1    2    0    0  0.00000000000E+00 -0.35527136788E-14 -0.71054273576E-14  0.91188000000E+02  0.91188000000E+02 0.  0.
    9900012    2    3    3    0    0  0.11645506412E+02 -0.45775961519E+01 -0.34629625763E+02  0.54367038760E+02  0.39999896462E+02 0.  0.
        -12    1    3    3    0    0 -0.11645506412E+02  0.45775961519E+01  0.34629625763E+02  0.36820961240E+02  0.00000000000E+00 0.  1.
         11    1    4    4    0    0  0.12658248546E+02  0.10891437033E+02 -0.17659828477E+02  0.24304818431E+02  0.51100000000E-03 0. -1.
        -11    1    4    4    0    0 -0.55114442790E+01  0.26671159423E+01 -0.39069290396E+01  0.72631687487E+01  0.51100000000E-03 0.  1.
         12    1    4    4    0    0  0.44987021452E+01 -0.18136149127E+02 -0.13062868247E+02  0.22799051580E+02  0.00000000000E+00 0. -1.
</event>
<event>
 8    1  0.1265908E-006  0.9118800E+02  0.7816164E-02  0.1184000E+00
        -11   -1    0    0    0    0  0.00000000000E+00  0.00000000000E+00  0.45593999997E+02  0.45594000000E+02  0.51100000000E-03 0.  1.
         11   -1    0    0    0    0 -0.00000000000E+00 -0.00000000000E+00 -0.45593999997E+02  0.45594000000E+02  0.51100000000E-03 0. -1.
         23    2    1    2    0    0 -0.44408920985E-15 -0.11102230246E-14  0.00000000000E+00  0.91188000000E+02  0.91188000000E+02 0.  0.
    9900012    2    3    3    0    0 -0.29896859075E+01  0.13267996091E+01 -0.36675321163E+02  0.54367111887E+02  0.40000063168E+02 0.  0.
        -12    1    3    3    0    0  0.29896859075E+01 -0.13267996091E+01  0.36675321163E+02  0.36820888113E+02  0.00000000000E+00 0.  1.
         11    1    4    4    0    0 -0.16317227926E+01  0.13553876450E+02 -0.93113320054E+00  0.13683460652E+02  0.51100000000E-03 0. -1.
        -11    1    4    4    0    0 -0.41829827773E+01 -0.62113411618E+01 -0.44917158406E+01  0.87323316128E+01  0.51100000000E-03 0.  1.
         12    1    4    4    0    0  0.28250196624E+01 -0.60157356794E+01 -0.31252472122E+02  0.31951319622E+02  0.00000000000E+00 0. -1.
</event>
<event>
 8    1  0.1265908E-006  0.9118800E+02  0.7816164E-02  0.1184000E+00
        -11   -1    0    0    0    0  0.00000000000E+00  0.00000000000E+00  0.45593999997E+02  0.45594000000E+02  0.51100000000E-03 0. -1.
         11   -1    0    0    0    0 -0.00000000000E+00 -0.00000000000E+00 -0.45593999997E+02  0.45594000000E+02  0.51100000000E-03 0.  1.
         23    2    1    2    0    0 -0.35527136788E-14  0.35527136788E-14  0.00000000000E+00  0.91188000000E+02  0.91188000000E+02 0.  0.
    9900012    2    3    3    0    0 -0.16160092128E+02  0.18530917386E+02 -0.27408721690E+02  0.54367061644E+02  0.39999948630E+02 0.  0.
         12    1    3    3    0    0  0.16160092128E+02 -0.18530917386E+02  0.27408721690E+02  0.36820938356E+02  0.00000000000E+00 0. -1.
         11    1    4    4    0    0  0.92814450424E+01  0.13502583245E+01 -0.30570620019E+01  0.98647882878E+01  0.51100000000E-03 0. -1.
        -11    1    4    4    0    0 -0.27967016877E+01 -0.42076140405E+01 -0.76239379221E+01  0.91460366249E+01  0.51100000000E-03 0.  1.
        -12    1    4    4    0    0 -0.22644835483E+02  0.21388273102E+02 -0.16727721766E+02  0.35356236731E+02  0.00000000000E+00 0.  1.
</event>
<event>
 8    1  0.1265908E-006  0.9118800E+02  0.7816164E-02  0.1184000E+00
        -11   -1    0    0    0    0  0.00000000000E+00  0.00000000000E+00  0.45593999997E+02  0.45594000000E+02  0.51100000000E-03 0.  1.
         11   -1    0    0    0    0 -0.00000000000E+00 -0.00000000000E+00 -0.45593999997E+02  0.45594000000E+02  0.51100000000E-03 0. -1.
         23    2    1    2    0    0 -0.35527136788E-14  0.35527136788E-14  0.35527136788E-14  0.91188000000E+02  0.91188000000E+02 0.  0.
    9900012    2    3    3    0    0  0.19288665654E+02  0.26731176028E+02 -0.16406403690E+02  0.54367102718E+02  0.40000042267E+02 0.  0.
        -12    1    3    3    0    0 -0.19288665654E+02 -0.26731176028E+02  0.16406403690E+02  0.36820897282E+02  0.00000000000E+00 0.  1.
         11    1    4    4    0    0 -0.29275114501E+01  0.92563073158E+01  0.59165441038E+01  0.11369038781E+02  0.51100000000E-03 0.  1.
        -11    1    4    4    0    0  0.16405096790E+02 -0.36906783799E+00 -0.16687720539E+02  0.23403919091E+02  0.51100000000E-03 0. -1.
         12    1    4    4    0    0  0.58110803145E+01  0.17843936551E+02 -0.56352272550E+01  0.19594144846E+02  0.00000000000E+00 0. -1.
</event>
<event>
 8    1  0.1265908E-006  0.9118800E+02  0.7816164E-02  0.1184000E+00
        -11   -1    0    0    0    0  0.00000000000E+00  0.00000000000E+00  0.45593999997E+02  0.45594000000E+02  0.51100000000E-03 0. -1.
         11   -1    0    0    0    0 -0.00000000000E+00 -0.00000000000E+00 -0.45593999997E+02  0.45594000000E+02  0.51100000000E-03 0.  1.
         23    2    1    2    0    0  0.26645352591E-14  0.53290705182E-14  0.00000000000E+00  0.91188000000E+02  0.91188000000E+02 0.  0.
    9900012    2    3    3    0    0  0.79656358138E+01  0.13004002018E+02 -0.33514529908E+02  0.54367093746E+02  0.40000021814E+02 0.  0.
         12    1    3    3    0    0 -0.79656358138E+01 -0.13004002018E+02  0.33514529908E+02  0.36820906254E+02  0.00000000000E+00 0. -1.
         11    1    4    4    0    0 -0.40495780500E+01 -0.67666094470E+01 -0.98187583176E+01  0.12593414984E+02  0.51100000000E-03 0. -1.
        -11    1    4    4    0    0  0.11964251054E+02 -0.15625669622E+01 -0.13572659249E+02  0.18160451485E+02  0.51100000000E-03 0.  1.
         12    1    4    4    0    0  0.50962809863E-01  0.21333178427E+02 -0.10123112342E+02  0.23613227278E+02  0.00000000000E+00 0. -1.
</event>
<event>
 8    1  0.1265908E-006  0.9118800E+02  0.7816164E-02  0.1184000E+00
        -11   -1    0    0    0    0  0.00000000000E+00  0.00000000000E+00  0.45593999997E+02  0.45594000000E+02  0.51100000000E-03 0.  1.
         11   -1    0    0    0    0 -0.00000000000E+00 -0.00000000000E+00 -0.45593999997E+02  0.45594000000E+02  0.51100000000E-03 0. -1.
         23    2    1    2    0    0  0.00000000000E+00  0.00000000000E+00  0.17763568394E-14  0.91188000000E+02  0.91188000000E+02 0.  0.
    9900012    2    3    3    0    0  0.24659081956E+02  0.23053679025E+02  0.14705018354E+02  0.54367081974E+02  0.39999994977E+02 0.  0.
         12    1    3    3    0    0 -0.24659081956E+02 -0.23053679025E+02 -0.14705018354E+02  0.36820918026E+02  0.00000000000E+00 0. -1.
         11    1    4    4    0    0  0.27570330921E+01  0.15422984629E+02 -0.78687024569E+01  0.17532431804E+02  0.51100000000E-03 0. -1.
        -11    1    4    4    0    0 -0.24233301275E+01 -0.12965584786E+01  0.43894365796E+01  0.51788750267E+01  0.51100000000E-03 0.  1.
         12    1    4    4    0    0  0.24325378991E+02  0.89272528742E+01  0.18184284231E+02  0.31655775144E+02  0.00000000000E+00 0. -1.
</event>
<event>
 8    1  0.1265908E-006  0.9118800E+02  0.7816164E-02  0.1184000E+00
        -11   -1    0    0    0    0  0.00000000000E+00  0.00000000000E+00  0.45593999997E+02  0.45594000000E+02  0.51100000000E-03 0.  1.
         11   -1    0    0    0    0 -0.00000000000E+00 -0.00000000000E+00 -0.45593999997E+02  0.45594000000E+02  0.51100000000E-03 0. -1.
         23    2    1    2    0    0  0.00000000000E+00  0.35527136788E-14  0.00000000000E+00  0.91188000000E+02  0.91188000000E+02 0.  0.
    9900012    2    3    3    0    0 -0.19512113551E+02 -0.30861042060E+02 -0.47593045235E+01  0.54367116363E+02  0.40000073373E+02 0.  0.
        -12    1    3    3    0    0  0.19512113551E+02  0.30861042060E+02  0.47593045235E+01  0.36820883637E+02  0.00000000000E+00 0.  1.
         11    1    4    4    0    0  0.57178359093E+01 -0.94292594302E+00 -0.26147439692E+01  0.63576444620E+01  0.51100000000E-03 0. -1.
        -11    1    4    4    0    0 -0.13586174731E+02 -0.32937164056E+02 -0.39439126651E+01  0.35846832039E+02  0.51100000000E-03 0.  1.
        -12    1    4    4    0    0 -0.11643774729E+02  0.30190479388E+01  0.17993521108E+01  0.12162639862E+02  0.00000000000E+00 0.  1.
</event>
<event>
 8    1  0.1265908E-006  0.9118800E+02  0.7816164E-02  0.1184000E+00
        -11   -1    0    0    0    0  0.00000000000E+00  0.00000000000E+00  0.45593999997E+02  0.45594000000E+02  0.51100000000E-03 0.  1.
         11   -1    0    0    0    0 -0.00000000000E+00 -0.00000000000E+00 -0.45593999997E+02  0.45594000000E+02  0.51100000000E-03 0. -1.
         23    2    1    2    0    0  0.00000000000E+00 -0.71054273576E-14  0.35527136788E-14  0.91188000000E+02  0.91188000000E+02 0.  0.
    9900012    2    3    3    0    0 -0.14238156218E+02  0.32344098096E+02 -0.10339917729E+02  0.54367086476E+02  0.40000005239E+02 0.  0.
        -12    1    3    3    0    0  0.14238156218E+02 -0.32344098096E+02  0.10339917729E+02  0.36820913524E+02  0.00000000000E+00 0.  1.
         11    1    4    4    0    0  0.52749184454E+00  0.57220741200E+01  0.95682271276E+01  0.11161153637E+02  0.51100000000E-03 0. -1.
        -11    1    4    4    0    0 -0.39772968940E+01 -0.41435644988E+01 -0.30336603661E+01  0.64954686371E+01  0.51100000000E-03 0.  1.
         12    1    4    4    0    0 -0.10788351169E+02  0.30765588474E+02 -0.16874484490E+02  0.36710464202E+02  0.00000000000E+00 0. -1.
</event>
<event>
 8    1  0.1265908E-006  0.9118800E+02  0.7816164E-02  0.1184000E+00
        -11   -1    0    0    0    0  0.00000000000E+00  0.00000000000E+00  0.45593999997E+02  0.45594000000E+02  0.51100000000E-03 0.  1.
         11   -1    0    0    0    0 -0.00000000000E+00 -0.00000000000E+00 -0.45593999997E+02  0.45594000000E+02  0.51100000000E-03 0. -1.
         23    2    1    2    0    0  0.00000000000E+00  0.00000000000E+00  0.17763568394E-14  0.91188000000E+02  0.91188000000E+02 0.  0.
    9900012    2    3    3    0    0  0.39522911887E+01  0.34706370301E+02 -0.11645911160E+02  0.54367082143E+02  0.39999995361E+02 0.  0.
        -12    1    3    3    0    0 -0.39522911887E+01 -0.34706370301E+02  0.11645911160E+02  0.36820917857E+02  0.00000000000E+00 0.  1.
         11    1    4    4    0    0 -0.80933728974E+01  0.17750692584E+02 -0.21618321496E+02  0.29119436750E+02  0.51100000000E-03 0. -1.
        -11    1    4    4    0    0  0.28590175049E+01  0.76714591552E+01 -0.92303769701E+00  0.82387660189E+01  0.51100000000E-03 0.  1.
        -12    1    4    4    0    0  0.91866465812E+01  0.92842185619E+01  0.10895448033E+02  0.17008879374E+02  0.00000000000E+00 0.  1.
</event>
<event>
 8    1  0.1265908E-006  0.9118800E+02  0.7816164E-02  0.1184000E+00
        -11   -1    0    0    0    0  0.00000000000E+00  0.00000000000E+00  0.45593999997E+02  0.45594000000E+02  0.51100000000E-03 0. -1.
         11   -1    0    0    0    0 -0.00000000000E+00 -0.00000000000E+00 -0.45593999997E+02  0.45594000000E+02  0.51100000000E-03 0.  1.
         23    2    1    2    0    0  0.00000000000E+00  0.00000000000E+00  0.00000000000E+00  0.91188000000E+02  0.91188000000E+02 0.  0.
    9900012    2    3    3    0    0  0.82587541948E+01 -0.31147485775E+02 -0.17815801990E+02  0.54367140538E+02  0.40000128485E+02 0.  0.
         12    1    3    3    0    0 -0.82587541948E+01  0.31147485775E+02  0.17815801990E+02  0.36820859462E+02  0.00000000000E+00 0. -1.
         11    1    4    4    0    0 -0.13911765799E+02 -0.21224896627E+02 -0.81061405704E+01  0.26641001852E+02  0.51100000000E-03 0. -1.
        -11    1    4    4    0    0  0.15343547241E+02 -0.98395535941E+01 -0.36328136699E+01  0.18585978378E+02  0.51100000000E-03 0.  1.
         12    1    4    4    0    0  0.68269727530E+01 -0.83035553467E-01 -0.60768477498E+01  0.91401603076E+01  0.00000000000E+00 0. -1.
</event>
<event>
 8    1  0.1265908E-006  0.9118800E+02  0.7816164E-02  0.1184000E+00
        -11   -1    0    0    0    0  0.00000000000E+00  0.00000000000E+00  0.45593999997E+02  0.45594000000E+02  0.51100000000E-03 0. -1.
         11   -1    0    0    0    0 -0.00000000000E+00 -0.00000000000E+00 -0.45593999997E+02  0.45594000000E+02  0.51100000000E-03 0.  1.
         23    2    1    2    0    0  0.00000000000E+00  0.00000000000E+00  0.17763568394E-14  0.91188000000E+02  0.91188000000E+02 0.  0.
    9900012    2    3    3    0    0  0.36181807566E+02  0.45079438420E+01  0.51318989735E+01  0.54367066504E+02  0.39999959710E+02 0.  0.
        -12    1    3    3    0    0 -0.36181807566E+02 -0.45079438420E+01 -0.51318989735E+01  0.36820933496E+02  0.00000000000E+00 0.  1.
         11    1    4    4    0    0  0.80708537845E+01  0.61941455927E+01  0.10616627510E+02  0.14704383713E+02  0.51100000000E-03 0. -1.
        -11    1    4    4    0    0  0.21343834595E+02 -0.84589842197E+01 -0.13965249424E+02  0.26872697687E+02  0.51100000000E-03 0.  1.
        -12    1    4    4    0    0  0.67671191862E+01  0.67727824690E+01  0.84805208876E+01  0.12789985105E+02  0.00000000000E+00 0.  1.
</event>
<event>
 8    1  0.1265908E-006  0.9118800E+02  0.7816164E-02  0.1184000E+00
        -11   -1    0    0    0    0  0.00000000000E+00  0.00000000000E+00  0.45593999997E+02  0.45594000000E+02  0.51100000000E-03 0.  1.
         11   -1    0    0    0    0 -0.00000000000E+00 -0.00000000000E+00 -0.45593999997E+02  0.45594000000E+02  0.51100000000E-03 0. -1.
         23    2    1    2    0    0  0.00000000000E+00  0.17763568394E-14  0.00000000000E+00  0.91188000000E+02  0.91188000000E+02 0.  0.
    9900012    2    3    3    0    0 -0.34524602371E+02  0.81478843060E+01  0.98713439751E+01  0.54367087200E+02  0.40000006890E+02 0.  0.
         12    1    3    3    0    0  0.34524602371E+02 -0.81478843060E+01 -0.98713439751E+01  0.36820912800E+02  0.00000000000E+00 0. -1.
         11    1    4    4    0    0 -0.71724328802E+01 -0.64002671743E+01  0.86344154803E+01  0.12921313566E+02  0.51100000000E-03 0.  1.
        -11    1    4    4    0    0 -0.10871296122E+02  0.97509906007E+00  0.13075684847E+02  0.17032599098E+02  0.51100000000E-03 0. -1.
         12    1    4    4    0    0 -0.16480873368E+02  0.13573052420E+02 -0.11838756352E+02  0.24413174536E+02  0.00000000000E+00 0. -1.
</event>
<event>
 8    1  0.1265908E-006  0.9118800E+02  0.7816164E-02  0.1184000E+00
        -11   -1    0    0    0    0  0.00000000000E+00  0.00000000000E+00  0.45593999997E+02  0.45594000000E+02  0.51100000000E-03 0.  1.
         11   -1    0    0    0    0 -0.00000000000E+00 -0.00000000000E+00 -0.45593999997E+02  0.45594000000E+02  0.51100000000E-03 0. -1.
         23    2    1    2    0    0  0.00000000000E+00 -0.17763568394E-14 -0.88817841970E-15  0.91188000000E+02  0.91188000000E+02 0.  0.
    9900012    2    3    3    0    0 -0.33102363882E+02 -0.14513609700E+02  0.70260559665E+01  0.54367125166E+02  0.40000093441E+02 0.  0.
         12    1    3    3    0    0  0.33102363882E+02  0.14513609700E+02 -0.70260559665E+01  0.36820874834E+02  0.00000000000E+00 0. -1.
         11    1    4    4    0    0 -0.26826717955E+02 -0.39539463921E+01 -0.30985955693E+01  0.27292998793E+02  0.51100000000E-03 0. -1.
        -11    1    4    4    0    0 -0.43471871081E+01 -0.16152034213E+02  0.12309503128E+02  0.20768006946E+02  0.51100000000E-03 0.  1.
        -12    1    4    4    0    0 -0.19284588182E+01  0.55923709051E+01 -0.21848515922E+01  0.63061194275E+01  0.00000000000E+00 0.  1.
</event>
<event>
 8    1  0.1265908E-006  0.9118800E+02  0.7816164E-02  0.1184000E+00
        -11   -1    0    0    0    0  0.00000000000E+00  0.00000000000E+00  0.45593999997E+02  0.45594000000E+02  0.51100000000E-03 0.  1.
         11   -1    0    0    0    0 -0.00000000000E+00 -0.00000000000E+00 -0.45593999997E+02  0.45594000000E+02  0.51100000000E-03 0. -1.
         23    2    1    2    0    0  0.88817841970E-15  0.44408920985E-15  0.71054273576E-14  0.91188000000E+02  0.91188000000E+02 0.  0.
    9900012    2    3    3    0    0 -0.74805651909E+01  0.21013025539E+01 -0.35991750474E+02  0.54367076191E+02  0.39999981792E+02 0.  0.
        -12    1    3    3    0    0  0.74805651909E+01 -0.21013025539E+01  0.35991750474E+02  0.36820923809E+02  0.00000000000E+00 0.  1.
         11    1    4    4    0    0  0.59990314349E+01  0.16136117931E+02 -0.14048962380E+02  0.22220171562E+02  0.51100000000E-03 0. -1.
        -11    1    4    4    0    0 -0.11158267245E+01 -0.73412480494E+01 -0.14376253356E+02  0.16180718557E+02  0.51100000000E-03 0.  1.
        -12    1    4    4    0    0 -0.12363769901E+02 -0.66935673274E+01 -0.75665347368E+01  0.15966186071E+02  0.00000000000E+00 0.  1.
</event>
<event>
 8    1  0.1265908E-006  0.9118800E+02  0.7816164E-02  0.1184000E+00
        -11   -1    0    0    0    0  0.00000000000E+00  0.00000000000E+00  0.45593999997E+02  0.45594000000E+02  0.51100000000E-03 0. -1.
         11   -1    0    0    0    0 -0.00000000000E+00 -0.00000000000E+00 -0.45593999997E+02  0.45594000000E+02  0.51100000000E-03 0.  1.
         23    2    1    2    0    0  0.00000000000E+00 -0.88817841970E-15 -0.35527136788E-14  0.91188000000E+02  0.91188000000E+02 0.  0.
    9900012    2    3    3    0    0  0.16689879253E+02 -0.77662020030E+01 -0.31889138309E+02  0.54367039867E+02  0.39999898985E+02 0.  0.
         12    1    3    3    0    0 -0.16689879253E+02  0.77662020030E+01  0.31889138309E+02  0.36820960133E+02  0.00000000000E+00 0. -1.
         11    1    4    4    0    0  0.75423258025E+01 -0.70969725556E+00  0.51589737001E+01  0.91654437211E+01  0.51100000000E-03 0. -1.
        -11    1    4    4    0    0  0.13033683877E+01  0.78558912229E+01 -0.63573384020E+01  0.10189678497E+02  0.51100000000E-03 0.  1.
         12    1    4    4    0    0  0.78441850629E+01 -0.14912395970E+02 -0.30690773607E+02  0.35011917649E+02  0.00000000000E+00 0. -1.
</event>
<event>
 8    1  0.1265908E-006  0.9118800E+02  0.7816164E-02  0.1184000E+00
        -11   -1    0    0    0    0  0.00000000000E+00  0.00000000000E+00  0.45593999997E+02  0.45594000000E+02  0.51100000000E-03 0.  1.
         11   -1    0    0    0    0 -0.00000000000E+00 -0.00000000000E+00 -0.45593999997E+02  0.45594000000E+02  0.51100000000E-03 0. -1.
         23    2    1    2    0    0 -0.88817841970E-15  0.00000000000E+00 -0.35527136788E-14  0.91188000000E+02  0.91188000000E+02 0.  0.
    9900012    2    3    3    0    0  0.21151011131E+01  0.19721484019E+02 -0.31022081583E+02  0.54367080262E+02  0.39999991074E+02 0.  0.
        -12    1    3    3    0    0 -0.21151011131E+01 -0.19721484019E+02  0.31022081583E+02  0.36820919738E+02  0.00000000000E+00 0.  1.
         11    1    4    4    0    0 -0.10222028455E+02  0.17810835256E+02 -0.24443814489E+02  0.31925159127E+02  0.51100000000E-03 0. -1.
        -11    1    4    4    0    0  0.14443801885E+02  0.68681025293E+01 -0.57300236694E+01  0.16989038135E+02  0.51100000000E-03 0.  1.
         12    1    4    4    0    0 -0.21066723171E+01 -0.49574537669E+01 -0.84824342375E+00  0.54528829997E+01  0.00000000000E+00 0. -1.
</event>
<event>
 8    1  0.1265908E-006  0.9118800E+02  0.7816164E-02  0.1184000E+00
        -11   -1    0    0    0    0  0.00000000000E+00  0.00000000000E+00  0.45593999997E+02  0.45594000000E+02  0.51100000000E-03 0. -1.
         11   -1    0    0    0    0 -0.00000000000E+00 -0.00000000000E+00 -0.45593999997E+02  0.45594000000E+02  0.51100000000E-03 0.  1.
         23    2    1    2    0    0  0.00000000000E+00  0.35527136788E-14 -0.44408920985E-15  0.91188000000E+02  0.91188000000E+02 0.  0.
    9900012    2    3    3    0    0  0.18342494730E+02  0.31906507244E+02  0.11435374529E+01  0.54367082096E+02  0.39999995254E+02 0.  0.
         12    1    3    3    0    0 -0.18342494730E+02 -0.31906507244E+02 -0.11435374529E+01  0.36820917904E+02  0.00000000000E+00 0. -1.
         11    1    4    4    0    0  0.20461744382E+02  0.17043019251E+01  0.42839725900E+01  0.20974747904E+02  0.51100000000E-03 0. -1.
        -11    1    4    4    0    0  0.58200576667E+01  0.14778271993E+02 -0.10176252880E+01  0.15915588454E+02  0.51100000000E-03 0.  1.
        -12    1    4    4    0    0 -0.79393073194E+01  0.15423933326E+02 -0.21228098491E+01  0.17476745738E+02  0.00000000000E+00 0.  1.
</event>
<event>
 8    1  0.1265908E-006  0.9118800E+02  0.7816164E-02  0.1184000E+00
        -11   -1    0    0    0    0  0.00000000000E+00  0.00000000000E+00  0.45593999997E+02  0.45594000000E+02  0.51100000000E-03 0.  1.
         11   -1    0    0    0    0 -0.00000000000E+00 -0.00000000000E+00 -0.45593999997E+02  0.45594000000E+02  0.51100000000E-03 0. -1.
         23    2    1    2    0    0  0.00000000000E+00  0.00000000000E+00 -0.88817841970E-15  0.91188000000E+02  0.91188000000E+02 0.  0.
    9900012    2    3    3    0    0 -0.33985603394E+02 -0.13337439924E+02  0.47823627735E+01  0.54367088339E+02  0.40000009487E+02 0.  0.
        -12    1    3    3    0    0  0.33985603394E+02  0.13337439924E+02 -0.47823627735E+01  0.36820911661E+02  0.00000000000E+00 0.  1.
         11    1    4    4    0    0 -0.17097109152E+02 -0.45485092727E+01  0.90367695650E+01  0.19866134057E+02  0.51100000000E-03 0. -1.
        -11    1    4    4    0    0  0.57088590730E+00  0.85269309140E+01  0.26721012146E+01  0.89540262839E+01  0.51100000000E-03 0.  1.
         12    1    4    4    0    0 -0.17459380150E+02 -0.17315861566E+02 -0.69265080060E+01  0.25546927998E+02  0.00000000000E+00 0. -1.
</event>
<event>
 8    1  0.1265908E-006  0.9118800E+02  0.7816164E-02  0.1184000E+00
        -11   -1    0    0    0    0  0.00000000000E+00  0.00000000000E+00  0.45593999997E+02  0.45594000000E+02  0.51100000000E-03 0.  1.
         11   -1    0    0    0    0 -0.00000000000E+00 -0.00000000000E+00 -0.45593999997E+02  0.45594000000E+02  0.51100000000E-03 0. -1.
         23    2    1    2    0    0  0.00000000000E+00 -0.35527136788E-14  0.00000000000E+00  0.91188000000E+02  0.91188000000E+02 0.  0.
    9900012    2    3    3    0    0 -0.24194863889E+02 -0.20715655579E+02 -0.18472942838E+02  0.54367089612E+02  0.40000012388E+02 0.  0.
        -12    1    3    3    0    0  0.24194863889E+02  0.20715655579E+02  0.18472942838E+02  0.36820910388E+02  0.00000000000E+00 0.  1.
         11    1    4    4    0    0 -0.17249673132E+02 -0.21738317569E+02 -0.21322940756E+02  0.34996763803E+02  0.51100000000E-03 0. -1.
        -11    1    4    4    0    0  0.54580892073E+01  0.27062911829E+01  0.31320010278E+01  0.68501226602E+01  0.51100000000E-03 0.  1.
         12    1    4    4    0    0 -0.12403279965E+02 -0.16836291931E+01 -0.28200310963E+00  0.12520203149E+02  0.00000000000E+00 0. -1.
</event>
<event>
 8    1  0.1265908E-006  0.9118800E+02  0.7816164E-02  0.1184000E+00
        -11   -1    0    0    0    0  0.00000000000E+00  0.00000000000E+00  0.45593999997E+02  0.45594000000E+02  0.51100000000E-03 0. -1.
         11   -1    0    0    0    0 -0.00000000000E+00 -0.00000000000E+00 -0.45593999997E+02  0.45594000000E+02  0.51100000000E-03 0.  1.
         23    2    1    2    0    0  0.00000000000E+00  0.00000000000E+00  0.35527136788E-14  0.91188000000E+02  0.91188000000E+02 0.  0.
    9900012    2    3    3    0    0 -0.12594545143E+02 -0.24689333810E+02 -0.24240309935E+02  0.54367103799E+02  0.40000044730E+02 0.  0.
         12    1    3    3    0    0  0.12594545143E+02  0.24689333810E+02  0.24240309935E+02  0.36820896201E+02  0.00000000000E+00 0. -1.
         11    1    4    4    0    0 -0.23766294366E+01 -0.16332182508E+02 -0.15582751961E+02  0.22698253499E+02  0.51100000000E-03 0. -1.
        -11    1    4    4    0    0 -0.24386400469E+01 -0.19557219703E+01 -0.17795199610E+02  0.18067676749E+02  0.51100000000E-03 0.  1.
         12    1    4    4    0    0 -0.77792756597E+01 -0.64014293320E+01  0.91376416363E+01  0.13601173551E+02  0.00000000000E+00 0. -1.
</event>
<event>
 8    1  0.1265908E-006  0.9118800E+02  0.7816164E-02  0.1184000E+00
        -11   -1    0    0    0    0  0.00000000000E+00  0.00000000000E+00  0.45593999997E+02  0.45594000000E+02  0.51100000000E-03 0. -1.
         11   -1    0    0    0    0 -0.00000000000E+00 -0.00000000000E+00 -0.45593999997E+02  0.45594000000E+02  0.51100000000E-03 0.  1.
         23    2    1    2    0    0  0.35527136788E-14 -0.17763568394E-14  0.00000000000E+00  0.91188000000E+02  0.91188000000E+02 0.  0.
    9900012    2    3    3    0    0  0.31892855239E+02  0.16271184166E+01  0.18329701391E+02  0.54367086341E+02  0.40000004931E+02 0.  0.
         12    1    3    3    0    0 -0.31892855239E+02 -0.16271184166E+01 -0.18329701391E+02  0.36820913659E+02  0.00000000000E+00 0. -1.
         11    1    4    4    0    0  0.97340432449E+01  0.78838432701E+01  0.21187811431E+02  0.24613612821E+02  0.51100000000E-03 0. -1.
        -11    1    4    4    0    0  0.12993655987E+02 -0.12258320397E+02  0.15803616191E+01  0.17933183152E+02  0.51100000000E-03 0.  1.
        -12    1    4    4    0    0  0.91651560072E+01  0.60015955433E+01 -0.44384716592E+01  0.11820290368E+02  0.00000000000E+00 0.  1.
</event>
<event>
 8    1  0.1265908E-006  0.9118800E+02  0.7816164E-02  0.1184000E+00
        -11   -1    0    0    0    0  0.00000000000E+00  0.00000000000E+00  0.45593999997E+02  0.45594000000E+02  0.51100000000E-03 0.  1.
         11   -1    0    0    0    0 -0.00000000000E+00 -0.00000000000E+00 -0.45593999997E+02  0.45594000000E+02  0.51100000000E-03 0. -1.
         23    2    1    2    0    0  0.00000000000E+00 -0.22204460493E-15  0.00000000000E+00  0.91188000000E+02  0.91188000000E+02 0.  0.
    9900012    2    3    3    0    0  0.35228258130E+02  0.17638737969E+01 -0.10565865121E+02  0.54367096597E+02  0.40000028312E+02 0.  0.
        -12    1    3    3    0    0 -0.35228258130E+02 -0.17638737969E+01  0.10565865121E+02  0.36820903403E+02  0.00000000000E+00 0.  1.
         11    1    4    4    0    0  0.21790940631E+01 -0.34063173046E+01  0.26321727381E-01  0.40437781356E+01  0.51100000000E-03 0. -1.
        -11    1    4    4    0    0 -0.71815145629E+01  0.12588020288E+01 -0.63723640371E+01  0.96832720528E+01  0.51100000000E-03 0.  1.
        -12    1    4    4    0    0  0.40230678630E+02  0.39113890726E+01 -0.42198228109E+01  0.40640046409E+02  0.00000000000E+00 0.  1.
</event>
<event>
 8    1  0.1265908E-006  0.9118800E+02  0.7816164E-02  0.1184000E+00
        -11   -1    0    0    0    0  0.00000000000E+00  0.00000000000E+00  0.45593999997E+02  0.45594000000E+02  0.51100000000E-03 0.  1.
         11   -1    0    0    0    0 -0.00000000000E+00 -0.00000000000E+00 -0.45593999997E+02  0.45594000000E+02  0.51100000000E-03 0. -1.
         23    2    1    2    0    0 -0.88817841970E-15  0.00000000000E+00  0.35527136788E-14  0.91188000000E+02  0.91188000000E+02 0.  0.
    9900012    2    3    3    0    0  0.75822447804E+01  0.21602827238E+02 -0.28837804651E+02  0.54366925088E+02  0.39999637321E+02 0.  0.
        -12    1    3    3    0    0 -0.75822447804E+01 -0.21602827238E+02  0.28837804651E+02  0.36821074912E+02  0.00000000000E+00 0.  1.
         11    1    4    4    0    0 -0.80622825778E+01  0.44603809200E+01 -0.10863296370E+02  0.14244529006E+02  0.51100000000E-03 0. -1.
        -11    1    4    4    0    0  0.16472500242E+02  0.23740674677E+02 -0.12395851034E+02  0.31442328499E+02  0.51100000000E-03 0.  1.
        -12    1    4    4    0    0 -0.82797288374E+00 -0.65982283585E+01 -0.55786572470E+01  0.86800675831E+01  0.00000000000E+00 0.  1.
</event>
<event>
 8    1  0.1265908E-006  0.9118800E+02  0.7816164E-02  0.1184000E+00
        -11   -1    0    0    0    0  0.00000000000E+00  0.00000000000E+00  0.45593999997E+02  0.45594000000E+02  0.51100000000E-03 0. -1.
         11   -1    0    0    0    0 -0.00000000000E+00 -0.00000000000E+00 -0.45593999997E+02  0.45594000000E+02  0.51100000000E-03 0.  1.
         23    2    1    2    0    0  0.00000000000E+00 -0.44408920985E-15  0.00000000000E+00  0.91188000000E+02  0.91188000000E+02 0.  0.
    9900012    2    3    3    0    0 -0.27670587494E+02  0.38011113720E+01 -0.23993156328E+02  0.54367062879E+02  0.39999951445E+02 0.  0.
         12    1    3    3    0    0  0.27670587494E+02 -0.38011113720E+01  0.23993156328E+02  0.36820937121E+02  0.00000000000E+00 0. -1.
         11    1    4    4    0    0 -0.20353809364E+02  0.13730189813E+01 -0.52100652972E+01  0.21054869209E+02  0.51100000000E-03 0. -1.
        -11    1    4    4    0    0  0.61167270273E+01 -0.40281706839E+01  0.21337065223E+01  0.76284475727E+01  0.51100000000E-03 0.  1.
        -12    1    4    4    0    0 -0.13433505157E+02  0.64562630745E+01 -0.20916797553E+02  0.25683746097E+02  0.00000000000E+00 0.  1.
</event>
<event>
 8    1  0.1265908E-006  0.9118800E+02  0.7816164E-02  0.1184000E+00
        -11   -1    0    0    0    0  0.00000000000E+00  0.00000000000E+00  0.45593999997E+02  0.45594000000E+02  0.51100000000E-03 0. -1.
         11   -1    0    0    0    0 -0.00000000000E+00 -0.00000000000E+00 -0.45593999997E+02  0.45594000000E+02  0.51100000000E-03 0.  1.
         23    2    1    2    0    0  0.00000000000E+00 -0.88817841970E-15 -0.17763568394E-14  0.91188000000E+02  0.91188000000E+02 0.  0.
    9900012    2    3    3    0    0 -0.33293698610E+02  0.71208864353E+01  0.14021478086E+02  0.54367092373E+02  0.40000018684E+02 0.  0.
        -12    1    3    3    0    0  0.33293698610E+02 -0.71208864353E+01 -0.14021478086E+02  0.36820907627E+02  0.00000000000E+00 0.  1.
         11    1    4    4    0    0  0.54433077927E+01  0.57650884076E+01  0.30674369984E+01  0.85014712888E+01  0.51100000000E-03 0. -1.
        -11    1    4    4    0    0 -0.20499968657E+02  0.58495749565E+01 -0.42049414409E+01  0.21728961661E+02  0.51100000000E-03 0.  1.
         12    1    4    4    0    0 -0.18237037746E+02 -0.44937769288E+01  0.15158982528E+02  0.24136659423E+02  0.00000000000E+00 0. -1.
</event>
<event>
 8    1  0.1265908E-006  0.9118800E+02  0.7816164E-02  0.1184000E+00
        -11   -1    0    0    0    0  0.00000000000E+00  0.00000000000E+00  0.45593999997E+02  0.45594000000E+02  0.51100000000E-03 0. -1.
         11   -1    0    0    0    0 -0.00000000000E+00 -0.00000000000E+00 -0.45593999997E+02  0.45594000000E+02  0.51100000000E-03 0.  1.
         23    2    1    2    0    0  0.00000000000E+00  0.00000000000E+00  0.88817841970E-15  0.91188000000E+02  0.91188000000E+02 0.  0.
    9900012    2    3    3    0    0  0.32447556236E+02  0.15873281745E+02  0.71396766229E+01  0.54367082557E+02  0.39999996306E+02 0.  0.
        -12    1    3    3    0    0 -0.32447556236E+02 -0.15873281745E+02 -0.71396766229E+01  0.36820917443E+02  0.00000000000E+00 0.  1.
         11    1    4    4    0    0  0.13674670217E+02 -0.77365872499E+01  0.15872318447E+02  0.22333425196E+02  0.51100000000E-03 0. -1.
        -11    1    4    4    0    0  0.26249781877E+01  0.69857089114E+01 -0.65828365390E+00  0.74915937630E+01  0.51100000000E-03 0.  1.
         12    1    4    4    0    0  0.16147907831E+02  0.16624160083E+02 -0.80743581706E+01  0.24542063598E+02  0.00000000000E+00 0. -1.
</event>
<event>
 8    1  0.1265908E-006  0.9118800E+02  0.7816164E-02  0.1184000E+00
        -11   -1    0    0    0    0  0.00000000000E+00  0.00000000000E+00  0.45593999997E+02  0.45594000000E+02  0.51100000000E-03 0.  1.
         11   -1    0    0    0    0 -0.00000000000E+00 -0.00000000000E+00 -0.45593999997E+02  0.45594000000E+02  0.51100000000E-03 0. -1.
         23    2    1    2    0    0  0.71054273576E-14  0.88817841970E-15  0.35527136788E-14  0.91188000000E+02  0.91188000000E+02 0.  0.
    9900012    2    3    3    0    0  0.32232795368E+02  0.46416219459E+01  0.17183797366E+02  0.54367073294E+02  0.39999975189E+02 0.  0.
         12    1    3    3    0    0 -0.32232795368E+02 -0.46416219459E+01 -0.17183797366E+02  0.36820926706E+02  0.00000000000E+00 0. -1.
         11    1    4    4    0    0  0.29015811048E+02  0.20063995433E+01  0.10768966651E+02  0.31014731547E+02  0.51100000000E-03 0. -1.
        -11    1    4    4    0    0 -0.71024687603E+00  0.53874565636E+01  0.13638802786E+02  0.14681487682E+02  0.51100000000E-03 0.  1.
        -12    1    4    4    0    0  0.39272311959E+01 -0.27522341610E+01 -0.72239720712E+01  0.86708540657E+01  0.00000000000E+00 0.  1.
</event>
<event>
 8    1  0.1265908E-006  0.9118800E+02  0.7816164E-02  0.1184000E+00
        -11   -1    0    0    0    0  0.00000000000E+00  0.00000000000E+00  0.45593999997E+02  0.45594000000E+02  0.51100000000E-03 0.  1.
         11   -1    0    0    0    0 -0.00000000000E+00 -0.00000000000E+00 -0.45593999997E+02  0.45594000000E+02  0.51100000000E-03 0. -1.
         23    2    1    2    0    0 -0.88817841970E-15  0.00000000000E+00  0.00000000000E+00  0.91188000000E+02  0.91188000000E+02 0.  0.
    9900012    2    3    3    0    0 -0.77403196170E+01 -0.17318786242E+02 -0.31558306209E+02  0.54367087525E+02  0.40000007631E+02 0.  0.
        -12    1    3    3    0    0  0.77403196170E+01  0.17318786242E+02  0.31558306209E+02  0.36820912475E+02  0.00000000000E+00 0.  1.
         11    1    4    4    0    0 -0.16323949654E+02 -0.14184967703E+02 -0.14748729226E+02  0.26176509604E+02  0.51100000000E-03 0. -1.
        -11    1    4    4    0    0  0.67668369210E+01 -0.11028534905E+02 -0.50043312079E+01  0.13873067259E+02  0.51100000000E-03 0.  1.
         12    1    4    4    0    0  0.18167931160E+01  0.78947163662E+01 -0.11805245776E+02  0.14317510662E+02  0.00000000000E+00 0. -1.
</event>
<event>
 8    1  0.1265908E-006  0.9118800E+02  0.7816164E-02  0.1184000E+00
        -11   -1    0    0    0    0  0.00000000000E+00  0.00000000000E+00  0.45593999997E+02  0.45594000000E+02  0.51100000000E-03 0.  1.
         11   -1    0    0    0    0 -0.00000000000E+00 -0.00000000000E+00 -0.45593999997E+02  0.45594000000E+02  0.51100000000E-03 0. -1.
         23    2    1    2    0    0  0.17763568394E-14  0.17763568394E-14  0.00000000000E+00  0.91188000000E+02  0.91188000000E+02 0.  0.
    9900012    2    3    3    0    0 -0.12936423578E+02 -0.12644737836E+02 -0.32070852809E+02  0.54367081356E+02  0.39999993567E+02 0.  0.
        -12    1    3    3    0    0  0.12936423578E+02  0.12644737836E+02  0.32070852809E+02  0.36820918644E+02  0.00000000000E+00 0.  1.
         11    1    4    4    0    0 -0.85970991953E+01 -0.17618018263E+02 -0.10770588058E+02  0.22367616088E+02  0.51100000000E-03 0. -1.
        -11    1    4    4    0    0 -0.95644730137E+01  0.63016043412E+01 -0.23526551743E+02  0.26166543495E+02  0.51100000000E-03 0.  1.
        -12    1    4    4    0    0  0.52251486312E+01 -0.13283239137E+01  0.22262869921E+01  0.58329217729E+01  0.00000000000E+00 0.  1.
</event>
<event>
 8    1  0.1265908E-006  0.9118800E+02  0.7816164E-02  0.1184000E+00
        -11   -1    0    0    0    0  0.00000000000E+00  0.00000000000E+00  0.45593999997E+02  0.45594000000E+02  0.51100000000E-03 0.  1.
         11   -1    0    0    0    0 -0.00000000000E+00 -0.00000000000E+00 -0.45593999997E+02  0.45594000000E+02  0.51100000000E-03 0. -1.
         23    2    1    2    0    0 -0.17763568394E-14  0.00000000000E+00  0.00000000000E+00  0.91188000000E+02  0.91188000000E+02 0.  0.
    9900012    2    3    3    0    0  0.96463816561E+01  0.87127229241E+01  0.34450187199E+02  0.54367087221E+02  0.40000006938E+02 0.  0.
         12    1    3    3    0    0 -0.96463816561E+01 -0.87127229241E+01 -0.34450187199E+02  0.36820912779E+02  0.00000000000E+00 0. -1.
         11    1    4    4    0    0 -0.13203050792E+02 -0.36702244490E+01  0.15297131121E+02  0.20537607420E+02  0.51100000000E-03 0.  1.
        -11    1    4    4    0    0  0.45617404506E+01  0.77926942889E+01  0.63141556028E+01  0.11018353845E+02  0.51100000000E-03 0. -1.
        -12    1    4    4    0    0  0.18287691998E+02  0.45902530842E+01  0.12838900475E+02  0.22811125956E+02  0.00000000000E+00 0.  1.
</event>
<event>
 8    1  0.1265908E-006  0.9118800E+02  0.7816164E-02  0.1184000E+00
        -11   -1    0    0    0    0  0.00000000000E+00  0.00000000000E+00  0.45593999997E+02  0.45594000000E+02  0.51100000000E-03 0. -1.
         11   -1    0    0    0    0 -0.00000000000E+00 -0.00000000000E+00 -0.45593999997E+02  0.45594000000E+02  0.51100000000E-03 0.  1.
         23    2    1    2    0    0  0.00000000000E+00 -0.44408920985E-15  0.71054273576E-14  0.91188000000E+02  0.91188000000E+02 0.  0.
    9900012    2    3    3    0    0  0.12999188750E+02 -0.26500812727E+01  0.34347899759E+02  0.54367081261E+02  0.39999993351E+02 0.  0.
        -12    1    3    3    0    0 -0.12999188750E+02  0.26500812727E+01 -0.34347899759E+02  0.36820918739E+02  0.00000000000E+00 0.  1.
         11    1    4    4    0    0  0.18078928370E+02 -0.65030116919E+01  0.77063090610E+01  0.20700821522E+02  0.51100000000E-03 0. -1.
        -11    1    4    4    0    0  0.38469441090E+01  0.38673482929E+01 -0.11891678790E+00  0.54561436253E+01  0.51100000000E-03 0.  1.
        -12    1    4    4    0    0 -0.89266837285E+01 -0.14417873805E-01  0.26760507486E+02  0.28210116114E+02  0.00000000000E+00 0.  1.
</event>
<event>
 8    1  0.1265908E-006  0.9118800E+02  0.7816164E-02  0.1184000E+00
        -11   -1    0    0    0    0  0.00000000000E+00  0.00000000000E+00  0.45593999997E+02  0.45594000000E+02  0.51100000000E-03 0. -1.
         11   -1    0    0    0    0 -0.00000000000E+00 -0.00000000000E+00 -0.45593999997E+02  0.45594000000E+02  0.51100000000E-03 0.  1.
         23    2    1    2    0    0  0.00000000000E+00  0.88817841970E-15  0.00000000000E+00  0.91188000000E+02  0.91188000000E+02 0.  0.
    9900012    2    3    3    0    0 -0.35392551835E+02 -0.12750509930E+01 -0.10075954234E+02  0.54367036757E+02  0.39999891895E+02 0.  0.
         12    1    3    3    0    0  0.35392551835E+02  0.12750509930E+01  0.10075954234E+02  0.36820963243E+02  0.00000000000E+00 0. -1.
         11    1    4    4    0    0 -0.28690124973E+02  0.13249002037E+02 -0.16805114037E+02  0.35792054761E+02  0.51100000000E-03 0. -1.
        -11    1    4    4    0    0 -0.58067933625E+01 -0.10418958537E+02  0.17429261067E+01  0.12054515246E+02  0.51100000000E-03 0.  1.
         12    1    4    4    0    0 -0.89563349934E+00 -0.41050944927E+01  0.49862336963E+01  0.65204667497E+01  0.00000000000E+00 0. -1.
</event>
<event>
 8    1  0.1265908E-006  0.9118800E+02  0.7816164E-02  0.1184000E+00
        -11   -1    0    0    0    0  0.00000000000E+00  0.00000000000E+00  0.45593999997E+02  0.45594000000E+02  0.51100000000E-03 0.  1.
         11   -1    0    0    0    0 -0.00000000000E+00 -0.00000000000E+00 -0.45593999997E+02  0.45594000000E+02  0.51100000000E-03 0. -1.
         23    2    1    2    0    0  0.00000000000E+00  0.00000000000E+00  0.00000000000E+00  0.91188000000E+02  0.91188000000E+02 0.  0.
    9900012    2    3    3    0    0  0.75942449074E+01 -0.34810704678E+02 -0.92909724540E+01  0.54367083593E+02  0.39999998667E+02 0.  0.
        -12    1    3    3    0    0 -0.75942449074E+01  0.34810704678E+02  0.92909724540E+01  0.36820916407E+02  0.00000000000E+00 0.  1.
         11    1    4    4    0    0  0.12950000503E+02 -0.13218011203E+02 -0.75888637125E+01  0.20000229646E+02  0.51100000000E-03 0. -1.
        -11    1    4    4    0    0 -0.47118682846E+01 -0.22414892586E+02 -0.10719589793E+02  0.25289102751E+02  0.51100000000E-03 0.  1.
        -12    1    4    4    0    0 -0.64388731147E+00  0.82219911058E+00  0.90174810517E+01  0.90777511954E+01  0.00000000000E+00 0.  1.
</event>
<event>
 8    1  0.1265908E-006  0.9118800E+02  0.7816164E-02  0.1184000E+00
        -11   -1    0    0    0    0  0.00000000000E+00  0.00000000000E+00  0.45593999997E+02  0.45594000000E+02  0.51100000000E-03 0.  1.
         11   -1    0    0    0    0 -0.00000000000E+00 -0.00000000000E+00 -0.45593999997E+02  0.45594000000E+02  0.51100000000E-03 0. -1.
         23    2    1    2    0    0 -0.17763568394E-14  0.00000000000E+00 -0.35527136788E-14  0.91188000000E+02  0.91188000000E+02 0.  0.
    9900012    2    3    3    0    0 -0.13559815523E+02 -0.17485324783E+02 -0.29430831877E+02  0.54367095004E+02  0.40000024680E+02 0.  0.
        -12    1    3    3    0    0  0.13559815523E+02  0.17485324783E+02  0.29430831877E+02  0.36820904996E+02  0.00000000000E+00 0.  1.
         11    1    4    4    0    0 -0.14493412812E+02 -0.15195687809E+02 -0.10419223213E+02  0.23442016883E+02  0.51100000000E-03 0. -1.
        -11    1    4    4    0    0  0.32664034238E+01  0.12257164296E+01  0.52477230129E+01  0.63016163938E+01  0.51100000000E-03 0.  1.
        -12    1    4    4    0    0 -0.23328061346E+01 -0.35153534040E+01 -0.24259331677E+02  0.24623461727E+02  0.00000000000E+00 0.  1.
</event>
<event>
 8    1  0.1265908E-006  0.9118800E+02  0.7816164E-02  0.1184000E+00
        -11   -1    0    0    0    0  0.00000000000E+00  0.00000000000E+00  0.45593999997E+02  0.45594000000E+02  0.51100000000E-03 0.  1.
         11   -1    0    0    0    0 -0.00000000000E+00 -0.00000000000E+00 -0.45593999997E+02  0.45594000000E+02  0.51100000000E-03 0. -1.
         23    2    1    2    0    0  0.00000000000E+00  0.00000000000E+00 -0.88817841970E-15  0.91188000000E+02  0.91188000000E+02 0.  0.
    9900012    2    3    3    0    0  0.54656655448E+01 -0.35970423437E+02 -0.56598748610E+01  0.54367094993E+02  0.40000024655E+02 0.  0.
         12    1    3    3    0    0 -0.54656655448E+01  0.35970423437E+02  0.56598748610E+01  0.36820905007E+02  0.00000000000E+00 0. -1.
         11    1    4    4    0    0  0.12082871458E+02 -0.10977241395E+02  0.44972729142E+01  0.16932840141E+02  0.51100000000E-03 0. -1.
        -11    1    4    4    0    0 -0.10403137247E+02 -0.23099716567E+02  0.11504376548E+01  0.25360316976E+02  0.51100000000E-03 0.  1.
         12    1    4    4    0    0  0.37859313330E+01 -0.18934654751E+01 -0.11307585430E+02  0.12073937875E+02  0.00000000000E+00 0. -1.
</event>
<event>
 8    1  0.1265908E-006  0.9118800E+02  0.7816164E-02  0.1184000E+00
        -11   -1    0    0    0    0  0.00000000000E+00  0.00000000000E+00  0.45593999997E+02  0.45594000000E+02  0.51100000000E-03 0.  1.
         11   -1    0    0    0    0 -0.00000000000E+00 -0.00000000000E+00 -0.45593999997E+02  0.45594000000E+02  0.51100000000E-03 0. -1.
         23    2    1    2    0    0  0.00000000000E+00  0.00000000000E+00  0.00000000000E+00  0.91188000000E+02  0.91188000000E+02 0.  0.
    9900012    2    3    3    0    0 -0.10852748298E+02 -0.27344381091E+02  0.22142315389E+02  0.54367089451E+02  0.40000012022E+02 0.  0.
         12    1    3    3    0    0  0.10852748298E+02  0.27344381091E+02 -0.22142315389E+02  0.36820910549E+02  0.00000000000E+00 0. -1.
         11    1    4    4    0    0  0.45230345851E+01  0.16508786684E+01  0.79451412934E+01  0.92902374926E+01  0.51100000000E-03 0. -1.
        -11    1    4    4    0    0 -0.86591912340E+01 -0.17680453504E+02  0.22203346691E+02  0.29674376716E+02  0.51100000000E-03 0.  1.
        -12    1    4    4    0    0 -0.67165916491E+01 -0.11314806255E+02 -0.80061725956E+01  0.15402475243E+02  0.00000000000E+00 0.  1.
</event>
<event>
 8    1  0.1265908E-006  0.9118800E+02  0.7816164E-02  0.1184000E+00
        -11   -1    0    0    0    0  0.00000000000E+00  0.00000000000E+00  0.45593999997E+02  0.45594000000E+02  0.51100000000E-03 0. -1.
         11   -1    0    0    0    0 -0.00000000000E+00 -0.00000000000E+00 -0.45593999997E+02  0.45594000000E+02  0.51100000000E-03 0.  1.
         23    2    1    2    0    0 -0.66613381478E-15  0.71054273576E-14  0.17763568394E-14  0.91188000000E+02  0.91188000000E+02 0.  0.
    9900012    2    3    3    0    0  0.11265750341E+01  0.35734865119E+02  0.88051696974E+01  0.54367071579E+02  0.39999971279E+02 0.  0.
        -12    1    3    3    0    0 -0.11265750341E+01 -0.35734865119E+02 -0.88051696974E+01  0.36820928421E+02  0.00000000000E+00 0.  1.
         11    1    4    4    0    0  0.28111120914E+01  0.83151717183E+01  0.50874217234E+01  0.10145259580E+02  0.51100000000E-03 0. -1.
        -11    1    4    4    0    0 -0.84421121037E+01  0.33242766393E+02  0.64357338115E+01  0.34896553472E+02  0.51100000000E-03 0.  1.
        -12    1    4    4    0    0  0.67575750464E+01 -0.58230729931E+01 -0.27179858375E+01  0.93252585274E+01  0.00000000000E+00 0.  1.
</event>
<event>
 8    1  0.1265908E-006  0.9118800E+02  0.7816164E-02  0.1184000E+00
        -11   -1    0    0    0    0  0.00000000000E+00  0.00000000000E+00  0.45593999997E+02  0.45594000000E+02  0.51100000000E-03 0.  1.
         11   -1    0    0    0    0 -0.00000000000E+00 -0.00000000000E+00 -0.45593999997E+02  0.45594000000E+02  0.51100000000E-03 0. -1.
         23    2    1    2    0    0  0.00000000000E+00  0.22204460493E-15  0.17763568394E-14  0.91188000000E+02  0.91188000000E+02 0.  0.
    9900012    2    3    3    0    0  0.35131365543E+02 -0.14108963506E+01  0.10935092107E+02  0.54367085932E+02  0.40000003999E+02 0.  0.
         12    1    3    3    0    0 -0.35131365543E+02  0.14108963506E+01 -0.10935092107E+02  0.36820914068E+02  0.00000000000E+00 0. -1.
         11    1    4    4    0    0  0.99838938968E+01 -0.87745355113E+01  0.35981717067E+01  0.13770165238E+02  0.51100000000E-03 0. -1.
        -11    1    4    4    0    0  0.95772182573E+01 -0.32996735843E+01  0.16698584600E+02  0.19530839286E+02  0.51100000000E-03 0.  1.
        -12    1    4    4    0    0  0.15570253389E+02  0.10663312745E+02 -0.93616641999E+01  0.21066081408E+02  0.00000000000E+00 0.  1.
</event>
<event>
 8    1  0.1265908E-006  0.9118800E+02  0.7816164E-02  0.1184000E+00
        -11   -1    0    0    0    0  0.00000000000E+00  0.00000000000E+00  0.45593999997E+02  0.45594000000E+02  0.51100000000E-03 0.  1.
         11   -1    0    0    0    0 -0.00000000000E+00 -0.00000000000E+00 -0.45593999997E+02  0.45594000000E+02  0.51100000000E-03 0. -1.
         23    2    1    2    0    0  0.13322676296E-14  0.00000000000E+00  0.71054273576E-14  0.91188000000E+02  0.91188000000E+02 0.  0.
    9900012    2    3    3    0    0  0.27011073748E+01  0.17982766433E+02  0.32017233425E+02  0.54367094174E+02  0.40000022789E+02 0.  0.
         12    1    3    3    0    0 -0.27011073748E+01 -0.17982766433E+02 -0.32017233425E+02  0.36820905826E+02  0.00000000000E+00 0. -1.
         11    1    4    4    0    0  0.17879528523E+02  0.34685000213E+01  0.10059924653E+02  0.20806492181E+02  0.51100000000E-03 0. -1.
        -11    1    4    4    0    0 -0.53560693199E+00  0.15215853831E+01  0.11017859802E+02  0.11135319112E+02  0.51100000000E-03 0.  1.
        -12    1    4    4    0    0 -0.14642814217E+02  0.12992681028E+02  0.10939448971E+02  0.22425282881E+02  0.00000000000E+00 0.  1.
</event>
<event>
 8    1  0.1265908E-006  0.9118800E+02  0.7816164E-02  0.1184000E+00
        -11   -1    0    0    0    0  0.00000000000E+00  0.00000000000E+00  0.45593999997E+02  0.45594000000E+02  0.51100000000E-03 0.  1.
         11   -1    0    0    0    0 -0.00000000000E+00 -0.00000000000E+00 -0.45593999997E+02  0.45594000000E+02  0.51100000000E-03 0. -1.
         23    2    1    2    0    0  0.00000000000E+00  0.00000000000E+00  0.00000000000E+00  0.91188000000E+02  0.91188000000E+02 0.  0.
    9900012    2    3    3    0    0 -0.87483570711E+01  0.18275049568E+02  0.30745323689E+02  0.54366998970E+02  0.39999805751E+02 0.  0.
         12    1    3    3    0    0  0.87483570711E+01 -0.18275049568E+02 -0.30745323689E+02  0.36821001030E+02  0.00000000000E+00 0. -1.
         11    1    4    4    0    0 -0.17463078367E+01  0.11506709738E+02  0.26380373875E+02  0.28833627696E+02  0.51100000000E-03 0.  1.
        -11    1    4    4    0    0 -0.12818689246E+01  0.14834492134E+02  0.47739726229E+01  0.15636372970E+02  0.51100000000E-03 0. -1.
         12    1    4    4    0    0 -0.57201803099E+01 -0.80661523038E+01 -0.40902280897E+00  0.98969983037E+01  0.00000000000E+00 0. -1.
</event>
<event>
 8    1  0.1265908E-006  0.9118800E+02  0.7816164E-02  0.1184000E+00
        -11   -1    0    0    0    0  0.00000000000E+00  0.00000000000E+00  0.45593999997E+02  0.45594000000E+02  0.51100000000E-03 0.  1.
         11   -1    0    0    0    0 -0.00000000000E+00 -0.00000000000E+00 -0.45593999997E+02  0.45594000000E+02  0.51100000000E-03 0. -1.
         23    2    1    2    0    0 -0.35527136788E-14 -0.12212453271E-14  0.00000000000E+00  0.91188000000E+02  0.91188000000E+02 0.  0.
    9900012    2    3    3    0    0 -0.25647595808E+02 -0.47982983883E+00 -0.26415010816E+02  0.54367052106E+02  0.39999926885E+02 0.  0.
        -12    1    3    3    0    0  0.25647595808E+02  0.47982983883E+00  0.26415010816E+02  0.36820947894E+02  0.00000000000E+00 0.  1.
         11    1    4    4    0    0 -0.27908138743E+02  0.90289223416E+01 -0.20795780610E+02  0.35956225305E+02  0.51100000000E-03 0. -1.
        -11    1    4    4    0    0  0.43488881469E+01 -0.75814029724E+01  0.30739267601E+01  0.92649622305E+01  0.51100000000E-03 0.  1.
         12    1    4    4    0    0 -0.20883452116E+01 -0.19273492080E+01 -0.86931569662E+01  0.91458645700E+01  0.00000000000E+00 0. -1.
</event>
<event>
 8    1  0.1265908E-006  0.9118800E+02  0.7816164E-02  0.1184000E+00
        -11   -1    0    0    0    0  0.00000000000E+00  0.00000000000E+00  0.45593999997E+02  0.45594000000E+02  0.51100000000E-03 0. -1.
         11   -1    0    0    0    0 -0.00000000000E+00 -0.00000000000E+00 -0.45593999997E+02  0.45594000000E+02  0.51100000000E-03 0.  1.
         23    2    1    2    0    0  0.00000000000E+00  0.35527136788E-14  0.00000000000E+00  0.91188000000E+02  0.91188000000E+02 0.  0.
    9900012    2    3    3    0    0 -0.17063481389E+02  0.25445807619E+02 -0.20423730187E+02  0.54367078267E+02  0.39999986526E+02 0.  0.
        -12    1    3    3    0    0  0.17063481389E+02 -0.25445807619E+02  0.20423730187E+02  0.36820921733E+02  0.00000000000E+00 0.  1.
         11    1    4    4    0    0 -0.12886622163E+02  0.60945857649E+01  0.67486016234E+01  0.15771893689E+02  0.51100000000E-03 0. -1.
        -11    1    4    4    0    0 -0.61819667477E+01  0.57467275071E+00 -0.14719875138E+02  0.15975659172E+02  0.51100000000E-03 0.  1.
         12    1    4    4    0    0  0.20051075220E+01  0.18776549103E+02 -0.12452456673E+02  0.22619525406E+02  0.00000000000E+00 0. -1.
</event>
<event>
 8    1  0.1265908E-006  0.9118800E+02  0.7816164E-02  0.1184000E+00
        -11   -1    0    0    0    0  0.00000000000E+00  0.00000000000E+00  0.45593999997E+02  0.45594000000E+02  0.51100000000E-03 0.  1.
         11   -1    0    0    0    0 -0.00000000000E+00 -0.00000000000E+00 -0.45593999997E+02  0.45594000000E+02  0.51100000000E-03 0. -1.
         23    2    1    2    0    0 -0.17763568394E-14 -0.17763568394E-14  0.00000000000E+00  0.91188000000E+02  0.91188000000E+02 0.  0.
    9900012    2    3    3    0    0 -0.61868391920E+01  0.14443832752E+02  0.33299789996E+02  0.54367118730E+02  0.40000078769E+02 0.  0.
         12    1    3    3    0    0  0.61868391920E+01 -0.14443832752E+02 -0.33299789996E+02  0.36820881270E+02  0.00000000000E+00 0. -1.
         11    1    4    4    0    0 -0.12102054545E+02 -0.82036677739E+01  0.19078194809E+02  0.24036168717E+02  0.51100000000E-03 0. -1.
        -11    1    4    4    0    0  0.21276882693E+01  0.21575603994E+02  0.14940329064E+02  0.26329587499E+02  0.51100000000E-03 0.  1.
         12    1    4    4    0    0  0.37875270836E+01  0.10718965312E+01 -0.71873387685E+00  0.40013625140E+01  0.00000000000E+00 0. -1.
</event>
<event>
 8    1  0.1265908E-006  0.9118800E+02  0.7816164E-02  0.1184000E+00
        -11   -1    0    0    0    0  0.00000000000E+00  0.00000000000E+00  0.45593999997E+02  0.45594000000E+02  0.51100000000E-03 0.  1.
         11   -1    0    0    0    0 -0.00000000000E+00 -0.00000000000E+00 -0.45593999997E+02  0.45594000000E+02  0.51100000000E-03 0. -1.
         23    2    1    2    0    0  0.00000000000E+00  0.00000000000E+00  0.00000000000E+00  0.91188000000E+02  0.91188000000E+02 0.  0.
    9900012    2    3    3    0    0  0.17513905191E+02 -0.31947568191E+02  0.53287631962E+01  0.54367086031E+02  0.40000004224E+02 0.  0.
         12    1    3    3    0    0 -0.17513905191E+02  0.31947568191E+02 -0.53287631962E+01  0.36820913969E+02  0.00000000000E+00 0. -1.
         11    1    4    4    0    0 -0.18705298577E+01 -0.59243566523E+00  0.32244049817E+01  0.37744734352E+01  0.51100000000E-03 0. -1.
        -11    1    4    4    0    0  0.45377338290E+01 -0.34890652497E+02 -0.13560830817E-01  0.35184497213E+02  0.51100000000E-03 0.  1.
        -12    1    4    4    0    0  0.14846701219E+02  0.35355199714E+01  0.21179190454E+01  0.15408115383E+02  0.00000000000E+00 0.  1.
</event>
<event>
 8    1  0.1265908E-006  0.9118800E+02  0.7816164E-02  0.1184000E+00
        -11   -1    0    0    0    0  0.00000000000E+00  0.00000000000E+00  0.45593999997E+02  0.45594000000E+02  0.51100000000E-03 0. -1.
         11   -1    0    0    0    0 -0.00000000000E+00 -0.00000000000E+00 -0.45593999997E+02  0.45594000000E+02  0.51100000000E-03 0.  1.
         23    2    1    2    0    0  0.35527136788E-14 -0.71054273576E-14  0.00000000000E+00  0.91188000000E+02  0.91188000000E+02 0.  0.
    9900012    2    3    3    0    0 -0.21256948120E+02  0.20227123909E+02 -0.22243768634E+02  0.54367087082E+02  0.40000006622E+02 0.  0.
         12    1    3    3    0    0  0.21256948120E+02 -0.20227123909E+02  0.22243768634E+02  0.36820912918E+02  0.00000000000E+00 0. -1.
         11    1    4    4    0    0 -0.87421943033E+00 -0.42858604919E+01  0.54770729199E+00  0.44082698768E+01  0.51100000000E-03 0. -1.
        -11    1    4    4    0    0 -0.10840575284E+02 -0.55439298923E+01 -0.10618520874E+02  0.16155686830E+02  0.51100000000E-03 0.  1.
        -12    1    4    4    0    0 -0.95421534063E+01  0.30056914294E+02 -0.12172955052E+02  0.33803130375E+02  0.00000000000E+00 0.  1.
</event>
<event>
 8    1  0.1265908E-006  0.9118800E+02  0.7816164E-02  0.1184000E+00
        -11   -1    0    0    0    0  0.00000000000E+00  0.00000000000E+00  0.45593999997E+02  0.45594000000E+02  0.51100000000E-03 0.  1.
         11   -1    0    0    0    0 -0.00000000000E+00 -0.00000000000E+00 -0.45593999997E+02  0.45594000000E+02  0.51100000000E-03 0. -1.
         23    2    1    2    0    0  0.00000000000E+00 -0.88817841970E-15  0.00000000000E+00  0.91188000000E+02  0.91188000000E+02 0.  0.
    9900012    2    3    3    0    0 -0.34185389373E+02 -0.69045585747E+01  0.11809534621E+02  0.54367097192E+02  0.40000029668E+02 0.  0.
        -12    1    3    3    0    0  0.34185389373E+02  0.69045585747E+01 -0.11809534621E+02  0.36820902808E+02  0.00000000000E+00 0.  1.
         11    1    4    4    0    0 -0.17382122529E+02 -0.89359550081E+01  0.24234677112E+01  0.19694229396E+02  0.51100000000E-03 0. -1.
        -11    1    4    4    0    0 -0.19764769418E+02  0.11705637477E+02  0.43805880568E+01  0.23384986869E+02  0.51100000000E-03 0.  1.
        -12    1    4    4    0    0  0.29615025741E+01 -0.96742410433E+01  0.50054788525E+01  0.11287880926E+02  0.00000000000E+00 0.  1.
</event>
<event>
 8    1  0.1265908E-006  0.9118800E+02  0.7816164E-02  0.1184000E+00
        -11   -1    0    0    0    0  0.00000000000E+00  0.00000000000E+00  0.45593999997E+02  0.45594000000E+02  0.51100000000E-03 0.  1.
         11   -1    0    0    0    0 -0.00000000000E+00 -0.00000000000E+00 -0.45593999997E+02  0.45594000000E+02  0.51100000000E-03 0. -1.
         23    2    1    2    0    0  0.13877787808E-15  0.00000000000E+00  0.00000000000E+00  0.91188000000E+02  0.91188000000E+02 0.  0.
    9900012    2    3    3    0    0  0.19295071745E+00  0.32078953434E+02 -0.18074390890E+02  0.54367080818E+02  0.39999992340E+02 0.  0.
        -12    1    3    3    0    0 -0.19295071745E+00 -0.32078953434E+02  0.18074390890E+02  0.36820919182E+02  0.00000000000E+00 0.  1.
         11    1    4    4    0    0  0.70366925855E+01  0.32913621575E+02 -0.23785352005E+02  0.41213644561E+02  0.51100000000E-03 0. -1.
        -11    1    4    4    0    0 -0.94564406315E-01 -0.28643713910E+00 -0.24956807612E+01  0.25138439459E+01  0.51100000000E-03 0.  1.
         12    1    4    4    0    0 -0.67491774617E+01 -0.54823100198E+00  0.82066418770E+01  0.10639592311E+02  0.00000000000E+00 0. -1.
</event>
<event>
 8    1  0.1265908E-006  0.9118800E+02  0.7816164E-02  0.1184000E+00
        -11   -1    0    0    0    0  0.00000000000E+00  0.00000000000E+00  0.45593999997E+02  0.45594000000E+02  0.51100000000E-03 0.  1.
         11   -1    0    0    0    0 -0.00000000000E+00 -0.00000000000E+00 -0.45593999997E+02  0.45594000000E+02  0.51100000000E-03 0. -1.
         23    2    1    2    0    0  0.00000000000E+00  0.00000000000E+00  0.00000000000E+00  0.91188000000E+02  0.91188000000E+02 0.  0.
    9900012    2    3    3    0    0 -0.21118672517E+02 -0.21026267138E+02 -0.21625843929E+02  0.54367090665E+02  0.40000014789E+02 0.  0.
        -12    1    3    3    0    0  0.21118672517E+02  0.21026267138E+02  0.21625843929E+02  0.36820909335E+02  0.00000000000E+00 0.  1.
         11    1    4    4    0    0 -0.15007256557E+02 -0.10469237157E+02 -0.78320415640E+01  0.19903857700E+02  0.51100000000E-03 0. -1.
        -11    1    4    4    0    0  0.83298950901E+01 -0.14155624076E+02 -0.94961283164E+01  0.18972224394E+02  0.51100000000E-03 0.  1.
        -12    1    4    4    0    0 -0.14441311051E+02  0.35985940955E+01 -0.42976740485E+01  0.15491008571E+02  0.00000000000E+00 0.  1.
</event>
<event>
 8    1  0.1265908E-006  0.9118800E+02  0.7816164E-02  0.1184000E+00
        -11   -1    0    0    0    0  0.00000000000E+00  0.00000000000E+00  0.45593999997E+02  0.45594000000E+02  0.51100000000E-03 0. -1.
         11   -1    0    0    0    0 -0.00000000000E+00 -0.00000000000E+00 -0.45593999997E+02  0.45594000000E+02  0.51100000000E-03 0.  1.
         23    2    1    2    0    0  0.00000000000E+00  0.00000000000E+00  0.44408920985E-15  0.91188000000E+02  0.91188000000E+02 0.  0.
    9900012    2    3    3    0    0 -0.36432478353E+02  0.43434594483E+01 -0.30962405860E+01  0.54367111571E+02  0.40000062448E+02 0.  0.
        -12    1    3    3    0    0  0.36432478353E+02 -0.43434594483E+01  0.30962405860E+01  0.36820888429E+02  0.00000000000E+00 0.  1.
         11    1    4    4    0    0 -0.43093407966E+02 -0.17908491605E+01 -0.81036509096E+01  0.43885283515E+02  0.51100000000E-03 0. -1.
        -11    1    4    4    0    0  0.49077865035E+01  0.34700528234E+01  0.30564446020E+01  0.67431067637E+01  0.51100000000E-03 0.  1.
         12    1    4    4    0    0  0.17531431096E+01  0.26642557855E+01  0.19509657217E+01  0.37387212921E+01  0.00000000000E+00 0. -1.
</event>
<event>
 8    1  0.1265908E-006  0.9118800E+02  0.7816164E-02  0.1184000E+00
        -11   -1    0    0    0    0  0.00000000000E+00  0.00000000000E+00  0.45593999997E+02  0.45594000000E+02  0.51100000000E-03 0.  1.
         11   -1    0    0    0    0 -0.00000000000E+00 -0.00000000000E+00 -0.45593999997E+02  0.45594000000E+02  0.51100000000E-03 0. -1.
         23    2    1    2    0    0  0.00000000000E+00 -0.35527136788E-14 -0.17763568394E-14  0.91188000000E+02  0.91188000000E+02 0.  0.
    9900012    2    3    3    0    0  0.19583655722E+02 -0.26786404857E+02  0.15960860395E+02  0.54367080387E+02  0.39999991358E+02 0.  0.
         12    1    3    3    0    0 -0.19583655722E+02  0.26786404857E+02 -0.15960860395E+02  0.36820919613E+02  0.00000000000E+00 0. -1.
         11    1    4    4    0    0  0.34688302894E+01 -0.19466121091E+02  0.40985125885E+01  0.20193079498E+02  0.51100000000E-03 0. -1.
        -11    1    4    4    0    0  0.13396854588E+02 -0.85728485281E+01 -0.52906619771E+01  0.16761877853E+02  0.51100000000E-03 0.  1.
         12    1    4    4    0    0  0.27179708436E+01  0.12525647619E+01  0.17153009783E+02  0.17412123036E+02  0.00000000000E+00 0. -1.
</event>
<event>
 8    1  0.1265908E-006  0.9118800E+02  0.7816164E-02  0.1184000E+00
        -11   -1    0    0    0    0  0.00000000000E+00  0.00000000000E+00  0.45593999997E+02  0.45594000000E+02  0.51100000000E-03 0. -1.
         11   -1    0    0    0    0 -0.00000000000E+00 -0.00000000000E+00 -0.45593999997E+02  0.45594000000E+02  0.51100000000E-03 0.  1.
         23    2    1    2    0    0  0.17763568394E-14 -0.44408920985E-15 -0.71054273576E-14  0.91188000000E+02  0.91188000000E+02 0.  0.
    9900012    2    3    3    0    0  0.10770814386E+02  0.27858363731E+01 -0.35099936782E+02  0.54367124278E+02  0.40000091416E+02 0.  0.
         12    1    3    3    0    0 -0.10770814386E+02 -0.27858363731E+01  0.35099936782E+02  0.36820875722E+02  0.00000000000E+00 0. -1.
         11    1    4    4    0    0  0.10554142049E+02  0.15491842105E+02 -0.21564344184E+02  0.28572854714E+02  0.51100000000E-03 0. -1.
        -11    1    4    4    0    0  0.62394861103E+01  0.12034653745E+01 -0.64778060288E+01  0.90742210153E+01  0.51100000000E-03 0.  1.
        -12    1    4    4    0    0 -0.60228137730E+01 -0.13909471106E+02 -0.70577865692E+01  0.16720048548E+02  0.00000000000E+00 0.  1.
</event>
<event>
 8    1  0.1265908E-006  0.9118800E+02  0.7816164E-02  0.1184000E+00
        -11   -1    0    0    0    0  0.00000000000E+00  0.00000000000E+00  0.45593999997E+02  0.45594000000E+02  0.51100000000E-03 0.  1.
         11   -1    0    0    0    0 -0.00000000000E+00 -0.00000000000E+00 -0.45593999997E+02  0.45594000000E+02  0.51100000000E-03 0. -1.
         23    2    1    2    0    0  0.17763568394E-14  0.88817841970E-15  0.00000000000E+00  0.91188000000E+02  0.91188000000E+02 0.  0.
    9900012    2    3    3    0    0  0.10112198638E+02  0.50735751894E+01  0.35039717506E+02  0.54367088422E+02  0.40000009676E+02 0.  0.
         12    1    3    3    0    0 -0.10112198638E+02 -0.50735751894E+01 -0.35039717506E+02  0.36820911578E+02  0.00000000000E+00 0. -1.
         11    1    4    4    0    0 -0.84932491039E+00  0.84677327485E+01  0.57022595843E+00  0.85293029380E+01  0.51100000000E-03 0. -1.
        -11    1    4    4    0    0 -0.42557542394E+01 -0.12288585094E+01 -0.29921130428E+01  0.53454913810E+01  0.51100000000E-03 0.  1.
        -12    1    4    4    0    0  0.15217277788E+02 -0.21652990497E+01  0.37461604590E+02  0.40492294103E+02  0.00000000000E+00 0.  1.
</event>
<event>
 8    1  0.1265908E-006  0.9118800E+02  0.7816164E-02  0.1184000E+00
        -11   -1    0    0    0    0  0.00000000000E+00  0.00000000000E+00  0.45593999997E+02  0.45594000000E+02  0.51100000000E-03 0. -1.
         11   -1    0    0    0    0 -0.00000000000E+00 -0.00000000000E+00 -0.45593999997E+02  0.45594000000E+02  0.51100000000E-03 0.  1.
         23    2    1    2    0    0  0.00000000000E+00 -0.17763568394E-14  0.00000000000E+00  0.91188000000E+02  0.91188000000E+02 0.  0.
    9900012    2    3    3    0    0  0.84210705760E+01 -0.13684186764E+02  0.33130168461E+02  0.54367089375E+02  0.40000011848E+02 0.  0.
        -12    1    3    3    0    0 -0.84210705760E+01  0.13684186764E+02 -0.33130168461E+02  0.36820910625E+02  0.00000000000E+00 0.  1.
         11    1    4    4    0    0 -0.11001720085E+02  0.34194448045E+00  0.27356601334E+02  0.29487936646E+02  0.51100000000E-03 0. -1.
        -11    1    4    4    0    0  0.73856706714E+01 -0.73625360435E+01  0.28922258450E+01  0.10822201202E+02  0.51100000000E-03 0.  1.
         12    1    4    4    0    0  0.12037119989E+02 -0.66635952015E+01  0.28813412818E+01  0.14056951527E+02  0.00000000000E+00 0. -1.
</event>
<event>
 8    1  0.1265908E-006  0.9118800E+02  0.7816164E-02  0.1184000E+00
        -11   -1    0    0    0    0  0.00000000000E+00  0.00000000000E+00  0.45593999997E+02  0.45594000000E+02  0.51100000000E-03 0.  1.
         11   -1    0    0    0    0 -0.00000000000E+00 -0.00000000000E+00 -0.45593999997E+02  0.45594000000E+02  0.51100000000E-03 0. -1.
         23    2    1    2    0    0  0.00000000000E+00  0.11102230246E-14  0.00000000000E+00  0.91188000000E+02  0.91188000000E+02 0.  0.
    9900012    2    3    3    0    0 -0.17497950198E+02  0.11183899181E+01  0.32378246965E+02  0.54367082933E+02  0.39999997162E+02 0.  0.
         12    1    3    3    0    0  0.17497950198E+02 -0.11183899181E+01 -0.32378246965E+02  0.36820917067E+02  0.00000000000E+00 0. -1.
         11    1    4    4    0    0  0.22222755124E+01 -0.10697025082E+02  0.57503182545E+01  0.12346295572E+02  0.51100000000E-03 0. -1.
        -11    1    4    4    0    0 -0.14512176472E+02  0.10831760450E+02  0.36932113696E+01  0.18481615483E+02  0.51100000000E-03 0.  1.
        -12    1    4    4    0    0 -0.52080492386E+01  0.98365455072E+00  0.22934717341E+02  0.23539171877E+02  0.00000000000E+00 0.  1.
</event>
<event>
 8    1  0.1265908E-006  0.9118800E+02  0.7816164E-02  0.1184000E+00
        -11   -1    0    0    0    0  0.00000000000E+00  0.00000000000E+00  0.45593999997E+02  0.45594000000E+02  0.51100000000E-03 0. -1.
         11   -1    0    0    0    0 -0.00000000000E+00 -0.00000000000E+00 -0.45593999997E+02  0.45594000000E+02  0.51100000000E-03 0.  1.
         23    2    1    2    0    0 -0.35527136788E-14 -0.88817841970E-15  0.00000000000E+00  0.91188000000E+02  0.91188000000E+02 0.  0.
    9900012    2    3    3    0    0 -0.29828959069E+02  0.46496004257E+01 -0.21080615045E+02  0.54367110359E+02  0.40000059686E+02 0.  0.
         12    1    3    3    0    0  0.29828959069E+02 -0.46496004257E+01  0.21080615045E+02  0.36820889641E+02  0.00000000000E+00 0. -1.
         11    1    4    4    0    0 -0.75818227234E+01 -0.16370603523E+02 -0.52577239220E+01  0.18791603354E+02  0.51100000000E-03 0. -1.
        -11    1    4    4    0    0 -0.17033972199E+02  0.16742816670E+02 -0.78684908365E+01  0.25147390863E+02  0.51100000000E-03 0.  1.
         12    1    4    4    0    0 -0.52131641467E+01  0.42773872787E+01 -0.79544002861E+01  0.10428116142E+02  0.00000000000E+00 0. -1.
</event>
<event>
 8    1  0.1265908E-006  0.9118800E+02  0.7816164E-02  0.1184000E+00
        -11   -1    0    0    0    0  0.00000000000E+00  0.00000000000E+00  0.45593999997E+02  0.45594000000E+02  0.51100000000E-03 0.  1.
         11   -1    0    0    0    0 -0.00000000000E+00 -0.00000000000E+00 -0.45593999997E+02  0.45594000000E+02  0.51100000000E-03 0. -1.
         23    2    1    2    0    0  0.71054273576E-14  0.00000000000E+00  0.44408920985E-15  0.91188000000E+02  0.91188000000E+02 0.  0.
    9900012    2    3    3    0    0 -0.36534911069E+02  0.25311845647E+01  0.38175562231E+01  0.54367077176E+02  0.39999984038E+02 0.  0.
         12    1    3    3    0    0  0.36534911069E+02 -0.25311845647E+01 -0.38175562231E+01  0.36820922824E+02  0.00000000000E+00 0. -1.
         11    1    4    4    0    0 -0.12671701554E+02  0.13545974368E+02 -0.21250246713E+01  0.18670328652E+02  0.51100000000E-03 0. -1.
        -11    1    4    4    0    0 -0.11563776861E+02  0.68239262537E+01  0.94680917225E+00  0.13460436571E+02  0.51100000000E-03 0.  1.
        -12    1    4    4    0    0 -0.12299432654E+02 -0.17838716057E+02  0.49957717222E+01  0.22236311953E+02  0.00000000000E+00 0.  1.
</event>
<event>
 8    1  0.1265908E-006  0.9118800E+02  0.7816164E-02  0.1184000E+00
        -11   -1    0    0    0    0  0.00000000000E+00  0.00000000000E+00  0.45593999997E+02  0.45594000000E+02  0.51100000000E-03 0.  1.
         11   -1    0    0    0    0 -0.00000000000E+00 -0.00000000000E+00 -0.45593999997E+02  0.45594000000E+02  0.51100000000E-03 0. -1.
         23    2    1    2    0    0 -0.71054273576E-14  0.17763568394E-14  0.00000000000E+00  0.91188000000E+02  0.91188000000E+02 0.  0.
    9900012    2    3    3    0    0  0.34699733336E+02 -0.11897644038E+02  0.31868073302E+01  0.54367066169E+02  0.39999958945E+02 0.  0.
         12    1    3    3    0    0 -0.34699733336E+02  0.11897644038E+02 -0.31868073302E+01  0.36820933831E+02  0.00000000000E+00 0. -1.
         11    1    4    4    0    0  0.49783487121E+01  0.40350073811E+01 -0.13049683600E+02  0.14538207689E+02  0.51100000000E-03 0. -1.
        -11    1    4    4    0    0  0.20167491741E+02 -0.31555938050E+01  0.93340835778E+01  0.22445725916E+02  0.51100000000E-03 0.  1.
        -12    1    4    4    0    0  0.95538928831E+01 -0.12777057614E+02  0.69024073529E+01  0.17383132564E+02  0.00000000000E+00 0.  1.
</event>
<event>
 8    1  0.1265908E-006  0.9118800E+02  0.7816164E-02  0.1184000E+00
        -11   -1    0    0    0    0  0.00000000000E+00  0.00000000000E+00  0.45593999997E+02  0.45594000000E+02  0.51100000000E-03 0. -1.
         11   -1    0    0    0    0 -0.00000000000E+00 -0.00000000000E+00 -0.45593999997E+02  0.45594000000E+02  0.51100000000E-03 0.  1.
         23    2    1    2    0    0  0.00000000000E+00  0.00000000000E+00 -0.35527136788E-14  0.91188000000E+02  0.91188000000E+02 0.  0.
    9900012    2    3    3    0    0  0.13163048999E+02  0.23648710285E+02  0.24965061857E+02  0.54367059346E+02  0.39999943392E+02 0.  0.
        -12    1    3    3    0    0 -0.13163048999E+02 -0.23648710285E+02 -0.24965061857E+02  0.36820940654E+02  0.00000000000E+00 0.  1.
         11    1    4    4    0    0 -0.42224910981E+01 -0.51724866086E+01 -0.80035984710E+00  0.67249256454E+01  0.51100000000E-03 0. -1.
        -11    1    4    4    0    0  0.10188647904E+02  0.85304409957E+01 -0.96093191259E+00  0.13322926108E+02  0.51100000000E-03 0.  1.
         12    1    4    4    0    0  0.71968921938E+01  0.20290755898E+02  0.26726353617E+02  0.34319207593E+02  0.00000000000E+00 0. -1.
</event>
<event>
 8    1  0.1265908E-006  0.9118800E+02  0.7816164E-02  0.1184000E+00
        -11   -1    0    0    0    0  0.00000000000E+00  0.00000000000E+00  0.45593999997E+02  0.45594000000E+02  0.51100000000E-03 0.  1.
         11   -1    0    0    0    0 -0.00000000000E+00 -0.00000000000E+00 -0.45593999997E+02  0.45594000000E+02  0.51100000000E-03 0. -1.
         23    2    1    2    0    0 -0.35527136788E-14 -0.35527136788E-14  0.00000000000E+00  0.91188000000E+02  0.91188000000E+02 0.  0.
    9900012    2    3    3    0    0 -0.95115987983E+01 -0.31910318766E+02 -0.15717556465E+02  0.54367074745E+02  0.39999978495E+02 0.  0.
        -12    1    3    3    0    0  0.95115987983E+01  0.31910318766E+02  0.15717556465E+02  0.36820925255E+02  0.00000000000E+00 0.  1.
         11    1    4    4    0    0 -0.16988532969E+02 -0.55982025567E+01 -0.60614939485E+01  0.18886286915E+02  0.51100000000E-03 0. -1.
        -11    1    4    4    0    0  0.96152859868E+01 -0.18742066474E+02 -0.15097158170E+02  0.25916075424E+02  0.51100000000E-03 0.  1.
        -12    1    4    4    0    0 -0.21383518162E+01 -0.75700497351E+01  0.54410956533E+01  0.95647124050E+01  0.00000000000E+00 0.  1.
</event>
<event>
 8    1  0.1265908E-006  0.9118800E+02  0.7816164E-02  0.1184000E+00
        -11   -1    0    0    0    0  0.00000000000E+00  0.00000000000E+00  0.45593999997E+02  0.45594000000E+02  0.51100000000E-03 0.  1.
         11   -1    0    0    0    0 -0.00000000000E+00 -0.00000000000E+00 -0.45593999997E+02  0.45594000000E+02  0.51100000000E-03 0. -1.
         23    2    1    2    0    0 -0.35527136788E-14  0.44408920985E-15  0.35527136788E-14  0.91188000000E+02  0.91188000000E+02 0.  0.
    9900012    2    3    3    0    0  0.28690786844E+02 -0.12344051871E+01 -0.23045521877E+02  0.54367067306E+02  0.39999961537E+02 0.  0.
        -12    1    3    3    0    0 -0.28690786844E+02  0.12344051871E+01  0.23045521877E+02  0.36820932694E+02  0.00000000000E+00 0.  1.
         11    1    4    4    0    0  0.59138538607E+01  0.26987307751E+01 -0.20608186006E+02  0.21609121824E+02  0.51100000000E-03 0. -1.
        -11    1    4    4    0    0  0.80480782846E+01  0.22992672564E+01 -0.11616448068E+02  0.14317823157E+02  0.51100000000E-03 0.  1.
        -12    1    4    4    0    0  0.14728854699E+02 -0.62324032186E+01  0.91791121970E+01  0.18440122325E+02  0.00000000000E+00 0.  1.
</event>
<event>
 8    1  0.1265908E-006  0.9118800E+02  0.7816164E-02  0.1184000E+00
        -11   -1    0    0    0    0  0.00000000000E+00  0.00000000000E+00  0.45593999997E+02  0.45594000000E+02  0.51100000000E-03 0. -1.
         11   -1    0    0    0    0 -0.00000000000E+00 -0.00000000000E+00 -0.45593999997E+02  0.45594000000E+02  0.51100000000E-03 0.  1.
         23    2    1    2    0    0  0.00000000000E+00  0.00000000000E+00  0.35527136788E-14  0.91188000000E+02  0.91188000000E+02 0.  0.
    9900012    2    3    3    0    0 -0.18163846082E+02 -0.34544440223E+01  0.31842111166E+02  0.54367101973E+02  0.40000040568E+02 0.  0.
        -12    1    3    3    0    0  0.18163846082E+02  0.34544440223E+01 -0.31842111166E+02  0.36820898027E+02  0.00000000000E+00 0.  1.
         11    1    4    4    0    0 -0.11175708652E+02 -0.14061241193E+01 -0.83018434254E+00  0.11294372723E+02  0.51100000000E-03 0. -1.
        -11    1    4    4    0    0 -0.14899030404E+02  0.20183655614E+00  0.76826263926E+01  0.16764384675E+02  0.51100000000E-03 0.  1.
         12    1    4    4    0    0  0.79108929741E+01 -0.22501564591E+01  0.24989669116E+02  0.26308344575E+02  0.00000000000E+00 0. -1.
</event>
<event>
 8    1  0.1265908E-006  0.9118800E+02  0.7816164E-02  0.1184000E+00
        -11   -1    0    0    0    0  0.00000000000E+00  0.00000000000E+00  0.45593999997E+02  0.45594000000E+02  0.51100000000E-03 0. -1.
         11   -1    0    0    0    0 -0.00000000000E+00 -0.00000000000E+00 -0.45593999997E+02  0.45594000000E+02  0.51100000000E-03 0.  1.
         23    2    1    2    0    0  0.00000000000E+00  0.00000000000E+00  0.00000000000E+00  0.91188000000E+02  0.91188000000E+02 0.  0.
    9900012    2    3    3    0    0 -0.17867620548E+02  0.31976212422E+02  0.37482709853E+01  0.54367088003E+02  0.40000008720E+02 0.  0.
         12    1    3    3    0    0  0.17867620548E+02 -0.31976212422E+02 -0.37482709853E+01  0.36820911997E+02  0.00000000000E+00 0. -1.
         11    1    4    4    0    0 -0.77076231618E+01 -0.72767642473E+01 -0.62435961732E+00  0.10618313327E+02  0.51100000000E-03 0. -1.
        -11    1    4    4    0    0 -0.12773632693E+02  0.20054980031E+02 -0.45299483547E+00  0.23781781279E+02  0.51100000000E-03 0.  1.
        -12    1    4    4    0    0  0.26136353065E+01  0.19197996639E+02  0.48256254381E+01  0.19966993397E+02  0.00000000000E+00 0.  1.
</event>
<event>
 8    1  0.1265908E-006  0.9118800E+02  0.7816164E-02  0.1184000E+00
        -11   -1    0    0    0    0  0.00000000000E+00  0.00000000000E+00  0.45593999997E+02  0.45594000000E+02  0.51100000000E-03 0. -1.
         11   -1    0    0    0    0 -0.00000000000E+00 -0.00000000000E+00 -0.45593999997E+02  0.45594000000E+02  0.51100000000E-03 0.  1.
         23    2    1    2    0    0  0.44408920985E-15  0.00000000000E+00  0.00000000000E+00  0.91188000000E+02  0.91188000000E+02 0.  0.
    9900012    2    3    3    0    0 -0.39314201442E+01 -0.19218276838E+01  0.36559953289E+02  0.54367086507E+02  0.40000005310E+02 0.  0.
        -12    1    3    3    0    0  0.39314201442E+01  0.19218276838E+01 -0.36559953289E+02  0.36820913493E+02  0.00000000000E+00 0.  1.
         11    1    4    4    0    0  0.95763747991E+01 -0.25648431679E+01  0.89410792639E+01  0.13350216232E+02  0.51100000000E-03 0. -1.
        -11    1    4    4    0    0 -0.10626935758E+02  0.74634122474E+01  0.30439621942E+02  0.33093879649E+02  0.51100000000E-03 0.  1.
        -12    1    4    4    0    0 -0.28808591855E+01 -0.68203967634E+01 -0.28207479169E+01  0.79229906265E+01  0.00000000000E+00 0.  1.
</event>
<event>
 8    1  0.1265908E-006  0.9118800E+02  0.7816164E-02  0.1184000E+00
        -11   -1    0    0    0    0  0.00000000000E+00  0.00000000000E+00  0.45593999997E+02  0.45594000000E+02  0.51100000000E-03 0. -1.
         11   -1    0    0    0    0 -0.00000000000E+00 -0.00000000000E+00 -0.45593999997E+02  0.45594000000E+02  0.51100000000E-03 0.  1.
         23    2    1    2    0    0  0.00000000000E+00  0.00000000000E+00  0.00000000000E+00  0.91188000000E+02  0.91188000000E+02 0.  0.
    9900012    2    3    3    0    0 -0.20099992442E+02 -0.99145327918E+01 -0.29214253987E+02  0.54367078058E+02  0.39999986049E+02 0.  0.
         12    1    3    3    0    0  0.20099992442E+02  0.99145327918E+01  0.29214253987E+02  0.36820921942E+02  0.00000000000E+00 0. -1.
         11    1    4    4    0    0 -0.24431579672E+02  0.41343619356E-01 -0.63490438434E+01  0.25243101089E+02  0.51100000000E-03 0. -1.
        -11    1    4    4    0    0  0.17054572993E+01 -0.79596925901E+01 -0.25321603254E+01  0.85250880877E+01  0.51100000000E-03 0.  1.
         12    1    4    4    0    0  0.26261299313E+01 -0.19961838211E+01 -0.20333049818E+02  0.20598888882E+02  0.00000000000E+00 0. -1.
</event>
<event>
 8    1  0.1265908E-006  0.9118800E+02  0.7816164E-02  0.1184000E+00
        -11   -1    0    0    0    0  0.00000000000E+00  0.00000000000E+00  0.45593999997E+02  0.45594000000E+02  0.51100000000E-03 0. -1.
         11   -1    0    0    0    0 -0.00000000000E+00 -0.00000000000E+00 -0.45593999997E+02  0.45594000000E+02  0.51100000000E-03 0.  1.
         23    2    1    2    0    0 -0.35527136788E-14 -0.88817841970E-15  0.00000000000E+00  0.91188000000E+02  0.91188000000E+02 0.  0.
    9900012    2    3    3    0    0  0.20523401719E+02 -0.79597666775E+01  0.29516291663E+02  0.54367090489E+02  0.40000014388E+02 0.  0.
        -12    1    3    3    0    0 -0.20523401719E+02  0.79597666775E+01 -0.29516291663E+02  0.36820909511E+02  0.00000000000E+00 0.  1.
         11    1    4    4    0    0 -0.44020991163E+01  0.82064887488E+00  0.18012687463E+02  0.18560949628E+02  0.51100000000E-03 0. -1.
        -11    1    4    4    0    0  0.53740907766E+01 -0.12216140925E+02  0.82506558093E+01  0.15690387896E+02  0.51100000000E-03 0.  1.
        -12    1    4    4    0    0  0.19551410058E+02  0.34357253731E+01  0.32529483912E+01  0.20115752965E+02  0.00000000000E+00 0.  1.
</event>
<event>
 8    1  0.1265908E-006  0.9118800E+02  0.7816164E-02  0.1184000E+00
        -11   -1    0    0    0    0  0.00000000000E+00  0.00000000000E+00  0.45593999997E+02  0.45594000000E+02  0.51100000000E-03 0. -1.
         11   -1    0    0    0    0 -0.00000000000E+00 -0.00000000000E+00 -0.45593999997E+02  0.45594000000E+02  0.51100000000E-03 0.  1.
         23    2    1    2    0    0  0.00000000000E+00  0.00000000000E+00 -0.35527136788E-14  0.91188000000E+02  0.91188000000E+02 0.  0.
    9900012    2    3    3    0    0  0.20104218308E+02 -0.11230597937E+02 -0.28731040673E+02  0.54367100745E+02  0.40000037769E+02 0.  0.
        -12    1    3    3    0    0 -0.20104218308E+02  0.11230597937E+02  0.28731040673E+02  0.36820899255E+02  0.00000000000E+00 0.  1.
         11    1    4    4    0    0 -0.61231968897E+01  0.45240754972E+01  0.68784160427E+00  0.76442086306E+01  0.51100000000E-03 0. -1.
        -11    1    4    4    0    0  0.14000810046E+02 -0.18773470780E+02 -0.16272853835E+02  0.28517918214E+02  0.51100000000E-03 0.  1.
         12    1    4    4    0    0  0.12226605152E+02  0.30187973457E+01 -0.13146028442E+02  0.18204973901E+02  0.00000000000E+00 0. -1.
</event>
<event>
 8    1  0.1265908E-006  0.9118800E+02  0.7816164E-02  0.1184000E+00
        -11   -1    0    0    0    0  0.00000000000E+00  0.00000000000E+00  0.45593999997E+02  0.45594000000E+02  0.51100000000E-03 0. -1.
         11   -1    0    0    0    0 -0.00000000000E+00 -0.00000000000E+00 -0.45593999997E+02  0.45594000000E+02  0.51100000000E-03 0.  1.
         23    2    1    2    0    0 -0.88817841970E-15  0.00000000000E+00  0.71054273576E-14  0.91188000000E+02  0.91188000000E+02 0.  0.
    9900012    2    3    3    0    0 -0.34524849076E+01 -0.19175616704E+02  0.31243481217E+02  0.54367094979E+02  0.40000024623E+02 0.  0.
        -12    1    3    3    0    0  0.34524849076E+01  0.19175616704E+02 -0.31243481217E+02  0.36820905021E+02  0.00000000000E+00 0.  1.
         11    1    4    4    0    0 -0.12081802768E+02  0.71713399862E+01  0.73423820286E+01  0.15852717415E+02  0.51100000000E-03 0. -1.
        -11    1    4    4    0    0  0.24220223702E-02 -0.13788796033E+00 -0.12029725360E+01  0.12108518238E+01  0.51100000000E-03 0.  1.
        -12    1    4    4    0    0  0.86268958379E+01 -0.26209068730E+02  0.25104071725E+02  0.37303525740E+02  0.00000000000E+00 0.  1.
</event>
<event>
 8    1  0.1265908E-006  0.9118800E+02  0.7816164E-02  0.1184000E+00
        -11   -1    0    0    0    0  0.00000000000E+00  0.00000000000E+00  0.45593999997E+02  0.45594000000E+02  0.51100000000E-03 0. -1.
         11   -1    0    0    0    0 -0.00000000000E+00 -0.00000000000E+00 -0.45593999997E+02  0.45594000000E+02  0.51100000000E-03 0.  1.
         23    2    1    2    0    0 -0.22204460493E-15 -0.71054273576E-14  0.00000000000E+00  0.91188000000E+02  0.91188000000E+02 0.  0.
    9900012    2    3    3    0    0 -0.11349990654E+01 -0.32263674169E+02  0.17707265820E+02  0.54367079906E+02  0.39999990261E+02 0.  0.
        -12    1    3    3    0    0  0.11349990654E+01  0.32263674169E+02 -0.17707265820E+02  0.36820920094E+02  0.00000000000E+00 0.  1.
         11    1    4    4    0    0 -0.15238569742E+01 -0.11289844069E+02  0.54106793196E+01  0.12611826598E+02  0.51100000000E-03 0. -1.
        -11    1    4    4    0    0  0.28636097246E+01 -0.28254542845E+02  0.14198969705E+01  0.28434759709E+02  0.51100000000E-03 0.  1.
         12    1    4    4    0    0 -0.24747518157E+01  0.72807127442E+01  0.10876689529E+02  0.13320493599E+02  0.00000000000E+00 0. -1.
</event>
<event>
 8    1  0.1265908E-006  0.9118800E+02  0.7816164E-02  0.1184000E+00
        -11   -1    0    0    0    0  0.00000000000E+00  0.00000000000E+00  0.45593999997E+02  0.45594000000E+02  0.51100000000E-03 0.  1.
         11   -1    0    0    0    0 -0.00000000000E+00 -0.00000000000E+00 -0.45593999997E+02  0.45594000000E+02  0.51100000000E-03 0. -1.
         23    2    1    2    0    0 -0.35527136788E-14  0.00000000000E+00  0.17763568394E-14  0.91188000000E+02  0.91188000000E+02 0.  0.
    9900012    2    3    3    0    0 -0.20401068080E+02  0.29657105817E+02  0.77481842553E+01  0.54367056727E+02  0.39999937421E+02 0.  0.
         12    1    3    3    0    0  0.20401068080E+02 -0.29657105817E+02 -0.77481842553E+01  0.36820943273E+02  0.00000000000E+00 0. -1.
         11    1    4    4    0    0 -0.26239727171E+01  0.55560980906E+01 -0.96400685952E+00  0.62197080557E+01  0.51100000000E-03 0. -1.
        -11    1    4    4    0    0 -0.27960945423E+02  0.17715829149E+02 -0.33574365734E+00  0.33102534577E+02  0.51100000000E-03 0.  1.
         12    1    4    4    0    0  0.10183850059E+02  0.63851785776E+01  0.90479347722E+01  0.15044814094E+02  0.00000000000E+00 0. -1.
</event>
<event>
 8    1  0.1265908E-006  0.9118800E+02  0.7816164E-02  0.1184000E+00
        -11   -1    0    0    0    0  0.00000000000E+00  0.00000000000E+00  0.45593999997E+02  0.45594000000E+02  0.51100000000E-03 0.  1.
         11   -1    0    0    0    0 -0.00000000000E+00 -0.00000000000E+00 -0.45593999997E+02  0.45594000000E+02  0.51100000000E-03 0. -1.
         23    2    1    2    0    0  0.35527136788E-14  0.00000000000E+00  0.71054273576E-14  0.91188000000E+02  0.91188000000E+02 0.  0.
    9900012    2    3    3    0    0  0.27986786072E+02  0.81739601698E+01  0.22487790946E+02  0.54367155888E+02  0.40000163477E+02 0.  0.
         12    1    3    3    0    0 -0.27986786072E+02 -0.81739601698E+01 -0.22487790946E+02  0.36820844112E+02  0.00000000000E+00 0. -1.
         11    1    4    4    0    0  0.26143339676E+02 -0.45660855607E+00  0.51164344309E+01  0.26643209310E+02  0.51100000000E-03 0. -1.
        -11    1    4    4    0    0  0.10181480714E+02  0.90307632432E+00  0.76746028034E+01  0.12781925709E+02  0.51100000000E-03 0.  1.
         12    1    4    4    0    0 -0.83380343178E+01  0.77274924015E+01  0.96967537118E+01  0.14942020869E+02  0.00000000000E+00 0. -1.
</event>
<event>
 8    1  0.1265908E-006  0.9118800E+02  0.7816164E-02  0.1184000E+00
        -11   -1    0    0    0    0  0.00000000000E+00  0.00000000000E+00  0.45593999997E+02  0.45594000000E+02  0.51100000000E-03 0.  1.
         11   -1    0    0    0    0 -0.00000000000E+00 -0.00000000000E+00 -0.45593999997E+02  0.45594000000E+02  0.51100000000E-03 0. -1.
         23    2    1    2    0    0  0.99920072216E-15  0.00000000000E+00  0.00000000000E+00  0.91188000000E+02  0.91188000000E+02 0.  0.
    9900012    2    3    3    0    0  0.74808552298E+00 -0.32306459377E+02  0.17649714876E+02  0.54367090388E+02  0.40000014158E+02 0.  0.
         12    1    3    3    0    0 -0.74808552298E+00  0.32306459377E+02 -0.17649714876E+02  0.36820909612E+02  0.00000000000E+00 0. -1.
         11    1    4    4    0    0 -0.35777199023E+01 -0.11481952199E+02 -0.14019669363E+01  0.12107882455E+02  0.51100000000E-03 0. -1.
        -11    1    4    4    0    0 -0.13371069495E+02 -0.62316322774E+01  0.66170791667E+01  0.16168007831E+02  0.51100000000E-03 0.  1.
        -12    1    4    4    0    0  0.17696874920E+02 -0.14592874901E+02  0.12434602645E+02  0.26091200102E+02  0.00000000000E+00 0.  1.
</event>
<event>
 8    1  0.1265908E-006  0.9118800E+02  0.7816164E-02  0.1184000E+00
        -11   -1    0    0    0    0  0.00000000000E+00  0.00000000000E+00  0.45593999997E+02  0.45594000000E+02  0.51100000000E-03 0. -1.
         11   -1    0    0    0    0 -0.00000000000E+00 -0.00000000000E+00 -0.45593999997E+02  0.45594000000E+02  0.51100000000E-03 0.  1.
         23    2    1    2    0    0  0.71054273576E-14  0.00000000000E+00 -0.88817841970E-15  0.91188000000E+02  0.91188000000E+02 0.  0.
    9900012    2    3    3    0    0  0.25590457067E+02  0.26106262045E+02 -0.44017825513E+01  0.54367026351E+02  0.39999868171E+02 0.  0.
         12    1    3    3    0    0 -0.25590457067E+02 -0.26106262045E+02  0.44017825513E+01  0.36820973649E+02  0.00000000000E+00 0. -1.
         11    1    4    4    0    0  0.91340028773E+01 -0.94904651099E+01 -0.20211440600E+01  0.13326063190E+02  0.51100000000E-03 0. -1.
        -11    1    4    4    0    0  0.74524433949E+01  0.67631242732E+01  0.26770325034E+01  0.10413705670E+02  0.51100000000E-03 0.  1.
        -12    1    4    4    0    0  0.90040107943E+01  0.28833602882E+02 -0.50576709948E+01  0.30627257491E+02  0.00000000000E+00 0.  1.
</event>
<event>
 8    1  0.1265908E-006  0.9118800E+02  0.7816164E-02  0.1184000E+00
        -11   -1    0    0    0    0  0.00000000000E+00  0.00000000000E+00  0.45593999997E+02  0.45594000000E+02  0.51100000000E-03 0.  1.
         11   -1    0    0    0    0 -0.00000000000E+00 -0.00000000000E+00 -0.45593999997E+02  0.45594000000E+02  0.51100000000E-03 0. -1.
         23    2    1    2    0    0  0.00000000000E+00  0.77715611724E-15  0.00000000000E+00  0.91188000000E+02  0.91188000000E+02 0.  0.
    9900012    2    3    3    0    0 -0.29033524679E+02 -0.50139614283E+00 -0.22640518620E+02  0.54366945740E+02  0.39999684403E+02 0.  0.
        -12    1    3    3    0    0  0.29033524679E+02  0.50139614283E+00  0.22640518620E+02  0.36821054260E+02  0.00000000000E+00 0.  1.
         11    1    4    4    0    0 -0.66986407548E+01 -0.27330069836E+01  0.33754750627E+01  0.79834170186E+01  0.51100000000E-03 0. -1.
        -11    1    4    4    0    0 -0.27305418495E+02  0.10083141268E+02 -0.19791166984E+02  0.35198663439E+02  0.51100000000E-03 0.  1.
         12    1    4    4    0    0  0.49705345709E+01 -0.78515304269E+01 -0.62248266995E+01  0.11184865283E+02  0.00000000000E+00 0. -1.
</event>
<event>
 8    1  0.1265908E-006  0.9118800E+02  0.7816164E-02  0.1184000E+00
        -11   -1    0    0    0    0  0.00000000000E+00  0.00000000000E+00  0.45593999997E+02  0.45594000000E+02  0.51100000000E-03 0. -1.
         11   -1    0    0    0    0 -0.00000000000E+00 -0.00000000000E+00 -0.45593999997E+02  0.45594000000E+02  0.51100000000E-03 0.  1.
         23    2    1    2    0    0  0.00000000000E+00  0.00000000000E+00 -0.17763568394E-14  0.91188000000E+02  0.91188000000E+02 0.  0.
    9900012    2    3    3    0    0 -0.19240737608E+02 -0.29943745684E+02  0.94309706041E+01  0.54367121468E+02  0.40000085011E+02 0.  0.
         12    1    3    3    0    0  0.19240737608E+02  0.29943745684E+02 -0.94309706041E+01  0.36820878532E+02  0.00000000000E+00 0. -1.
         11    1    4    4    0    0  0.10543025062E+00 -0.47962569360E+01  0.65746110516E+00  0.48422568601E+01  0.51100000000E-03 0. -1.
        -11    1    4    4    0    0 -0.11681645630E+02 -0.23209410432E+02  0.22046256496E+02  0.34076018004E+02  0.51100000000E-03 0.  1.
        -12    1    4    4    0    0 -0.76645222288E+01 -0.19380783161E+01 -0.13272746997E+02  0.15448846605E+02  0.00000000000E+00 0.  1.
</event>
<event>
 8    1  0.1265908E-006  0.9118800E+02  0.7816164E-02  0.1184000E+00
        -11   -1    0    0    0    0  0.00000000000E+00  0.00000000000E+00  0.45593999997E+02  0.45594000000E+02  0.51100000000E-03 0.  1.
         11   -1    0    0    0    0 -0.00000000000E+00 -0.00000000000E+00 -0.45593999997E+02  0.45594000000E+02  0.51100000000E-03 0. -1.
         23    2    1    2    0    0  0.00000000000E+00  0.88817841970E-15  0.00000000000E+00  0.91188000000E+02  0.91188000000E+02 0.  0.
    9900012    2    3    3    0    0 -0.29698471819E+02  0.76953507046E+01  0.20360812586E+02  0.54367077415E+02  0.39999984583E+02 0.  0.
         12    1    3    3    0    0  0.29698471819E+02 -0.76953507046E+01 -0.20360812586E+02  0.36820922585E+02  0.00000000000E+00 0. -1.
         11    1    4    4    0    0 -0.12387155008E+01  0.17507927669E+02  0.94113771322E+01  0.19915721608E+02  0.51100000000E-03 0. -1.
        -11    1    4    4    0    0 -0.23092113557E+02 -0.86321674231E+01  0.13808156648E+02  0.28256418974E+02  0.51100000000E-03 0.  1.
         12    1    4    4    0    0 -0.53676427611E+01 -0.11804095417E+01 -0.28587211944E+01  0.61949368330E+01  0.00000000000E+00 0. -1.
</event>
<event>
 8    1  0.1265908E-006  0.9118800E+02  0.7816164E-02  0.1184000E+00
        -11   -1    0    0    0    0  0.00000000000E+00  0.00000000000E+00  0.45593999997E+02  0.45594000000E+02  0.51100000000E-03 0.  1.
         11   -1    0    0    0    0 -0.00000000000E+00 -0.00000000000E+00 -0.45593999997E+02  0.45594000000E+02  0.51100000000E-03 0. -1.
         23    2    1    2    0    0  0.88817841970E-15  0.00000000000E+00  0.35527136788E-14  0.91188000000E+02  0.91188000000E+02 0.  0.
    9900012    2    3    3    0    0  0.45559956565E+01 -0.21423231318E+02  0.29598585224E+02  0.54366970902E+02  0.39999741765E+02 0.  0.
         12    1    3    3    0    0 -0.45559956565E+01  0.21423231318E+02 -0.29598585224E+02  0.36821029098E+02  0.00000000000E+00 0. -1.
         11    1    4    4    0    0  0.10916317009E+01  0.22902545070E+01 -0.62975747806E+00  0.26141002696E+01  0.51100000000E-03 0. -1.
        -11    1    4    4    0    0 -0.34086647269E+01 -0.34678007815E+00  0.26961363192E+02  0.27178196355E+02  0.51100000000E-03 0.  1.
         12    1    4    4    0    0  0.68730286825E+01 -0.23366705747E+02  0.32669795101E+01  0.24574674278E+02  0.00000000000E+00 0. -1.
</event>
<event>
 8    1  0.1265908E-006  0.9118800E+02  0.7816164E-02  0.1184000E+00
        -11   -1    0    0    0    0  0.00000000000E+00  0.00000000000E+00  0.45593999997E+02  0.45594000000E+02  0.51100000000E-03 0.  1.
         11   -1    0    0    0    0 -0.00000000000E+00 -0.00000000000E+00 -0.45593999997E+02  0.45594000000E+02  0.51100000000E-03 0. -1.
         23    2    1    2    0    0 -0.17763568394E-14  0.00000000000E+00  0.17763568394E-14  0.91188000000E+02  0.91188000000E+02 0.  0.
    9900012    2    3    3    0    0 -0.13461489884E+02  0.32935599298E+02  0.94770633679E+01  0.54367080116E+02  0.39999990740E+02 0.  0.
         12    1    3    3    0    0  0.13461489884E+02 -0.32935599298E+02 -0.94770633679E+01  0.36820919884E+02  0.00000000000E+00 0. -1.
         11    1    4    4    0    0 -0.16638352873E+02  0.12746354730E+02 -0.94101683121E+01  0.22975108555E+02  0.51100000000E-03 0. -1.
        -11    1    4    4    0    0 -0.38035059216E+01  0.23084994665E+01  0.84330508329E+01  0.95347875537E+01  0.51100000000E-03 0.  1.
        -12    1    4    4    0    0  0.69803689106E+01  0.17880745102E+02  0.10454180847E+02  0.21857184007E+02  0.00000000000E+00 0.  1.
</event>
<event>
 8    1  0.1265908E-006  0.9118800E+02  0.7816164E-02  0.1184000E+00
        -11   -1    0    0    0    0  0.00000000000E+00  0.00000000000E+00  0.45593999997E+02  0.45594000000E+02  0.51100000000E-03 0.  1.
         11   -1    0    0    0    0 -0.00000000000E+00 -0.00000000000E+00 -0.45593999997E+02  0.45594000000E+02  0.51100000000E-03 0. -1.
         23    2    1    2    0    0  0.35527136788E-14  0.66613381478E-15 -0.35527136788E-14  0.91188000000E+02  0.91188000000E+02 0.  0.
    9900012    2    3    3    0    0 -0.23514068001E+02 -0.13085874324E+01 -0.28304695306E+02  0.54367087852E+02  0.40000008377E+02 0.  0.
        -12    1    3    3    0    0  0.23514068001E+02  0.13085874324E+01  0.28304695306E+02  0.36820912148E+02  0.00000000000E+00 0.  1.
         11    1    4    4    0    0 -0.11332933231E+02  0.68439407213E+01 -0.14575537226E+01  0.13319135232E+02  0.51100000000E-03 0. -1.
        -11    1    4    4    0    0 -0.16241371553E+02 -0.11942541074E+02 -0.84994776255E+01  0.21878015390E+02  0.51100000000E-03 0.  1.
         12    1    4    4    0    0  0.40602367838E+01  0.37900129201E+01 -0.18347663958E+02  0.19169937230E+02  0.00000000000E+00 0. -1.
</event>
<event>
 8    1  0.1265908E-006  0.9118800E+02  0.7816164E-02  0.1184000E+00
        -11   -1    0    0    0    0  0.00000000000E+00  0.00000000000E+00  0.45593999997E+02  0.45594000000E+02  0.51100000000E-03 0.  1.
         11   -1    0    0    0    0 -0.00000000000E+00 -0.00000000000E+00 -0.45593999997E+02  0.45594000000E+02  0.51100000000E-03 0. -1.
         23    2    1    2    0    0 -0.35527136788E-14  0.17763568394E-14 -0.35527136788E-14  0.91188000000E+02  0.91188000000E+02 0.  0.
    9900012    2    3    3    0    0 -0.20989112600E+02  0.66894360195E+01  0.29504012540E+02  0.54367107046E+02  0.40000052132E+02 0.  0.
         12    1    3    3    0    0  0.20989112600E+02 -0.66894360195E+01 -0.29504012540E+02  0.36820892954E+02  0.00000000000E+00 0. -1.
         11    1    4    4    0    0 -0.85130301294E+01 -0.13390042143E+02  0.97465449529E+01  0.18621494283E+02  0.51100000000E-03 0. -1.
        -11    1    4    4    0    0  0.36076841799E+01  0.27747602615E+01  0.83519048741E+01  0.95115190657E+01  0.51100000000E-03 0.  1.
        -12    1    4    4    0    0 -0.16083766650E+02  0.17304717901E+02  0.11405562713E+02  0.26234093697E+02  0.00000000000E+00 0.  1.
</event>
<event>
 8    1  0.1265908E-006  0.9118800E+02  0.7816164E-02  0.1184000E+00
        -11   -1    0    0    0    0  0.00000000000E+00  0.00000000000E+00  0.45593999997E+02  0.45594000000E+02  0.51100000000E-03 0.  1.
         11   -1    0    0    0    0 -0.00000000000E+00 -0.00000000000E+00 -0.45593999997E+02  0.45594000000E+02  0.51100000000E-03 0. -1.
         23    2    1    2    0    0  0.15543122345E-14 -0.35527136788E-14  0.00000000000E+00  0.91188000000E+02  0.91188000000E+02 0.  0.
    9900012    2    3    3    0    0  0.16315212142E+01  0.19500504319E+02 -0.31190507486E+02  0.54367091709E+02  0.40000017168E+02 0.  0.
        -12    1    3    3    0    0 -0.16315212142E+01 -0.19500504319E+02  0.31190507486E+02  0.36820908291E+02  0.00000000000E+00 0.  1.
         11    1    4    4    0    0 -0.61906931802E+01 -0.43442507991E+01 -0.14145855223E+02  0.16040648906E+02  0.51100000000E-03 0. -1.
        -11    1    4    4    0    0 -0.32589681096E+01  0.16275245684E+02  0.43892676227E-01  0.16598386127E+02  0.51100000000E-03 0.  1.
         12    1    4    4    0    0  0.11081182504E+02  0.75695094345E+01 -0.17088544939E+02  0.21728056675E+02  0.00000000000E+00 0. -1.
</event>
<event>
 8    1  0.1265908E-006  0.9118800E+02  0.7816164E-02  0.1184000E+00
        -11   -1    0    0    0    0  0.00000000000E+00  0.00000000000E+00  0.45593999997E+02  0.45594000000E+02  0.51100000000E-03 0.  1.
         11   -1    0    0    0    0 -0.00000000000E+00 -0.00000000000E+00 -0.45593999997E+02  0.45594000000E+02  0.51100000000E-03 0. -1.
         23    2    1    2    0    0 -0.35527136788E-14  0.35527136788E-14  0.00000000000E+00  0.91188000000E+02  0.91188000000E+02 0.  0.
    9900012    2    3    3    0    0 -0.20003902803E+02 -0.21595876419E+02  0.22118807204E+02  0.54367086950E+02  0.40000006320E+02 0.  0.
         12    1    3    3    0    0  0.20003902803E+02  0.21595876419E+02 -0.22118807204E+02  0.36820913050E+02  0.00000000000E+00 0. -1.
         11    1    4    4    0    0  0.59527383356E+01 -0.20209805115E+02  0.26223910970E+01  0.21230832574E+02  0.51100000000E-03 0. -1.
        -11    1    4    4    0    0 -0.94840187219E+01 -0.31659583402E+01  0.52931659603E+01  0.11313156477E+02  0.51100000000E-03 0.  1.
        -12    1    4    4    0    0 -0.16472622417E+02  0.17798870357E+01  0.14203250147E+02  0.21823097899E+02  0.00000000000E+00 0.  1.
</event>
<event>
 8    1  0.1265908E-006  0.9118800E+02  0.7816164E-02  0.1184000E+00
        -11   -1    0    0    0    0  0.00000000000E+00  0.00000000000E+00  0.45593999997E+02  0.45594000000E+02  0.51100000000E-03 0.  1.
         11   -1    0    0    0    0 -0.00000000000E+00 -0.00000000000E+00 -0.45593999997E+02  0.45594000000E+02  0.51100000000E-03 0. -1.
         23    2    1    2    0    0  0.00000000000E+00 -0.35527136788E-14  0.00000000000E+00  0.91188000000E+02  0.91188000000E+02 0.  0.
    9900012    2    3    3    0    0  0.25696355887E+02 -0.16042594609E+02 -0.20931146436E+02  0.54367076074E+02  0.39999981525E+02 0.  0.
        -12    1    3    3    0    0 -0.25696355887E+02  0.16042594609E+02  0.20931146436E+02  0.36820923926E+02  0.00000000000E+00 0.  1.
         11    1    4    4    0    0  0.28656039440E+02 -0.23094716194E+02 -0.25743989644E+02  0.44914223977E+02  0.51100000000E-03 0. -1.
        -11    1    4    4    0    0 -0.24795525624E+01  0.56006254499E+01  0.23627484322E+01  0.65648889370E+01  0.51100000000E-03 0.  1.
         12    1    4    4    0    0 -0.48013099000E+00  0.14514961355E+01  0.24500947758E+01  0.28879631592E+01  0.00000000000E+00 0. -1.
</event>
<event>
 8    1  0.1265908E-006  0.9118800E+02  0.7816164E-02  0.1184000E+00
        -11   -1    0    0    0    0  0.00000000000E+00  0.00000000000E+00  0.45593999997E+02  0.45594000000E+02  0.51100000000E-03 0.  1.
         11   -1    0    0    0    0 -0.00000000000E+00 -0.00000000000E+00 -0.45593999997E+02  0.45594000000E+02  0.51100000000E-03 0. -1.
         23    2    1    2    0    0  0.00000000000E+00  0.00000000000E+00  0.35527136788E-14  0.91188000000E+02  0.91188000000E+02 0.  0.
    9900012    2    3    3    0    0  0.15924356821E+02 -0.18892411396E+02 -0.27299703025E+02  0.54367053057E+02  0.39999929054E+02 0.  0.
        -12    1    3    3    0    0 -0.15924356821E+02  0.18892411396E+02  0.27299703025E+02  0.36820946943E+02  0.00000000000E+00 0.  1.
         11    1    4    4    0    0  0.15795365237E+02 -0.13316217149E+02 -0.85428292137E+01  0.22356098348E+02  0.51100000000E-03 0. -1.
        -11    1    4    4    0    0 -0.34298133770E+01  0.92895552507E+01 -0.37467456559E+01  0.10587613510E+02  0.51100000000E-03 0.  1.
        -12    1    4    4    0    0  0.35588049611E+01 -0.14865749498E+02 -0.15010128156E+02  0.21423341199E+02  0.00000000000E+00 0.  1.
</event>
<event>
 8    1  0.1265908E-006  0.9118800E+02  0.7816164E-02  0.1184000E+00
        -11   -1    0    0    0    0  0.00000000000E+00  0.00000000000E+00  0.45593999997E+02  0.45594000000E+02  0.51100000000E-03 0.  1.
         11   -1    0    0    0    0 -0.00000000000E+00 -0.00000000000E+00 -0.45593999997E+02  0.45594000000E+02  0.51100000000E-03 0. -1.
         23    2    1    2    0    0 -0.22204460493E-15  0.00000000000E+00  0.35527136788E-14  0.91188000000E+02  0.91188000000E+02 0.  0.
    9900012    2    3    3    0    0  0.13223777623E+01 -0.26390159004E+02 -0.25643500715E+02  0.54367105061E+02  0.40000047607E+02 0.  0.
        -12    1    3    3    0    0 -0.13223777623E+01  0.26390159004E+02  0.25643500715E+02  0.36820894939E+02  0.00000000000E+00 0.  1.
         11    1    4    4    0    0  0.38236485669E+00 -0.61296759617E+01 -0.13014327305E+02  0.14390686076E+02  0.51100000000E-03 0. -1.
        -11    1    4    4    0    0 -0.49889496297E+01 -0.27042271408E+02 -0.45429251960E+01  0.27871351436E+02  0.51100000000E-03 0.  1.
        -12    1    4    4    0    0  0.59289625354E+01  0.67817883652E+01 -0.80862482140E+01  0.12105067549E+02  0.00000000000E+00 0.  1.
</event>
<event>
 8    1  0.1265908E-006  0.9118800E+02  0.7816164E-02  0.1184000E+00
        -11   -1    0    0    0    0  0.00000000000E+00  0.00000000000E+00  0.45593999997E+02  0.45594000000E+02  0.51100000000E-03 0.  1.
         11   -1    0    0    0    0 -0.00000000000E+00 -0.00000000000E+00 -0.45593999997E+02  0.45594000000E+02  0.51100000000E-03 0. -1.
         23    2    1    2    0    0 -0.17763568394E-14  0.88817841970E-15  0.71054273576E-14  0.91188000000E+02  0.91188000000E+02 0.  0.
    9900012    2    3    3    0    0 -0.13511780879E+02 -0.67828922881E+01 -0.33573862649E+02  0.54367080626E+02  0.39999991904E+02 0.  0.
        -12    1    3    3    0    0  0.13511780879E+02  0.67828922881E+01  0.33573862649E+02  0.36820919374E+02  0.00000000000E+00 0.  1.
         11    1    4    4    0    0 -0.13158817613E+02 -0.14247166780E+02 -0.21354412493E+02  0.28846961286E+02  0.51100000000E-03 0. -1.
        -11    1    4    4    0    0 -0.60209092771E+01  0.32661624179E+01  0.39303328077E+01  0.78972578598E+01  0.51100000000E-03 0.  1.
        -12    1    4    4    0    0  0.56679460113E+01  0.41981120743E+01 -0.16149782964E+02  0.17622861481E+02  0.00000000000E+00 0.  1.
</event>
<event>
 8    1  0.1265908E-006  0.9118800E+02  0.7816164E-02  0.1184000E+00
        -11   -1    0    0    0    0  0.00000000000E+00  0.00000000000E+00  0.45593999997E+02  0.45594000000E+02  0.51100000000E-03 0. -1.
         11   -1    0    0    0    0 -0.00000000000E+00 -0.00000000000E+00 -0.45593999997E+02  0.45594000000E+02  0.51100000000E-03 0.  1.
         23    2    1    2    0    0  0.00000000000E+00 -0.33306690739E-15  0.71054273576E-14  0.91188000000E+02  0.91188000000E+02 0.  0.
    9900012    2    3    3    0    0 -0.20510859868E+02  0.67109832594E+00 -0.30571811566E+02  0.54367062914E+02  0.39999951525E+02 0.  0.
         12    1    3    3    0    0  0.20510859868E+02 -0.67109832594E+00  0.30571811566E+02  0.36820937086E+02  0.00000000000E+00 0. -1.
         11    1    4    4    0    0 -0.63028976631E-01  0.27134137509E+01 -0.80023488061E+01  0.84500990237E+01  0.51100000000E-03 0. -1.
        -11    1    4    4    0    0 -0.26963976193E+02 -0.10048930180E+01 -0.53924539809E+01  0.27516256691E+02  0.51100000000E-03 0.  1.
        -12    1    4    4    0    0  0.65161453016E+01 -0.10374224070E+01 -0.17177008779E+02  0.18400707199E+02  0.00000000000E+00 0.  1.
</event>
<event>
 8    1  0.1265908E-006  0.9118800E+02  0.7816164E-02  0.1184000E+00
        -11   -1    0    0    0    0  0.00000000000E+00  0.00000000000E+00  0.45593999997E+02  0.45594000000E+02  0.51100000000E-03 0. -1.
         11   -1    0    0    0    0 -0.00000000000E+00 -0.00000000000E+00 -0.45593999997E+02  0.45594000000E+02  0.51100000000E-03 0.  1.
         23    2    1    2    0    0  0.35527136788E-14  0.17763568394E-14  0.00000000000E+00  0.91188000000E+02  0.91188000000E+02 0.  0.
    9900012    2    3    3    0    0 -0.19017517488E+02 -0.14137223045E+02 -0.28182468850E+02  0.54367101080E+02  0.40000038531E+02 0.  0.
         12    1    3    3    0    0  0.19017517488E+02  0.14137223045E+02  0.28182468850E+02  0.36820898920E+02  0.00000000000E+00 0. -1.
         11    1    4    4    0    0 -0.64589577481E+01  0.72434626274E+01 -0.48048722552E+00  0.97168284054E+01  0.51100000000E-03 0. -1.
        -11    1    4    4    0    0 -0.10639221447E+02 -0.21495755060E+02 -0.86427044214E+01  0.25494251481E+02  0.51100000000E-03 0.  1.
        -12    1    4    4    0    0 -0.19193382930E+01  0.11506938781E+00 -0.19059277203E+02  0.19156021193E+02  0.00000000000E+00 0.  1.
</event>
<event>
 8    1  0.1265908E-006  0.9118800E+02  0.7816164E-02  0.1184000E+00
        -11   -1    0    0    0    0  0.00000000000E+00  0.00000000000E+00  0.45593999997E+02  0.45594000000E+02  0.51100000000E-03 0.  1.
         11   -1    0    0    0    0 -0.00000000000E+00 -0.00000000000E+00 -0.45593999997E+02  0.45594000000E+02  0.51100000000E-03 0. -1.
         23    2    1    2    0    0  0.88817841970E-15  0.00000000000E+00  0.00000000000E+00  0.91188000000E+02  0.91188000000E+02 0.  0.
    9900012    2    3    3    0    0 -0.64129627806E+01 -0.29384103873E+02  0.21242165533E+02  0.54367065077E+02  0.39999956457E+02 0.  0.
         12    1    3    3    0    0  0.64129627806E+01  0.29384103873E+02 -0.21242165533E+02  0.36820934923E+02  0.00000000000E+00 0. -1.
         11    1    4    4    0    0  0.50248400548E+01  0.46972293229E+01  0.28900474546E+01  0.74609218894E+01  0.51100000000E-03 0. -1.
        -11    1    4    4    0    0 -0.17362485707E+02 -0.22265879447E+02  0.61069329413E+01  0.28888058565E+02  0.51100000000E-03 0.  1.
        -12    1    4    4    0    0  0.59246828714E+01 -0.11815453749E+02  0.12245185137E+02  0.18018084623E+02  0.00000000000E+00 0.  1.
</event>
<event>
 8    1  0.1265908E-006  0.9118800E+02  0.7816164E-02  0.1184000E+00
        -11   -1    0    0    0    0  0.00000000000E+00  0.00000000000E+00  0.45593999997E+02  0.45594000000E+02  0.51100000000E-03 0. -1.
         11   -1    0    0    0    0 -0.00000000000E+00 -0.00000000000E+00 -0.45593999997E+02  0.45594000000E+02  0.51100000000E-03 0.  1.
         23    2    1    2    0    0 -0.35527136788E-14  0.44408920985E-15  0.00000000000E+00  0.91188000000E+02  0.91188000000E+02 0.  0.
    9900012    2    3    3    0    0  0.18230147970E+02  0.27619381492E+01  0.31871812106E+02  0.54367095553E+02  0.40000025932E+02 0.  0.
        -12    1    3    3    0    0 -0.18230147970E+02 -0.27619381492E+01 -0.31871812106E+02  0.36820904447E+02  0.00000000000E+00 0.  1.
         11    1    4    4    0    0  0.11724391351E+02  0.97647715482E+01  0.12814822273E+02  0.19925656479E+02  0.51100000000E-03 0. -1.
        -11    1    4    4    0    0  0.28107651059E+01 -0.84573916242E+01  0.25422207651E+02  0.26939126112E+02  0.51100000000E-03 0.  1.
        -12    1    4    4    0    0  0.36949915133E+01  0.14545582253E+01 -0.63652178179E+01  0.75023129623E+01  0.00000000000E+00 0.  1.
</event>
<event>
 8    1  0.1265908E-006  0.9118800E+02  0.7816164E-02  0.1184000E+00
        -11   -1    0    0    0    0  0.00000000000E+00  0.00000000000E+00  0.45593999997E+02  0.45594000000E+02  0.51100000000E-03 0.  1.
         11   -1    0    0    0    0 -0.00000000000E+00 -0.00000000000E+00 -0.45593999997E+02  0.45594000000E+02  0.51100000000E-03 0. -1.
         23    2    1    2    0    0 -0.35527136788E-14  0.88817841970E-15 -0.35527136788E-14  0.91188000000E+02  0.91188000000E+02 0.  0.
    9900012    2    3    3    0    0 -0.30428055140E+02 -0.78193118795E+01 -0.19203478692E+02  0.54367057973E+02  0.39999940262E+02 0.  0.
         12    1    3    3    0    0  0.30428055140E+02  0.78193118795E+01  0.19203478692E+02  0.36820942027E+02  0.00000000000E+00 0. -1.
         11    1    4    4    0    0 -0.93749894638E+01 -0.16520146530E+02 -0.19663201037E+02  0.27339479587E+02  0.51100000000E-03 0. -1.
        -11    1    4    4    0    0 -0.11953790540E+02  0.47456393568E+01 -0.69735315803E+01  0.14630254411E+02  0.51100000000E-03 0.  1.
         12    1    4    4    0    0 -0.90992751365E+01  0.39551952935E+01  0.74332539256E+01  0.12397323975E+02  0.00000000000E+00 0. -1.
</event>
<event>
 8    1  0.1265908E-006  0.9118800E+02  0.7816164E-02  0.1184000E+00
        -11   -1    0    0    0    0  0.00000000000E+00  0.00000000000E+00  0.45593999997E+02  0.45594000000E+02  0.51100000000E-03 0.  1.
         11   -1    0    0    0    0 -0.00000000000E+00 -0.00000000000E+00 -0.45593999997E+02  0.45594000000E+02  0.51100000000E-03 0. -1.
         23    2    1    2    0    0  0.00000000000E+00  0.00000000000E+00  0.00000000000E+00  0.91188000000E+02  0.91188000000E+02 0.  0.
    9900012    2    3    3    0    0  0.21483785482E+02  0.25624878650E+02 -0.15413917521E+02  0.54367132305E+02  0.40000109715E+02 0.  0.
        -12    1    3    3    0    0 -0.21483785482E+02 -0.25624878650E+02  0.15413917521E+02  0.36820867695E+02  0.00000000000E+00 0.  1.
         11    1    4    4    0    0 -0.22201896441E+01  0.15078574737E+02 -0.13674253640E+02  0.20476275810E+02  0.51100000000E-03 0. -1.
        -11    1    4    4    0    0  0.15272599143E+02 -0.48714308404E+01  0.11940281080E+01  0.16075099576E+02  0.51100000000E-03 0.  1.
         12    1    4    4    0    0  0.84313759835E+01  0.15417734753E+02 -0.29336919897E+01  0.17815756919E+02  0.00000000000E+00 0. -1.
</event>
<event>
 8    1  0.1265908E-006  0.9118800E+02  0.7816164E-02  0.1184000E+00
        -11   -1    0    0    0    0  0.00000000000E+00  0.00000000000E+00  0.45593999997E+02  0.45594000000E+02  0.51100000000E-03 0. -1.
         11   -1    0    0    0    0 -0.00000000000E+00 -0.00000000000E+00 -0.45593999997E+02  0.45594000000E+02  0.51100000000E-03 0.  1.
         23    2    1    2    0    0  0.00000000000E+00  0.35527136788E-14  0.00000000000E+00  0.91188000000E+02  0.91188000000E+02 0.  0.
    9900012    2    3    3    0    0 -0.24551033420E+02  0.27119940672E+02  0.41874278041E+01  0.54367095942E+02  0.40000026819E+02 0.  0.
         12    1    3    3    0    0  0.24551033420E+02 -0.27119940672E+02 -0.41874278041E+01  0.36820904058E+02  0.00000000000E+00 0. -1.
         11    1    4    4    0    0  0.29518176281E+01  0.12699506149E+02 -0.78705237073E+01  0.15229439498E+02  0.51100000000E-03 0. -1.
        -11    1    4    4    0    0 -0.82164533803E+01  0.12576827187E+02 -0.20623559215E+01  0.15163772633E+02  0.51100000000E-03 0.  1.
         12    1    4    4    0    0 -0.19286397667E+02  0.18436073366E+01  0.14120307433E+02  0.23973883811E+02  0.00000000000E+00 0. -1.
</event>
<event>
 8    1  0.1265908E-006  0.9118800E+02  0.7816164E-02  0.1184000E+00
        -11   -1    0    0    0    0  0.00000000000E+00  0.00000000000E+00  0.45593999997E+02  0.45594000000E+02  0.51100000000E-03 0. -1.
         11   -1    0    0    0    0 -0.00000000000E+00 -0.00000000000E+00 -0.45593999997E+02  0.45594000000E+02  0.51100000000E-03 0.  1.
         23    2    1    2    0    0  0.00000000000E+00  0.00000000000E+00 -0.71054273576E-14  0.91188000000E+02  0.91188000000E+02 0.  0.
    9900012    2    3    3    0    0 -0.19760407047E+02  0.39676058662E+01  0.30814982927E+02  0.54367098927E+02  0.40000033625E+02 0.  0.
        -12    1    3    3    0    0  0.19760407047E+02 -0.39676058662E+01 -0.30814982927E+02  0.36820901073E+02  0.00000000000E+00 0.  1.
         11    1    4    4    0    0 -0.13772501539E+02  0.12653358045E+01  0.36866513300E+02  0.39375407002E+02  0.51100000000E-03 0. -1.
        -11    1    4    4    0    0 -0.96271312593E+01  0.14270460157E+01 -0.52314801782E+01  0.11049276073E+02  0.51100000000E-03 0.  1.
         12    1    4    4    0    0  0.36392257513E+01  0.12752240460E+01 -0.82005019470E+00  0.39424158531E+01  0.00000000000E+00 0. -1.
</event>
<event>
 8    1  0.1265908E-006  0.9118800E+02  0.7816164E-02  0.1184000E+00
        -11   -1    0    0    0    0  0.00000000000E+00  0.00000000000E+00  0.45593999997E+02  0.45594000000E+02  0.51100000000E-03 0.  1.
         11   -1    0    0    0    0 -0.00000000000E+00 -0.00000000000E+00 -0.45593999997E+02  0.45594000000E+02  0.51100000000E-03 0. -1.
         23    2    1    2    0    0  0.00000000000E+00 -0.44408920985E-15  0.00000000000E+00  0.91188000000E+02  0.91188000000E+02 0.  0.
    9900012    2    3    3    0    0  0.23361932135E+02  0.19305284018E+01  0.28394946379E+02  0.54367084845E+02  0.40000001520E+02 0.  0.
         12    1    3    3    0    0 -0.23361932135E+02 -0.19305284018E+01 -0.28394946379E+02  0.36820915155E+02  0.00000000000E+00 0. -1.
         11    1    4    4    0    0  0.11374428531E+02 -0.13158233562E+02  0.43595701968E+01  0.17931050930E+02  0.51100000000E-03 0. -1.
        -11    1    4    4    0    0 -0.29761098216E+01 -0.15861149343E+01  0.85768970451E+01  0.92160812409E+01  0.51100000000E-03 0.  1.
         12    1    4    4    0    0  0.14963613426E+02  0.16674876899E+02  0.15458479138E+02  0.27219952674E+02  0.00000000000E+00 0. -1.
</event>
<event>
 8    1  0.1265908E-006  0.9118800E+02  0.7816164E-02  0.1184000E+00
        -11   -1    0    0    0    0  0.00000000000E+00  0.00000000000E+00  0.45593999997E+02  0.45594000000E+02  0.51100000000E-03 0.  1.
         11   -1    0    0    0    0 -0.00000000000E+00 -0.00000000000E+00 -0.45593999997E+02  0.45594000000E+02  0.51100000000E-03 0. -1.
         23    2    1    2    0    0 -0.88817841970E-15  0.00000000000E+00  0.00000000000E+00  0.91188000000E+02  0.91188000000E+02 0.  0.
    9900012    2    3    3    0    0 -0.75550650666E+01 -0.10111705875E+02 -0.34589798693E+02  0.54367085054E+02  0.40000001997E+02 0.  0.
        -12    1    3    3    0    0  0.75550650666E+01  0.10111705875E+02  0.34589798693E+02  0.36820914946E+02  0.00000000000E+00 0.  1.
         11    1    4    4    0    0  0.11640999737E+02 -0.48027632807E+01 -0.17232127531E+02  0.21343046397E+02  0.51100000000E-03 0. -1.
        -11    1    4    4    0    0 -0.33832965934E+01 -0.85969099979E+01  0.10259574521E+00  0.92392685586E+01  0.51100000000E-03 0.  1.
         12    1    4    4    0    0 -0.15812768211E+02  0.32879674031E+01 -0.17460266908E+02  0.23784770098E+02  0.00000000000E+00 0. -1.
</event>
<event>
 8    1  0.1265908E-006  0.9118800E+02  0.7816164E-02  0.1184000E+00
        -11   -1    0    0    0    0  0.00000000000E+00  0.00000000000E+00  0.45593999997E+02  0.45594000000E+02  0.51100000000E-03 0.  1.
         11   -1    0    0    0    0 -0.00000000000E+00 -0.00000000000E+00 -0.45593999997E+02  0.45594000000E+02  0.51100000000E-03 0. -1.
         23    2    1    2    0    0 -0.71054273576E-14  0.00000000000E+00 -0.88817841970E-15  0.91188000000E+02  0.91188000000E+02 0.  0.
    9900012    2    3    3    0    0  0.35600834571E+02  0.70619340548E+01  0.62034100526E+01  0.54367182098E+02  0.40000223227E+02 0.  0.
        -12    1    3    3    0    0 -0.35600834571E+02 -0.70619340548E+01 -0.62034100526E+01  0.36820817902E+02  0.00000000000E+00 0.  1.
         11    1    4    4    0    0  0.24325185029E+02  0.73327503695E+01  0.31413465019E+01  0.25599842046E+02  0.51100000000E-03 0. -1.
        -11    1    4    4    0    0 -0.39091140134E+01  0.78429969000E+01 -0.46293173798E+01  0.99108199664E+01  0.51100000000E-03 0.  1.
        -12    1    4    4    0    0  0.15184763555E+02 -0.81138132147E+01  0.76913809304E+01  0.18856520085E+02  0.00000000000E+00 0.  1.
</event>
<event>
 8    1  0.1265908E-006  0.9118800E+02  0.7816164E-02  0.1184000E+00
        -11   -1    0    0    0    0  0.00000000000E+00  0.00000000000E+00  0.45593999997E+02  0.45594000000E+02  0.51100000000E-03 0. -1.
         11   -1    0    0    0    0 -0.00000000000E+00 -0.00000000000E+00 -0.45593999997E+02  0.45594000000E+02  0.51100000000E-03 0.  1.
         23    2    1    2    0    0 -0.17763568394E-14 -0.71054273576E-14  0.00000000000E+00  0.91188000000E+02  0.91188000000E+02 0.  0.
    9900012    2    3    3    0    0 -0.10505892268E+02 -0.27315190777E+02  0.22344717045E+02  0.54367084757E+02  0.40000001320E+02 0.  0.
         12    1    3    3    0    0  0.10505892268E+02  0.27315190777E+02 -0.22344717045E+02  0.36820915243E+02  0.00000000000E+00 0. -1.
         11    1    4    4    0    0 -0.17445720487E+01 -0.35846853681E+01  0.92866394338E+01  0.10106194786E+02  0.51100000000E-03 0. -1.
        -11    1    4    4    0    0  0.23714517747E+01 -0.21068927925E+02  0.21378999926E+02  0.30109552397E+02  0.51100000000E-03 0.  1.
         12    1    4    4    0    0 -0.11132771994E+02 -0.26615774836E+01 -0.83209223142E+01  0.14151337574E+02  0.00000000000E+00 0. -1.
</event>
