<event>
 8    1  0.2521748E-006  0.9118800E+02  0.7816164E-02  0.1184000E+00
        -11   -1    0    0    0    0  0.00000000000E+00  0.00000000000E+00  0.45593999997E+02  0.45594000000E+02  0.51100000000E-03 0. -1.
         11   -1    0    0    0    0 -0.00000000000E+00 -0.00000000000E+00 -0.45593999997E+02  0.45594000000E+02  0.51100000000E-03 0.  1.
         23    2    1    2    0    0  0.00000000000E+00  0.88817841970E-15  0.00000000000E+00  0.91188000000E+02  0.91188000000E+02 0.  0.
    9900012    2    3    3    0    0 -0.29305127188E+02 -0.67147107248E+01  0.21258017489E+02  0.54367066726E+02  0.39999960216E+02 0.  0.
        -12    1    3    3    0    0  0.29305127188E+02  0.67147107248E+01 -0.21258017489E+02  0.36820933274E+02  0.00000000000E+00 0.  1.
         11    1    4    4    0    0 -0.15521534438E+02  0.94768771066E+01  0.46303550111E+01  0.18766177522E+02  0.51100000000E-03 0.  1.
        -11    1    4    4    0    0 -0.11929309288E+02 -0.20019371465E+01 -0.18425736203E+01  0.12235654876E+02  0.51100000000E-03 0. -1.
         12    1    4    4    0    0 -0.18542834616E+01 -0.14189650685E+02  0.18470236098E+02  0.23365234328E+02  0.00000000000E+00 0. -1.
</event>
<event>
 8    1  0.2521748E-006  0.9118800E+02  0.7816164E-02  0.1184000E+00
        -11   -1    0    0    0    0  0.00000000000E+00  0.00000000000E+00  0.45593999997E+02  0.45594000000E+02  0.51100000000E-03 0. -1.
         11   -1    0    0    0    0 -0.00000000000E+00 -0.00000000000E+00 -0.45593999997E+02  0.45594000000E+02  0.51100000000E-03 0.  1.
         23    2    1    2    0    0 -0.35527136788E-14  0.00000000000E+00  0.44408920985E-15  0.91188000000E+02  0.91188000000E+02 0.  0.
    9900012    2    3    3    0    0  0.17472592324E+02 -0.32301089805E+02  0.26705382420E+01  0.54367032337E+02  0.39999881819E+02 0.  0.
         12    1    3    3    0    0 -0.17472592324E+02  0.32301089805E+02 -0.26705382420E+01  0.36820967663E+02  0.00000000000E+00 0. -1.
         11    1    4    4    0    0 -0.31186677934E+01  0.21613543349E+01 -0.59797845072E+01  0.70820452117E+01  0.51100000000E-03 0. -1.
        -11    1    4    4    0    0  0.21071034024E+02 -0.22935691292E+02 -0.24934677180E+01  0.31245028267E+02  0.51100000000E-03 0.  1.
        -12    1    4    4    0    0 -0.47977390599E+00 -0.11526752848E+02  0.11143790467E+02  0.16039958859E+02  0.00000000000E+00 0.  1.
</event>
<event>
 8    1  0.2521748E-006  0.9118800E+02  0.7816164E-02  0.1184000E+00
        -11   -1    0    0    0    0  0.00000000000E+00  0.00000000000E+00  0.45593999997E+02  0.45594000000E+02  0.51100000000E-03 0.  1.
         11   -1    0    0    0    0 -0.00000000000E+00 -0.00000000000E+00 -0.45593999997E+02  0.45594000000E+02  0.51100000000E-03 0. -1.
         23    2    1    2    0    0 -0.35527136788E-14  0.00000000000E+00  0.35527136788E-14  0.91188000000E+02  0.91188000000E+02 0.  0.
    9900012    2    3    3    0    0  0.86776584312E+01  0.25414978103E+02 -0.25190432398E+02  0.54367071817E+02  0.39999971821E+02 0.  0.
        -12    1    3    3    0    0 -0.86776584312E+01 -0.25414978103E+02  0.25190432398E+02  0.36820928183E+02  0.00000000000E+00 0.  1.
         11    1    4    4    0    0  0.71257782304E+00  0.16737676287E+02 -0.16401022031E+02  0.23444639015E+02  0.51100000000E-03 0. -1.
        -11    1    4    4    0    0  0.16085905981E+02  0.12758200751E+02 -0.67011520855E+01  0.21597071495E+02  0.51100000000E-03 0.  1.
         12    1    4    4    0    0 -0.81208253728E+01 -0.40808989345E+01 -0.20882582817E+01  0.93253613067E+01  0.00000000000E+00 0. -1.
</event>
<event>
 8    1  0.2521748E-006  0.9118800E+02  0.7816164E-02  0.1184000E+00
        -11   -1    0    0    0    0  0.00000000000E+00  0.00000000000E+00  0.45593999997E+02  0.45594000000E+02  0.51100000000E-03 0. -1.
         11   -1    0    0    0    0 -0.00000000000E+00 -0.00000000000E+00 -0.45593999997E+02  0.45594000000E+02  0.51100000000E-03 0.  1.
         23    2    1    2    0    0  0.00000000000E+00  0.00000000000E+00  0.17763568394E-14  0.91188000000E+02  0.91188000000E+02 0.  0.
    9900012    2    3    3    0    0 -0.31011636718E+02  0.17718767551E+02 -0.89501005939E+01  0.54367073394E+02  0.39999975417E+02 0.  0.
        -12    1    3    3    0    0  0.31011636718E+02 -0.17718767551E+02  0.89501005939E+01  0.36820926606E+02  0.00000000000E+00 0.  1.
         11    1    4    4    0    0 -0.22322066411E+02  0.24396258058E+01  0.12208246802E+02  0.25559102354E+02  0.51100000000E-03 0. -1.
        -11    1    4    4    0    0 -0.98678404957E+01  0.13945220326E+02 -0.16213266112E+02  0.23552355386E+02  0.51100000000E-03 0.  1.
         12    1    4    4    0    0  0.11782701883E+01  0.13339214198E+01 -0.49450812842E+01  0.52556156536E+01  0.00000000000E+00 0. -1.
</event>
<event>
 8    1  0.2521748E-006  0.9118800E+02  0.7816164E-02  0.1184000E+00
        -11   -1    0    0    0    0  0.00000000000E+00  0.00000000000E+00  0.45593999997E+02  0.45594000000E+02  0.51100000000E-03 0.  1.
         11   -1    0    0    0    0 -0.00000000000E+00 -0.00000000000E+00 -0.45593999997E+02  0.45594000000E+02  0.51100000000E-03 0. -1.
         23    2    1    2    0    0 -0.35527136788E-14  0.35527136788E-14  0.00000000000E+00  0.91188000000E+02  0.91188000000E+02 0.  0.
    9900012    2    3    3    0    0 -0.20428487492E+02  0.19565079443E+02  0.23572564318E+02  0.54367065420E+02  0.39999957238E+02 0.  0.
         12    1    3    3    0    0  0.20428487492E+02 -0.19565079443E+02 -0.23572564318E+02  0.36820934580E+02  0.00000000000E+00 0. -1.
         11    1    4    4    0    0 -0.27644623638E+01 -0.10221190611E+02 -0.22872271455E+01  0.10832654243E+02  0.51100000000E-03 0. -1.
        -11    1    4    4    0    0 -0.10123757716E+02  0.21418707120E+02  0.16249299292E+02  0.28727882149E+02  0.51100000000E-03 0.  1.
         12    1    4    4    0    0 -0.75402674128E+01  0.83675629337E+01  0.96104921710E+01  0.14806529029E+02  0.00000000000E+00 0. -1.
</event>
<event>
 8    1  0.2521748E-006  0.9118800E+02  0.7816164E-02  0.1184000E+00
        -11   -1    0    0    0    0  0.00000000000E+00  0.00000000000E+00  0.45593999997E+02  0.45594000000E+02  0.51100000000E-03 0. -1.
         11   -1    0    0    0    0 -0.00000000000E+00 -0.00000000000E+00 -0.45593999997E+02  0.45594000000E+02  0.51100000000E-03 0.  1.
         23    2    1    2    0    0  0.35527136788E-14  0.11102230246E-14  0.00000000000E+00  0.91188000000E+02  0.91188000000E+02 0.  0.
    9900012    2    3    3    0    0 -0.17386856610E+02 -0.15948410258E+01  0.32418111643E+02  0.54367078458E+02  0.39999986961E+02 0.  0.
        -12    1    3    3    0    0  0.17386856610E+02  0.15948410258E+01 -0.32418111643E+02  0.36820921542E+02  0.00000000000E+00 0.  1.
         11    1    4    4    0    0 -0.45310621857E+01 -0.12462448615E+02  0.18694388582E+02  0.22919932695E+02  0.51100000000E-03 0. -1.
        -11    1    4    4    0    0 -0.15302072077E+01 -0.22430123162E+00  0.15426229545E+02  0.15503560990E+02  0.51100000000E-03 0.  1.
        -12    1    4    4    0    0 -0.11325587217E+02  0.11091908821E+02 -0.17025064842E+01  0.15943584773E+02  0.00000000000E+00 0.  1.
</event>
<event>
 8    1  0.2521748E-006  0.9118800E+02  0.7816164E-02  0.1184000E+00
        -11   -1    0    0    0    0  0.00000000000E+00  0.00000000000E+00  0.45593999997E+02  0.45594000000E+02  0.51100000000E-03 0.  1.
         11   -1    0    0    0    0 -0.00000000000E+00 -0.00000000000E+00 -0.45593999997E+02  0.45594000000E+02  0.51100000000E-03 0. -1.
         23    2    1    2    0    0  0.22204460493E-15  0.00000000000E+00  0.71054273576E-14  0.91188000000E+02  0.91188000000E+02 0.  0.
    9900012    2    3    3    0    0 -0.15471477775E+01 -0.10740777519E+02 -0.35185520936E+02  0.54367097628E+02  0.40000030663E+02 0.  0.
        -12    1    3    3    0    0  0.15471477775E+01  0.10740777519E+02  0.35185520936E+02  0.36820902372E+02  0.00000000000E+00 0.  1.
         11    1    4    4    0    0 -0.26498633955E+01 -0.13903816849E+02 -0.14409891440E+02  0.20198585856E+02  0.51100000000E-03 0. -1.
        -11    1    4    4    0    0 -0.12523870799E+02 -0.17409187494E+01 -0.97648355776E+01  0.15975924136E+02  0.51100000000E-03 0.  1.
         12    1    4    4    0    0  0.13626586417E+02  0.49039580796E+01 -0.11010793918E+02  0.18192587637E+02  0.00000000000E+00 0. -1.
</event>
<event>
 8    1  0.2521748E-006  0.9118800E+02  0.7816164E-02  0.1184000E+00
        -11   -1    0    0    0    0  0.00000000000E+00  0.00000000000E+00  0.45593999997E+02  0.45594000000E+02  0.51100000000E-03 0. -1.
         11   -1    0    0    0    0 -0.00000000000E+00 -0.00000000000E+00 -0.45593999997E+02  0.45594000000E+02  0.51100000000E-03 0.  1.
         23    2    1    2    0    0 -0.35527136788E-14 -0.71054273576E-14  0.00000000000E+00  0.91188000000E+02  0.91188000000E+02 0.  0.
    9900012    2    3    3    0    0  0.15931810170E+02 -0.30387988340E+02  0.13361368110E+02  0.54367101472E+02  0.40000039426E+02 0.  0.
         12    1    3    3    0    0 -0.15931810170E+02  0.30387988340E+02 -0.13361368110E+02  0.36820898528E+02  0.00000000000E+00 0. -1.
         11    1    4    4    0    0  0.40162597072E+01 -0.36211259633E+01 -0.83092417263E+01  0.99139494453E+01  0.51100000000E-03 0.  1.
        -11    1    4    4    0    0  0.11852217233E+02  0.19251345357E+00  0.66064627597E+01  0.13570462970E+02  0.51100000000E-03 0. -1.
         12    1    4    4    0    0  0.63333230307E-01 -0.26959375830E+02  0.15064147076E+02  0.30882689057E+02  0.00000000000E+00 0. -1.
</event>
<event>
 8    1  0.2521748E-006  0.9118800E+02  0.7816164E-02  0.1184000E+00
        -11   -1    0    0    0    0  0.00000000000E+00  0.00000000000E+00  0.45593999997E+02  0.45594000000E+02  0.51100000000E-03 0. -1.
         11   -1    0    0    0    0 -0.00000000000E+00 -0.00000000000E+00 -0.45593999997E+02  0.45594000000E+02  0.51100000000E-03 0.  1.
         23    2    1    2    0    0  0.26645352591E-14  0.00000000000E+00  0.71054273576E-14  0.91188000000E+02  0.91188000000E+02 0.  0.
    9900012    2    3    3    0    0 -0.74320449791E+01 -0.16291290207E+02 -0.32173570782E+02  0.54367080864E+02  0.39999992445E+02 0.  0.
         12    1    3    3    0    0  0.74320449791E+01  0.16291290207E+02  0.32173570782E+02  0.36820919136E+02  0.00000000000E+00 0. -1.
         11    1    4    4    0    0 -0.41201888802E+01 -0.32157488696E+01 -0.35143091124E+01  0.62982033946E+01  0.51100000000E-03 0. -1.
        -11    1    4    4    0    0 -0.12345052977E+02 -0.16124316870E+02 -0.32056804605E+02  0.37947762111E+02  0.51100000000E-03 0.  1.
         12    1    4    4    0    0  0.90331968780E+01  0.30487755326E+01  0.33975429352E+01  0.10121115358E+02  0.00000000000E+00 0. -1.
</event>
<event>
 8    1  0.2521748E-006  0.9118800E+02  0.7816164E-02  0.1184000E+00
        -11   -1    0    0    0    0  0.00000000000E+00  0.00000000000E+00  0.45593999997E+02  0.45594000000E+02  0.51100000000E-03 0.  1.
         11   -1    0    0    0    0 -0.00000000000E+00 -0.00000000000E+00 -0.45593999997E+02  0.45594000000E+02  0.51100000000E-03 0. -1.
         23    2    1    2    0    0  0.00000000000E+00  0.17763568394E-14  0.00000000000E+00  0.91188000000E+02  0.91188000000E+02 0.  0.
    9900012    2    3    3    0    0 -0.72953417669E+01  0.93695346385E+01 -0.34853601436E+02  0.54367031465E+02  0.39999879830E+02 0.  0.
        -12    1    3    3    0    0  0.72953417669E+01 -0.93695346385E+01  0.34853601436E+02  0.36820968535E+02  0.00000000000E+00 0.  1.
         11    1    4    4    0    0  0.11891859726E+02  0.64601207922E+01 -0.69515642420E+01  0.15214260878E+02  0.51100000000E-03 0. -1.
        -11    1    4    4    0    0 -0.88750869456E+01 -0.53159999461E+01 -0.26756172947E+01  0.10685782699E+02  0.51100000000E-03 0.  1.
         12    1    4    4    0    0 -0.10312114547E+02  0.82254137924E+01 -0.25226419899E+02  0.28466987888E+02  0.00000000000E+00 0. -1.
</event>
<event>
 8    1  0.2521748E-006  0.9118800E+02  0.7816164E-02  0.1184000E+00
        -11   -1    0    0    0    0  0.00000000000E+00  0.00000000000E+00  0.45593999997E+02  0.45594000000E+02  0.51100000000E-03 0.  1.
         11   -1    0    0    0    0 -0.00000000000E+00 -0.00000000000E+00 -0.45593999997E+02  0.45594000000E+02  0.51100000000E-03 0. -1.
         23    2    1    2    0    0  0.35527136788E-14  0.00000000000E+00  0.00000000000E+00  0.91188000000E+02  0.91188000000E+02 0.  0.
    9900012    2    3    3    0    0 -0.22968190975E+02  0.18332132411E+02 -0.22185033417E+02  0.54367074114E+02  0.39999977057E+02 0.  0.
        -12    1    3    3    0    0  0.22968190975E+02 -0.18332132411E+02  0.22185033417E+02  0.36820925886E+02  0.00000000000E+00 0.  1.
         11    1    4    4    0    0  0.27283703683E+01  0.78315956384E+01 -0.87876781125E+01  0.12083094884E+02  0.51100000000E-03 0. -1.
        -11    1    4    4    0    0 -0.21840753567E+02  0.19972549242E+02 -0.12105373242E+02  0.31975948793E+02  0.51100000000E-03 0.  1.
         12    1    4    4    0    0 -0.38558077756E+01 -0.94720124698E+01 -0.12919820629E+01  0.10308030437E+02  0.00000000000E+00 0. -1.
</event>
<event>
 8    1  0.2521748E-006  0.9118800E+02  0.7816164E-02  0.1184000E+00
        -11   -1    0    0    0    0  0.00000000000E+00  0.00000000000E+00  0.45593999997E+02  0.45594000000E+02  0.51100000000E-03 0. -1.
         11   -1    0    0    0    0 -0.00000000000E+00 -0.00000000000E+00 -0.45593999997E+02  0.45594000000E+02  0.51100000000E-03 0.  1.
         23    2    1    2    0    0  0.00000000000E+00  0.00000000000E+00  0.00000000000E+00  0.91188000000E+02  0.91188000000E+02 0.  0.
    9900012    2    3    3    0    0 -0.93338293539E+01 -0.29135626500E+02 -0.20488426557E+02  0.54367072191E+02  0.39999972673E+02 0.  0.
         12    1    3    3    0    0  0.93338293539E+01  0.29135626500E+02  0.20488426557E+02  0.36820927809E+02  0.00000000000E+00 0. -1.
         11    1    4    4    0    0  0.13934918203E+02 -0.19978646765E+02 -0.15391561803E+02  0.28813685063E+02  0.51100000000E-03 0. -1.
        -11    1    4    4    0    0 -0.83798253863E+01 -0.38183553260E+01 -0.14634915166E+01  0.93243293904E+01  0.51100000000E-03 0.  1.
         12    1    4    4    0    0 -0.14888922170E+02 -0.53386244088E+01 -0.36333732375E+01  0.16229057738E+02  0.00000000000E+00 0. -1.
</event>
<event>
 8    1  0.2521748E-006  0.9118800E+02  0.7816164E-02  0.1184000E+00
        -11   -1    0    0    0    0  0.00000000000E+00  0.00000000000E+00  0.45593999997E+02  0.45594000000E+02  0.51100000000E-03 0. -1.
         11   -1    0    0    0    0 -0.00000000000E+00 -0.00000000000E+00 -0.45593999997E+02  0.45594000000E+02  0.51100000000E-03 0.  1.
         23    2    1    2    0    0  0.35527136788E-14  0.00000000000E+00 -0.14210854715E-13  0.91188000000E+02  0.91188000000E+02 0.  0.
    9900012    2    3    3    0    0  0.12391328721E+02 -0.79735121215E+01 -0.33744095550E+02  0.54367001813E+02  0.39999812232E+02 0.  0.
         12    1    3    3    0    0 -0.12391328721E+02  0.79735121215E+01  0.33744095550E+02  0.36820998187E+02  0.00000000000E+00 0. -1.
         11    1    4    4    0    0 -0.30380412436E+01 -0.13815554127E+01  0.46622938712E+00  0.33698308650E+01  0.51100000000E-03 0. -1.
        -11    1    4    4    0    0  0.24915709569E+02 -0.97224232714E+01 -0.19029241713E+02  0.32824230958E+02  0.51100000000E-03 0.  1.
         12    1    4    4    0    0 -0.94863396043E+01  0.31304665625E+01 -0.15181083225E+02  0.18172939989E+02  0.00000000000E+00 0. -1.
</event>
<event>
 8    1  0.2521748E-006  0.9118800E+02  0.7816164E-02  0.1184000E+00
        -11   -1    0    0    0    0  0.00000000000E+00  0.00000000000E+00  0.45593999997E+02  0.45594000000E+02  0.51100000000E-03 0. -1.
         11   -1    0    0    0    0 -0.00000000000E+00 -0.00000000000E+00 -0.45593999997E+02  0.45594000000E+02  0.51100000000E-03 0.  1.
         23    2    1    2    0    0  0.00000000000E+00  0.00000000000E+00  0.00000000000E+00  0.91188000000E+02  0.91188000000E+02 0.  0.
    9900012    2    3    3    0    0  0.47984318642E+01 -0.87011463676E+01 -0.35454823055E+02  0.54367090528E+02  0.40000014477E+02 0.  0.
         12    1    3    3    0    0 -0.47984318642E+01  0.87011463676E+01  0.35454823055E+02  0.36820909472E+02  0.00000000000E+00 0. -1.
         11    1    4    4    0    0 -0.17987643843E+01  0.52176615389E+01  0.26397936037E+00  0.55253262897E+01  0.51100000000E-03 0. -1.
        -11    1    4    4    0    0 -0.10938806388E+02 -0.10213319694E+02 -0.12429344845E+02  0.19453996965E+02  0.51100000000E-03 0.  1.
        -12    1    4    4    0    0  0.17536002637E+02 -0.37054882120E+01 -0.23289457571E+02  0.29387767273E+02  0.00000000000E+00 0.  1.
</event>
<event>
 8    1  0.2521748E-006  0.9118800E+02  0.7816164E-02  0.1184000E+00
        -11   -1    0    0    0    0  0.00000000000E+00  0.00000000000E+00  0.45593999997E+02  0.45594000000E+02  0.51100000000E-03 0. -1.
         11   -1    0    0    0    0 -0.00000000000E+00 -0.00000000000E+00 -0.45593999997E+02  0.45594000000E+02  0.51100000000E-03 0.  1.
         23    2    1    2    0    0  0.00000000000E+00 -0.17763568394E-14  0.88817841970E-15  0.91188000000E+02  0.91188000000E+02 0.  0.
    9900012    2    3    3    0    0 -0.33649707940E+02  0.14751284105E+02  0.24242156271E+01  0.54367081372E+02  0.39999993605E+02 0.  0.
        -12    1    3    3    0    0  0.33649707940E+02 -0.14751284105E+02 -0.24242156271E+01  0.36820918628E+02  0.00000000000E+00 0.  1.
         11    1    4    4    0    0 -0.71460981196E+01 -0.24455887578E+01 -0.61559544869E+01  0.97438903223E+01  0.51100000000E-03 0. -1.
        -11    1    4    4    0    0 -0.22722406961E+02  0.20155402850E+02 -0.44859144401E+01  0.30702955408E+02  0.51100000000E-03 0.  1.
        -12    1    4    4    0    0 -0.37812028588E+01 -0.29585299877E+01  0.13066084554E+02  0.13920235642E+02  0.00000000000E+00 0.  1.
</event>
<event>
 8    1  0.2521748E-006  0.9118800E+02  0.7816164E-02  0.1184000E+00
        -11   -1    0    0    0    0  0.00000000000E+00  0.00000000000E+00  0.45593999997E+02  0.45594000000E+02  0.51100000000E-03 0. -1.
         11   -1    0    0    0    0 -0.00000000000E+00 -0.00000000000E+00 -0.45593999997E+02  0.45594000000E+02  0.51100000000E-03 0.  1.
         23    2    1    2    0    0  0.00000000000E+00  0.13322676296E-14 -0.35527136788E-14  0.91188000000E+02  0.91188000000E+02 0.  0.
    9900012    2    3    3    0    0 -0.28702710559E+02  0.15134411975E+01 -0.23014152801E+02  0.54366982540E+02  0.39999768296E+02 0.  0.
         12    1    3    3    0    0  0.28702710559E+02 -0.15134411975E+01  0.23014152801E+02  0.36821017460E+02  0.00000000000E+00 0. -1.
         11    1    4    4    0    0 -0.12710620017E+02  0.12369430293E+02 -0.14459376139E+02  0.22883099125E+02  0.51100000000E-03 0.  1.
        -11    1    4    4    0    0 -0.14183330535E+02  0.14731761970E+01  0.29071664097E+01  0.14552962928E+02  0.51100000000E-03 0. -1.
         12    1    4    4    0    0 -0.18087600063E+01 -0.12329165292E+02 -0.11461943071E+02  0.16930920487E+02  0.00000000000E+00 0. -1.
</event>
<event>
 8    1  0.2521748E-006  0.9118800E+02  0.7816164E-02  0.1184000E+00
        -11   -1    0    0    0    0  0.00000000000E+00  0.00000000000E+00  0.45593999997E+02  0.45594000000E+02  0.51100000000E-03 0.  1.
         11   -1    0    0    0    0 -0.00000000000E+00 -0.00000000000E+00 -0.45593999997E+02  0.45594000000E+02  0.51100000000E-03 0. -1.
         23    2    1    2    0    0  0.10658141036E-13  0.00000000000E+00  0.44408920985E-15  0.91188000000E+02  0.91188000000E+02 0.  0.
    9900012    2    3    3    0    0  0.29352994156E+02  0.22218234733E+02 -0.72954912831E+00  0.54367075752E+02  0.39999980791E+02 0.  0.
         12    1    3    3    0    0 -0.29352994156E+02 -0.22218234733E+02  0.72954912831E+00  0.36820924248E+02  0.00000000000E+00 0. -1.
         11    1    4    4    0    0  0.11322371571E+02  0.11814594416E+01 -0.15715799614E+02  0.19405625529E+02  0.51100000000E-03 0. -1.
        -11    1    4    4    0    0 -0.26636382418E+00 -0.20837662398E+01  0.10778965158E+01  0.23611210449E+01  0.51100000000E-03 0.  1.
        -12    1    4    4    0    0  0.18296986409E+02  0.23120541531E+02  0.13908353970E+02  0.32600329178E+02  0.00000000000E+00 0.  1.
</event>
<event>
 8    1  0.2521748E-006  0.9118800E+02  0.7816164E-02  0.1184000E+00
        -11   -1    0    0    0    0  0.00000000000E+00  0.00000000000E+00  0.45593999997E+02  0.45594000000E+02  0.51100000000E-03 0.  1.
         11   -1    0    0    0    0 -0.00000000000E+00 -0.00000000000E+00 -0.45593999997E+02  0.45594000000E+02  0.51100000000E-03 0. -1.
         23    2    1    2    0    0 -0.22204460493E-15 -0.88817841970E-15  0.71054273576E-14  0.91188000000E+02  0.91188000000E+02 0.  0.
    9900012    2    3    3    0    0  0.11224964916E+01 -0.71779154768E+01 -0.36097079328E+02  0.54367060238E+02  0.39999945425E+02 0.  0.
        -12    1    3    3    0    0 -0.11224964916E+01  0.71779154768E+01  0.36097079328E+02  0.36820939762E+02  0.00000000000E+00 0.  1.
         11    1    4    4    0    0 -0.89078556500E+00 -0.13395120085E+02 -0.25539002500E+02  0.28852441664E+02  0.51100000000E-03 0. -1.
        -11    1    4    4    0    0 -0.26087438520E+01  0.94106664590E+01 -0.15308071714E+02  0.18157732445E+02  0.51100000000E-03 0.  1.
        -12    1    4    4    0    0  0.46220259086E+01 -0.31934618503E+01  0.47499948865E+01  0.73568861287E+01  0.00000000000E+00 0.  1.
</event>
<event>
 8    1  0.2521748E-006  0.9118800E+02  0.7816164E-02  0.1184000E+00
        -11   -1    0    0    0    0  0.00000000000E+00  0.00000000000E+00  0.45593999997E+02  0.45594000000E+02  0.51100000000E-03 0. -1.
         11   -1    0    0    0    0 -0.00000000000E+00 -0.00000000000E+00 -0.45593999997E+02  0.45594000000E+02  0.51100000000E-03 0.  1.
         23    2    1    2    0    0  0.00000000000E+00  0.00000000000E+00  0.00000000000E+00  0.91188000000E+02  0.91188000000E+02 0.  0.
    9900012    2    3    3    0    0  0.40313980265E+01 -0.35004343026E+02  0.10686975629E+02  0.54367249752E+02  0.40000377457E+02 0.  0.
        -12    1    3    3    0    0 -0.40313980265E+01  0.35004343026E+02 -0.10686975629E+02  0.36820750248E+02  0.00000000000E+00 0.  1.
         11    1    4    4    0    0 -0.78401889812E+01 -0.13882364870E+02  0.18725908543E+02  0.24593663181E+02  0.51100000000E-03 0. -1.
        -11    1    4    4    0    0  0.15614554231E+02 -0.16927015759E+02 -0.60554775984E+01  0.23811908271E+02  0.51100000000E-03 0.  1.
         12    1    4    4    0    0 -0.37429672228E+01 -0.41949623980E+01 -0.19834553161E+01  0.59616782991E+01  0.00000000000E+00 0. -1.
</event>
<event>
 8    1  0.2521748E-006  0.9118800E+02  0.7816164E-02  0.1184000E+00
        -11   -1    0    0    0    0  0.00000000000E+00  0.00000000000E+00  0.45593999997E+02  0.45594000000E+02  0.51100000000E-03 0.  1.
         11   -1    0    0    0    0 -0.00000000000E+00 -0.00000000000E+00 -0.45593999997E+02  0.45594000000E+02  0.51100000000E-03 0. -1.
         23    2    1    2    0    0  0.00000000000E+00  0.00000000000E+00  0.35527136788E-14  0.91188000000E+02  0.91188000000E+02 0.  0.
    9900012    2    3    3    0    0  0.13475679920E+02 -0.18988490494E+02 -0.28524074791E+02  0.54367087963E+02  0.40000008630E+02 0.  0.
        -12    1    3    3    0    0 -0.13475679920E+02  0.18988490494E+02  0.28524074791E+02  0.36820912037E+02  0.00000000000E+00 0.  1.
         11    1    4    4    0    0  0.87180888450E+01 -0.90050797365E+01 -0.21566283664E+02  0.24943959700E+02  0.51100000000E-03 0. -1.
        -11    1    4    4    0    0  0.34635140124E+01 -0.15934060776E+02  0.40871930531E+01  0.16810573144E+02  0.51100000000E-03 0.  1.
        -12    1    4    4    0    0  0.12940770623E+01  0.59506500188E+01 -0.11044984181E+02  0.12612555119E+02  0.00000000000E+00 0.  1.
</event>
<event>
 8    1  0.2521748E-006  0.9118800E+02  0.7816164E-02  0.1184000E+00
        -11   -1    0    0    0    0  0.00000000000E+00  0.00000000000E+00  0.45593999997E+02  0.45594000000E+02  0.51100000000E-03 0.  1.
         11   -1    0    0    0    0 -0.00000000000E+00 -0.00000000000E+00 -0.45593999997E+02  0.45594000000E+02  0.51100000000E-03 0. -1.
         23    2    1    2    0    0 -0.17763568394E-14  0.00000000000E+00  0.00000000000E+00  0.91188000000E+02  0.91188000000E+02 0.  0.
    9900012    2    3    3    0    0  0.95665702819E+01  0.14151190306E+02  0.32619062659E+02  0.54367099648E+02  0.40000035267E+02 0.  0.
         12    1    3    3    0    0 -0.95665702819E+01 -0.14151190306E+02 -0.32619062659E+02  0.36820900352E+02  0.00000000000E+00 0. -1.
         11    1    4    4    0    0  0.24382130554E+01 -0.40818701962E+01  0.92907522135E+01  0.10436696036E+02  0.51100000000E-03 0. -1.
        -11    1    4    4    0    0 -0.59692614636E+01  0.22374822604E+02  0.11765171537E+02  0.25974680566E+02  0.51100000000E-03 0.  1.
        -12    1    4    4    0    0  0.13097618690E+02 -0.41417621017E+01  0.11563138908E+02  0.17955723045E+02  0.00000000000E+00 0.  1.
</event>
<event>
 8    1  0.2521748E-006  0.9118800E+02  0.7816164E-02  0.1184000E+00
        -11   -1    0    0    0    0  0.00000000000E+00  0.00000000000E+00  0.45593999997E+02  0.45594000000E+02  0.51100000000E-03 0.  1.
         11   -1    0    0    0    0 -0.00000000000E+00 -0.00000000000E+00 -0.45593999997E+02  0.45594000000E+02  0.51100000000E-03 0. -1.
         23    2    1    2    0    0  0.44408920985E-15  0.00000000000E+00  0.00000000000E+00  0.91188000000E+02  0.91188000000E+02 0.  0.
    9900012    2    3    3    0    0 -0.23306197926E+01 -0.29429580173E+02 -0.22005622189E+02  0.54367090374E+02  0.40000014125E+02 0.  0.
        -12    1    3    3    0    0  0.23306197926E+01  0.29429580173E+02  0.22005622189E+02  0.36820909626E+02  0.00000000000E+00 0.  1.
         11    1    4    4    0    0  0.50839138016E+01 -0.20439250915E+02 -0.19471588167E+02  0.28683652200E+02  0.51100000000E-03 0. -1.
        -11    1    4    4    0    0 -0.11425521076E+02 -0.77309943802E+01  0.68487861502E+01  0.15401840084E+02  0.51100000000E-03 0.  1.
         12    1    4    4    0    0  0.40109874820E+01 -0.12593348783E+01 -0.93828201719E+01  0.10281598091E+02  0.00000000000E+00 0. -1.
</event>
<event>
 8    1  0.2521748E-006  0.9118800E+02  0.7816164E-02  0.1184000E+00
        -11   -1    0    0    0    0  0.00000000000E+00  0.00000000000E+00  0.45593999997E+02  0.45594000000E+02  0.51100000000E-03 0. -1.
         11   -1    0    0    0    0 -0.00000000000E+00 -0.00000000000E+00 -0.45593999997E+02  0.45594000000E+02  0.51100000000E-03 0.  1.
         23    2    1    2    0    0  0.00000000000E+00 -0.88817841970E-15  0.17763568394E-14  0.91188000000E+02  0.91188000000E+02 0.  0.
    9900012    2    3    3    0    0 -0.35593174720E+02  0.44872083323E+01 -0.82929131291E+01  0.54367061209E+02  0.39999947639E+02 0.  0.
         12    1    3    3    0    0  0.35593174720E+02 -0.44872083323E+01  0.82929131291E+01  0.36820938791E+02  0.00000000000E+00 0. -1.
         11    1    4    4    0    0 -0.21922483521E+02 -0.49483630280E+01  0.37441549443E+01  0.22783772227E+02  0.51100000000E-03 0.  1.
        -11    1    4    4    0    0 -0.12747339999E+02 -0.16565901687E+01  0.26802372498E+01  0.13130980162E+02  0.51100000000E-03 0. -1.
        -12    1    4    4    0    0 -0.92335119958E+00  0.11092161529E+02 -0.14717305323E+02  0.18452308820E+02  0.00000000000E+00 0.  1.
</event>
<event>
 8    1  0.3524660E-006  0.9118800E+02  0.7816164E-02  0.1184000E+00
        -11   -1    0    0    0    0  0.00000000000E+00  0.00000000000E+00  0.45593999997E+02  0.45594000000E+02  0.51100000000E-03 0.  1.
         11   -1    0    0    0    0 -0.00000000000E+00 -0.00000000000E+00 -0.45593999997E+02  0.45594000000E+02  0.51100000000E-03 0. -1.
         23    2    1    2    0    0  0.00000000000E+00 -0.88817841970E-15  0.00000000000E+00  0.91188000000E+02  0.91188000000E+02 0.  0.
    9900012    2    3    3    0    0  0.88625020370E+01  0.57619845070E+01  0.35270879862E+02  0.54367090531E+02  0.40000014485E+02 0.  0.
         12    1    3    3    0    0 -0.88625020370E+01 -0.57619845070E+01 -0.35270879862E+02  0.36820909469E+02  0.00000000000E+00 0. -1.
         11    1    4    4    0    0  0.26805486809E+01 -0.66852947349E+00 -0.58132500416E+01  0.64363148770E+01  0.51100000000E-03 0. -1.
        -11    1    4    4    0    0  0.10099777024E+02 -0.16239576916E+01  0.63042157990E+01  0.12016067228E+02  0.51100000000E-03 0.  1.
        -12    1    4    4    0    0 -0.39178236682E+01  0.80544716722E+01  0.34779914105E+02  0.35914708427E+02  0.00000000000E+00 0.  1.
</event>
<event>
 8    1  0.2521748E-006  0.9118800E+02  0.7816164E-02  0.1184000E+00
        -11   -1    0    0    0    0  0.00000000000E+00  0.00000000000E+00  0.45593999997E+02  0.45594000000E+02  0.51100000000E-03 0.  1.
         11   -1    0    0    0    0 -0.00000000000E+00 -0.00000000000E+00 -0.45593999997E+02  0.45594000000E+02  0.51100000000E-03 0. -1.
         23    2    1    2    0    0  0.00000000000E+00 -0.35527136788E-14 -0.35527136788E-14  0.91188000000E+02  0.91188000000E+02 0.  0.
    9900012    2    3    3    0    0  0.13330205383E+02  0.23857395543E+02  0.24676118657E+02  0.54367074840E+02  0.39999978712E+02 0.  0.
         12    1    3    3    0    0 -0.13330205383E+02 -0.23857395543E+02 -0.24676118657E+02  0.36820925160E+02  0.00000000000E+00 0. -1.
         11    1    4    4    0    0  0.13081812737E+02 -0.66157243345E+01  0.18228435723E+01  0.14772419975E+02  0.51100000000E-03 0. -1.
        -11    1    4    4    0    0  0.14633912562E+00  0.20289917332E+01  0.64419121203E+01  0.67554758988E+01  0.51100000000E-03 0.  1.
        -12    1    4    4    0    0  0.10205352031E+00  0.28444128144E+02  0.16411362965E+02  0.32839178966E+02  0.00000000000E+00 0.  1.
</event>
<event>
 8    1  0.2521748E-006  0.9118800E+02  0.7816164E-02  0.1184000E+00
        -11   -1    0    0    0    0  0.00000000000E+00  0.00000000000E+00  0.45593999997E+02  0.45594000000E+02  0.51100000000E-03 0.  1.
         11   -1    0    0    0    0 -0.00000000000E+00 -0.00000000000E+00 -0.45593999997E+02  0.45594000000E+02  0.51100000000E-03 0. -1.
         23    2    1    2    0    0  0.00000000000E+00  0.14432899320E-14  0.00000000000E+00  0.91188000000E+02  0.91188000000E+02 0.  0.
    9900012    2    3    3    0    0  0.18031496189E+02 -0.33166820966E+00  0.32101903437E+02  0.54367121915E+02  0.40000086030E+02 0.  0.
         12    1    3    3    0    0 -0.18031496189E+02  0.33166820966E+00 -0.32101903437E+02  0.36820878085E+02  0.00000000000E+00 0. -1.
         11    1    4    4    0    0  0.66147770291E+00  0.14070596752E+01 -0.68464313913E+01  0.70207544279E+01  0.51100000000E-03 0. -1.
        -11    1    4    4    0    0  0.11785781756E+02 -0.10292863972E+02  0.29683423542E+02  0.33555228114E+02  0.51100000000E-03 0.  1.
         12    1    4    4    0    0  0.55842367300E+01  0.85541360875E+01  0.92649112865E+01  0.13791139373E+02  0.00000000000E+00 0. -1.
</event>
<event>
 8    1  0.2521748E-006  0.9118800E+02  0.7816164E-02  0.1184000E+00
        -11   -1    0    0    0    0  0.00000000000E+00  0.00000000000E+00  0.45593999997E+02  0.45594000000E+02  0.51100000000E-03 0.  1.
         11   -1    0    0    0    0 -0.00000000000E+00 -0.00000000000E+00 -0.45593999997E+02  0.45594000000E+02  0.51100000000E-03 0. -1.
         23    2    1    2    0    0  0.00000000000E+00  0.00000000000E+00  0.00000000000E+00  0.91188000000E+02  0.91188000000E+02 0.  0.
    9900012    2    3    3    0    0 -0.18211856360E+02 -0.25650472412E+02  0.19135352996E+02  0.54367079570E+02  0.39999989495E+02 0.  0.
         12    1    3    3    0    0  0.18211856360E+02  0.25650472412E+02 -0.19135352996E+02  0.36820920430E+02  0.00000000000E+00 0. -1.
         11    1    4    4    0    0 -0.63068632138E+01 -0.16815210772E+02 -0.90915389504E+01  0.20129180750E+02  0.51100000000E-03 0. -1.
        -11    1    4    4    0    0 -0.45048970549E+01 -0.52996229396E+01  0.27602808513E+01  0.74832647565E+01  0.51100000000E-03 0.  1.
        -12    1    4    4    0    0 -0.74000960910E+01 -0.35356387004E+01  0.25466611096E+02  0.26754634063E+02  0.00000000000E+00 0.  1.
</event>
<event>
 8    1  0.2521748E-006  0.9118800E+02  0.7816164E-02  0.1184000E+00
        -11   -1    0    0    0    0  0.00000000000E+00  0.00000000000E+00  0.45593999997E+02  0.45594000000E+02  0.51100000000E-03 0. -1.
         11   -1    0    0    0    0 -0.00000000000E+00 -0.00000000000E+00 -0.45593999997E+02  0.45594000000E+02  0.51100000000E-03 0.  1.
         23    2    1    2    0    0 -0.35527136788E-14 -0.35527136788E-14  0.17763568394E-14  0.91188000000E+02  0.91188000000E+02 0.  0.
    9900012    2    3    3    0    0 -0.29569153134E+02 -0.21167441925E+02  0.57781908064E+01  0.54367042602E+02  0.39999905219E+02 0.  0.
         12    1    3    3    0    0  0.29569153134E+02  0.21167441925E+02 -0.57781908064E+01  0.36820957398E+02  0.00000000000E+00 0. -1.
         11    1    4    4    0    0 -0.16585294535E+02 -0.20931990358E+01  0.19727782538E+02  0.25858052539E+02  0.51100000000E-03 0. -1.
        -11    1    4    4    0    0 -0.40378018233E+01 -0.43991927498E+00 -0.12532393382E+01  0.42506448490E+01  0.51100000000E-03 0.  1.
        -12    1    4    4    0    0 -0.89460567758E+01 -0.18634323614E+02 -0.12696352393E+02  0.24258345213E+02  0.00000000000E+00 0.  1.
</event>
<event>
 8    1  0.2521748E-006  0.9118800E+02  0.7816164E-02  0.1184000E+00
        -11   -1    0    0    0    0  0.00000000000E+00  0.00000000000E+00  0.45593999997E+02  0.45594000000E+02  0.51100000000E-03 0.  1.
         11   -1    0    0    0    0 -0.00000000000E+00 -0.00000000000E+00 -0.45593999997E+02  0.45594000000E+02  0.51100000000E-03 0. -1.
         23    2    1    2    0    0  0.00000000000E+00  0.00000000000E+00  0.44408920985E-15  0.91188000000E+02  0.91188000000E+02 0.  0.
    9900012    2    3    3    0    0  0.16466452027E+02 -0.32771196842E+02 -0.32687888631E+01  0.54367077069E+02  0.39999983795E+02 0.  0.
         12    1    3    3    0    0 -0.16466452027E+02  0.32771196842E+02  0.32687888631E+01  0.36820922931E+02  0.00000000000E+00 0. -1.
         11    1    4    4    0    0 -0.69380442051E+01  0.16818295128E+01 -0.16225446570E+01  0.73210422296E+01  0.51100000000E-03 0. -1.
        -11    1    4    4    0    0  0.61759578578E+01 -0.16084082845E+02 -0.10703045592E+02  0.20282883464E+02  0.51100000000E-03 0.  1.
         12    1    4    4    0    0  0.17228538375E+02 -0.18368943510E+02  0.90568013857E+01  0.26763151375E+02  0.00000000000E+00 0. -1.
</event>
<event>
 8    1  0.2521748E-006  0.9118800E+02  0.7816164E-02  0.1184000E+00
        -11   -1    0    0    0    0  0.00000000000E+00  0.00000000000E+00  0.45593999997E+02  0.45594000000E+02  0.51100000000E-03 0. -1.
         11   -1    0    0    0    0 -0.00000000000E+00 -0.00000000000E+00 -0.45593999997E+02  0.45594000000E+02  0.51100000000E-03 0.  1.
         23    2    1    2    0    0  0.00000000000E+00 -0.35527136788E-14 -0.35527136788E-14  0.91188000000E+02  0.91188000000E+02 0.  0.
    9900012    2    3    3    0    0 -0.11948169345E+02  0.27967877903E+02  0.20756167439E+02  0.54367089747E+02  0.40000012695E+02 0.  0.
        -12    1    3    3    0    0  0.11948169345E+02 -0.27967877903E+02 -0.20756167439E+02  0.36820910253E+02  0.00000000000E+00 0.  1.
         11    1    4    4    0    0 -0.17339074102E+01 -0.63863762397E+01  0.38430797533E+00  0.66287200321E+01  0.51100000000E-03 0. -1.
        -11    1    4    4    0    0 -0.44466582709E+01 -0.29552228997E+01  0.15840667884E+01  0.55691453578E+01  0.51100000000E-03 0.  1.
         12    1    4    4    0    0 -0.57676036642E+01  0.37309477043E+02  0.18787792676E+02  0.42169224357E+02  0.00000000000E+00 0. -1.
</event>
<event>
 8    1  0.2521748E-006  0.9118800E+02  0.7816164E-02  0.1184000E+00
        -11   -1    0    0    0    0  0.00000000000E+00  0.00000000000E+00  0.45593999997E+02  0.45594000000E+02  0.51100000000E-03 0. -1.
         11   -1    0    0    0    0 -0.00000000000E+00 -0.00000000000E+00 -0.45593999997E+02  0.45594000000E+02  0.51100000000E-03 0.  1.
         23    2    1    2    0    0  0.88817841970E-15 -0.17763568394E-14  0.00000000000E+00  0.91188000000E+02  0.91188000000E+02 0.  0.
    9900012    2    3    3    0    0  0.37004217452E+01  0.12665738171E+02 -0.34375368537E+02  0.54367081943E+02  0.39999994905E+02 0.  0.
         12    1    3    3    0    0 -0.37004217452E+01 -0.12665738171E+02  0.34375368537E+02  0.36820918057E+02  0.00000000000E+00 0. -1.
         11    1    4    4    0    0 -0.97430590403E+01  0.12732909493E+02 -0.30987361666E+01  0.16329615724E+02  0.51100000000E-03 0. -1.
        -11    1    4    4    0    0  0.46043135607E+01  0.40751025245E+01 -0.10042626526E+01  0.62301450775E+01  0.51100000000E-03 0.  1.
        -12    1    4    4    0    0  0.88391672248E+01 -0.41422738460E+01 -0.30272369718E+02  0.31807321141E+02  0.00000000000E+00 0.  1.
</event>
<event>
 8    1  0.2521748E-006  0.9118800E+02  0.7816164E-02  0.1184000E+00
        -11   -1    0    0    0    0  0.00000000000E+00  0.00000000000E+00  0.45593999997E+02  0.45594000000E+02  0.51100000000E-03 0. -1.
         11   -1    0    0    0    0 -0.00000000000E+00 -0.00000000000E+00 -0.45593999997E+02  0.45594000000E+02  0.51100000000E-03 0.  1.
         23    2    1    2    0    0 -0.88817841970E-15 -0.35527136788E-14  0.00000000000E+00  0.91188000000E+02  0.91188000000E+02 0.  0.
    9900012    2    3    3    0    0 -0.48764574573E+01 -0.28559744384E+02 -0.22723147020E+02  0.54367078677E+02  0.39999987460E+02 0.  0.
         12    1    3    3    0    0  0.48764574573E+01  0.28559744384E+02  0.22723147020E+02  0.36820921323E+02  0.00000000000E+00 0. -1.
         11    1    4    4    0    0 -0.46117861733E-01  0.72997064396E+01 -0.10417099520E+02  0.12720212405E+02  0.51100000000E-03 0. -1.
        -11    1    4    4    0    0  0.58412906796E+01 -0.17633894956E+02 -0.43556859288E+01  0.19080013844E+02  0.51100000000E-03 0.  1.
        -12    1    4    4    0    0 -0.10671630275E+02 -0.18225555868E+02 -0.79503615705E+01  0.22566852428E+02  0.00000000000E+00 0.  1.
</event>
<event>
 8    1  0.2521748E-006  0.9118800E+02  0.7816164E-02  0.1184000E+00
        -11   -1    0    0    0    0  0.00000000000E+00  0.00000000000E+00  0.45593999997E+02  0.45594000000E+02  0.51100000000E-03 0. -1.
         11   -1    0    0    0    0 -0.00000000000E+00 -0.00000000000E+00 -0.45593999997E+02  0.45594000000E+02  0.51100000000E-03 0.  1.
         23    2    1    2    0    0  0.00000000000E+00 -0.35527136788E-14  0.17763568394E-14  0.91188000000E+02  0.91188000000E+02 0.  0.
    9900012    2    3    3    0    0  0.21041617586E+02 -0.29275278184E+02 -0.74825057299E+01  0.54367089156E+02  0.40000011348E+02 0.  0.
         12    1    3    3    0    0 -0.21041617586E+02  0.29275278184E+02  0.74825057299E+01  0.36820910844E+02  0.00000000000E+00 0. -1.
         11    1    4    4    0    0  0.47086192347E+01  0.25099428975E+01 -0.12002454107E+02  0.13135060460E+02  0.51100000000E-03 0. -1.
        -11    1    4    4    0    0 -0.41214870422E+01 -0.88178067155E+01  0.38563814185E+01  0.10469577289E+02  0.51100000000E-03 0.  1.
        -12    1    4    4    0    0  0.20454485394E+02 -0.22967414366E+02  0.66356695865E+00  0.30762451406E+02  0.00000000000E+00 0.  1.
</event>
<event>
 8    1  0.2521748E-006  0.9118800E+02  0.7816164E-02  0.1184000E+00
        -11   -1    0    0    0    0  0.00000000000E+00  0.00000000000E+00  0.45593999997E+02  0.45594000000E+02  0.51100000000E-03 0. -1.
         11   -1    0    0    0    0 -0.00000000000E+00 -0.00000000000E+00 -0.45593999997E+02  0.45594000000E+02  0.51100000000E-03 0.  1.
         23    2    1    2    0    0  0.00000000000E+00 -0.35527136788E-14  0.00000000000E+00  0.91188000000E+02  0.91188000000E+02 0.  0.
    9900012    2    3    3    0    0  0.29024017308E+02  0.18003578407E+02 -0.13757142925E+02  0.54367063054E+02  0.39999951843E+02 0.  0.
         12    1    3    3    0    0 -0.29024017308E+02 -0.18003578407E+02  0.13757142925E+02  0.36820936946E+02  0.00000000000E+00 0. -1.
         11    1    4    4    0    0  0.23937479549E+02  0.13653540587E+02 -0.75493178060E+01  0.28572964448E+02  0.51100000000E-03 0. -1.
        -11    1    4    4    0    0  0.89230233506E+01  0.12263345092E+02 -0.24341281922E+00  0.15168033117E+02  0.51100000000E-03 0.  1.
        -12    1    4    4    0    0 -0.38364855915E+01 -0.79133072730E+01 -0.59644123002E+01  0.10626065489E+02  0.00000000000E+00 0.  1.
</event>
<event>
 8    1  0.2521748E-006  0.9118800E+02  0.7816164E-02  0.1184000E+00
        -11   -1    0    0    0    0  0.00000000000E+00  0.00000000000E+00  0.45593999997E+02  0.45594000000E+02  0.51100000000E-03 0. -1.
         11   -1    0    0    0    0 -0.00000000000E+00 -0.00000000000E+00 -0.45593999997E+02  0.45594000000E+02  0.51100000000E-03 0.  1.
         23    2    1    2    0    0 -0.22204460493E-15  0.00000000000E+00  0.71054273576E-14  0.91188000000E+02  0.91188000000E+02 0.  0.
    9900012    2    3    3    0    0  0.12070157645E+01  0.17299747254E+02  0.32481409805E+02  0.54367080334E+02  0.39999991238E+02 0.  0.
        -12    1    3    3    0    0 -0.12070157645E+01 -0.17299747254E+02 -0.32481409805E+02  0.36820919666E+02  0.00000000000E+00 0.  1.
         11    1    4    4    0    0 -0.35024766907E+01 -0.11856042637E+01  0.17008886788E+02  0.17406183684E+02  0.51100000000E-03 0. -1.
        -11    1    4    4    0    0  0.89378710521E+01 -0.37110887140E+01  0.18475324366E+00  0.96794551711E+01  0.51100000000E-03 0.  1.
        -12    1    4    4    0    0 -0.42283785968E+01  0.22196440231E+02  0.15287769774E+02  0.27281441479E+02  0.00000000000E+00 0.  1.
</event>
<event>
 8    1  0.2521748E-006  0.9118800E+02  0.7816164E-02  0.1184000E+00
        -11   -1    0    0    0    0  0.00000000000E+00  0.00000000000E+00  0.45593999997E+02  0.45594000000E+02  0.51100000000E-03 0. -1.
         11   -1    0    0    0    0 -0.00000000000E+00 -0.00000000000E+00 -0.45593999997E+02  0.45594000000E+02  0.51100000000E-03 0.  1.
         23    2    1    2    0    0  0.00000000000E+00  0.00000000000E+00 -0.17763568394E-14  0.91188000000E+02  0.91188000000E+02 0.  0.
    9900012    2    3    3    0    0 -0.24279401945E+02  0.25203923757E+02 -0.11447831817E+02  0.54367082238E+02  0.39999995577E+02 0.  0.
         12    1    3    3    0    0  0.24279401945E+02 -0.25203923757E+02  0.11447831817E+02  0.36820917762E+02  0.00000000000E+00 0. -1.
         11    1    4    4    0    0 -0.25761402437E+02  0.42665643808E+00 -0.12788701226E+02  0.28764262037E+02  0.51100000000E-03 0. -1.
        -11    1    4    4    0    0 -0.19586864816E+01  0.11643820797E+02  0.21521181819E+01  0.12001942693E+02  0.51100000000E-03 0.  1.
         12    1    4    4    0    0  0.34406869734E+01  0.13133446522E+02 -0.81124877289E+00  0.13600877507E+02  0.00000000000E+00 0. -1.
</event>
<event>
 8    1  0.2521748E-006  0.9118800E+02  0.7816164E-02  0.1184000E+00
        -11   -1    0    0    0    0  0.00000000000E+00  0.00000000000E+00  0.45593999997E+02  0.45594000000E+02  0.51100000000E-03 0.  1.
         11   -1    0    0    0    0 -0.00000000000E+00 -0.00000000000E+00 -0.45593999997E+02  0.45594000000E+02  0.51100000000E-03 0. -1.
         23    2    1    2    0    0  0.00000000000E+00  0.44408920985E-15  0.71054273576E-14  0.91188000000E+02  0.91188000000E+02 0.  0.
    9900012    2    3    3    0    0  0.16618265884E+02  0.34104675431E+01  0.32680003122E+02  0.54367073152E+02  0.39999974865E+02 0.  0.
         12    1    3    3    0    0 -0.16618265884E+02 -0.34104675431E+01 -0.32680003122E+02  0.36820926848E+02  0.00000000000E+00 0. -1.
         11    1    4    4    0    0 -0.51490477465E+01 -0.11702208263E+01 -0.25645782237E+01  0.58701934555E+01  0.51100000000E-03 0. -1.
        -11    1    4    4    0    0  0.40418705757E+01  0.26716693108E+01 -0.34129611363E+01  0.59264524495E+01  0.51100000000E-03 0.  1.
        -12    1    4    4    0    0  0.17725443055E+02  0.19090190586E+01  0.38657542482E+02  0.42570427247E+02  0.00000000000E+00 0.  1.
</event>
<event>
 8    1  0.2521748E-006  0.9118800E+02  0.7816164E-02  0.1184000E+00
        -11   -1    0    0    0    0  0.00000000000E+00  0.00000000000E+00  0.45593999997E+02  0.45594000000E+02  0.51100000000E-03 0.  1.
         11   -1    0    0    0    0 -0.00000000000E+00 -0.00000000000E+00 -0.45593999997E+02  0.45594000000E+02  0.51100000000E-03 0. -1.
         23    2    1    2    0    0  0.00000000000E+00  0.35527136788E-14  0.00000000000E+00  0.91188000000E+02  0.91188000000E+02 0.  0.
    9900012    2    3    3    0    0  0.25492087495E+02 -0.19418701037E+02 -0.18134150115E+02  0.54367083727E+02  0.39999998972E+02 0.  0.
        -12    1    3    3    0    0 -0.25492087495E+02  0.19418701037E+02  0.18134150115E+02  0.36820916273E+02  0.00000000000E+00 0.  1.
         11    1    4    4    0    0  0.15329668223E+02  0.17493893452E+01 -0.22935435943E+02  0.27642237845E+02  0.51100000000E-03 0. -1.
        -11    1    4    4    0    0  0.10646800982E+02 -0.21096563633E+02  0.18169907186E+01  0.23700650282E+02  0.51100000000E-03 0.  1.
         12    1    4    4    0    0 -0.48438171058E+00 -0.71526748967E-01  0.29842951101E+01  0.30241955990E+01  0.00000000000E+00 0. -1.
</event>
<event>
 8    1  0.2521748E-006  0.9118800E+02  0.7816164E-02  0.1184000E+00
        -11   -1    0    0    0    0  0.00000000000E+00  0.00000000000E+00  0.45593999997E+02  0.45594000000E+02  0.51100000000E-03 0.  1.
         11   -1    0    0    0    0 -0.00000000000E+00 -0.00000000000E+00 -0.45593999997E+02  0.45594000000E+02  0.51100000000E-03 0. -1.
         23    2    1    2    0    0  0.00000000000E+00  0.00000000000E+00  0.00000000000E+00  0.91188000000E+02  0.91188000000E+02 0.  0.
    9900012    2    3    3    0    0 -0.99496050613E+01 -0.34277648681E+02 -0.90458848530E+01  0.54367083760E+02  0.39999999048E+02 0.  0.
         12    1    3    3    0    0  0.99496050613E+01  0.34277648681E+02  0.90458848530E+01  0.36820916240E+02  0.00000000000E+00 0. -1.
         11    1    4    4    0    0  0.11416503686E+02  0.13202527157E+01  0.11630791224E+00  0.11493178474E+02  0.51100000000E-03 0. -1.
        -11    1    4    4    0    0 -0.11812233008E+02 -0.22697287527E+02 -0.33709241787E+01  0.25808115773E+02  0.51100000000E-03 0.  1.
         12    1    4    4    0    0 -0.95538757393E+01 -0.12900613870E+02 -0.57912685865E+01  0.17065789513E+02  0.00000000000E+00 0. -1.
</event>
<event>
 8    1  0.2521748E-006  0.9118800E+02  0.7816164E-02  0.1184000E+00
        -11   -1    0    0    0    0  0.00000000000E+00  0.00000000000E+00  0.45593999997E+02  0.45594000000E+02  0.51100000000E-03 0.  1.
         11   -1    0    0    0    0 -0.00000000000E+00 -0.00000000000E+00 -0.45593999997E+02  0.45594000000E+02  0.51100000000E-03 0. -1.
         23    2    1    2    0    0  0.88817841970E-15  0.00000000000E+00  0.00000000000E+00  0.91188000000E+02  0.91188000000E+02 0.  0.
    9900012    2    3    3    0    0 -0.61385765575E+01 -0.21502052532E+02 -0.29253356105E+02  0.54367092506E+02  0.40000018986E+02 0.  0.
        -12    1    3    3    0    0  0.61385765575E+01  0.21502052532E+02  0.29253356105E+02  0.36820907494E+02  0.00000000000E+00 0.  1.
         11    1    4    4    0    0 -0.42292635638E+01 -0.11269419054E+02 -0.18503980873E+02  0.22074505306E+02  0.51100000000E-03 0. -1.
        -11    1    4    4    0    0  0.18558960440E+01 -0.19883445345E+02 -0.84332395462E+01  0.21677529343E+02  0.51100000000E-03 0.  1.
        -12    1    4    4    0    0 -0.37652090376E+01  0.96508118670E+01 -0.23161356865E+01  0.10615057857E+02  0.00000000000E+00 0.  1.
</event>
<event>
 8    1  0.2521748E-006  0.9118800E+02  0.7816164E-02  0.1184000E+00
        -11   -1    0    0    0    0  0.00000000000E+00  0.00000000000E+00  0.45593999997E+02  0.45594000000E+02  0.51100000000E-03 0. -1.
         11   -1    0    0    0    0 -0.00000000000E+00 -0.00000000000E+00 -0.45593999997E+02  0.45594000000E+02  0.51100000000E-03 0.  1.
         23    2    1    2    0    0  0.00000000000E+00  0.00000000000E+00  0.35527136788E-14  0.91188000000E+02  0.91188000000E+02 0.  0.
    9900012    2    3    3    0    0  0.19203133641E+02 -0.20107661755E+02  0.24139208075E+02  0.54367085164E+02  0.40000002248E+02 0.  0.
        -12    1    3    3    0    0 -0.19203133641E+02  0.20107661755E+02 -0.24139208075E+02  0.36820914836E+02  0.00000000000E+00 0.  1.
         11    1    4    4    0    0  0.15449892178E+02 -0.56142213259E+01 -0.20799479555E+01  0.16569394472E+02  0.51100000000E-03 0.  1.
        -11    1    4    4    0    0 -0.22923532262E+01 -0.13717716578E+02  0.35924569363E+01  0.14364413616E+02  0.51100000000E-03 0. -1.
         12    1    4    4    0    0  0.60455946895E+01 -0.77572385112E+00  0.22626699094E+02  0.23433277076E+02  0.00000000000E+00 0. -1.
</event>
<event>
 8    1  0.2521748E-006  0.9118800E+02  0.7816164E-02  0.1184000E+00
        -11   -1    0    0    0    0  0.00000000000E+00  0.00000000000E+00  0.45593999997E+02  0.45594000000E+02  0.51100000000E-03 0.  1.
         11   -1    0    0    0    0 -0.00000000000E+00 -0.00000000000E+00 -0.45593999997E+02  0.45594000000E+02  0.51100000000E-03 0. -1.
         23    2    1    2    0    0  0.00000000000E+00  0.00000000000E+00  0.00000000000E+00  0.91188000000E+02  0.91188000000E+02 0.  0.
    9900012    2    3    3    0    0  0.35386542584E+02  0.62811568522E+01  0.80074710340E+01  0.54367083121E+02  0.39999997591E+02 0.  0.
         12    1    3    3    0    0 -0.35386542584E+02 -0.62811568522E+01 -0.80074710340E+01  0.36820916879E+02  0.00000000000E+00 0. -1.
         11    1    4    4    0    0 -0.13945304188E+01  0.15061712931E+00 -0.61247816973E+00  0.15305327106E+01  0.51100000000E-03 0. -1.
        -11    1    4    4    0    0  0.18392318351E+02  0.18414100088E+02 -0.54975856968E+01  0.26600374154E+02  0.51100000000E-03 0.  1.
        -12    1    4    4    0    0  0.18388754652E+02 -0.12283560365E+02  0.14117534901E+02  0.26236176256E+02  0.00000000000E+00 0.  1.
</event>
<event>
 8    1  0.2521748E-006  0.9118800E+02  0.7816164E-02  0.1184000E+00
        -11   -1    0    0    0    0  0.00000000000E+00  0.00000000000E+00  0.45593999997E+02  0.45594000000E+02  0.51100000000E-03 0. -1.
         11   -1    0    0    0    0 -0.00000000000E+00 -0.00000000000E+00 -0.45593999997E+02  0.45594000000E+02  0.51100000000E-03 0.  1.
         23    2    1    2    0    0 -0.88817841970E-15  0.35527136788E-14  0.71054273576E-14  0.91188000000E+02  0.91188000000E+02 0.  0.
    9900012    2    3    3    0    0  0.53518385273E+01 -0.16463973561E+02 -0.32497301701E+02  0.54367092639E+02  0.40000019290E+02 0.  0.
         12    1    3    3    0    0 -0.53518385273E+01  0.16463973561E+02  0.32497301701E+02  0.36820907361E+02  0.00000000000E+00 0. -1.
         11    1    4    4    0    0  0.12575105674E+01  0.53612696909E+01  0.20437605950E+01  0.58737980180E+01  0.51100000000E-03 0. -1.
        -11    1    4    4    0    0 -0.75096730159E+01 -0.18364470484E+02 -0.12811229704E+02  0.23617293913E+02  0.51100000000E-03 0.  1.
         12    1    4    4    0    0  0.11604000976E+02 -0.34607727675E+01 -0.21729832592E+02  0.24876000709E+02  0.00000000000E+00 0. -1.
</event>
<event>
 8    1  0.2521748E-006  0.9118800E+02  0.7816164E-02  0.1184000E+00
        -11   -1    0    0    0    0  0.00000000000E+00  0.00000000000E+00  0.45593999997E+02  0.45594000000E+02  0.51100000000E-03 0.  1.
         11   -1    0    0    0    0 -0.00000000000E+00 -0.00000000000E+00 -0.45593999997E+02  0.45594000000E+02  0.51100000000E-03 0. -1.
         23    2    1    2    0    0  0.88817841970E-15  0.00000000000E+00  0.00000000000E+00  0.91188000000E+02  0.91188000000E+02 0.  0.
    9900012    2    3    3    0    0 -0.27820843650E+01  0.34083623832E+02 -0.13650912997E+02  0.54367070726E+02  0.39999969333E+02 0.  0.
        -12    1    3    3    0    0  0.27820843650E+01 -0.34083623832E+02  0.13650912997E+02  0.36820929274E+02  0.00000000000E+00 0.  1.
         11    1    4    4    0    0 -0.28181859131E+01 -0.48342669465E+01 -0.36180319810E+01  0.66635174216E+01  0.51100000000E-03 0. -1.
        -11    1    4    4    0    0 -0.84691272763E+01  0.17970858670E+02  0.50847185428E+01  0.20506882773E+02  0.51100000000E-03 0.  1.
         12    1    4    4    0    0  0.85052288244E+01  0.20947032109E+02 -0.15117599559E+02  0.27196670531E+02  0.00000000000E+00 0. -1.
</event>
<event>
 8    1  0.2521748E-006  0.9118800E+02  0.7816164E-02  0.1184000E+00
        -11   -1    0    0    0    0  0.00000000000E+00  0.00000000000E+00  0.45593999997E+02  0.45594000000E+02  0.51100000000E-03 0.  1.
         11   -1    0    0    0    0 -0.00000000000E+00 -0.00000000000E+00 -0.45593999997E+02  0.45594000000E+02  0.51100000000E-03 0. -1.
         23    2    1    2    0    0  0.17763568394E-14  0.88817841970E-15  0.00000000000E+00  0.91188000000E+02  0.91188000000E+02 0.  0.
    9900012    2    3    3    0    0 -0.96737069457E+01  0.62991673571E+01 -0.34964540048E+02  0.54367093218E+02  0.40000020610E+02 0.  0.
        -12    1    3    3    0    0  0.96737069457E+01 -0.62991673571E+01  0.34964540048E+02  0.36820906782E+02  0.00000000000E+00 0.  1.
         11    1    4    4    0    0  0.26242487395E+01 -0.16130828694E-01 -0.24885820171E+02  0.25023808413E+02  0.51100000000E-03 0. -1.
        -11    1    4    4    0    0 -0.66861532717E+00  0.98055717974E+01 -0.13527725407E+02  0.16721113589E+02  0.51100000000E-03 0.  1.
        -12    1    4    4    0    0 -0.11629340358E+02 -0.34902736117E+01  0.34490055299E+01  0.12622171215E+02  0.00000000000E+00 0.  1.
</event>
<event>
 8    1  0.2521748E-006  0.9118800E+02  0.7816164E-02  0.1184000E+00
        -11   -1    0    0    0    0  0.00000000000E+00  0.00000000000E+00  0.45593999997E+02  0.45594000000E+02  0.51100000000E-03 0. -1.
         11   -1    0    0    0    0 -0.00000000000E+00 -0.00000000000E+00 -0.45593999997E+02  0.45594000000E+02  0.51100000000E-03 0.  1.
         23    2    1    2    0    0 -0.35527136788E-14  0.00000000000E+00  0.00000000000E+00  0.91188000000E+02  0.91188000000E+02 0.  0.
    9900012    2    3    3    0    0  0.29250837593E+02  0.18008195547E+02 -0.13262026333E+02  0.54366974088E+02  0.39999749028E+02 0.  0.
         12    1    3    3    0    0 -0.29250837593E+02 -0.18008195547E+02  0.13262026333E+02  0.36821025912E+02  0.00000000000E+00 0. -1.
         11    1    4    4    0    0 -0.23553596528E+00 -0.37680599118E+01 -0.21965797957E+00  0.37817988549E+01  0.51100000000E-03 0. -1.
        -11    1    4    4    0    0  0.16995269971E+02  0.24137936813E+02 -0.20412521817E+02  0.35890809996E+02  0.51100000000E-03 0.  1.
        -12    1    4    4    0    0  0.12491103587E+02 -0.23616813547E+01  0.73701534634E+01  0.14694365237E+02  0.00000000000E+00 0.  1.
</event>
<event>
 8    1  0.2521748E-006  0.9118800E+02  0.7816164E-02  0.1184000E+00
        -11   -1    0    0    0    0  0.00000000000E+00  0.00000000000E+00  0.45593999997E+02  0.45594000000E+02  0.51100000000E-03 0.  1.
         11   -1    0    0    0    0 -0.00000000000E+00 -0.00000000000E+00 -0.45593999997E+02  0.45594000000E+02  0.51100000000E-03 0. -1.
         23    2    1    2    0    0  0.00000000000E+00  0.00000000000E+00 -0.13322676296E-14  0.91188000000E+02  0.91188000000E+02 0.  0.
    9900012    2    3    3    0    0 -0.33840934394E+02  0.14128901965E+02 -0.33083717003E+01  0.54367081561E+02  0.39999994034E+02 0.  0.
         12    1    3    3    0    0  0.33840934394E+02 -0.14128901965E+02  0.33083717003E+01  0.36820918439E+02  0.00000000000E+00 0. -1.
         11    1    4    4    0    0 -0.79504735528E+01 -0.30263240711E+01 -0.47919554837E+01  0.97637853682E+01  0.51100000000E-03 0. -1.
        -11    1    4    4    0    0 -0.10062593943E+02  0.35458844738E+01 -0.14718750414E+02  0.18178853308E+02  0.51100000000E-03 0.  1.
        -12    1    4    4    0    0 -0.15827866898E+02  0.13609341562E+02  0.16202334198E+02  0.26424442885E+02  0.00000000000E+00 0.  1.
</event>
<event>
 8    1  0.2521748E-006  0.9118800E+02  0.7816164E-02  0.1184000E+00
        -11   -1    0    0    0    0  0.00000000000E+00  0.00000000000E+00  0.45593999997E+02  0.45594000000E+02  0.51100000000E-03 0.  1.
         11   -1    0    0    0    0 -0.00000000000E+00 -0.00000000000E+00 -0.45593999997E+02  0.45594000000E+02  0.51100000000E-03 0. -1.
         23    2    1    2    0    0  0.00000000000E+00  0.00000000000E+00  0.35527136788E-14  0.91188000000E+02  0.91188000000E+02 0.  0.
    9900012    2    3    3    0    0  0.28231489409E+02 -0.61417827196E+01 -0.22826282543E+02  0.54367113754E+02  0.40000067425E+02 0.  0.
        -12    1    3    3    0    0 -0.28231489409E+02  0.61417827196E+01  0.22826282543E+02  0.36820886246E+02  0.00000000000E+00 0.  1.
         11    1    4    4    0    0 -0.25958837634E+01 -0.10161376423E+02 -0.32646685997E+01  0.10984090524E+02  0.51100000000E-03 0. -1.
        -11    1    4    4    0    0 -0.26591117956E+01 -0.22677604678E+01  0.93976152135E+00  0.36189452965E+01  0.51100000000E-03 0.  1.
        -12    1    4    4    0    0  0.33486484968E+02  0.62873541710E+01 -0.20501375464E+02  0.39764077933E+02  0.00000000000E+00 0.  1.
</event>
<event>
 8    1  0.2521748E-006  0.9118800E+02  0.7816164E-02  0.1184000E+00
        -11   -1    0    0    0    0  0.00000000000E+00  0.00000000000E+00  0.45593999997E+02  0.45594000000E+02  0.51100000000E-03 0.  1.
         11   -1    0    0    0    0 -0.00000000000E+00 -0.00000000000E+00 -0.45593999997E+02  0.45594000000E+02  0.51100000000E-03 0. -1.
         23    2    1    2    0    0  0.88817841970E-15  0.00000000000E+00  0.00000000000E+00  0.91188000000E+02  0.91188000000E+02 0.  0.
    9900012    2    3    3    0    0 -0.53316836440E+01  0.29913152093E+02 -0.20797977548E+02  0.54367090333E+02  0.40000014032E+02 0.  0.
        -12    1    3    3    0    0  0.53316836440E+01 -0.29913152093E+02  0.20797977548E+02  0.36820909667E+02  0.00000000000E+00 0.  1.
         11    1    4    4    0    0 -0.29787796186E+01  0.13402450442E+01 -0.10660459187E+02  0.11149653588E+02  0.51100000000E-03 0. -1.
        -11    1    4    4    0    0 -0.15214169810E+02  0.14615434101E+02  0.11619739565E+01  0.21128938939E+02  0.51100000000E-03 0.  1.
        -12    1    4    4    0    0  0.12861265785E+02  0.13957472948E+02 -0.11299492318E+02  0.22088497806E+02  0.00000000000E+00 0.  1.
</event>
<event>
 8    1  0.2521748E-006  0.9118800E+02  0.7816164E-02  0.1184000E+00
        -11   -1    0    0    0    0  0.00000000000E+00  0.00000000000E+00  0.45593999997E+02  0.45594000000E+02  0.51100000000E-03 0.  1.
         11   -1    0    0    0    0 -0.00000000000E+00 -0.00000000000E+00 -0.45593999997E+02  0.45594000000E+02  0.51100000000E-03 0. -1.
         23    2    1    2    0    0  0.00000000000E+00  0.00000000000E+00  0.00000000000E+00  0.91188000000E+02  0.91188000000E+02 0.  0.
    9900012    2    3    3    0    0  0.28986636121E+02 -0.21715630039E+02  0.66322282212E+01  0.54367080501E+02  0.39999991618E+02 0.  0.
         12    1    3    3    0    0 -0.28986636121E+02  0.21715630039E+02 -0.66322282212E+01  0.36820919499E+02  0.00000000000E+00 0. -1.
         11    1    4    4    0    0 -0.27724257181E+01 -0.49497308368E+01  0.80749109165E+01  0.98686557489E+01  0.51100000000E-03 0. -1.
        -11    1    4    4    0    0  0.79844807740E+01  0.68035464348E+01  0.25162089332E+01  0.10787561586E+02  0.51100000000E-03 0.  1.
         12    1    4    4    0    0  0.23774581065E+02 -0.23569445637E+02 -0.39588916285E+01  0.33710863166E+02  0.00000000000E+00 0. -1.
</event>
<event>
 8    1  0.2521748E-006  0.9118800E+02  0.7816164E-02  0.1184000E+00
        -11   -1    0    0    0    0  0.00000000000E+00  0.00000000000E+00  0.45593999997E+02  0.45594000000E+02  0.51100000000E-03 0.  1.
         11   -1    0    0    0    0 -0.00000000000E+00 -0.00000000000E+00 -0.45593999997E+02  0.45594000000E+02  0.51100000000E-03 0. -1.
         23    2    1    2    0    0  0.88817841970E-15  0.88817841970E-15 -0.71054273576E-14  0.91188000000E+02  0.91188000000E+02 0.  0.
    9900012    2    3    3    0    0  0.63684214195E+01  0.69089755202E+01 -0.35601813322E+02  0.54367084124E+02  0.39999999878E+02 0.  0.
        -12    1    3    3    0    0 -0.63684214195E+01 -0.69089755202E+01  0.35601813322E+02  0.36820915876E+02  0.00000000000E+00 0.  1.
         11    1    4    4    0    0  0.50827631792E+01  0.13564534698E+02 -0.32392789004E+02  0.35484135368E+02  0.51100000000E-03 0. -1.
        -11    1    4    4    0    0  0.13305839485E+01 -0.43080408601E+01 -0.10390916547E+02  0.11326995041E+02  0.51100000000E-03 0.  1.
        -12    1    4    4    0    0 -0.44925708173E-01 -0.23475183175E+01  0.71818922288E+01  0.75559537159E+01  0.00000000000E+00 0.  1.
</event>
<event>
 8    1  0.2521748E-006  0.9118800E+02  0.7816164E-02  0.1184000E+00
        -11   -1    0    0    0    0  0.00000000000E+00  0.00000000000E+00  0.45593999997E+02  0.45594000000E+02  0.51100000000E-03 0.  1.
         11   -1    0    0    0    0 -0.00000000000E+00 -0.00000000000E+00 -0.45593999997E+02  0.45594000000E+02  0.51100000000E-03 0. -1.
         23    2    1    2    0    0  0.71054273576E-14 -0.44408920985E-15  0.00000000000E+00  0.91188000000E+02  0.91188000000E+02 0.  0.
    9900012    2    3    3    0    0  0.34685571717E+02 -0.12401596073E+01 -0.12294463846E+02  0.54367072222E+02  0.39999972745E+02 0.  0.
        -12    1    3    3    0    0 -0.34685571717E+02  0.12401596073E+01  0.12294463846E+02  0.36820927778E+02  0.00000000000E+00 0.  1.
         11    1    4    4    0    0  0.10720313604E+02 -0.15084571323E+02 -0.62118248437E+01  0.19520660438E+02  0.51100000000E-03 0. -1.
        -11    1    4    4    0    0  0.55684539976E+01  0.14589421622E+02 -0.50234665867E+01  0.16404088515E+02  0.51100000000E-03 0.  1.
         12    1    4    4    0    0  0.18396804115E+02 -0.74500990603E+00 -0.10591724151E+01  0.18442323270E+02  0.00000000000E+00 0. -1.
</event>
<event>
 8    1  0.2521748E-006  0.9118800E+02  0.7816164E-02  0.1184000E+00
        -11   -1    0    0    0    0  0.00000000000E+00  0.00000000000E+00  0.45593999997E+02  0.45594000000E+02  0.51100000000E-03 0. -1.
         11   -1    0    0    0    0 -0.00000000000E+00 -0.00000000000E+00 -0.45593999997E+02  0.45594000000E+02  0.51100000000E-03 0.  1.
         23    2    1    2    0    0  0.17763568394E-14 -0.35527136788E-14 -0.71054273576E-14  0.91188000000E+02  0.91188000000E+02 0.  0.
    9900012    2    3    3    0    0 -0.66081176366E+01  0.21864773836E+02  0.28879775196E+02  0.54367123191E+02  0.40000088938E+02 0.  0.
        -12    1    3    3    0    0  0.66081176366E+01 -0.21864773836E+02 -0.28879775196E+02  0.36820876809E+02  0.00000000000E+00 0.  1.
         11    1    4    4    0    0 -0.79131334383E+01  0.24903991530E+02  0.65916714813E+01  0.26949519627E+02  0.51100000000E-03 0. -1.
        -11    1    4    4    0    0  0.67120082851E+00  0.56685891668E+01  0.34891076679E+01  0.66900886596E+01  0.51100000000E-03 0.  1.
        -12    1    4    4    0    0  0.63381497316E+00 -0.87078068607E+01  0.18798996047E+02  0.20727514904E+02  0.00000000000E+00 0.  1.
</event>
<event>
 8    1  0.2521748E-006  0.9118800E+02  0.7816164E-02  0.1184000E+00
        -11   -1    0    0    0    0  0.00000000000E+00  0.00000000000E+00  0.45593999997E+02  0.45594000000E+02  0.51100000000E-03 0.  1.
         11   -1    0    0    0    0 -0.00000000000E+00 -0.00000000000E+00 -0.45593999997E+02  0.45594000000E+02  0.51100000000E-03 0. -1.
         23    2    1    2    0    0  0.00000000000E+00  0.00000000000E+00  0.00000000000E+00  0.91188000000E+02  0.91188000000E+02 0.  0.
    9900012    2    3    3    0    0 -0.13088574328E+02  0.32874330607E+02  0.10185656200E+02  0.54367082263E+02  0.39999995635E+02 0.  0.
         12    1    3    3    0    0  0.13088574328E+02 -0.32874330607E+02 -0.10185656200E+02  0.36820917737E+02  0.00000000000E+00 0. -1.
         11    1    4    4    0    0 -0.11263387734E+02  0.36235212246E+01 -0.22494395431E+01  0.12043827789E+02  0.51100000000E-03 0. -1.
        -11    1    4    4    0    0 -0.79986593526E+01  0.26951469380E+02 -0.15500391867E+00  0.28113773842E+02  0.51100000000E-03 0.  1.
         12    1    4    4    0    0  0.61734727581E+01  0.22993400022E+01  0.12590099661E+02  0.14209480632E+02  0.00000000000E+00 0. -1.
</event>
<event>
 8    1  0.2521748E-006  0.9118800E+02  0.7816164E-02  0.1184000E+00
        -11   -1    0    0    0    0  0.00000000000E+00  0.00000000000E+00  0.45593999997E+02  0.45594000000E+02  0.51100000000E-03 0.  1.
         11   -1    0    0    0    0 -0.00000000000E+00 -0.00000000000E+00 -0.45593999997E+02  0.45594000000E+02  0.51100000000E-03 0. -1.
         23    2    1    2    0    0  0.00000000000E+00  0.00000000000E+00  0.71054273576E-14  0.91188000000E+02  0.91188000000E+02 0.  0.
    9900012    2    3    3    0    0  0.52732803093E+01  0.82038153259E+01 -0.35505908068E+02  0.54367087751E+02  0.40000008145E+02 0.  0.
        -12    1    3    3    0    0 -0.52732803093E+01 -0.82038153259E+01  0.35505908068E+02  0.36820912249E+02  0.00000000000E+00 0.  1.
         11    1    4    4    0    0  0.27996795926E+01  0.43576165324E+01 -0.34896764026E+01  0.62453878439E+01  0.51100000000E-03 0. -1.
        -11    1    4    4    0    0 -0.22176502816E+01  0.13636696168E+02  0.51634585775E+00  0.13825486193E+02  0.51100000000E-03 0.  1.
         12    1    4    4    0    0  0.46912509982E+01 -0.97904973749E+01 -0.32532577524E+02  0.34296213714E+02  0.00000000000E+00 0. -1.
</event>
<event>
 8    1  0.2521748E-006  0.9118800E+02  0.7816164E-02  0.1184000E+00
        -11   -1    0    0    0    0  0.00000000000E+00  0.00000000000E+00  0.45593999997E+02  0.45594000000E+02  0.51100000000E-03 0.  1.
         11   -1    0    0    0    0 -0.00000000000E+00 -0.00000000000E+00 -0.45593999997E+02  0.45594000000E+02  0.51100000000E-03 0. -1.
         23    2    1    2    0    0 -0.17763568394E-14  0.00000000000E+00  0.00000000000E+00  0.91188000000E+02  0.91188000000E+02 0.  0.
    9900012    2    3    3    0    0 -0.88378798391E+01  0.33496220721E+02  0.12476948984E+02  0.54367093186E+02  0.40000020536E+02 0.  0.
         12    1    3    3    0    0  0.88378798391E+01 -0.33496220721E+02 -0.12476948984E+02  0.36820906814E+02  0.00000000000E+00 0. -1.
         11    1    4    4    0    0 -0.11496246325E+02 -0.26933619223E+01  0.56545758578E+01  0.13091680809E+02  0.51100000000E-03 0. -1.
        -11    1    4    4    0    0  0.95009293936E+01  0.27942664680E+02  0.77648043873E+01  0.30518066062E+02  0.51100000000E-03 0.  1.
        -12    1    4    4    0    0 -0.68425629082E+01  0.82469179638E+01 -0.94243126119E+00  0.10757346315E+02  0.00000000000E+00 0.  1.
</event>
<event>
 8    1  0.2521748E-006  0.9118800E+02  0.7816164E-02  0.1184000E+00
        -11   -1    0    0    0    0  0.00000000000E+00  0.00000000000E+00  0.45593999997E+02  0.45594000000E+02  0.51100000000E-03 0. -1.
         11   -1    0    0    0    0 -0.00000000000E+00 -0.00000000000E+00 -0.45593999997E+02  0.45594000000E+02  0.51100000000E-03 0.  1.
         23    2    1    2    0    0  0.35527136788E-14 -0.16653345369E-15  0.00000000000E+00  0.91188000000E+02  0.91188000000E+02 0.  0.
    9900012    2    3    3    0    0 -0.25728131921E+02 -0.35272095195E+00 -0.26338538240E+02  0.54367085009E+02  0.40000001894E+02 0.  0.
         12    1    3    3    0    0  0.25728131921E+02  0.35272095195E+00  0.26338538240E+02  0.36820914991E+02  0.00000000000E+00 0. -1.
         11    1    4    4    0    0 -0.39561366185E+00  0.46369823279E+01  0.79088835452E+01  0.91765219158E+01  0.51100000000E-03 0. -1.
        -11    1    4    4    0    0  0.14147245211E+01  0.64531601874E+00 -0.46444212657E+01  0.48978084272E+01  0.51100000000E-03 0.  1.
         12    1    4    4    0    0 -0.26747242780E+02 -0.56350192986E+01 -0.29603000519E+02  0.40292754666E+02  0.00000000000E+00 0. -1.
</event>
<event>
 8    1  0.2521748E-006  0.9118800E+02  0.7816164E-02  0.1184000E+00
        -11   -1    0    0    0    0  0.00000000000E+00  0.00000000000E+00  0.45593999997E+02  0.45594000000E+02  0.51100000000E-03 0.  1.
         11   -1    0    0    0    0 -0.00000000000E+00 -0.00000000000E+00 -0.45593999997E+02  0.45594000000E+02  0.51100000000E-03 0. -1.
         23    2    1    2    0    0  0.17763568394E-14  0.35527136788E-14  0.00000000000E+00  0.91188000000E+02  0.91188000000E+02 0.  0.
    9900012    2    3    3    0    0  0.90599677341E+01  0.31804197063E+02 -0.16192254140E+02  0.54367094792E+02  0.40000024198E+02 0.  0.
        -12    1    3    3    0    0 -0.90599677341E+01 -0.31804197063E+02  0.16192254140E+02  0.36820905208E+02  0.00000000000E+00 0.  1.
         11    1    4    4    0    0 -0.31016640736E+01  0.52441523547E+01  0.37389248023E+01  0.71484972465E+01  0.51100000000E-03 0. -1.
        -11    1    4    4    0    0 -0.78881371323E+01  0.22040095211E+01 -0.12273895920E+02  0.14755639149E+02  0.51100000000E-03 0.  1.
         12    1    4    4    0    0  0.20049768940E+02  0.24356035187E+02 -0.76572830229E+01  0.32462958397E+02  0.00000000000E+00 0. -1.
</event>
<event>
 8    1  0.2521748E-006  0.9118800E+02  0.7816164E-02  0.1184000E+00
        -11   -1    0    0    0    0  0.00000000000E+00  0.00000000000E+00  0.45593999997E+02  0.45594000000E+02  0.51100000000E-03 0.  1.
         11   -1    0    0    0    0 -0.00000000000E+00 -0.00000000000E+00 -0.45593999997E+02  0.45594000000E+02  0.51100000000E-03 0. -1.
         23    2    1    2    0    0  0.00000000000E+00  0.00000000000E+00  0.17763568394E-14  0.91188000000E+02  0.91188000000E+02 0.  0.
    9900012    2    3    3    0    0  0.32110579621E+02  0.15361239598E+02 -0.94192668408E+01  0.54367087554E+02  0.40000007696E+02 0.  0.
         12    1    3    3    0    0 -0.32110579621E+02 -0.15361239598E+02  0.94192668408E+01  0.36820912446E+02  0.00000000000E+00 0. -1.
         11    1    4    4    0    0 -0.69905587411E+01  0.43819513199E+01  0.62523496561E+01  0.10351873520E+02  0.51100000000E-03 0. -1.
        -11    1    4    4    0    0  0.23519231474E+02  0.56507908856E+01 -0.60160453587E+01  0.24925458647E+02  0.51100000000E-03 0.  1.
         12    1    4    4    0    0  0.15581906888E+02  0.53284973924E+01 -0.96555711382E+01  0.19089755387E+02  0.00000000000E+00 0. -1.
</event>
<event>
 8    1  0.2521748E-006  0.9118800E+02  0.7816164E-02  0.1184000E+00
        -11   -1    0    0    0    0  0.00000000000E+00  0.00000000000E+00  0.45593999997E+02  0.45594000000E+02  0.51100000000E-03 0.  1.
         11   -1    0    0    0    0 -0.00000000000E+00 -0.00000000000E+00 -0.45593999997E+02  0.45594000000E+02  0.51100000000E-03 0. -1.
         23    2    1    2    0    0  0.00000000000E+00  0.71054273576E-14  0.00000000000E+00  0.91188000000E+02  0.91188000000E+02 0.  0.
    9900012    2    3    3    0    0  0.11520854087E+02 -0.20877511671E+02  0.28056708024E+02  0.54367089669E+02  0.40000012518E+02 0.  0.
         12    1    3    3    0    0 -0.11520854087E+02  0.20877511671E+02 -0.28056708024E+02  0.36820910331E+02  0.00000000000E+00 0. -1.
         11    1    4    4    0    0 -0.21783650333E+01 -0.36064134081E+01 -0.72371107015E+00  0.42749561241E+01  0.51100000000E-03 0. -1.
        -11    1    4    4    0    0  0.19420778048E+02  0.30830439616E+01  0.11454618639E+02  0.22756978457E+02  0.51100000000E-03 0.  1.
        -12    1    4    4    0    0 -0.57215589279E+01 -0.20354142224E+02  0.17325800455E+02  0.27335155087E+02  0.00000000000E+00 0.  1.
</event>
<event>
 8    1  0.2521748E-006  0.9118800E+02  0.7816164E-02  0.1184000E+00
        -11   -1    0    0    0    0  0.00000000000E+00  0.00000000000E+00  0.45593999997E+02  0.45594000000E+02  0.51100000000E-03 0.  1.
         11   -1    0    0    0    0 -0.00000000000E+00 -0.00000000000E+00 -0.45593999997E+02  0.45594000000E+02  0.51100000000E-03 0. -1.
         23    2    1    2    0    0  0.00000000000E+00  0.00000000000E+00  0.00000000000E+00  0.91188000000E+02  0.91188000000E+02 0.  0.
    9900012    2    3    3    0    0 -0.15652883929E+02 -0.26245290915E+02  0.20541465771E+02  0.54367083573E+02  0.39999998620E+02 0.  0.
         12    1    3    3    0    0  0.15652883929E+02  0.26245290915E+02 -0.20541465771E+02  0.36820916427E+02  0.00000000000E+00 0. -1.
         11    1    4    4    0    0 -0.98614723138E+00 -0.12183142620E+02 -0.69045096628E+01  0.14038294213E+02  0.51100000000E-03 0. -1.
        -11    1    4    4    0    0 -0.10463658955E+02 -0.19793277620E+02  0.19776878260E+02  0.29872845724E+02  0.51100000000E-03 0.  1.
        -12    1    4    4    0    0 -0.42030777431E+01  0.57311293248E+01  0.76690971741E+01  0.10455943636E+02  0.00000000000E+00 0.  1.
</event>
<event>
 8    1  0.2521748E-006  0.9118800E+02  0.7816164E-02  0.1184000E+00
        -11   -1    0    0    0    0  0.00000000000E+00  0.00000000000E+00  0.45593999997E+02  0.45594000000E+02  0.51100000000E-03 0. -1.
         11   -1    0    0    0    0 -0.00000000000E+00 -0.00000000000E+00 -0.45593999997E+02  0.45594000000E+02  0.51100000000E-03 0.  1.
         23    2    1    2    0    0  0.00000000000E+00  0.17763568394E-14  0.11102230246E-14  0.91188000000E+02  0.91188000000E+02 0.  0.
    9900012    2    3    3    0    0 -0.35870857979E+02  0.82915067909E+01  0.55846879754E+00  0.54367089848E+02  0.40000012926E+02 0.  0.
         12    1    3    3    0    0  0.35870857979E+02 -0.82915067909E+01 -0.55846879754E+00  0.36820910152E+02  0.00000000000E+00 0. -1.
         11    1    4    4    0    0  0.23933503520E+01 -0.76071928412E+01 -0.51989514538E+01  0.95198006971E+01  0.51100000000E-03 0. -1.
        -11    1    4    4    0    0 -0.18298487908E+02  0.11414470306E+01 -0.28827131688E+01  0.18559299462E+02  0.51100000000E-03 0.  1.
         12    1    4    4    0    0 -0.19965720423E+02  0.14757252602E+02  0.86401334202E+01  0.26287989689E+02  0.00000000000E+00 0. -1.
</event>
<event>
 8    1  0.2521748E-006  0.9118800E+02  0.7816164E-02  0.1184000E+00
        -11   -1    0    0    0    0  0.00000000000E+00  0.00000000000E+00  0.45593999997E+02  0.45594000000E+02  0.51100000000E-03 0.  1.
         11   -1    0    0    0    0 -0.00000000000E+00 -0.00000000000E+00 -0.45593999997E+02  0.45594000000E+02  0.51100000000E-03 0. -1.
         23    2    1    2    0    0 -0.17763568394E-14  0.00000000000E+00  0.00000000000E+00  0.91188000000E+02  0.91188000000E+02 0.  0.
    9900012    2    3    3    0    0  0.86503302891E+01  0.11465305000E+02 -0.33904306609E+02  0.54367035326E+02  0.39999888634E+02 0.  0.
        -12    1    3    3    0    0 -0.86503302891E+01 -0.11465305000E+02  0.33904306609E+02  0.36820964674E+02  0.00000000000E+00 0.  1.
         11    1    4    4    0    0  0.13324835065E+02  0.59151054483E+01 -0.35269970477E+02  0.38164257096E+02  0.51100000000E-03 0. -1.
        -11    1    4    4    0    0  0.11825632729E+01  0.84888938526E+01  0.35761889361E+01  0.92870287123E+01  0.51100000000E-03 0.  1.
         12    1    4    4    0    0 -0.58570680490E+01 -0.29386943008E+01 -0.22105250683E+01  0.69157495184E+01  0.00000000000E+00 0. -1.
</event>
<event>
 8    1  0.2521748E-006  0.9118800E+02  0.7816164E-02  0.1184000E+00
        -11   -1    0    0    0    0  0.00000000000E+00  0.00000000000E+00  0.45593999997E+02  0.45594000000E+02  0.51100000000E-03 0.  1.
         11   -1    0    0    0    0 -0.00000000000E+00 -0.00000000000E+00 -0.45593999997E+02  0.45594000000E+02  0.51100000000E-03 0. -1.
         23    2    1    2    0    0  0.00000000000E+00  0.35527136788E-14  0.88817841970E-15  0.91188000000E+02  0.91188000000E+02 0.  0.
    9900012    2    3    3    0    0 -0.21393525959E+02 -0.29954989906E+02 -0.89352653449E+00  0.54367044514E+02  0.39999909579E+02 0.  0.
         12    1    3    3    0    0  0.21393525959E+02  0.29954989906E+02  0.89352653449E+00  0.36820955486E+02  0.00000000000E+00 0. -1.
         11    1    4    4    0    0 -0.98049772129E+01 -0.38283933212E+00 -0.66680173067E+01  0.11863667189E+02  0.51100000000E-03 0. -1.
        -11    1    4    4    0    0  0.47619709756E+01 -0.12067189159E+00  0.73750292427E+01  0.87796347230E+01  0.51100000000E-03 0.  1.
         12    1    4    4    0    0 -0.16350519722E+02 -0.29451478682E+02 -0.16005384704E+01  0.33723742603E+02  0.00000000000E+00 0. -1.
</event>
<event>
 8    1  0.2521748E-006  0.9118800E+02  0.7816164E-02  0.1184000E+00
        -11   -1    0    0    0    0  0.00000000000E+00  0.00000000000E+00  0.45593999997E+02  0.45594000000E+02  0.51100000000E-03 0. -1.
         11   -1    0    0    0    0 -0.00000000000E+00 -0.00000000000E+00 -0.45593999997E+02  0.45594000000E+02  0.51100000000E-03 0.  1.
         23    2    1    2    0    0  0.00000000000E+00  0.00000000000E+00  0.00000000000E+00  0.91188000000E+02  0.91188000000E+02 0.  0.
    9900012    2    3    3    0    0 -0.13097632578E+02  0.27557881044E+02 -0.20610554826E+02  0.54367085332E+02  0.40000002631E+02 0.  0.
         12    1    3    3    0    0  0.13097632578E+02 -0.27557881044E+02  0.20610554826E+02  0.36820914668E+02  0.00000000000E+00 0. -1.
         11    1    4    4    0    0  0.32312160173E+01  0.55445623082E+01 -0.14054726666E+02  0.15450510350E+02  0.51100000000E-03 0. -1.
        -11    1    4    4    0    0 -0.15788660507E+02  0.27323533766E+02 -0.15442687465E+01  0.31594968971E+02  0.51100000000E-03 0.  1.
        -12    1    4    4    0    0 -0.54018808872E+00 -0.53102150301E+01 -0.50115594127E+01  0.73216060112E+01  0.00000000000E+00 0.  1.
</event>
<event>
 8    1  0.2521748E-006  0.9118800E+02  0.7816164E-02  0.1184000E+00
        -11   -1    0    0    0    0  0.00000000000E+00  0.00000000000E+00  0.45593999997E+02  0.45594000000E+02  0.51100000000E-03 0.  1.
         11   -1    0    0    0    0 -0.00000000000E+00 -0.00000000000E+00 -0.45593999997E+02  0.45594000000E+02  0.51100000000E-03 0. -1.
         23    2    1    2    0    0  0.00000000000E+00 -0.22204460493E-14  0.00000000000E+00  0.91188000000E+02  0.91188000000E+02 0.  0.
    9900012    2    3    3    0    0  0.35695954413E+02 -0.34806769771E+01 -0.83345538528E+01  0.54367067616E+02  0.39999962245E+02 0.  0.
         12    1    3    3    0    0 -0.35695954413E+02  0.34806769771E+01  0.83345538528E+01  0.36820932384E+02  0.00000000000E+00 0. -1.
         11    1    4    4    0    0  0.13973148988E+02  0.10740531921E+02 -0.84503542882E+01  0.19545239994E+02  0.51100000000E-03 0. -1.
        -11    1    4    4    0    0  0.58150980420E+01  0.57074463196E+01 -0.38574222651E+01  0.90149883817E+01  0.51100000000E-03 0.  1.
         12    1    4    4    0    0  0.15907707383E+02 -0.19928655217E+02  0.39732227004E+01  0.25806839240E+02  0.00000000000E+00 0. -1.
</event>
<event>
 8    1  0.2521748E-006  0.9118800E+02  0.7816164E-02  0.1184000E+00
        -11   -1    0    0    0    0  0.00000000000E+00  0.00000000000E+00  0.45593999997E+02  0.45594000000E+02  0.51100000000E-03 0. -1.
         11   -1    0    0    0    0 -0.00000000000E+00 -0.00000000000E+00 -0.45593999997E+02  0.45594000000E+02  0.51100000000E-03 0.  1.
         23    2    1    2    0    0 -0.17763568394E-14  0.00000000000E+00  0.00000000000E+00  0.91188000000E+02  0.91188000000E+02 0.  0.
    9900012    2    3    3    0    0  0.12908937790E+02 -0.26021015465E+02  0.22628403217E+02  0.54367101683E+02  0.40000039907E+02 0.  0.
        -12    1    3    3    0    0 -0.12908937790E+02  0.26021015465E+02 -0.22628403217E+02  0.36820898317E+02  0.00000000000E+00 0.  1.
         11    1    4    4    0    0 -0.15400740943E+01 -0.20611604888E+02  0.21996213278E+02  0.30183496867E+02  0.51100000000E-03 0. -1.
        -11    1    4    4    0    0  0.52369348557E+01 -0.56192253615E+00 -0.87217475808E+01  0.10188725374E+02  0.51100000000E-03 0.  1.
         12    1    4    4    0    0  0.92120770284E+01 -0.48474880413E+01  0.93539375196E+01  0.13994879442E+02  0.00000000000E+00 0. -1.
</event>
<event>
 8    1  0.2521748E-006  0.9118800E+02  0.7816164E-02  0.1184000E+00
        -11   -1    0    0    0    0  0.00000000000E+00  0.00000000000E+00  0.45593999997E+02  0.45594000000E+02  0.51100000000E-03 0. -1.
         11   -1    0    0    0    0 -0.00000000000E+00 -0.00000000000E+00 -0.45593999997E+02  0.45594000000E+02  0.51100000000E-03 0.  1.
         23    2    1    2    0    0 -0.35527136788E-14  0.17763568394E-14 -0.35527136788E-14  0.91188000000E+02  0.91188000000E+02 0.  0.
    9900012    2    3    3    0    0  0.17005665870E+02  0.13757280746E+02 -0.29619674467E+02  0.54367074418E+02  0.39999977751E+02 0.  0.
         12    1    3    3    0    0 -0.17005665870E+02 -0.13757280746E+02  0.29619674467E+02  0.36820925582E+02  0.00000000000E+00 0. -1.
         11    1    4    4    0    0  0.12308774781E+02  0.12362865217E+02 -0.11249674552E+01  0.17481759781E+02  0.51100000000E-03 0. -1.
        -11    1    4    4    0    0 -0.40190047674E+01  0.50947252217E+01 -0.26402275384E+02  0.27188026227E+02  0.51100000000E-03 0.  1.
        -12    1    4    4    0    0  0.87158958560E+01 -0.37003096930E+01 -0.20924316275E+01  0.96972884103E+01  0.00000000000E+00 0.  1.
</event>
<event>
 8    1  0.2521748E-006  0.9118800E+02  0.7816164E-02  0.1184000E+00
        -11   -1    0    0    0    0  0.00000000000E+00  0.00000000000E+00  0.45593999997E+02  0.45594000000E+02  0.51100000000E-03 0. -1.
         11   -1    0    0    0    0 -0.00000000000E+00 -0.00000000000E+00 -0.45593999997E+02  0.45594000000E+02  0.51100000000E-03 0.  1.
         23    2    1    2    0    0  0.00000000000E+00  0.00000000000E+00  0.00000000000E+00  0.91188000000E+02  0.91188000000E+02 0.  0.
    9900012    2    3    3    0    0  0.18662475373E+02 -0.13255103138E+02 -0.28841146696E+02  0.54366844546E+02  0.39999453707E+02 0.  0.
         12    1    3    3    0    0 -0.18662475373E+02  0.13255103138E+02  0.28841146696E+02  0.36821155454E+02  0.00000000000E+00 0. -1.
         11    1    4    4    0    0  0.16599342947E+01 -0.62151147848E+01  0.42185745063E+01  0.76928151399E+01  0.51100000000E-03 0. -1.
        -11    1    4    4    0    0 -0.89416473298E+00 -0.11454283694E+02 -0.38171984887E+01  0.12106657263E+02  0.51100000000E-03 0.  1.
        -12    1    4    4    0    0  0.17896705811E+02  0.44142953404E+01 -0.29242522714E+02  0.34567372143E+02  0.00000000000E+00 0.  1.
</event>
<event>
 8    1  0.2521748E-006  0.9118800E+02  0.7816164E-02  0.1184000E+00
        -11   -1    0    0    0    0  0.00000000000E+00  0.00000000000E+00  0.45593999997E+02  0.45594000000E+02  0.51100000000E-03 0. -1.
         11   -1    0    0    0    0 -0.00000000000E+00 -0.00000000000E+00 -0.45593999997E+02  0.45594000000E+02  0.51100000000E-03 0.  1.
         23    2    1    2    0    0  0.00000000000E+00  0.00000000000E+00  0.17763568394E-14  0.91188000000E+02  0.91188000000E+02 0.  0.
    9900012    2    3    3    0    0 -0.14175443147E+02 -0.31537373672E+02 -0.12658226865E+02  0.54367084287E+02  0.40000000249E+02 0.  0.
         12    1    3    3    0    0  0.14175443147E+02  0.31537373672E+02  0.12658226865E+02  0.36820915713E+02  0.00000000000E+00 0. -1.
         11    1    4    4    0    0 -0.19116393611E+02 -0.19578440089E+02 -0.89220124718E+01  0.28781141879E+02  0.51100000000E-03 0.  1.
        -11    1    4    4    0    0  0.85608642338E+01  0.20688257905E+01  0.33945426398E+01  0.94388217790E+01  0.51100000000E-03 0. -1.
         12    1    4    4    0    0 -0.36199137700E+01 -0.14027759374E+02 -0.71307570334E+01  0.16147120629E+02  0.00000000000E+00 0. -1.
</event>
<event>
 8    1  0.2521748E-006  0.9118800E+02  0.7816164E-02  0.1184000E+00
        -11   -1    0    0    0    0  0.00000000000E+00  0.00000000000E+00  0.45593999997E+02  0.45594000000E+02  0.51100000000E-03 0.  1.
         11   -1    0    0    0    0 -0.00000000000E+00 -0.00000000000E+00 -0.45593999997E+02  0.45594000000E+02  0.51100000000E-03 0. -1.
         23    2    1    2    0    0  0.22204460493E-15 -0.17763568394E-14  0.00000000000E+00  0.91188000000E+02  0.91188000000E+02 0.  0.
    9900012    2    3    3    0    0 -0.12178405745E+01 -0.12750281326E+02  0.34521391526E+02  0.54367091776E+02  0.40000017322E+02 0.  0.
         12    1    3    3    0    0  0.12178405745E+01  0.12750281326E+02 -0.34521391526E+02  0.36820908224E+02  0.00000000000E+00 0. -1.
         11    1    4    4    0    0  0.37969333217E+01  0.24028437299E+00  0.66575829561E+01  0.76679756330E+01  0.51100000000E-03 0. -1.
        -11    1    4    4    0    0 -0.49298672524E+01  0.61250898370E+01  0.26378831348E+02  0.27525680013E+02  0.51100000000E-03 0.  1.
        -12    1    4    4    0    0 -0.84906643761E-01 -0.19115655536E+02  0.14849772220E+01  0.19173436130E+02  0.00000000000E+00 0.  1.
</event>
<event>
 8    1  0.2521748E-006  0.9118800E+02  0.7816164E-02  0.1184000E+00
        -11   -1    0    0    0    0  0.00000000000E+00  0.00000000000E+00  0.45593999997E+02  0.45594000000E+02  0.51100000000E-03 0. -1.
         11   -1    0    0    0    0 -0.00000000000E+00 -0.00000000000E+00 -0.45593999997E+02  0.45594000000E+02  0.51100000000E-03 0.  1.
         23    2    1    2    0    0  0.00000000000E+00  0.00000000000E+00  0.35527136788E-14  0.91188000000E+02  0.91188000000E+02 0.  0.
    9900012    2    3    3    0    0  0.10073911574E+02 -0.16387795944E+02  0.31396421776E+02  0.54367097639E+02  0.40000030688E+02 0.  0.
        -12    1    3    3    0    0 -0.10073911574E+02  0.16387795944E+02 -0.31396421776E+02  0.36820902361E+02  0.00000000000E+00 0.  1.
         11    1    4    4    0    0  0.65440768909E+01 -0.11426431685E+02  0.17301458579E+02  0.21742326293E+02  0.51100000000E-03 0. -1.
        -11    1    4    4    0    0  0.45432474145E+01 -0.12634613005E+02  0.19144427635E+02  0.23383405495E+02  0.51100000000E-03 0.  1.
        -12    1    4    4    0    0 -0.10134127317E+01  0.76732487457E+01 -0.50494644376E+01  0.92413658506E+01  0.00000000000E+00 0.  1.
</event>
<event>
 8    1  0.2521748E-006  0.9118800E+02  0.7816164E-02  0.1184000E+00
        -11   -1    0    0    0    0  0.00000000000E+00  0.00000000000E+00  0.45593999997E+02  0.45594000000E+02  0.51100000000E-03 0. -1.
         11   -1    0    0    0    0 -0.00000000000E+00 -0.00000000000E+00 -0.45593999997E+02  0.45594000000E+02  0.51100000000E-03 0.  1.
         23    2    1    2    0    0 -0.88817841970E-15 -0.35527136788E-14 -0.35527136788E-14  0.91188000000E+02  0.91188000000E+02 0.  0.
    9900012    2    3    3    0    0 -0.39407188202E+01 -0.18766101842E+02 -0.31433802740E+02  0.54367084777E+02  0.40000001366E+02 0.  0.
         12    1    3    3    0    0  0.39407188202E+01  0.18766101842E+02  0.31433802740E+02  0.36820915223E+02  0.00000000000E+00 0. -1.
         11    1    4    4    0    0 -0.20677637370E+01  0.19925704354E+01  0.47819175016E+01  0.55778776489E+01  0.51100000000E-03 0. -1.
        -11    1    4    4    0    0 -0.10995348554E+01 -0.73847715070E+01  0.24585124957E+01  0.78605413975E+01  0.51100000000E-03 0.  1.
        -12    1    4    4    0    0 -0.77342022774E+00 -0.13373900771E+02 -0.38674232737E+02  0.40928665731E+02  0.00000000000E+00 0.  1.
</event>
<event>
 8    1  0.2521748E-006  0.9118800E+02  0.7816164E-02  0.1184000E+00
        -11   -1    0    0    0    0  0.00000000000E+00  0.00000000000E+00  0.45593999997E+02  0.45594000000E+02  0.51100000000E-03 0. -1.
         11   -1    0    0    0    0 -0.00000000000E+00 -0.00000000000E+00 -0.45593999997E+02  0.45594000000E+02  0.51100000000E-03 0.  1.
         23    2    1    2    0    0  0.00000000000E+00  0.00000000000E+00 -0.83266726847E-16  0.91188000000E+02  0.91188000000E+02 0.  0.
    9900012    2    3    3    0    0 -0.36730806320E+02  0.25657538734E+01  0.19055431769E+00  0.54367196956E+02  0.40000257099E+02 0.  0.
         12    1    3    3    0    0  0.36730806320E+02 -0.25657538734E+01 -0.19055431769E+00  0.36820803044E+02  0.00000000000E+00 0. -1.
         11    1    4    4    0    0 -0.14047055353E+02 -0.87322778000E+01  0.13184453874E+01  0.16592490414E+02  0.51100000000E-03 0. -1.
        -11    1    4    4    0    0 -0.23987245536E+02 -0.22874906932E+01 -0.12120653191E+01  0.24126534452E+02  0.51100000000E-03 0.  1.
        -12    1    4    4    0    0  0.13034945686E+01  0.13585522367E+02  0.84174249443E-01  0.13648172089E+02  0.00000000000E+00 0.  1.
</event>
<event>
 8    1  0.2521748E-006  0.9118800E+02  0.7816164E-02  0.1184000E+00
        -11   -1    0    0    0    0  0.00000000000E+00  0.00000000000E+00  0.45593999997E+02  0.45594000000E+02  0.51100000000E-03 0.  1.
         11   -1    0    0    0    0 -0.00000000000E+00 -0.00000000000E+00 -0.45593999997E+02  0.45594000000E+02  0.51100000000E-03 0. -1.
         23    2    1    2    0    0 -0.44408920985E-15  0.00000000000E+00  0.00000000000E+00  0.91188000000E+02  0.91188000000E+02 0.  0.
    9900012    2    3    3    0    0  0.24931530695E+01  0.75185068175E+01 -0.35958821958E+02  0.54367073428E+02  0.39999975494E+02 0.  0.
        -12    1    3    3    0    0 -0.24931530695E+01 -0.75185068175E+01  0.35958821958E+02  0.36820926572E+02  0.00000000000E+00 0.  1.
         11    1    4    4    0    0  0.10069237154E+02 -0.10067755306E+02 -0.24302952410E+02  0.28167050429E+02  0.51100000000E-03 0. -1.
        -11    1    4    4    0    0 -0.52886631382E+01  0.17662465318E+02 -0.13826494281E+02  0.23045706395E+02  0.51100000000E-03 0.  1.
         12    1    4    4    0    0 -0.22874209460E+01 -0.76203193797E-01  0.21706247326E+01  0.31543166044E+01  0.00000000000E+00 0. -1.
</event>
<event>
 8    1  0.2521748E-006  0.9118800E+02  0.7816164E-02  0.1184000E+00
        -11   -1    0    0    0    0  0.00000000000E+00  0.00000000000E+00  0.45593999997E+02  0.45594000000E+02  0.51100000000E-03 0. -1.
         11   -1    0    0    0    0 -0.00000000000E+00 -0.00000000000E+00 -0.45593999997E+02  0.45594000000E+02  0.51100000000E-03 0.  1.
         23    2    1    2    0    0 -0.58286708793E-15 -0.88817841970E-15  0.00000000000E+00  0.91188000000E+02  0.91188000000E+02 0.  0.
    9900012    2    3    3    0    0  0.24370463377E+00 -0.18487887619E+01  0.36773665310E+02  0.54367083768E+02  0.39999999066E+02 0.  0.
        -12    1    3    3    0    0 -0.24370463377E+00  0.18487887619E+01 -0.36773665310E+02  0.36820916232E+02  0.00000000000E+00 0.  1.
         11    1    4    4    0    0  0.58933594041E+01 -0.17973017293E+02  0.17092743466E+02  0.25493585765E+02  0.51100000000E-03 0. -1.
        -11    1    4    4    0    0 -0.33920134474E+01  0.11563102393E+02  0.45015941656E+01  0.12863725839E+02  0.51100000000E-03 0.  1.
        -12    1    4    4    0    0 -0.22576413229E+01  0.45611261387E+01  0.15179327678E+02  0.16009772164E+02  0.00000000000E+00 0.  1.
</event>
<event>
 8    1  0.2521748E-006  0.9118800E+02  0.7816164E-02  0.1184000E+00
        -11   -1    0    0    0    0  0.00000000000E+00  0.00000000000E+00  0.45593999997E+02  0.45594000000E+02  0.51100000000E-03 0. -1.
         11   -1    0    0    0    0 -0.00000000000E+00 -0.00000000000E+00 -0.45593999997E+02  0.45594000000E+02  0.51100000000E-03 0.  1.
         23    2    1    2    0    0 -0.44408920985E-15 -0.33306690739E-15  0.71054273576E-14  0.91188000000E+02  0.91188000000E+02 0.  0.
    9900012    2    3    3    0    0  0.20339867157E+01 -0.10827237021E+00 -0.36764547750E+02  0.54367071222E+02  0.39999970464E+02 0.  0.
         12    1    3    3    0    0 -0.20339867157E+01  0.10827237021E+00  0.36764547750E+02  0.36820928778E+02  0.00000000000E+00 0. -1.
         11    1    4    4    0    0  0.67871932084E+01  0.37351180888E+01  0.51194842684E+01  0.92858073543E+01  0.51100000000E-03 0. -1.
        -11    1    4    4    0    0  0.38837322918E+01  0.35668532660E+01 -0.12217745675E+02  0.13307108190E+02  0.51100000000E-03 0.  1.
        -12    1    4    4    0    0 -0.86369387845E+01 -0.74102437250E+01 -0.29666286343E+02  0.31774155677E+02  0.00000000000E+00 0.  1.
</event>
<event>
 8    1  0.2521748E-006  0.9118800E+02  0.7816164E-02  0.1184000E+00
        -11   -1    0    0    0    0  0.00000000000E+00  0.00000000000E+00  0.45593999997E+02  0.45594000000E+02  0.51100000000E-03 0. -1.
         11   -1    0    0    0    0 -0.00000000000E+00 -0.00000000000E+00 -0.45593999997E+02  0.45594000000E+02  0.51100000000E-03 0.  1.
         23    2    1    2    0    0  0.17763568394E-14  0.00000000000E+00 -0.35527136788E-14  0.91188000000E+02  0.91188000000E+02 0.  0.
    9900012    2    3    3    0    0 -0.97402593427E+01  0.19774431194E+02  0.29493667387E+02  0.54367120094E+02  0.40000081878E+02 0.  0.
        -12    1    3    3    0    0  0.97402593427E+01 -0.19774431194E+02 -0.29493667387E+02  0.36820879906E+02  0.00000000000E+00 0.  1.
         11    1    4    4    0    0 -0.24967859869E+01 -0.10195530558E+02  0.15064199805E+02  0.18360634511E+02  0.51100000000E-03 0. -1.
        -11    1    4    4    0    0 -0.58871532181E+01  0.43659694728E+01  0.37266492722E+01  0.82224192005E+01  0.51100000000E-03 0.  1.
        -12    1    4    4    0    0 -0.13563201377E+01  0.25603992280E+02  0.10702818310E+02  0.27784066383E+02  0.00000000000E+00 0.  1.
</event>
<event>
 8    1  0.2521748E-006  0.9118800E+02  0.7816164E-02  0.1184000E+00
        -11   -1    0    0    0    0  0.00000000000E+00  0.00000000000E+00  0.45593999997E+02  0.45594000000E+02  0.51100000000E-03 0.  1.
         11   -1    0    0    0    0 -0.00000000000E+00 -0.00000000000E+00 -0.45593999997E+02  0.45594000000E+02  0.51100000000E-03 0. -1.
         23    2    1    2    0    0  0.00000000000E+00  0.33306690739E-15  0.00000000000E+00  0.91188000000E+02  0.91188000000E+02 0.  0.
    9900012    2    3    3    0    0  0.13795464717E+02  0.89987088854E+00  0.34127012926E+02  0.54367114275E+02  0.40000068612E+02 0.  0.
         12    1    3    3    0    0 -0.13795464717E+02 -0.89987088854E+00 -0.34127012926E+02  0.36820885725E+02  0.00000000000E+00 0. -1.
         11    1    4    4    0    0  0.42971365846E+01 -0.12387355580E+02  0.55387885305E+00  0.13123213902E+02  0.51100000000E-03 0. -1.
        -11    1    4    4    0    0  0.85333714188E+01  0.75263896803E+01  0.56265595158E+01  0.12693429073E+02  0.51100000000E-03 0.  1.
        -12    1    4    4    0    0  0.96495671339E+00  0.57608367878E+01  0.27946574557E+02  0.28550471299E+02  0.00000000000E+00 0.  1.
</event>
<event>
 8    1  0.2521748E-006  0.9118800E+02  0.7816164E-02  0.1184000E+00
        -11   -1    0    0    0    0  0.00000000000E+00  0.00000000000E+00  0.45593999997E+02  0.45594000000E+02  0.51100000000E-03 0. -1.
         11   -1    0    0    0    0 -0.00000000000E+00 -0.00000000000E+00 -0.45593999997E+02  0.45594000000E+02  0.51100000000E-03 0.  1.
         23    2    1    2    0    0  0.00000000000E+00  0.00000000000E+00  0.00000000000E+00  0.91188000000E+02  0.91188000000E+02 0.  0.
    9900012    2    3    3    0    0 -0.69898457109E+01 -0.31499092350E+02 -0.17740568063E+02  0.54367102168E+02  0.40000041013E+02 0.  0.
         12    1    3    3    0    0  0.69898457109E+01  0.31499092350E+02  0.17740568063E+02  0.36820897832E+02  0.00000000000E+00 0. -1.
         11    1    4    4    0    0 -0.64655989225E+01 -0.24640212871E+02 -0.41838962988E+01  0.25815674468E+02  0.51100000000E-03 0.  1.
        -11    1    4    4    0    0 -0.40266535221E+01  0.33493567659E+01  0.48991335292E+01  0.71717249620E+01  0.51100000000E-03 0. -1.
        -12    1    4    4    0    0  0.35024067337E+01 -0.10208236245E+02 -0.18455805293E+02  0.21379702738E+02  0.00000000000E+00 0.  1.
</event>
<event>
 8    1  0.2521748E-006  0.9118800E+02  0.7816164E-02  0.1184000E+00
        -11   -1    0    0    0    0  0.00000000000E+00  0.00000000000E+00  0.45593999997E+02  0.45594000000E+02  0.51100000000E-03 0. -1.
         11   -1    0    0    0    0 -0.00000000000E+00 -0.00000000000E+00 -0.45593999997E+02  0.45594000000E+02  0.51100000000E-03 0.  1.
         23    2    1    2    0    0  0.00000000000E+00  0.88817841970E-15  0.00000000000E+00  0.91188000000E+02  0.91188000000E+02 0.  0.
    9900012    2    3    3    0    0  0.17493562936E+02  0.47244520901E+01 -0.32053629221E+02  0.54367077442E+02  0.39999984645E+02 0.  0.
         12    1    3    3    0    0 -0.17493562936E+02 -0.47244520901E+01  0.32053629221E+02  0.36820922558E+02  0.00000000000E+00 0. -1.
         11    1    4    4    0    0 -0.48554358474E+01 -0.51929471886E+01 -0.12305394326E+02  0.14211428061E+02  0.51100000000E-03 0. -1.
        -11    1    4    4    0    0 -0.48351220599E+01  0.42103781534E+01 -0.64458351236E+00  0.64436928616E+01  0.51100000000E-03 0.  1.
        -12    1    4    4    0    0  0.27184120844E+02  0.57070211252E+01 -0.19103651383E+02  0.33711956519E+02  0.00000000000E+00 0.  1.
</event>
<event>
 8    1  0.2521748E-006  0.9118800E+02  0.7816164E-02  0.1184000E+00
        -11   -1    0    0    0    0  0.00000000000E+00  0.00000000000E+00  0.45593999997E+02  0.45594000000E+02  0.51100000000E-03 0. -1.
         11   -1    0    0    0    0 -0.00000000000E+00 -0.00000000000E+00 -0.45593999997E+02  0.45594000000E+02  0.51100000000E-03 0.  1.
         23    2    1    2    0    0 -0.22204460493E-15  0.00000000000E+00  0.00000000000E+00  0.91188000000E+02  0.91188000000E+02 0.  0.
    9900012    2    3    3    0    0 -0.18271484143E+01  0.33017225796E+02 -0.16195810707E+02  0.54367082642E+02  0.39999996500E+02 0.  0.
         12    1    3    3    0    0  0.18271484143E+01 -0.33017225796E+02  0.16195810707E+02  0.36820917358E+02  0.00000000000E+00 0. -1.
         11    1    4    4    0    0 -0.89503396319E+00  0.13686437524E+02  0.57039697718E+01  0.14854458230E+02  0.51100000000E-03 0. -1.
        -11    1    4    4    0    0 -0.73872388930E+01  0.16535212221E+02 -0.25759620947E+02  0.31488769637E+02  0.51100000000E-03 0.  1.
         12    1    4    4    0    0  0.64551244419E+01  0.27955760513E+01  0.38598404680E+01  0.80238547755E+01  0.00000000000E+00 0. -1.
</event>
<event>
 8    1  0.2521748E-006  0.9118800E+02  0.7816164E-02  0.1184000E+00
        -11   -1    0    0    0    0  0.00000000000E+00  0.00000000000E+00  0.45593999997E+02  0.45594000000E+02  0.51100000000E-03 0. -1.
         11   -1    0    0    0    0 -0.00000000000E+00 -0.00000000000E+00 -0.45593999997E+02  0.45594000000E+02  0.51100000000E-03 0.  1.
         23    2    1    2    0    0  0.00000000000E+00  0.00000000000E+00 -0.35527136788E-14  0.91188000000E+02  0.91188000000E+02 0.  0.
    9900012    2    3    3    0    0 -0.21073261132E+02 -0.26148448036E+02 -0.15098174002E+02  0.54367102026E+02  0.40000040689E+02 0.  0.
        -12    1    3    3    0    0  0.21073261132E+02  0.26148448036E+02  0.15098174002E+02  0.36820897974E+02  0.00000000000E+00 0.  1.
         11    1    4    4    0    0 -0.86456046401E+01 -0.18235176715E+02 -0.26063824592E+02  0.32963481340E+02  0.51100000000E-03 0.  1.
        -11    1    4    4    0    0 -0.10082240698E+02  0.29220221054E-01  0.64825964521E+01  0.11986512768E+02  0.51100000000E-03 0. -1.
        -12    1    4    4    0    0 -0.23454157929E+01 -0.79424915418E+01  0.44830541380E+01  0.94171079179E+01  0.00000000000E+00 0.  1.
</event>
<event>
 8    1  0.2521748E-006  0.9118800E+02  0.7816164E-02  0.1184000E+00
        -11   -1    0    0    0    0  0.00000000000E+00  0.00000000000E+00  0.45593999997E+02  0.45594000000E+02  0.51100000000E-03 0. -1.
         11   -1    0    0    0    0 -0.00000000000E+00 -0.00000000000E+00 -0.45593999997E+02  0.45594000000E+02  0.51100000000E-03 0.  1.
         23    2    1    2    0    0 -0.44408920985E-15  0.14210854715E-13  0.81532003371E-15  0.91188000000E+02  0.91188000000E+02 0.  0.
    9900012    2    3    3    0    0 -0.21694705088E+01  0.36756937579E+02  0.18687856304E-01  0.54367090020E+02  0.40000013319E+02 0.  0.
         12    1    3    3    0    0  0.21694705088E+01 -0.36756937579E+02 -0.18687856304E-01  0.36820909980E+02  0.00000000000E+00 0. -1.
         11    1    4    4    0    0 -0.42082372834E+01 -0.42901856496E+01 -0.59707646942E+01  0.84714216774E+01  0.51100000000E-03 0. -1.
        -11    1    4    4    0    0 -0.34042100699E+01  0.38129366176E+01  0.64915446862E+01  0.82624018617E+01  0.51100000000E-03 0.  1.
        -12    1    4    4    0    0  0.54429768445E+01  0.37234186611E+02 -0.50209213576E+00  0.37633266481E+02  0.00000000000E+00 0.  1.
</event>
<event>
 8    1  0.2521748E-006  0.9118800E+02  0.7816164E-02  0.1184000E+00
        -11   -1    0    0    0    0  0.00000000000E+00  0.00000000000E+00  0.45593999997E+02  0.45594000000E+02  0.51100000000E-03 0.  1.
         11   -1    0    0    0    0 -0.00000000000E+00 -0.00000000000E+00 -0.45593999997E+02  0.45594000000E+02  0.51100000000E-03 0. -1.
         23    2    1    2    0    0  0.35527136788E-14 -0.22204460493E-14  0.71054273576E-14  0.91188000000E+02  0.91188000000E+02 0.  0.
    9900012    2    3    3    0    0 -0.23527134978E+02  0.10410807955E+01 -0.28304946554E+02  0.54367082997E+02  0.39999997309E+02 0.  0.
        -12    1    3    3    0    0  0.23527134978E+02 -0.10410807955E+01  0.28304946554E+02  0.36820917003E+02  0.00000000000E+00 0.  1.
         11    1    4    4    0    0 -0.18134831585E+02  0.11075229321E+02 -0.17476827393E+02  0.27513129904E+02  0.51100000000E-03 0. -1.
        -11    1    4    4    0    0 -0.31916891042E+01 -0.16615872407E+02 -0.10486254227E+02  0.19905668116E+02  0.51100000000E-03 0.  1.
        -12    1    4    4    0    0 -0.22006142886E+01  0.65817238809E+01 -0.34186493407E+00  0.69482849772E+01  0.00000000000E+00 0.  1.
</event>
<event>
 8    1  0.2521748E-006  0.9118800E+02  0.7816164E-02  0.1184000E+00
        -11   -1    0    0    0    0  0.00000000000E+00  0.00000000000E+00  0.45593999997E+02  0.45594000000E+02  0.51100000000E-03 0. -1.
         11   -1    0    0    0    0 -0.00000000000E+00 -0.00000000000E+00 -0.45593999997E+02  0.45594000000E+02  0.51100000000E-03 0.  1.
         23    2    1    2    0    0  0.00000000000E+00 -0.35527136788E-14  0.00000000000E+00  0.91188000000E+02  0.91188000000E+02 0.  0.
    9900012    2    3    3    0    0 -0.12661486490E+02  0.30326042882E+02 -0.16607164974E+02  0.54367081414E+02  0.39999993700E+02 0.  0.
         12    1    3    3    0    0  0.12661486490E+02 -0.30326042882E+02  0.16607164974E+02  0.36820918586E+02  0.00000000000E+00 0. -1.
         11    1    4    4    0    0 -0.19969170556E+02  0.21334200199E+02 -0.15659694583E+02  0.33153309119E+02  0.51100000000E-03 0. -1.
        -11    1    4    4    0    0  0.28470818206E+01 -0.43861390230E+01 -0.42403864756E+01  0.67323820559E+01  0.51100000000E-03 0.  1.
         12    1    4    4    0    0  0.44606022449E+01  0.13377981707E+02  0.32929160854E+01  0.14481390240E+02  0.00000000000E+00 0. -1.
</event>
<event>
 8    1  0.2521748E-006  0.9118800E+02  0.7816164E-02  0.1184000E+00
        -11   -1    0    0    0    0  0.00000000000E+00  0.00000000000E+00  0.45593999997E+02  0.45594000000E+02  0.51100000000E-03 0.  1.
         11   -1    0    0    0    0 -0.00000000000E+00 -0.00000000000E+00 -0.45593999997E+02  0.45594000000E+02  0.51100000000E-03 0. -1.
         23    2    1    2    0    0  0.00000000000E+00  0.35527136788E-14  0.35527136788E-14  0.91188000000E+02  0.91188000000E+02 0.  0.
    9900012    2    3    3    0    0 -0.22274212788E+02  0.23575216512E+02 -0.17431274289E+02  0.54367072360E+02  0.39999973058E+02 0.  0.
         12    1    3    3    0    0  0.22274212788E+02 -0.23575216512E+02  0.17431274289E+02  0.36820927640E+02  0.00000000000E+00 0. -1.
         11    1    4    4    0    0 -0.41926191304E+01 -0.88458082252E+01  0.26036979630E+01  0.10129443305E+02  0.51100000000E-03 0. -1.
        -11    1    4    4    0    0 -0.78818534783E+01  0.12698236962E+02 -0.97904211014E+00  0.14977561881E+02  0.51100000000E-03 0.  1.
         12    1    4    4    0    0 -0.10199740180E+02  0.19722787776E+02 -0.19055930142E+02  0.29260067173E+02  0.00000000000E+00 0. -1.
</event>
<event>
 8    1  0.2521748E-006  0.9118800E+02  0.7816164E-02  0.1184000E+00
        -11   -1    0    0    0    0  0.00000000000E+00  0.00000000000E+00  0.45593999997E+02  0.45594000000E+02  0.51100000000E-03 0.  1.
         11   -1    0    0    0    0 -0.00000000000E+00 -0.00000000000E+00 -0.45593999997E+02  0.45594000000E+02  0.51100000000E-03 0. -1.
         23    2    1    2    0    0  0.00000000000E+00  0.00000000000E+00  0.00000000000E+00  0.91188000000E+02  0.91188000000E+02 0.  0.
    9900012    2    3    3    0    0 -0.26837793871E+02  0.87787252421E+01  0.23631584064E+02  0.54367014651E+02  0.39999841499E+02 0.  0.
         12    1    3    3    0    0  0.26837793871E+02 -0.87787252421E+01 -0.23631584064E+02  0.36820985349E+02  0.00000000000E+00 0. -1.
         11    1    4    4    0    0 -0.45475381832E+01  0.20580641361E+01  0.25177514744E+02  0.25667547223E+02  0.51100000000E-03 0.  1.
        -11    1    4    4    0    0 -0.18430667376E+02  0.45925628853E+01  0.60354368139E+01  0.19930068529E+02  0.51100000000E-03 0. -1.
         12    1    4    4    0    0 -0.38595883114E+01  0.21280982207E+01 -0.75813674933E+01  0.87693988984E+01  0.00000000000E+00 0. -1.
</event>
<event>
 8    1  0.2521748E-006  0.9118800E+02  0.7816164E-02  0.1184000E+00
        -11   -1    0    0    0    0  0.00000000000E+00  0.00000000000E+00  0.45593999997E+02  0.45594000000E+02  0.51100000000E-03 0.  1.
         11   -1    0    0    0    0 -0.00000000000E+00 -0.00000000000E+00 -0.45593999997E+02  0.45594000000E+02  0.51100000000E-03 0. -1.
         23    2    1    2    0    0  0.31086244690E-14  0.00000000000E+00  0.00000000000E+00  0.91188000000E+02  0.91188000000E+02 0.  0.
    9900012    2    3    3    0    0 -0.37897326129E+01  0.32337501657E+02 -0.17195977312E+02  0.54367112960E+02  0.40000065615E+02 0.  0.
        -12    1    3    3    0    0  0.37897326129E+01 -0.32337501657E+02  0.17195977312E+02  0.36820887040E+02  0.00000000000E+00 0.  1.
         11    1    4    4    0    0  0.11730635693E+02  0.91448812298E+00 -0.58652897529E+01  0.13147080529E+02  0.51100000000E-03 0. -1.
        -11    1    4    4    0    0 -0.18487386295E+02  0.30869247837E+02 -0.12337566141E+02  0.38038263006E+02  0.51100000000E-03 0.  1.
        -12    1    4    4    0    0  0.29670179891E+01  0.55376569727E+00  0.10068785816E+01  0.31817694249E+01  0.00000000000E+00 0.  1.
</event>
<event>
 8    1  0.2521748E-006  0.9118800E+02  0.7816164E-02  0.1184000E+00
        -11   -1    0    0    0    0  0.00000000000E+00  0.00000000000E+00  0.45593999997E+02  0.45594000000E+02  0.51100000000E-03 0. -1.
         11   -1    0    0    0    0 -0.00000000000E+00 -0.00000000000E+00 -0.45593999997E+02  0.45594000000E+02  0.51100000000E-03 0.  1.
         23    2    1    2    0    0  0.00000000000E+00  0.17763568394E-14  0.00000000000E+00  0.91188000000E+02  0.91188000000E+02 0.  0.
    9900012    2    3    3    0    0  0.12734353017E+02 -0.97000611460E+01  0.33159059190E+02  0.54367107298E+02  0.40000052708E+02 0.  0.
        -12    1    3    3    0    0 -0.12734353017E+02  0.97000611460E+01 -0.33159059190E+02  0.36820892702E+02  0.00000000000E+00 0.  1.
         11    1    4    4    0    0  0.12379297403E+02 -0.32715492831E+01  0.29236495015E+02  0.31917435359E+02  0.51100000000E-03 0. -1.
        -11    1    4    4    0    0 -0.87021866573E+00  0.19137701402E+01  0.11148632216E+02  0.11345122177E+02  0.51100000000E-03 0.  1.
        -12    1    4    4    0    0  0.12252742793E+01 -0.83422820031E+01 -0.72260680407E+01  0.11104549762E+02  0.00000000000E+00 0.  1.
</event>
<event>
 8    1  0.2521748E-006  0.9118800E+02  0.7816164E-02  0.1184000E+00
        -11   -1    0    0    0    0  0.00000000000E+00  0.00000000000E+00  0.45593999997E+02  0.45594000000E+02  0.51100000000E-03 0.  1.
         11   -1    0    0    0    0 -0.00000000000E+00 -0.00000000000E+00 -0.45593999997E+02  0.45594000000E+02  0.51100000000E-03 0. -1.
         23    2    1    2    0    0  0.17763568394E-14  0.17763568394E-14  0.71054273576E-14  0.91188000000E+02  0.91188000000E+02 0.  0.
    9900012    2    3    3    0    0 -0.95178936838E+01 -0.83486511653E+01 -0.34575852309E+02  0.54367084213E+02  0.40000000081E+02 0.  0.
        -12    1    3    3    0    0  0.95178936838E+01  0.83486511653E+01  0.34575852309E+02  0.36820915787E+02  0.00000000000E+00 0.  1.
         11    1    4    4    0    0 -0.14550293197E+02 -0.11898196579E+02 -0.18052115649E+02  0.26060640698E+02  0.51100000000E-03 0. -1.
        -11    1    4    4    0    0 -0.73851973477E+01 -0.26443570062E+01 -0.10675853115E+02  0.13247928285E+02  0.51100000000E-03 0.  1.
        -12    1    4    4    0    0  0.12417596861E+02  0.61939024199E+01 -0.58478835452E+01  0.15058515230E+02  0.00000000000E+00 0.  1.
</event>
<event>
 8    1  0.2521748E-006  0.9118800E+02  0.7816164E-02  0.1184000E+00
        -11   -1    0    0    0    0  0.00000000000E+00  0.00000000000E+00  0.45593999997E+02  0.45594000000E+02  0.51100000000E-03 0.  1.
         11   -1    0    0    0    0 -0.00000000000E+00 -0.00000000000E+00 -0.45593999997E+02  0.45594000000E+02  0.51100000000E-03 0. -1.
         23    2    1    2    0    0 -0.17763568394E-14  0.17763568394E-14  0.00000000000E+00  0.91188000000E+02  0.91188000000E+02 0.  0.
    9900012    2    3    3    0    0  0.14405137915E+02 -0.11743157913E+02  0.31786315805E+02  0.54367087076E+02  0.40000006607E+02 0.  0.
         12    1    3    3    0    0 -0.14405137915E+02  0.11743157913E+02 -0.31786315805E+02  0.36820912924E+02  0.00000000000E+00 0. -1.
         11    1    4    4    0    0 -0.58875012957E+01  0.11461647317E+01  0.10444750751E+02  0.12044466930E+02  0.51100000000E-03 0. -1.
        -11    1    4    4    0    0  0.92152586583E+01  0.82089460499E+01  0.44732704539E+01  0.13126992656E+02  0.51100000000E-03 0.  1.
        -12    1    4    4    0    0  0.11077380553E+02 -0.21098268695E+02  0.16868294600E+02  0.29195627490E+02  0.00000000000E+00 0.  1.
</event>
<event>
 8    1  0.2521748E-006  0.9118800E+02  0.7816164E-02  0.1184000E+00
        -11   -1    0    0    0    0  0.00000000000E+00  0.00000000000E+00  0.45593999997E+02  0.45594000000E+02  0.51100000000E-03 0. -1.
         11   -1    0    0    0    0 -0.00000000000E+00 -0.00000000000E+00 -0.45593999997E+02  0.45594000000E+02  0.51100000000E-03 0.  1.
         23    2    1    2    0    0  0.35527136788E-14  0.44408920985E-15 -0.35527136788E-14  0.91188000000E+02  0.91188000000E+02 0.  0.
    9900012    2    3    3    0    0 -0.31774773210E+02  0.23692932404E+01  0.18453415036E+02  0.54367105259E+02  0.40000048059E+02 0.  0.
         12    1    3    3    0    0  0.31774773210E+02 -0.23692932404E+01 -0.18453415036E+02  0.36820894741E+02  0.00000000000E+00 0. -1.
         11    1    4    4    0    0 -0.79223290591E+01  0.11102162762E+02  0.73500355155E+01  0.15493364323E+02  0.51100000000E-03 0. -1.
        -11    1    4    4    0    0 -0.27131634917E+02 -0.80164839868E+01  0.16327232547E+02  0.32664478439E+02  0.51100000000E-03 0.  1.
         12    1    4    4    0    0  0.32791907656E+01 -0.71638553475E+00 -0.52238530264E+01  0.62092624967E+01  0.00000000000E+00 0. -1.
</event>
<event>
 8    1  0.2521748E-006  0.9118800E+02  0.7816164E-02  0.1184000E+00
        -11   -1    0    0    0    0  0.00000000000E+00  0.00000000000E+00  0.45593999997E+02  0.45594000000E+02  0.51100000000E-03 0.  1.
         11   -1    0    0    0    0 -0.00000000000E+00 -0.00000000000E+00 -0.45593999997E+02  0.45594000000E+02  0.51100000000E-03 0. -1.
         23    2    1    2    0    0  0.00000000000E+00  0.88817841970E-15  0.00000000000E+00  0.91188000000E+02  0.91188000000E+02 0.  0.
    9900012    2    3    3    0    0  0.20128040141E+02  0.66221614779E+01 -0.30112910211E+02  0.54367103977E+02  0.40000045137E+02 0.  0.
        -12    1    3    3    0    0 -0.20128040141E+02 -0.66221614779E+01  0.30112910211E+02  0.36820896023E+02  0.00000000000E+00 0.  1.
         11    1    4    4    0    0  0.98225105453E+01 -0.41777179507E+01 -0.17320624743E+02  0.20345492927E+02  0.51100000000E-03 0. -1.
        -11    1    4    4    0    0  0.94966767504E+01  0.20076053370E+02 -0.92824678519E+01  0.24070708297E+02  0.51100000000E-03 0.  1.
        -12    1    4    4    0    0  0.80885284510E+00 -0.92761739415E+01 -0.35098176153E+01  0.99509027536E+01  0.00000000000E+00 0.  1.
</event>
<event>
 8    1  0.2521748E-006  0.9118800E+02  0.7816164E-02  0.1184000E+00
        -11   -1    0    0    0    0  0.00000000000E+00  0.00000000000E+00  0.45593999997E+02  0.45594000000E+02  0.51100000000E-03 0. -1.
         11   -1    0    0    0    0 -0.00000000000E+00 -0.00000000000E+00 -0.45593999997E+02  0.45594000000E+02  0.51100000000E-03 0.  1.
         23    2    1    2    0    0  0.00000000000E+00  0.00000000000E+00 -0.17763568394E-14  0.91188000000E+02  0.91188000000E+02 0.  0.
    9900012    2    3    3    0    0 -0.34432230617E+02 -0.80478111749E+01 -0.10268018105E+02  0.54367109655E+02  0.40000058082E+02 0.  0.
         12    1    3    3    0    0  0.34432230617E+02  0.80478111749E+01  0.10268018105E+02  0.36820890345E+02  0.00000000000E+00 0. -1.
         11    1    4    4    0    0 -0.28185393489E+02 -0.88539397490E+01 -0.31104279321E-01  0.29543351586E+02  0.51100000000E-03 0. -1.
        -11    1    4    4    0    0  0.52652783768E+00  0.10438888650E+02 -0.71058081492E+01  0.12638834500E+02  0.51100000000E-03 0.  1.
         12    1    4    4    0    0 -0.67733649654E+01 -0.96327600756E+01 -0.31311056764E+01  0.12184923569E+02  0.00000000000E+00 0. -1.
</event>
<event>
 8    1  0.2521748E-006  0.9118800E+02  0.7816164E-02  0.1184000E+00
        -11   -1    0    0    0    0  0.00000000000E+00  0.00000000000E+00  0.45593999997E+02  0.45594000000E+02  0.51100000000E-03 0.  1.
         11   -1    0    0    0    0 -0.00000000000E+00 -0.00000000000E+00 -0.45593999997E+02  0.45594000000E+02  0.51100000000E-03 0. -1.
         23    2    1    2    0    0  0.00000000000E+00  0.00000000000E+00 -0.88817841970E-15  0.91188000000E+02  0.91188000000E+02 0.  0.
    9900012    2    3    3    0    0  0.36309738603E+02 -0.18519216495E+01  0.58269281581E+01  0.54367084436E+02  0.40000000588E+02 0.  0.
        -12    1    3    3    0    0 -0.36309738603E+02  0.18519216495E+01 -0.58269281581E+01  0.36820915564E+02  0.00000000000E+00 0.  1.
         11    1    4    4    0    0  0.72125714996E+01 -0.35992046534E+01 -0.14186463726E+02  0.16316593244E+02  0.51100000000E-03 0. -1.
        -11    1    4    4    0    0  0.23265017525E+02 -0.45520951428E+01  0.13556507439E+02  0.27308634255E+02  0.51100000000E-03 0.  1.
         12    1    4    4    0    0  0.58321495781E+01  0.62993781467E+01  0.64568844445E+01  0.10741856938E+02  0.00000000000E+00 0. -1.
</event>
<event>
 8    1  0.2521748E-006  0.9118800E+02  0.7816164E-02  0.1184000E+00
        -11   -1    0    0    0    0  0.00000000000E+00  0.00000000000E+00  0.45593999997E+02  0.45594000000E+02  0.51100000000E-03 0.  1.
         11   -1    0    0    0    0 -0.00000000000E+00 -0.00000000000E+00 -0.45593999997E+02  0.45594000000E+02  0.51100000000E-03 0. -1.
         23    2    1    2    0    0 -0.17763568394E-14  0.00000000000E+00  0.00000000000E+00  0.91188000000E+02  0.91188000000E+02 0.  0.
    9900012    2    3    3    0    0  0.15383104231E+02  0.22286591167E+02 -0.24948883674E+02  0.54367097808E+02  0.40000031074E+02 0.  0.
        -12    1    3    3    0    0 -0.15383104231E+02 -0.22286591167E+02  0.24948883674E+02  0.36820902192E+02  0.00000000000E+00 0.  1.
         11    1    4    4    0    0  0.73778505360E+01  0.45493500841E+01 -0.23695131437E+02  0.25230705872E+02  0.51100000000E-03 0. -1.
        -11    1    4    4    0    0  0.12868917589E+01  0.14245848334E+01  0.86801229362E+01  0.88898856458E+01  0.51100000000E-03 0.  1.
         12    1    4    4    0    0  0.67183619365E+01  0.16312656250E+02 -0.99338751728E+01  0.20246506291E+02  0.00000000000E+00 0. -1.
</event>
<event>
 8    1  0.2521748E-006  0.9118800E+02  0.7816164E-02  0.1184000E+00
        -11   -1    0    0    0    0  0.00000000000E+00  0.00000000000E+00  0.45593999997E+02  0.45594000000E+02  0.51100000000E-03 0.  1.
         11   -1    0    0    0    0 -0.00000000000E+00 -0.00000000000E+00 -0.45593999997E+02  0.45594000000E+02  0.51100000000E-03 0. -1.
         23    2    1    2    0    0  0.00000000000E+00 -0.71054273576E-14  0.00000000000E+00  0.91188000000E+02  0.91188000000E+02 0.  0.
    9900012    2    3    3    0    0 -0.88929779110E+01  0.34028005363E+02 -0.10899064559E+02  0.54367084566E+02  0.40000000886E+02 0.  0.
        -12    1    3    3    0    0  0.88929779110E+01 -0.34028005363E+02  0.10899064559E+02  0.36820915434E+02  0.00000000000E+00 0.  1.
         11    1    4    4    0    0  0.35524571712E-01  0.16090661858E+02 -0.83760997775E+01  0.18140278630E+02  0.51100000000E-03 0. -1.
        -11    1    4    4    0    0 -0.57045511255E+01  0.79767804652E+01 -0.16239829608E+02  0.18971109512E+02  0.51100000000E-03 0.  1.
        -12    1    4    4    0    0 -0.32239513571E+01  0.99605630400E+01  0.13716864827E+02  0.17255696425E+02  0.00000000000E+00 0.  1.
</event>
<event>
 8    1  0.2521748E-006  0.9118800E+02  0.7816164E-02  0.1184000E+00
        -11   -1    0    0    0    0  0.00000000000E+00  0.00000000000E+00  0.45593999997E+02  0.45594000000E+02  0.51100000000E-03 0. -1.
         11   -1    0    0    0    0 -0.00000000000E+00 -0.00000000000E+00 -0.45593999997E+02  0.45594000000E+02  0.51100000000E-03 0.  1.
         23    2    1    2    0    0  0.00000000000E+00  0.35527136788E-14 -0.17763568394E-14  0.91188000000E+02  0.91188000000E+02 0.  0.
    9900012    2    3    3    0    0  0.20468904148E+02  0.26180488933E+02 -0.15855217202E+02  0.54367055548E+02  0.39999934734E+02 0.  0.
         12    1    3    3    0    0 -0.20468904148E+02 -0.26180488933E+02  0.15855217202E+02  0.36820944452E+02  0.00000000000E+00 0. -1.
         11    1    4    4    0    0  0.12610023189E+02 -0.56817213150E+00 -0.53392647104E+00  0.12634103931E+02  0.51100000000E-03 0. -1.
        -11    1    4    4    0    0  0.25005174890E+01  0.21261294635E+02 -0.22620926757E+02  0.31144848127E+02  0.51100000000E-03 0.  1.
         12    1    4    4    0    0  0.53583634691E+01  0.54873664296E+01  0.72996360260E+01  0.10588103490E+02  0.00000000000E+00 0. -1.
</event>
<event>
 8    1  0.2521748E-006  0.9118800E+02  0.7816164E-02  0.1184000E+00
        -11   -1    0    0    0    0  0.00000000000E+00  0.00000000000E+00  0.45593999997E+02  0.45594000000E+02  0.51100000000E-03 0.  1.
         11   -1    0    0    0    0 -0.00000000000E+00 -0.00000000000E+00 -0.45593999997E+02  0.45594000000E+02  0.51100000000E-03 0. -1.
         23    2    1    2    0    0  0.00000000000E+00 -0.44408920985E-15  0.00000000000E+00  0.91188000000E+02  0.91188000000E+02 0.  0.
    9900012    2    3    3    0    0 -0.99495029226E+01 -0.18839548992E+01  0.35401099015E+02  0.54367086025E+02  0.40000004212E+02 0.  0.
         12    1    3    3    0    0  0.99495029226E+01  0.18839548992E+01 -0.35401099015E+02  0.36820913975E+02  0.00000000000E+00 0. -1.
         11    1    4    4    0    0 -0.11683722082E+02 -0.55497642204E+01  0.91044289184E+01  0.15817707508E+02  0.51100000000E-03 0. -1.
        -11    1    4    4    0    0 -0.25141852608E+01  0.14770597995E+02  0.87409654345E+01  0.17346358974E+02  0.51100000000E-03 0.  1.
        -12    1    4    4    0    0  0.42484044206E+01 -0.11104788674E+02  0.17555704662E+02  0.21203019544E+02  0.00000000000E+00 0.  1.
</event>
<event>
 8    1  0.2521748E-006  0.9118800E+02  0.7816164E-02  0.1184000E+00
        -11   -1    0    0    0    0  0.00000000000E+00  0.00000000000E+00  0.45593999997E+02  0.45594000000E+02  0.51100000000E-03 0. -1.
         11   -1    0    0    0    0 -0.00000000000E+00 -0.00000000000E+00 -0.45593999997E+02  0.45594000000E+02  0.51100000000E-03 0.  1.
         23    2    1    2    0    0  0.35527136788E-14  0.00000000000E+00  0.00000000000E+00  0.91188000000E+02  0.91188000000E+02 0.  0.
    9900012    2    3    3    0    0 -0.13106384192E+02  0.96512917722E+01  0.33028104992E+02  0.54367075802E+02  0.39999980906E+02 0.  0.
        -12    1    3    3    0    0  0.13106384192E+02 -0.96512917722E+01 -0.33028104992E+02  0.36820924198E+02  0.00000000000E+00 0.  1.
         11    1    4    4    0    0  0.65452038474E+01 -0.16953299413E+01  0.12451843255E+02  0.14169059169E+02  0.51100000000E-03 0. -1.
        -11    1    4    4    0    0  0.32671542559E+01  0.51430644946E+00  0.13471418319E+02  0.13871478647E+02  0.51100000000E-03 0.  1.
         12    1    4    4    0    0 -0.22918742295E+02  0.10832315264E+02  0.71048434174E+01  0.26326537987E+02  0.00000000000E+00 0. -1.
</event>
<event>
 8    1  0.2521748E-006  0.9118800E+02  0.7816164E-02  0.1184000E+00
        -11   -1    0    0    0    0  0.00000000000E+00  0.00000000000E+00  0.45593999997E+02  0.45594000000E+02  0.51100000000E-03 0. -1.
         11   -1    0    0    0    0 -0.00000000000E+00 -0.00000000000E+00 -0.45593999997E+02  0.45594000000E+02  0.51100000000E-03 0.  1.
         23    2    1    2    0    0 -0.88817841970E-15  0.00000000000E+00  0.71054273576E-14  0.91188000000E+02  0.91188000000E+02 0.  0.
    9900012    2    3    3    0    0  0.54548031866E+01 -0.12806009733E+02  0.34088568935E+02  0.54367091604E+02  0.40000016929E+02 0.  0.
        -12    1    3    3    0    0 -0.54548031866E+01  0.12806009733E+02 -0.34088568935E+02  0.36820908396E+02  0.00000000000E+00 0.  1.
         11    1    4    4    0    0 -0.63370424763E+01 -0.11892718214E+02  0.98434262255E+01  0.16687956555E+02  0.51100000000E-03 0. -1.
        -11    1    4    4    0    0  0.16442237917E+02 -0.93941353000E+01  0.13718414936E+02  0.23383581299E+02  0.51100000000E-03 0.  1.
        -12    1    4    4    0    0 -0.46503922545E+01  0.84808437817E+01  0.10526727774E+02  0.14295553749E+02  0.00000000000E+00 0.  1.
</event>
<event>
 8    1  0.2521748E-006  0.9118800E+02  0.7816164E-02  0.1184000E+00
        -11   -1    0    0    0    0  0.00000000000E+00  0.00000000000E+00  0.45593999997E+02  0.45594000000E+02  0.51100000000E-03 0.  1.
         11   -1    0    0    0    0 -0.00000000000E+00 -0.00000000000E+00 -0.45593999997E+02  0.45594000000E+02  0.51100000000E-03 0. -1.
         23    2    1    2    0    0 -0.35527136788E-14 -0.71054273576E-14  0.44408920985E-15  0.91188000000E+02  0.91188000000E+02 0.  0.
    9900012    2    3    3    0    0  0.80456031340E+01 -0.35912016285E+02 -0.11732601056E+01  0.54367065972E+02  0.39999958496E+02 0.  0.
         12    1    3    3    0    0 -0.80456031340E+01  0.35912016285E+02  0.11732601056E+01  0.36820934028E+02  0.00000000000E+00 0. -1.
         11    1    4    4    0    0  0.18876919014E+02 -0.20040944999E+02 -0.72490345836E+01  0.28469739208E+02  0.51100000000E-03 0. -1.
        -11    1    4    4    0    0 -0.70988541291E+01 -0.18288592643E+02  0.17540333829E+01  0.19696268280E+02  0.51100000000E-03 0.  1.
        -12    1    4    4    0    0 -0.37324617505E+01  0.24175213572E+01  0.43217410951E+01  0.62010584841E+01  0.00000000000E+00 0.  1.
</event>
<event>
 8    1  0.2521748E-006  0.9118800E+02  0.7816164E-02  0.1184000E+00
        -11   -1    0    0    0    0  0.00000000000E+00  0.00000000000E+00  0.45593999997E+02  0.45594000000E+02  0.51100000000E-03 0.  1.
         11   -1    0    0    0    0 -0.00000000000E+00 -0.00000000000E+00 -0.45593999997E+02  0.45594000000E+02  0.51100000000E-03 0. -1.
         23    2    1    2    0    0 -0.17763568394E-14  0.88817841970E-15  0.00000000000E+00  0.91188000000E+02  0.91188000000E+02 0.  0.
    9900012    2    3    3    0    0 -0.90859363897E+01  0.57117515574E+01 -0.35222192336E+02  0.54367066024E+02  0.39999958615E+02 0.  0.
        -12    1    3    3    0    0  0.90859363897E+01 -0.57117515574E+01  0.35222192336E+02  0.36820933976E+02  0.00000000000E+00 0.  1.
         11    1    4    4    0    0  0.38692223423E+01  0.11437552701E+02 -0.35249664846E+01  0.12578309993E+02  0.51100000000E-03 0. -1.
        -11    1    4    4    0    0  0.38812246484E+01 -0.86280117616E+01 -0.15999368304E+02  0.18587261178E+02  0.51100000000E-03 0.  1.
         12    1    4    4    0    0 -0.16836383380E+02  0.29022106184E+01 -0.15697857547E+02  0.23201494852E+02  0.00000000000E+00 0. -1.
</event>
<event>
 8    1  0.2521748E-006  0.9118800E+02  0.7816164E-02  0.1184000E+00
        -11   -1    0    0    0    0  0.00000000000E+00  0.00000000000E+00  0.45593999997E+02  0.45594000000E+02  0.51100000000E-03 0.  1.
         11   -1    0    0    0    0 -0.00000000000E+00 -0.00000000000E+00 -0.45593999997E+02  0.45594000000E+02  0.51100000000E-03 0. -1.
         23    2    1    2    0    0  0.44408920985E-15  0.00000000000E+00  0.00000000000E+00  0.91188000000E+02  0.91188000000E+02 0.  0.
    9900012    2    3    3    0    0  0.37289427685E+01 -0.20997237013E+02  0.30016477739E+02  0.54367110383E+02  0.40000059741E+02 0.  0.
         12    1    3    3    0    0 -0.37289427685E+01  0.20997237013E+02 -0.30016477739E+02  0.36820889617E+02  0.00000000000E+00 0. -1.
         11    1    4    4    0    0 -0.77637781074E+01 -0.10649034580E+02 -0.28837318070E+01  0.13490518796E+02  0.51100000000E-03 0. -1.
        -11    1    4    4    0    0 -0.45626619962E+00 -0.12069667805E+02  0.18378754875E+02  0.21992355281E+02  0.51100000000E-03 0.  1.
         12    1    4    4    0    0  0.11948987075E+02  0.17214653716E+01  0.14521454670E+02  0.18884236307E+02  0.00000000000E+00 0. -1.
</event>
<event>
 8    1  0.2521748E-006  0.9118800E+02  0.7816164E-02  0.1184000E+00
        -11   -1    0    0    0    0  0.00000000000E+00  0.00000000000E+00  0.45593999997E+02  0.45594000000E+02  0.51100000000E-03 0. -1.
         11   -1    0    0    0    0 -0.00000000000E+00 -0.00000000000E+00 -0.45593999997E+02  0.45594000000E+02  0.51100000000E-03 0.  1.
         23    2    1    2    0    0  0.88817841970E-15  0.00000000000E+00  0.00000000000E+00  0.91188000000E+02  0.91188000000E+02 0.  0.
    9900012    2    3    3    0    0 -0.67027166481E+01  0.33443076216E+02  0.13871449029E+02  0.54367043258E+02  0.39999906714E+02 0.  0.
        -12    1    3    3    0    0  0.67027166481E+01 -0.33443076216E+02 -0.13871449029E+02  0.36820956742E+02  0.00000000000E+00 0.  1.
         11    1    4    4    0    0 -0.82817864747E+01  0.83802739090E+01  0.18840174470E+02  0.22220917000E+02  0.51100000000E-03 0. -1.
        -11    1    4    4    0    0 -0.24854108785E+01  0.15692124778E+02  0.61604018003E+01  0.17040264020E+02  0.51100000000E-03 0.  1.
         12    1    4    4    0    0  0.40644807051E+01  0.93706775296E+01 -0.11129127242E+02  0.15105862237E+02  0.00000000000E+00 0. -1.
</event>
<event>
 8    1  0.2521748E-006  0.9118800E+02  0.7816164E-02  0.1184000E+00
        -11   -1    0    0    0    0  0.00000000000E+00  0.00000000000E+00  0.45593999997E+02  0.45594000000E+02  0.51100000000E-03 0.  1.
         11   -1    0    0    0    0 -0.00000000000E+00 -0.00000000000E+00 -0.45593999997E+02  0.45594000000E+02  0.51100000000E-03 0. -1.
         23    2    1    2    0    0 -0.44408920985E-15  0.17763568394E-14 -0.71054273576E-14  0.91188000000E+02  0.91188000000E+02 0.  0.
    9900012    2    3    3    0    0  0.21134566739E+01  0.90115541103E+01  0.35638514659E+02  0.54367101943E+02  0.40000040500E+02 0.  0.
         12    1    3    3    0    0 -0.21134566739E+01 -0.90115541103E+01 -0.35638514659E+02  0.36820898057E+02  0.00000000000E+00 0. -1.
         11    1    4    4    0    0 -0.50144484450E-01 -0.56734533900E+01 -0.56959409366E+01  0.80395479508E+01  0.51100000000E-03 0. -1.
        -11    1    4    4    0    0  0.18374968061E+00  0.17439540485E+02  0.36064567368E+02  0.40060259061E+02  0.51100000000E-03 0.  1.
         12    1    4    4    0    0  0.19798514778E+01 -0.27545329845E+01  0.52698882273E+01  0.62672949320E+01  0.00000000000E+00 0. -1.
</event>
<event>
 8    1  0.2521748E-006  0.9118800E+02  0.7816164E-02  0.1184000E+00
        -11   -1    0    0    0    0  0.00000000000E+00  0.00000000000E+00  0.45593999997E+02  0.45594000000E+02  0.51100000000E-03 0. -1.
         11   -1    0    0    0    0 -0.00000000000E+00 -0.00000000000E+00 -0.45593999997E+02  0.45594000000E+02  0.51100000000E-03 0.  1.
         23    2    1    2    0    0  0.00000000000E+00  0.00000000000E+00  0.00000000000E+00  0.91188000000E+02  0.91188000000E+02 0.  0.
    9900012    2    3    3    0    0  0.29867214362E+02  0.73332831341E+01  0.20247289360E+02  0.54367078478E+02  0.39999987006E+02 0.  0.
        -12    1    3    3    0    0 -0.29867214362E+02 -0.73332831341E+01 -0.20247289360E+02  0.36820921522E+02  0.00000000000E+00 0.  1.
         11    1    4    4    0    0  0.15751385025E+01  0.85793620735E+01  0.46942710196E+01  0.99056900596E+01  0.51100000000E-03 0. -1.
        -11    1    4    4    0    0  0.82832452744E+01 -0.88276433703E+01  0.19257312634E+02  0.22746066251E+02  0.51100000000E-03 0.  1.
         12    1    4    4    0    0  0.20008830585E+02  0.75815644309E+01 -0.37042942932E+01  0.21715322167E+02  0.00000000000E+00 0. -1.
</event>
<event>
 8    1  0.2521748E-006  0.9118800E+02  0.7816164E-02  0.1184000E+00
        -11   -1    0    0    0    0  0.00000000000E+00  0.00000000000E+00  0.45593999997E+02  0.45594000000E+02  0.51100000000E-03 0. -1.
         11   -1    0    0    0    0 -0.00000000000E+00 -0.00000000000E+00 -0.45593999997E+02  0.45594000000E+02  0.51100000000E-03 0.  1.
         23    2    1    2    0    0 -0.17763568394E-14  0.00000000000E+00  0.00000000000E+00  0.91188000000E+02  0.91188000000E+02 0.  0.
    9900012    2    3    3    0    0 -0.10952136276E+02 -0.16241409313E+02 -0.31177680528E+02  0.54367076212E+02  0.39999981840E+02 0.  0.
         12    1    3    3    0    0  0.10952136276E+02  0.16241409313E+02  0.31177680528E+02  0.36820923788E+02  0.00000000000E+00 0. -1.
         11    1    4    4    0    0 -0.19054835083E+02  0.17828632546E+01 -0.10112422589E+02  0.21645471404E+02  0.51100000000E-03 0. -1.
        -11    1    4    4    0    0  0.72042569586E+01 -0.13563460958E+02 -0.23098006465E+02  0.27737820649E+02  0.51100000000E-03 0.  1.
        -12    1    4    4    0    0  0.89844184765E+00 -0.44608116104E+01  0.20327485252E+01  0.49837841591E+01  0.00000000000E+00 0.  1.
</event>
<event>
 8    1  0.2521748E-006  0.9118800E+02  0.7816164E-02  0.1184000E+00
        -11   -1    0    0    0    0  0.00000000000E+00  0.00000000000E+00  0.45593999997E+02  0.45594000000E+02  0.51100000000E-03 0.  1.
         11   -1    0    0    0    0 -0.00000000000E+00 -0.00000000000E+00 -0.45593999997E+02  0.45594000000E+02  0.51100000000E-03 0. -1.
         23    2    1    2    0    0  0.00000000000E+00  0.00000000000E+00 -0.26645352591E-14  0.91188000000E+02  0.91188000000E+02 0.  0.
    9900012    2    3    3    0    0  0.14190725533E+02 -0.33959826052E+02 -0.10639595476E+01  0.54367102583E+02  0.40000041960E+02 0.  0.
        -12    1    3    3    0    0 -0.14190725533E+02  0.33959826052E+02  0.10639595476E+01  0.36820897417E+02  0.00000000000E+00 0.  1.
         11    1    4    4    0    0  0.63825646955E+01 -0.15350228553E+01  0.19749501467E+01  0.68552064594E+01  0.51100000000E-03 0. -1.
        -11    1    4    4    0    0  0.98233809902E+01 -0.48824857071E+01 -0.14012370478E+02  0.17795617647E+02  0.51100000000E-03 0.  1.
        -12    1    4    4    0    0 -0.20152201531E+01 -0.27542317490E+02  0.10973460784E+02  0.29716278477E+02  0.00000000000E+00 0.  1.
</event>
<event>
 8    1  0.2521748E-006  0.9118800E+02  0.7816164E-02  0.1184000E+00
        -11   -1    0    0    0    0  0.00000000000E+00  0.00000000000E+00  0.45593999997E+02  0.45594000000E+02  0.51100000000E-03 0.  1.
         11   -1    0    0    0    0 -0.00000000000E+00 -0.00000000000E+00 -0.45593999997E+02  0.45594000000E+02  0.51100000000E-03 0. -1.
         23    2    1    2    0    0  0.00000000000E+00 -0.13322676296E-14  0.00000000000E+00  0.91188000000E+02  0.91188000000E+02 0.  0.
    9900012    2    3    3    0    0  0.35644600281E+02 -0.22209221286E+01  0.89617088175E+01  0.54367051489E+02  0.39999925480E+02 0.  0.
         12    1    3    3    0    0 -0.35644600281E+02  0.22209221286E+01 -0.89617088175E+01  0.36820948511E+02  0.00000000000E+00 0. -1.
         11    1    4    4    0    0  0.25479137569E+01 -0.31478624920E+01  0.91898003712E-01  0.40508453791E+01  0.51100000000E-03 0. -1.
        -11    1    4    4    0    0  0.22167357810E+02 -0.16431706828E+02  0.10974717436E+02  0.29695743207E+02  0.51100000000E-03 0.  1.
         12    1    4    4    0    0  0.10929328714E+02  0.17358647191E+02 -0.21049066222E+01  0.20620462903E+02  0.00000000000E+00 0. -1.
</event>
<event>
 8    1  0.2521748E-006  0.9118800E+02  0.7816164E-02  0.1184000E+00
        -11   -1    0    0    0    0  0.00000000000E+00  0.00000000000E+00  0.45593999997E+02  0.45594000000E+02  0.51100000000E-03 0.  1.
         11   -1    0    0    0    0 -0.00000000000E+00 -0.00000000000E+00 -0.45593999997E+02  0.45594000000E+02  0.51100000000E-03 0. -1.
         23    2    1    2    0    0  0.35527136788E-14  0.00000000000E+00 -0.17763568394E-14  0.91188000000E+02  0.91188000000E+02 0.  0.
    9900012    2    3    3    0    0 -0.29306210524E+02  0.20647682384E+02 -0.84024471818E+01  0.54367056480E+02  0.39999936856E+02 0.  0.
        -12    1    3    3    0    0  0.29306210524E+02 -0.20647682384E+02  0.84024471818E+01  0.36820943520E+02  0.00000000000E+00 0.  1.
         11    1    4    4    0    0 -0.89842851929E+01  0.67361689893E+01 -0.81551192742E+01  0.13878015842E+02  0.51100000000E-03 0.  1.
        -11    1    4    4    0    0  0.25075987152E+01  0.53524104301E+01 -0.12034748657E+02  0.13407890372E+02  0.51100000000E-03 0. -1.
        -12    1    4    4    0    0 -0.22829524046E+02  0.85591029643E+01  0.11787420750E+02  0.27081150265E+02  0.00000000000E+00 0.  1.
</event>
<event>
 8    1  0.2521748E-006  0.9118800E+02  0.7816164E-02  0.1184000E+00
        -11   -1    0    0    0    0  0.00000000000E+00  0.00000000000E+00  0.45593999997E+02  0.45594000000E+02  0.51100000000E-03 0. -1.
         11   -1    0    0    0    0 -0.00000000000E+00 -0.00000000000E+00 -0.45593999997E+02  0.45594000000E+02  0.51100000000E-03 0.  1.
         23    2    1    2    0    0  0.17763568394E-14  0.00000000000E+00  0.00000000000E+00  0.91188000000E+02  0.91188000000E+02 0.  0.
    9900012    2    3    3    0    0  0.14508884561E+02  0.19907600834E+02  0.27367140843E+02  0.54367072525E+02  0.39999973436E+02 0.  0.
        -12    1    3    3    0    0 -0.14508884561E+02 -0.19907600834E+02 -0.27367140843E+02  0.36820927475E+02  0.00000000000E+00 0.  1.
         11    1    4    4    0    0 -0.40455236313E+01  0.97282893932E+01  0.11195150738E+02  0.15373264984E+02  0.51100000000E-03 0. -1.
        -11    1    4    4    0    0  0.21306718292E+02 -0.11246612314E+01  0.32102641016E+01  0.21576535939E+02  0.51100000000E-03 0.  1.
        -12    1    4    4    0    0 -0.27523100998E+01  0.11303972673E+02  0.12961726004E+02  0.17417271602E+02  0.00000000000E+00 0.  1.
</event>
<event>
 8    1  0.2521748E-006  0.9118800E+02  0.7816164E-02  0.1184000E+00
        -11   -1    0    0    0    0  0.00000000000E+00  0.00000000000E+00  0.45593999997E+02  0.45594000000E+02  0.51100000000E-03 0. -1.
         11   -1    0    0    0    0 -0.00000000000E+00 -0.00000000000E+00 -0.45593999997E+02  0.45594000000E+02  0.51100000000E-03 0.  1.
         23    2    1    2    0    0  0.88817841970E-15  0.71054273576E-14  0.00000000000E+00  0.91188000000E+02  0.91188000000E+02 0.  0.
    9900012    2    3    3    0    0  0.74042053110E+01 -0.34990773928E+02 -0.87523244489E+01  0.54367086111E+02  0.40000004408E+02 0.  0.
         12    1    3    3    0    0 -0.74042053110E+01  0.34990773928E+02  0.87523244489E+01  0.36820913889E+02  0.00000000000E+00 0. -1.
         11    1    4    4    0    0  0.34400384938E+01 -0.41067213878E+01 -0.91727547580E+01  0.10622544681E+02  0.51100000000E-03 0. -1.
        -11    1    4    4    0    0  0.17144399711E+02 -0.19690570764E+02 -0.24219688535E+01  0.26220506323E+02  0.51100000000E-03 0.  1.
         12    1    4    4    0    0 -0.13180232894E+02 -0.11193481776E+02  0.28423991626E+01  0.17524035107E+02  0.00000000000E+00 0. -1.
</event>
<event>
 8    1  0.2521748E-006  0.9118800E+02  0.7816164E-02  0.1184000E+00
        -11   -1    0    0    0    0  0.00000000000E+00  0.00000000000E+00  0.45593999997E+02  0.45594000000E+02  0.51100000000E-03 0. -1.
         11   -1    0    0    0    0 -0.00000000000E+00 -0.00000000000E+00 -0.45593999997E+02  0.45594000000E+02  0.51100000000E-03 0.  1.
         23    2    1    2    0    0  0.00000000000E+00 -0.35527136788E-14  0.00000000000E+00  0.91188000000E+02  0.91188000000E+02 0.  0.
    9900012    2    3    3    0    0 -0.21651232713E+02 -0.20691022412E+02 -0.21421211858E+02  0.54367318259E+02  0.40000533630E+02 0.  0.
         12    1    3    3    0    0  0.21651232713E+02  0.20691022412E+02  0.21421211858E+02  0.36820681741E+02  0.00000000000E+00 0. -1.
         11    1    4    4    0    0 -0.11330216840E+01  0.44353378943E+01 -0.17411817722E+01  0.48977213679E+01  0.51100000000E-03 0. -1.
        -11    1    4    4    0    0  0.34233205388E+01  0.54867460737E+01 -0.19641067209E+01  0.67587884610E+01  0.51100000000E-03 0.  1.
        -12    1    4    4    0    0 -0.23941531567E+02 -0.30613106380E+02 -0.17715923365E+02  0.42710808430E+02  0.00000000000E+00 0.  1.
</event>
<event>
 8    1  0.2521748E-006  0.9118800E+02  0.7816164E-02  0.1184000E+00
        -11   -1    0    0    0    0  0.00000000000E+00  0.00000000000E+00  0.45593999997E+02  0.45594000000E+02  0.51100000000E-03 0.  1.
         11   -1    0    0    0    0 -0.00000000000E+00 -0.00000000000E+00 -0.45593999997E+02  0.45594000000E+02  0.51100000000E-03 0. -1.
         23    2    1    2    0    0  0.00000000000E+00  0.00000000000E+00  0.00000000000E+00  0.91188000000E+02  0.91188000000E+02 0.  0.
    9900012    2    3    3    0    0  0.86274975782E+01  0.94724716412E+01  0.34519826761E+02  0.54367083756E+02  0.39999999038E+02 0.  0.
         12    1    3    3    0    0 -0.86274975782E+01 -0.94724716412E+01 -0.34519826761E+02  0.36820916244E+02  0.00000000000E+00 0. -1.
         11    1    4    4    0    0  0.15841464600E+00 -0.61633080278E+01  0.12078257935E+02  0.13560817676E+02  0.51100000000E-03 0. -1.
        -11    1    4    4    0    0 -0.19586784041E+01  0.93499065352E+01  0.26342238987E+02  0.28020898066E+02  0.51100000000E-03 0.  1.
        -12    1    4    4    0    0  0.10427761336E+02  0.62858731338E+01 -0.39006701609E+01  0.12785368014E+02  0.00000000000E+00 0.  1.
</event>
<event>
 8    1  0.2521748E-006  0.9118800E+02  0.7816164E-02  0.1184000E+00
        -11   -1    0    0    0    0  0.00000000000E+00  0.00000000000E+00  0.45593999997E+02  0.45594000000E+02  0.51100000000E-03 0.  1.
         11   -1    0    0    0    0 -0.00000000000E+00 -0.00000000000E+00 -0.45593999997E+02  0.45594000000E+02  0.51100000000E-03 0. -1.
         23    2    1    2    0    0  0.00000000000E+00 -0.13322676296E-14 -0.71054273576E-14  0.91188000000E+02  0.91188000000E+02 0.  0.
    9900012    2    3    3    0    0 -0.11918167060E+02 -0.21235171299E+01  0.34773958101E+02  0.54367079410E+02  0.39999989130E+02 0.  0.
        -12    1    3    3    0    0  0.11918167060E+02  0.21235171299E+01 -0.34773958101E+02  0.36820920590E+02  0.00000000000E+00 0.  1.
         11    1    4    4    0    0  0.24808147971E-01  0.55912232321E+01 -0.11140799428E+01  0.57011899684E+01  0.51100000000E-03 0. -1.
        -11    1    4    4    0    0 -0.67211797715E+01 -0.11767688263E+02  0.14843031681E+01  0.13632897738E+02  0.51100000000E-03 0.  1.
         12    1    4    4    0    0 -0.52217954370E+01  0.40529479009E+01  0.34403734876E+02  0.35032991703E+02  0.00000000000E+00 0. -1.
</event>
<event>
 8    1  0.2521748E-006  0.9118800E+02  0.7816164E-02  0.1184000E+00
        -11   -1    0    0    0    0  0.00000000000E+00  0.00000000000E+00  0.45593999997E+02  0.45594000000E+02  0.51100000000E-03 0.  1.
         11   -1    0    0    0    0 -0.00000000000E+00 -0.00000000000E+00 -0.45593999997E+02  0.45594000000E+02  0.51100000000E-03 0. -1.
         23    2    1    2    0    0  0.17763568394E-14  0.00000000000E+00 -0.35527136788E-14  0.91188000000E+02  0.91188000000E+02 0.  0.
    9900012    2    3    3    0    0 -0.10100895903E+02  0.20375795265E+02 -0.28958464461E+02  0.54366894711E+02  0.39999568071E+02 0.  0.
        -12    1    3    3    0    0  0.10100895903E+02 -0.20375795265E+02  0.28958464461E+02  0.36821105289E+02  0.00000000000E+00 0.  1.
         11    1    4    4    0    0 -0.30708357159E+01  0.77025724156E+01 -0.17028807659E+02  0.18940431473E+02  0.51100000000E-03 0. -1.
        -11    1    4    4    0    0 -0.15505689925E+02  0.14624848494E+02 -0.83752968266E+00  0.21331058805E+02  0.51100000000E-03 0.  1.
        -12    1    4    4    0    0  0.84756297376E+01 -0.19516256443E+01 -0.11092127119E+02  0.14095404433E+02  0.00000000000E+00 0.  1.
</event>
<event>
 8    1  0.2521748E-006  0.9118800E+02  0.7816164E-02  0.1184000E+00
        -11   -1    0    0    0    0  0.00000000000E+00  0.00000000000E+00  0.45593999997E+02  0.45594000000E+02  0.51100000000E-03 0. -1.
         11   -1    0    0    0    0 -0.00000000000E+00 -0.00000000000E+00 -0.45593999997E+02  0.45594000000E+02  0.51100000000E-03 0.  1.
         23    2    1    2    0    0  0.35527136788E-14  0.00000000000E+00 -0.35527136788E-14  0.91188000000E+02  0.91188000000E+02 0.  0.
    9900012    2    3    3    0    0 -0.13078900815E+02 -0.25416069868E+02 -0.23210895272E+02  0.54367083208E+02  0.39999997790E+02 0.  0.
         12    1    3    3    0    0  0.13078900815E+02  0.25416069868E+02  0.23210895272E+02  0.36820916792E+02  0.00000000000E+00 0. -1.
         11    1    4    4    0    0  0.12148937774E+02 -0.87049793103E+01 -0.23907317296E+01  0.15135684732E+02  0.51100000000E-03 0. -1.
        -11    1    4    4    0    0 -0.20122890976E+02 -0.18606637802E+02 -0.19476721656E+02  0.33622617362E+02  0.51100000000E-03 0.  1.
         12    1    4    4    0    0 -0.51049476129E+01  0.18955472452E+01 -0.13434418862E+01  0.56087811146E+01  0.00000000000E+00 0. -1.
</event>
<event>
 8    1  0.2521748E-006  0.9118800E+02  0.7816164E-02  0.1184000E+00
        -11   -1    0    0    0    0  0.00000000000E+00  0.00000000000E+00  0.45593999997E+02  0.45594000000E+02  0.51100000000E-03 0. -1.
         11   -1    0    0    0    0 -0.00000000000E+00 -0.00000000000E+00 -0.45593999997E+02  0.45594000000E+02  0.51100000000E-03 0.  1.
         23    2    1    2    0    0  0.26645352591E-14 -0.71054273576E-14  0.13322676296E-14  0.91188000000E+02  0.91188000000E+02 0.  0.
    9900012    2    3    3    0    0  0.50844771674E+01 -0.36379775587E+02 -0.25377407642E+01  0.54367080566E+02  0.39999991766E+02 0.  0.
        -12    1    3    3    0    0 -0.50844771674E+01  0.36379775587E+02  0.25377407642E+01  0.36820919434E+02  0.00000000000E+00 0.  1.
         11    1    4    4    0    0  0.14027442231E+02 -0.23358375244E+02 -0.16453175942E+02  0.31829072064E+02  0.51100000000E-03 0. -1.
        -11    1    4    4    0    0 -0.32971834912E+01 -0.21150022105E+01  0.79978136659E+01  0.89055980721E+01  0.51100000000E-03 0.  1.
        -12    1    4    4    0    0 -0.56457815728E+01 -0.10906398132E+02  0.59176215117E+01  0.13632410430E+02  0.00000000000E+00 0.  1.
</event>
<event>
 8    1  0.2521748E-006  0.9118800E+02  0.7816164E-02  0.1184000E+00
        -11   -1    0    0    0    0  0.00000000000E+00  0.00000000000E+00  0.45593999997E+02  0.45594000000E+02  0.51100000000E-03 0.  1.
         11   -1    0    0    0    0 -0.00000000000E+00 -0.00000000000E+00 -0.45593999997E+02  0.45594000000E+02  0.51100000000E-03 0. -1.
         23    2    1    2    0    0 -0.35527136788E-14  0.00000000000E+00  0.35527136788E-14  0.91188000000E+02  0.91188000000E+02 0.  0.
    9900012    2    3    3    0    0 -0.23197026993E+02 -0.83369152262E+01  0.27352761880E+02  0.54367084758E+02  0.40000001322E+02 0.  0.
         12    1    3    3    0    0  0.23197026993E+02  0.83369152262E+01 -0.27352761880E+02  0.36820915242E+02  0.00000000000E+00 0. -1.
         11    1    4    4    0    0 -0.53137799630E+01 -0.22580219879E+02  0.10450820914E+02  0.25442528281E+02  0.51100000000E-03 0. -1.
        -11    1    4    4    0    0 -0.13507910172E+02  0.89584094257E+01  0.93114282584E+01  0.18692764192E+02  0.51100000000E-03 0.  1.
         12    1    4    4    0    0 -0.43753368583E+01  0.52848952276E+01  0.75905127077E+01  0.10231792285E+02  0.00000000000E+00 0. -1.
</event>
<event>
 8    1  0.2521748E-006  0.9118800E+02  0.7816164E-02  0.1184000E+00
        -11   -1    0    0    0    0  0.00000000000E+00  0.00000000000E+00  0.45593999997E+02  0.45594000000E+02  0.51100000000E-03 0.  1.
         11   -1    0    0    0    0 -0.00000000000E+00 -0.00000000000E+00 -0.45593999997E+02  0.45594000000E+02  0.51100000000E-03 0. -1.
         23    2    1    2    0    0 -0.17763568394E-14  0.00000000000E+00  0.00000000000E+00  0.91188000000E+02  0.91188000000E+02 0.  0.
    9900012    2    3    3    0    0  0.80515437442E+01  0.28009592840E+02  0.22503655855E+02  0.54367093241E+02  0.40000020661E+02 0.  0.
         12    1    3    3    0    0 -0.80515437442E+01 -0.28009592840E+02 -0.22503655855E+02  0.36820906759E+02  0.00000000000E+00 0. -1.
         11    1    4    4    0    0 -0.17743301096E+01  0.16151810822E+02  0.18738375189E+02  0.24802337494E+02  0.51100000000E-03 0.  1.
        -11    1    4    4    0    0 -0.60567105504E+01  0.94242750708E+01 -0.37668028886E+01  0.11819031583E+02  0.51100000000E-03 0. -1.
         12    1    4    4    0    0  0.15882584404E+02  0.24335069477E+01  0.75320835546E+01  0.17745724164E+02  0.00000000000E+00 0. -1.
</event>
<event>
 8    1  0.2521748E-006  0.9118800E+02  0.7816164E-02  0.1184000E+00
        -11   -1    0    0    0    0  0.00000000000E+00  0.00000000000E+00  0.45593999997E+02  0.45594000000E+02  0.51100000000E-03 0.  1.
         11   -1    0    0    0    0 -0.00000000000E+00 -0.00000000000E+00 -0.45593999997E+02  0.45594000000E+02  0.51100000000E-03 0. -1.
         23    2    1    2    0    0  0.17763568394E-14  0.00000000000E+00  0.00000000000E+00  0.91188000000E+02  0.91188000000E+02 0.  0.
    9900012    2    3    3    0    0 -0.94205516010E+01 -0.31201193916E+01 -0.35458401700E+02  0.54367079471E+02  0.39999989270E+02 0.  0.
        -12    1    3    3    0    0  0.94205516010E+01  0.31201193916E+01  0.35458401700E+02  0.36820920529E+02  0.00000000000E+00 0.  1.
         11    1    4    4    0    0 -0.31679398403E+01 -0.33581088051E+01  0.30266659302E+01  0.55202757624E+01  0.51100000000E-03 0.  1.
        -11    1    4    4    0    0 -0.13906515583E+02 -0.60469788437E+01 -0.35339367991E+02  0.38455533529E+02  0.51100000000E-03 0. -1.
         12    1    4    4    0    0  0.76539038222E+01  0.62849682572E+01 -0.31456996396E+01  0.10391270179E+02  0.00000000000E+00 0. -1.
</event>
<event>
 8    1  0.2521748E-006  0.9118800E+02  0.7816164E-02  0.1184000E+00
        -11   -1    0    0    0    0  0.00000000000E+00  0.00000000000E+00  0.45593999997E+02  0.45594000000E+02  0.51100000000E-03 0. -1.
         11   -1    0    0    0    0 -0.00000000000E+00 -0.00000000000E+00 -0.45593999997E+02  0.45594000000E+02  0.51100000000E-03 0.  1.
         23    2    1    2    0    0 -0.17763568394E-14  0.00000000000E+00 -0.35527136788E-14  0.91188000000E+02  0.91188000000E+02 0.  0.
    9900012    2    3    3    0    0 -0.12925218461E+02  0.26712539021E+02 -0.21798172462E+02  0.54367063892E+02  0.39999953754E+02 0.  0.
        -12    1    3    3    0    0  0.12925218461E+02 -0.26712539021E+02  0.21798172462E+02  0.36820936108E+02  0.00000000000E+00 0.  1.
         11    1    4    4    0    0 -0.26947739919E+01  0.23207379025E+02 -0.21286421648E+02  0.31606265122E+02  0.51100000000E-03 0. -1.
        -11    1    4    4    0    0 -0.45049283506E+01  0.67766006325E+01 -0.89207274818E+01  0.12074604534E+02  0.51100000000E-03 0.  1.
         12    1    4    4    0    0 -0.57255161183E+01 -0.32714406371E+01  0.84089766677E+01  0.10686194237E+02  0.00000000000E+00 0. -1.
</event>
<event>
 8    1  0.2521748E-006  0.9118800E+02  0.7816164E-02  0.1184000E+00
        -11   -1    0    0    0    0  0.00000000000E+00  0.00000000000E+00  0.45593999997E+02  0.45594000000E+02  0.51100000000E-03 0. -1.
         11   -1    0    0    0    0 -0.00000000000E+00 -0.00000000000E+00 -0.45593999997E+02  0.45594000000E+02  0.51100000000E-03 0.  1.
         23    2    1    2    0    0  0.44408920985E-15 -0.88817841970E-15  0.00000000000E+00  0.91188000000E+02  0.91188000000E+02 0.  0.
    9900012    2    3    3    0    0 -0.33402198115E+01  0.64703441105E+01 -0.36093729007E+02  0.54367086174E+02  0.40000004552E+02 0.  0.
         12    1    3    3    0    0  0.33402198115E+01 -0.64703441105E+01  0.36093729007E+02  0.36820913826E+02  0.00000000000E+00 0. -1.
         11    1    4    4    0    0  0.11254059614E+02 -0.14993005827E+01 -0.77685603688E+00  0.11380038031E+02  0.51100000000E-03 0. -1.
        -11    1    4    4    0    0 -0.40863727404E+01 -0.27925059317E+01 -0.23057172874E+02  0.23582403456E+02  0.51100000000E-03 0.  1.
         12    1    4    4    0    0 -0.10507906685E+02  0.10762150625E+02 -0.12259700096E+02  0.19404644687E+02  0.00000000000E+00 0. -1.
</event>
<event>
 8    1  0.2521748E-006  0.9118800E+02  0.7816164E-02  0.1184000E+00
        -11   -1    0    0    0    0  0.00000000000E+00  0.00000000000E+00  0.45593999997E+02  0.45594000000E+02  0.51100000000E-03 0.  1.
         11   -1    0    0    0    0 -0.00000000000E+00 -0.00000000000E+00 -0.45593999997E+02  0.45594000000E+02  0.51100000000E-03 0. -1.
         23    2    1    2    0    0 -0.35527136788E-14  0.00000000000E+00  0.00000000000E+00  0.91188000000E+02  0.91188000000E+02 0.  0.
    9900012    2    3    3    0    0 -0.24536088314E+02  0.14524880536E+02  0.23297824882E+02  0.54367076213E+02  0.39999981842E+02 0.  0.
         12    1    3    3    0    0  0.24536088314E+02 -0.14524880536E+02 -0.23297824882E+02  0.36820923787E+02  0.00000000000E+00 0. -1.
         11    1    4    4    0    0 -0.12127142864E+02 -0.44193241578E+01  0.52710334529E+00  0.12918043902E+02  0.51100000000E-03 0. -1.
        -11    1    4    4    0    0  0.64081097263E+01  0.87523143053E+01  0.15356175116E+02  0.18801036951E+02  0.51100000000E-03 0.  1.
        -12    1    4    4    0    0 -0.18817055177E+02  0.10191890388E+02  0.74145464204E+01  0.22647995360E+02  0.00000000000E+00 0.  1.
</event>
<event>
 8    1  0.2521748E-006  0.9118800E+02  0.7816164E-02  0.1184000E+00
        -11   -1    0    0    0    0  0.00000000000E+00  0.00000000000E+00  0.45593999997E+02  0.45594000000E+02  0.51100000000E-03 0.  1.
         11   -1    0    0    0    0 -0.00000000000E+00 -0.00000000000E+00 -0.45593999997E+02  0.45594000000E+02  0.51100000000E-03 0. -1.
         23    2    1    2    0    0  0.00000000000E+00  0.00000000000E+00  0.00000000000E+00  0.91188000000E+02  0.91188000000E+02 0.  0.
    9900012    2    3    3    0    0  0.20050856595E+02  0.14704651797E+02  0.27157338780E+02  0.54367018424E+02  0.39999850100E+02 0.  0.
         12    1    3    3    0    0 -0.20050856595E+02 -0.14704651797E+02 -0.27157338780E+02  0.36820981576E+02  0.00000000000E+00 0. -1.
         11    1    4    4    0    0  0.65660442090E+00  0.12396781974E+01 -0.40799097733E+01  0.43143476237E+01  0.51100000000E-03 0. -1.
        -11    1    4    4    0    0  0.16368016443E+02  0.19999219452E+02  0.10141993170E+02  0.27762218331E+02  0.51100000000E-03 0.  1.
        -12    1    4    4    0    0  0.30262357304E+01 -0.65342458520E+01  0.21095255383E+02  0.22290452468E+02  0.00000000000E+00 0.  1.
</event>
<event>
 8    1  0.2521748E-006  0.9118800E+02  0.7816164E-02  0.1184000E+00
        -11   -1    0    0    0    0  0.00000000000E+00  0.00000000000E+00  0.45593999997E+02  0.45594000000E+02  0.51100000000E-03 0. -1.
         11   -1    0    0    0    0 -0.00000000000E+00 -0.00000000000E+00 -0.45593999997E+02  0.45594000000E+02  0.51100000000E-03 0.  1.
         23    2    1    2    0    0  0.35527136788E-14 -0.35527136788E-14  0.00000000000E+00  0.91188000000E+02  0.91188000000E+02 0.  0.
    9900012    2    3    3    0    0  0.15179880220E+02 -0.24706350404E+02  0.22692261717E+02  0.54367200775E+02  0.40000265806E+02 0.  0.
        -12    1    3    3    0    0 -0.15179880220E+02  0.24706350404E+02 -0.22692261717E+02  0.36820799225E+02  0.00000000000E+00 0.  1.
         11    1    4    4    0    0  0.35827619991E+01 -0.58757912109E+01  0.80408109141E+01  0.10583749162E+02  0.51100000000E-03 0.  1.
        -11    1    4    4    0    0 -0.58869857425E+01 -0.22232109023E+02  0.11431884156E+02  0.25682897974E+02  0.51100000000E-03 0. -1.
        -12    1    4    4    0    0  0.17484103963E+02  0.34015498303E+01  0.32195666464E+01  0.18100553639E+02  0.00000000000E+00 0.  1.
</event>
<event>
 8    1  0.2521748E-006  0.9118800E+02  0.7816164E-02  0.1184000E+00
        -11   -1    0    0    0    0  0.00000000000E+00  0.00000000000E+00  0.45593999997E+02  0.45594000000E+02  0.51100000000E-03 0. -1.
         11   -1    0    0    0    0 -0.00000000000E+00 -0.00000000000E+00 -0.45593999997E+02  0.45594000000E+02  0.51100000000E-03 0.  1.
         23    2    1    2    0    0  0.00000000000E+00  0.35527136788E-14 -0.35527136788E-14  0.91188000000E+02  0.91188000000E+02 0.  0.
    9900012    2    3    3    0    0  0.45802783488E+01  0.19293785570E+02 -0.31024938022E+02  0.54367137834E+02  0.40000122320E+02 0.  0.
         12    1    3    3    0    0 -0.45802783488E+01 -0.19293785570E+02  0.31024938022E+02  0.36820862166E+02  0.00000000000E+00 0. -1.
         11    1    4    4    0    0  0.11477021692E+02  0.11754048187E+02 -0.13837334582E+01  0.16486187984E+02  0.51100000000E-03 0. -1.
        -11    1    4    4    0    0  0.51252693114E+01 -0.31611683857E+01 -0.29327341032E+01  0.66979325660E+01  0.51100000000E-03 0.  1.
        -12    1    4    4    0    0 -0.12022012655E+02  0.10700905769E+02 -0.26708470461E+02  0.31183017284E+02  0.00000000000E+00 0.  1.
</event>
<event>
 8    1  0.2521748E-006  0.9118800E+02  0.7816164E-02  0.1184000E+00
        -11   -1    0    0    0    0  0.00000000000E+00  0.00000000000E+00  0.45593999997E+02  0.45594000000E+02  0.51100000000E-03 0. -1.
         11   -1    0    0    0    0 -0.00000000000E+00 -0.00000000000E+00 -0.45593999997E+02  0.45594000000E+02  0.51100000000E-03 0.  1.
         23    2    1    2    0    0  0.00000000000E+00 -0.35527136788E-14 -0.35527136788E-14  0.91188000000E+02  0.91188000000E+02 0.  0.
    9900012    2    3    3    0    0  0.22902175991E+01  0.20666536214E+02  0.30387973149E+02  0.54367085728E+02  0.40000003535E+02 0.  0.
        -12    1    3    3    0    0 -0.22902175991E+01 -0.20666536214E+02 -0.30387973149E+02  0.36820914272E+02  0.00000000000E+00 0.  1.
         11    1    4    4    0    0  0.11460205748E+02  0.16420354363E+02  0.23927958178E+02  0.31201146390E+02  0.51100000000E-03 0. -1.
        -11    1    4    4    0    0 -0.11554724109E+02  0.90191447527E+01  0.90586121551E+01  0.17231223861E+02  0.51100000000E-03 0.  1.
         12    1    4    4    0    0  0.23847359602E+01 -0.47729629020E+01 -0.25985971850E+01  0.59347154771E+01  0.00000000000E+00 0. -1.
</event>
<event>
 8    1  0.2521748E-006  0.9118800E+02  0.7816164E-02  0.1184000E+00
        -11   -1    0    0    0    0  0.00000000000E+00  0.00000000000E+00  0.45593999997E+02  0.45594000000E+02  0.51100000000E-03 0. -1.
         11   -1    0    0    0    0 -0.00000000000E+00 -0.00000000000E+00 -0.45593999997E+02  0.45594000000E+02  0.51100000000E-03 0.  1.
         23    2    1    2    0    0 -0.17763568394E-14 -0.35527136788E-14  0.00000000000E+00  0.91188000000E+02  0.91188000000E+02 0.  0.
    9900012    2    3    3    0    0 -0.15809927051E+02 -0.16795740147E+02 -0.28700699713E+02  0.54367070565E+02  0.39999968967E+02 0.  0.
         12    1    3    3    0    0  0.15809927051E+02  0.16795740147E+02  0.28700699713E+02  0.36820929435E+02  0.00000000000E+00 0. -1.
         11    1    4    4    0    0  0.61005295224E+01 -0.57160818681E+01 -0.43397268547E+01  0.94193036797E+01  0.51100000000E-03 0. -1.
        -11    1    4    4    0    0 -0.20494899551E+02 -0.39681684052E+01 -0.14602572464E+01  0.20926529086E+02  0.51100000000E-03 0.  1.
        -12    1    4    4    0    0 -0.14155570230E+01 -0.71114898732E+01 -0.22900715612E+02  0.24021237800E+02  0.00000000000E+00 0.  1.
</event>
<event>
 8    1  0.2521748E-006  0.9118800E+02  0.7816164E-02  0.1184000E+00
        -11   -1    0    0    0    0  0.00000000000E+00  0.00000000000E+00  0.45593999997E+02  0.45594000000E+02  0.51100000000E-03 0.  1.
         11   -1    0    0    0    0 -0.00000000000E+00 -0.00000000000E+00 -0.45593999997E+02  0.45594000000E+02  0.51100000000E-03 0. -1.
         23    2    1    2    0    0  0.35527136788E-14  0.00000000000E+00  0.17763568394E-14  0.91188000000E+02  0.91188000000E+02 0.  0.
    9900012    2    3    3    0    0 -0.31905132374E+02  0.12193355618E+02 -0.13753694913E+02  0.54367088594E+02  0.40000010067E+02 0.  0.
        -12    1    3    3    0    0  0.31905132374E+02 -0.12193355618E+02  0.13753694913E+02  0.36820911406E+02  0.00000000000E+00 0.  1.
         11    1    4    4    0    0 -0.36528963459E+02  0.18573167384E+02 -0.15210711484E+02  0.43711479753E+02  0.51100000000E-03 0. -1.
        -11    1    4    4    0    0  0.46793850890E+01 -0.29971252288E+01 -0.19163037198E+01  0.58780630020E+01  0.51100000000E-03 0.  1.
        -12    1    4    4    0    0 -0.55554003697E-01 -0.33826865370E+01  0.33733202908E+01  0.47775458386E+01  0.00000000000E+00 0.  1.
</event>
<event>
 8    1  0.2521748E-006  0.9118800E+02  0.7816164E-02  0.1184000E+00
        -11   -1    0    0    0    0  0.00000000000E+00  0.00000000000E+00  0.45593999997E+02  0.45594000000E+02  0.51100000000E-03 0.  1.
         11   -1    0    0    0    0 -0.00000000000E+00 -0.00000000000E+00 -0.45593999997E+02  0.45594000000E+02  0.51100000000E-03 0. -1.
         23    2    1    2    0    0  0.00000000000E+00  0.71054273576E-14  0.88817841970E-15  0.91188000000E+02  0.91188000000E+02 0.  0.
    9900012    2    3    3    0    0  0.14813397711E+02  0.33617388633E+02  0.24935471327E+01  0.54367036575E+02  0.39999891480E+02 0.  0.
        -12    1    3    3    0    0 -0.14813397711E+02 -0.33617388633E+02 -0.24935471327E+01  0.36820963425E+02  0.00000000000E+00 0.  1.
         11    1    4    4    0    0  0.67405024508E+01  0.16261916211E+02 -0.13178543913E+02  0.21989959347E+02  0.51100000000E-03 0. -1.
        -11    1    4    4    0    0  0.14409131364E+02  0.13451197203E+02  0.15250545722E+02  0.24922618602E+02  0.51100000000E-03 0.  1.
         12    1    4    4    0    0 -0.63362361044E+01  0.39042752185E+01  0.42154532385E+00  0.74544586264E+01  0.00000000000E+00 0. -1.
</event>
<event>
 8    1  0.2521748E-006  0.9118800E+02  0.7816164E-02  0.1184000E+00
        -11   -1    0    0    0    0  0.00000000000E+00  0.00000000000E+00  0.45593999997E+02  0.45594000000E+02  0.51100000000E-03 0.  1.
         11   -1    0    0    0    0 -0.00000000000E+00 -0.00000000000E+00 -0.45593999997E+02  0.45594000000E+02  0.51100000000E-03 0. -1.
         23    2    1    2    0    0  0.00000000000E+00 -0.35527136788E-14  0.35527136788E-14  0.91188000000E+02  0.91188000000E+02 0.  0.
    9900012    2    3    3    0    0  0.84749725801E+01  0.18722897094E+02  0.30551726807E+02  0.54367081398E+02  0.39999993663E+02 0.  0.
         12    1    3    3    0    0 -0.84749725801E+01 -0.18722897094E+02 -0.30551726807E+02  0.36820918602E+02  0.00000000000E+00 0. -1.
         11    1    4    4    0    0  0.36445824814E+01  0.74976967245E+00  0.48183235613E+01  0.60878056989E+01  0.51100000000E-03 0.  1.
        -11    1    4    4    0    0 -0.15444109662E+02  0.32994931836E+01  0.10852813936E+02  0.19162221925E+02  0.51100000000E-03 0. -1.
         12    1    4    4    0    0  0.20274499760E+02  0.14673634238E+02  0.14880589309E+02  0.29117053774E+02  0.00000000000E+00 0. -1.
</event>
<event>
 8    1  0.2521748E-006  0.9118800E+02  0.7816164E-02  0.1184000E+00
        -11   -1    0    0    0    0  0.00000000000E+00  0.00000000000E+00  0.45593999997E+02  0.45594000000E+02  0.51100000000E-03 0. -1.
         11   -1    0    0    0    0 -0.00000000000E+00 -0.00000000000E+00 -0.45593999997E+02  0.45594000000E+02  0.51100000000E-03 0.  1.
         23    2    1    2    0    0  0.00000000000E+00  0.00000000000E+00  0.35527136788E-14  0.91188000000E+02  0.91188000000E+02 0.  0.
    9900012    2    3    3    0    0 -0.30757137799E+02  0.16747743381E+02  0.11370627197E+02  0.54367087508E+02  0.40000007592E+02 0.  0.
        -12    1    3    3    0    0  0.30757137799E+02 -0.16747743381E+02 -0.11370627197E+02  0.36820912492E+02  0.00000000000E+00 0.  1.
         11    1    4    4    0    0 -0.13847682626E+02  0.15056100621E+02  0.13585148868E+02  0.24556073588E+02  0.51100000000E-03 0. -1.
        -11    1    4    4    0    0  0.29108769502E+01  0.33012596020E+01  0.67019016974E+01  0.80179178221E+01  0.51100000000E-03 0.  1.
        -12    1    4    4    0    0 -0.19820332123E+02 -0.16096168426E+01 -0.89164233686E+01  0.21793096098E+02  0.00000000000E+00 0.  1.
</event>
<event>
 8    1  0.2521748E-006  0.9118800E+02  0.7816164E-02  0.1184000E+00
        -11   -1    0    0    0    0  0.00000000000E+00  0.00000000000E+00  0.45593999997E+02  0.45594000000E+02  0.51100000000E-03 0.  1.
         11   -1    0    0    0    0 -0.00000000000E+00 -0.00000000000E+00 -0.45593999997E+02  0.45594000000E+02  0.51100000000E-03 0. -1.
         23    2    1    2    0    0 -0.88817841970E-15 -0.71054273576E-14  0.00000000000E+00  0.91188000000E+02  0.91188000000E+02 0.  0.
    9900012    2    3    3    0    0  0.71600218846E+01 -0.31671840400E+02 -0.17361116831E+02  0.54367085219E+02  0.40000002374E+02 0.  0.
        -12    1    3    3    0    0 -0.71600218846E+01  0.31671840400E+02  0.17361116831E+02  0.36820914781E+02  0.00000000000E+00 0.  1.
         11    1    4    4    0    0 -0.10887331641E+02 -0.10223345551E+02 -0.53412392809E+01  0.15861261672E+02  0.51100000000E-03 0. -1.
        -11    1    4    4    0    0  0.56111014845E+00 -0.12326033036E+02 -0.14026489881E+02  0.18681229982E+02  0.51100000000E-03 0.  1.
        -12    1    4    4    0    0  0.17486243377E+02 -0.91224618129E+01  0.20066123307E+01  0.19824593565E+02  0.00000000000E+00 0.  1.
</event>
<event>
 8    1  0.2521748E-006  0.9118800E+02  0.7816164E-02  0.1184000E+00
        -11   -1    0    0    0    0  0.00000000000E+00  0.00000000000E+00  0.45593999997E+02  0.45594000000E+02  0.51100000000E-03 0.  1.
         11   -1    0    0    0    0 -0.00000000000E+00 -0.00000000000E+00 -0.45593999997E+02  0.45594000000E+02  0.51100000000E-03 0. -1.
         23    2    1    2    0    0 -0.35527136788E-14 -0.17763568394E-14  0.00000000000E+00  0.91188000000E+02  0.91188000000E+02 0.  0.
    9900012    2    3    3    0    0 -0.23192815187E+02 -0.13507570902E+02  0.25207500294E+02  0.54367092637E+02  0.40000019285E+02 0.  0.
         12    1    3    3    0    0  0.23192815187E+02  0.13507570902E+02 -0.25207500294E+02  0.36820907363E+02  0.00000000000E+00 0. -1.
         11    1    4    4    0    0 -0.99340633436E+01 -0.18866285021E+02  0.13193270444E+02  0.25073585908E+02  0.51100000000E-03 0.  1.
        -11    1    4    4    0    0 -0.14609880953E+02  0.11766905698E+02  0.12781431857E+02  0.22699640784E+02  0.51100000000E-03 0. -1.
         12    1    4    4    0    0  0.13511291090E+01 -0.64081915788E+01 -0.76720200768E+00  0.65938659450E+01  0.00000000000E+00 0. -1.
</event>
<event>
 8    1  0.2521748E-006  0.9118800E+02  0.7816164E-02  0.1184000E+00
        -11   -1    0    0    0    0  0.00000000000E+00  0.00000000000E+00  0.45593999997E+02  0.45594000000E+02  0.51100000000E-03 0. -1.
         11   -1    0    0    0    0 -0.00000000000E+00 -0.00000000000E+00 -0.45593999997E+02  0.45594000000E+02  0.51100000000E-03 0.  1.
         23    2    1    2    0    0 -0.22204460493E-14  0.00000000000E+00 -0.35527136788E-14  0.91188000000E+02  0.91188000000E+02 0.  0.
    9900012    2    3    3    0    0 -0.38722921928E+01 -0.21325030270E+02  0.29766219103E+02  0.54367090688E+02  0.40000014841E+02 0.  0.
        -12    1    3    3    0    0  0.38722921928E+01  0.21325030270E+02 -0.29766219103E+02  0.36820909312E+02  0.00000000000E+00 0.  1.
         11    1    4    4    0    0 -0.13924624459E+02 -0.65134330334E+01  0.86611890390E+01  0.17644720798E+02  0.51100000000E-03 0. -1.
        -11    1    4    4    0    0 -0.48382195742E+00 -0.33500134747E+01 -0.51711040139E+01  0.61803714250E+01  0.51100000000E-03 0.  1.
         12    1    4    4    0    0  0.10536154223E+02 -0.11461583762E+02  0.26276134078E+02  0.30541998465E+02  0.00000000000E+00 0. -1.
</event>
<event>
 8    1  0.2521748E-006  0.9118800E+02  0.7816164E-02  0.1184000E+00
        -11   -1    0    0    0    0  0.00000000000E+00  0.00000000000E+00  0.45593999997E+02  0.45594000000E+02  0.51100000000E-03 0.  1.
         11   -1    0    0    0    0 -0.00000000000E+00 -0.00000000000E+00 -0.45593999997E+02  0.45594000000E+02  0.51100000000E-03 0. -1.
         23    2    1    2    0    0  0.00000000000E+00  0.17763568394E-14  0.00000000000E+00  0.91188000000E+02  0.91188000000E+02 0.  0.
    9900012    2    3    3    0    0  0.21052650854E+02  0.14517152490E+02 -0.26491864328E+02  0.54367072527E+02  0.39999973439E+02 0.  0.
        -12    1    3    3    0    0 -0.21052650854E+02 -0.14517152490E+02  0.26491864328E+02  0.36820927473E+02  0.00000000000E+00 0.  1.
         11    1    4    4    0    0  0.81570250161E+01 -0.49866650939E+01 -0.26439289507E+02  0.28114763306E+02  0.51100000000E-03 0. -1.
        -11    1    4    4    0    0 -0.22053724413E+01  0.41039930587E+01  0.42754949964E+00  0.46785922526E+01  0.51100000000E-03 0.  1.
         12    1    4    4    0    0  0.15100998280E+02  0.15399824525E+02 -0.48012432078E+00  0.21573716968E+02  0.00000000000E+00 0. -1.
</event>
<event>
 8    1  0.2521748E-006  0.9118800E+02  0.7816164E-02  0.1184000E+00
        -11   -1    0    0    0    0  0.00000000000E+00  0.00000000000E+00  0.45593999997E+02  0.45594000000E+02  0.51100000000E-03 0. -1.
         11   -1    0    0    0    0 -0.00000000000E+00 -0.00000000000E+00 -0.45593999997E+02  0.45594000000E+02  0.51100000000E-03 0.  1.
         23    2    1    2    0    0  0.00000000000E+00  0.00000000000E+00 -0.33306690739E-15  0.91188000000E+02  0.91188000000E+02 0.  0.
    9900012    2    3    3    0    0 -0.16410255050E+02 -0.32960965987E+02 -0.23725645034E+00  0.54367108644E+02  0.40000055776E+02 0.  0.
        -12    1    3    3    0    0  0.16410255050E+02  0.32960965987E+02  0.23725645034E+00  0.36820891356E+02  0.00000000000E+00 0.  1.
         11    1    4    4    0    0  0.16548193065E+01 -0.28761123874E+02  0.10232539884E+02  0.30571973213E+02  0.51100000000E-03 0. -1.
        -11    1    4    4    0    0  0.11992041874E+01  0.81812277738E+00 -0.89165605754E+00  0.17036626274E+01  0.51100000000E-03 0.  1.
        -12    1    4    4    0    0 -0.19264278544E+02 -0.50179648905E+01 -0.95781402765E+01  0.22091472803E+02  0.00000000000E+00 0.  1.
</event>
<event>
 8    1  0.2521748E-006  0.9118800E+02  0.7816164E-02  0.1184000E+00
        -11   -1    0    0    0    0  0.00000000000E+00  0.00000000000E+00  0.45593999997E+02  0.45594000000E+02  0.51100000000E-03 0. -1.
         11   -1    0    0    0    0 -0.00000000000E+00 -0.00000000000E+00 -0.45593999997E+02  0.45594000000E+02  0.51100000000E-03 0.  1.
         23    2    1    2    0    0  0.00000000000E+00  0.00000000000E+00 -0.17763568394E-14  0.91188000000E+02  0.91188000000E+02 0.  0.
    9900012    2    3    3    0    0  0.31675379655E+02  0.17260870974E+02  0.73832904277E+01  0.54367077679E+02  0.39999985184E+02 0.  0.
        -12    1    3    3    0    0 -0.31675379655E+02 -0.17260870974E+02 -0.73832904277E+01  0.36820922321E+02  0.00000000000E+00 0.  1.
         11    1    4    4    0    0  0.28065308309E+02  0.10647044516E+02 -0.66172317545E+01  0.30737742984E+02  0.51100000000E-03 0. -1.
        -11    1    4    4    0    0 -0.45832107055E+00  0.41363558755E+01 -0.35337504740E+01  0.54595687381E+01  0.51100000000E-03 0.  1.
         12    1    4    4    0    0  0.40683924170E+01  0.24774705818E+01  0.17534272656E+02  0.18169765957E+02  0.00000000000E+00 0. -1.
</event>
<event>
 8    1  0.2521748E-006  0.9118800E+02  0.7816164E-02  0.1184000E+00
        -11   -1    0    0    0    0  0.00000000000E+00  0.00000000000E+00  0.45593999997E+02  0.45594000000E+02  0.51100000000E-03 0. -1.
         11   -1    0    0    0    0 -0.00000000000E+00 -0.00000000000E+00 -0.45593999997E+02  0.45594000000E+02  0.51100000000E-03 0.  1.
         23    2    1    2    0    0  0.88817841970E-15  0.00000000000E+00 -0.35527136788E-14  0.91188000000E+02  0.91188000000E+02 0.  0.
    9900012    2    3    3    0    0 -0.69224928856E+01 -0.28513412146E+02 -0.22245312456E+02  0.54366952945E+02  0.39999700827E+02 0.  0.
         12    1    3    3    0    0  0.69224928856E+01  0.28513412146E+02  0.22245312456E+02  0.36821047055E+02  0.00000000000E+00 0. -1.
         11    1    4    4    0    0  0.66281074040E+01 -0.55915991356E+01  0.16028045475E+01  0.88185470079E+01  0.51100000000E-03 0. -1.
        -11    1    4    4    0    0  0.46093957244E+01 -0.23962793059E+01 -0.16320660573E+02  0.17127540549E+02  0.51100000000E-03 0.  1.
         12    1    4    4    0    0 -0.18159996014E+02 -0.20525533705E+02 -0.75274564309E+01  0.28420865388E+02  0.00000000000E+00 0. -1.
</event>
<event>
 8    1  0.2521748E-006  0.9118800E+02  0.7816164E-02  0.1184000E+00
        -11   -1    0    0    0    0  0.00000000000E+00  0.00000000000E+00  0.45593999997E+02  0.45594000000E+02  0.51100000000E-03 0. -1.
         11   -1    0    0    0    0 -0.00000000000E+00 -0.00000000000E+00 -0.45593999997E+02  0.45594000000E+02  0.51100000000E-03 0.  1.
         23    2    1    2    0    0 -0.88817841970E-15 -0.71054273576E-14 -0.26645352591E-14  0.91188000000E+02  0.91188000000E+02 0.  0.
    9900012    2    3    3    0    0  0.40750313861E+01  0.36265045811E+02  0.49012646582E+01  0.54367057267E+02  0.39999938651E+02 0.  0.
        -12    1    3    3    0    0 -0.40750313861E+01 -0.36265045811E+02 -0.49012646582E+01  0.36820942733E+02  0.00000000000E+00 0.  1.
         11    1    4    4    0    0 -0.22247729482E-01  0.93987555294E+01  0.11310729587E+02  0.14706111128E+02  0.51100000000E-03 0. -1.
        -11    1    4    4    0    0  0.71411109196E+01  0.13009791509E+02  0.10055831144E+02  0.17926792255E+02  0.51100000000E-03 0.  1.
         12    1    4    4    0    0 -0.30438318040E+01  0.13856498773E+02 -0.16465296073E+02  0.21734153884E+02  0.00000000000E+00 0. -1.
</event>
<event>
 8    1  0.2521748E-006  0.9118800E+02  0.7816164E-02  0.1184000E+00
        -11   -1    0    0    0    0  0.00000000000E+00  0.00000000000E+00  0.45593999997E+02  0.45594000000E+02  0.51100000000E-03 0. -1.
         11   -1    0    0    0    0 -0.00000000000E+00 -0.00000000000E+00 -0.45593999997E+02  0.45594000000E+02  0.51100000000E-03 0.  1.
         23    2    1    2    0    0  0.00000000000E+00  0.00000000000E+00  0.00000000000E+00  0.91188000000E+02  0.91188000000E+02 0.  0.
    9900012    2    3    3    0    0 -0.13908352123E+02  0.33207977905E+02 -0.77182382355E+01  0.54367037808E+02  0.39999894290E+02 0.  0.
         12    1    3    3    0    0  0.13908352123E+02 -0.33207977905E+02  0.77182382355E+01  0.36820962192E+02  0.00000000000E+00 0. -1.
         11    1    4    4    0    0  0.49980493689E+01 -0.10803555854E+00 -0.12072595521E+02  0.13066741447E+02  0.51100000000E-03 0. -1.
        -11    1    4    4    0    0 -0.11655533950E+02  0.21037592978E+02  0.98890112381E+01  0.26004313747E+02  0.51100000000E-03 0.  1.
        -12    1    4    4    0    0 -0.72508675419E+01  0.12278420486E+02 -0.55346539530E+01  0.15295982614E+02  0.00000000000E+00 0.  1.
</event>
<event>
 8    1  0.2521748E-006  0.9118800E+02  0.7816164E-02  0.1184000E+00
        -11   -1    0    0    0    0  0.00000000000E+00  0.00000000000E+00  0.45593999997E+02  0.45594000000E+02  0.51100000000E-03 0.  1.
         11   -1    0    0    0    0 -0.00000000000E+00 -0.00000000000E+00 -0.45593999997E+02  0.45594000000E+02  0.51100000000E-03 0. -1.
         23    2    1    2    0    0 -0.35527136788E-14 -0.17763568394E-14  0.71054273576E-14  0.91188000000E+02  0.91188000000E+02 0.  0.
    9900012    2    3    3    0    0  0.17753651792E+02  0.13560968221E+02 -0.29269243934E+02  0.54367073185E+02  0.39999974941E+02 0.  0.
        -12    1    3    3    0    0 -0.17753651792E+02 -0.13560968221E+02  0.29269243934E+02  0.36820926815E+02  0.00000000000E+00 0.  1.
         11    1    4    4    0    0 -0.30277000133E+01  0.15655997101E+01  0.14764244390E-02  0.34085293404E+01  0.51100000000E-03 0. -1.
        -11    1    4    4    0    0 -0.40130862428E+01 -0.15315309367E+01 -0.21133243497E+02  0.21565352517E+02  0.51100000000E-03 0.  1.
         12    1    4    4    0    0  0.24794438048E+02  0.13526899448E+02 -0.81374768605E+01  0.29393191328E+02  0.00000000000E+00 0. -1.
</event>
<event>
 8    1  0.2521748E-006  0.9118800E+02  0.7816164E-02  0.1184000E+00
        -11   -1    0    0    0    0  0.00000000000E+00  0.00000000000E+00  0.45593999997E+02  0.45594000000E+02  0.51100000000E-03 0. -1.
         11   -1    0    0    0    0 -0.00000000000E+00 -0.00000000000E+00 -0.45593999997E+02  0.45594000000E+02  0.51100000000E-03 0.  1.
         23    2    1    2    0    0  0.35527136788E-14  0.00000000000E+00 -0.35527136788E-14  0.91188000000E+02  0.91188000000E+02 0.  0.
    9900012    2    3    3    0    0  0.21049279332E+02 -0.17990159390E+02  0.24270599865E+02  0.54367081855E+02  0.39999994704E+02 0.  0.
        -12    1    3    3    0    0 -0.21049279332E+02  0.17990159390E+02 -0.24270599865E+02  0.36820918145E+02  0.00000000000E+00 0.  1.
         11    1    4    4    0    0  0.79991393928E+01 -0.12256412908E+02  0.23922456008E+02  0.28044425295E+02  0.51100000000E-03 0. -1.
        -11    1    4    4    0    0  0.20151389961E+01 -0.12264757700E+02  0.38827893729E+01  0.13021563662E+02  0.51100000000E-03 0.  1.
        -12    1    4    4    0    0  0.11035000943E+02  0.65310112185E+01 -0.35346455164E+01  0.13301092898E+02  0.00000000000E+00 0.  1.
</event>
<event>
 8    1  0.2521748E-006  0.9118800E+02  0.7816164E-02  0.1184000E+00
        -11   -1    0    0    0    0  0.00000000000E+00  0.00000000000E+00  0.45593999997E+02  0.45594000000E+02  0.51100000000E-03 0. -1.
         11   -1    0    0    0    0 -0.00000000000E+00 -0.00000000000E+00 -0.45593999997E+02  0.45594000000E+02  0.51100000000E-03 0.  1.
         23    2    1    2    0    0 -0.35527136788E-14 -0.35527136788E-14  0.00000000000E+00  0.91188000000E+02  0.91188000000E+02 0.  0.
    9900012    2    3    3    0    0 -0.21979169051E+02 -0.27834522840E+02 -0.98962586432E+01  0.54367075663E+02  0.39999980589E+02 0.  0.
        -12    1    3    3    0    0  0.21979169051E+02  0.27834522840E+02  0.98962586432E+01  0.36820924337E+02  0.00000000000E+00 0.  1.
         11    1    4    4    0    0  0.58226776123E+01 -0.54045799301E+01 -0.15236170687E+02  0.17182955400E+02  0.51100000000E-03 0. -1.
        -11    1    4    4    0    0 -0.35079625567E+01 -0.69012309509E+00 -0.14938885325E+01  0.38747612048E+01  0.51100000000E-03 0.  1.
         12    1    4    4    0    0 -0.24293884106E+02 -0.21739819815E+02  0.68338005768E+01  0.33309359058E+02  0.00000000000E+00 0. -1.
</event>
<event>
 8    1  0.2521748E-006  0.9118800E+02  0.7816164E-02  0.1184000E+00
        -11   -1    0    0    0    0  0.00000000000E+00  0.00000000000E+00  0.45593999997E+02  0.45594000000E+02  0.51100000000E-03 0. -1.
         11   -1    0    0    0    0 -0.00000000000E+00 -0.00000000000E+00 -0.45593999997E+02  0.45594000000E+02  0.51100000000E-03 0.  1.
         23    2    1    2    0    0  0.26645352591E-14  0.00000000000E+00  0.00000000000E+00  0.91188000000E+02  0.91188000000E+02 0.  0.
    9900012    2    3    3    0    0  0.53509645652E+01 -0.91400321527E+01 -0.35264811546E+02  0.54367082808E+02  0.39999996877E+02 0.  0.
         12    1    3    3    0    0 -0.53509645652E+01  0.91400321527E+01  0.35264811546E+02  0.36820917192E+02  0.00000000000E+00 0. -1.
         11    1    4    4    0    0 -0.10303779824E+02 -0.67620160468E+01  0.10364078410E+01  0.12367978055E+02  0.51100000000E-03 0. -1.
        -11    1    4    4    0    0 -0.10727377788E+01 -0.11040220139E+00 -0.13940257390E+02  0.13981907285E+02  0.51100000000E-03 0.  1.
         12    1    4    4    0    0  0.16727482168E+02 -0.22676139045E+01 -0.22360961997E+02  0.28017197468E+02  0.00000000000E+00 0. -1.
</event>
<event>
 8    1  0.2521748E-006  0.9118800E+02  0.7816164E-02  0.1184000E+00
        -11   -1    0    0    0    0  0.00000000000E+00  0.00000000000E+00  0.45593999997E+02  0.45594000000E+02  0.51100000000E-03 0.  1.
         11   -1    0    0    0    0 -0.00000000000E+00 -0.00000000000E+00 -0.45593999997E+02  0.45594000000E+02  0.51100000000E-03 0. -1.
         23    2    1    2    0    0  0.14210854715E-13  0.00000000000E+00 -0.88817841970E-15  0.91188000000E+02  0.91188000000E+02 0.  0.
    9900012    2    3    3    0    0 -0.36590999347E+02 -0.70924269813E+00 -0.40467167211E+01  0.54367079661E+02  0.39999989703E+02 0.  0.
        -12    1    3    3    0    0  0.36590999347E+02  0.70924269813E+00  0.40467167211E+01  0.36820920339E+02  0.00000000000E+00 0.  1.
         11    1    4    4    0    0 -0.17126239230E+02 -0.99582864580E-01 -0.19056907099E+01  0.17232226910E+02  0.51100000000E-03 0. -1.
        -11    1    4    4    0    0 -0.14276985294E+01 -0.47596261019E-01 -0.14941813197E+02  0.15009942384E+02  0.51100000000E-03 0.  1.
        -12    1    4    4    0    0 -0.18037061587E+02 -0.56206357253E+00  0.12800787186E+02  0.22124910367E+02  0.00000000000E+00 0.  1.
</event>
<event>
 8    1  0.2521748E-006  0.9118800E+02  0.7816164E-02  0.1184000E+00
        -11   -1    0    0    0    0  0.00000000000E+00  0.00000000000E+00  0.45593999997E+02  0.45594000000E+02  0.51100000000E-03 0.  1.
         11   -1    0    0    0    0 -0.00000000000E+00 -0.00000000000E+00 -0.45593999997E+02  0.45594000000E+02  0.51100000000E-03 0. -1.
         23    2    1    2    0    0 -0.88817841970E-15  0.00000000000E+00  0.00000000000E+00  0.91188000000E+02  0.91188000000E+02 0.  0.
    9900012    2    3    3    0    0  0.51351476250E+01  0.22602166962E+02 -0.28610354464E+02  0.54367081013E+02  0.39999992785E+02 0.  0.
        -12    1    3    3    0    0 -0.51351476250E+01 -0.22602166962E+02  0.28610354464E+02  0.36820918987E+02  0.00000000000E+00 0.  1.
         11    1    4    4    0    0  0.18733835706E+02  0.52616359049E+01 -0.14843226163E+02  0.24473716020E+02  0.51100000000E-03 0. -1.
        -11    1    4    4    0    0 -0.94679884987E+00  0.13179363118E+02 -0.66491225205E+01  0.14791986710E+02  0.51100000000E-03 0.  1.
         12    1    4    4    0    0 -0.12651889232E+02  0.41611679385E+01 -0.71180057806E+01  0.15101378283E+02  0.00000000000E+00 0. -1.
</event>
<event>
 8    1  0.2521748E-006  0.9118800E+02  0.7816164E-02  0.1184000E+00
        -11   -1    0    0    0    0  0.00000000000E+00  0.00000000000E+00  0.45593999997E+02  0.45594000000E+02  0.51100000000E-03 0.  1.
         11   -1    0    0    0    0 -0.00000000000E+00 -0.00000000000E+00 -0.45593999997E+02  0.45594000000E+02  0.51100000000E-03 0. -1.
         23    2    1    2    0    0 -0.17763568394E-14  0.17763568394E-14  0.00000000000E+00  0.91188000000E+02  0.91188000000E+02 0.  0.
    9900012    2    3    3    0    0  0.10010704261E+02  0.74955308609E+01 -0.34632106973E+02  0.54367081814E+02  0.39999994611E+02 0.  0.
        -12    1    3    3    0    0 -0.10010704261E+02 -0.74955308609E+01  0.34632106973E+02  0.36820918186E+02  0.00000000000E+00 0.  1.
         11    1    4    4    0    0  0.32610295249E+01  0.18396084774E+02 -0.24316246805E+02  0.30664802420E+02  0.51100000000E-03 0.  1.
        -11    1    4    4    0    0  0.75522136829E+01 -0.13026151708E+02 -0.13204705700E+02  0.20027002090E+02  0.51100000000E-03 0. -1.
         12    1    4    4    0    0 -0.80253894660E+00  0.21255977957E+01  0.28888455319E+01  0.36752773034E+01  0.00000000000E+00 0. -1.
</event>
<event>
 8    1  0.2521748E-006  0.9118800E+02  0.7816164E-02  0.1184000E+00
        -11   -1    0    0    0    0  0.00000000000E+00  0.00000000000E+00  0.45593999997E+02  0.45594000000E+02  0.51100000000E-03 0. -1.
         11   -1    0    0    0    0 -0.00000000000E+00 -0.00000000000E+00 -0.45593999997E+02  0.45594000000E+02  0.51100000000E-03 0.  1.
         23    2    1    2    0    0  0.88817841970E-15  0.00000000000E+00  0.00000000000E+00  0.91188000000E+02  0.91188000000E+02 0.  0.
    9900012    2    3    3    0    0  0.29485679199E+01 -0.73149295963E+01 -0.35966341246E+02  0.54367082706E+02  0.39999996645E+02 0.  0.
         12    1    3    3    0    0 -0.29485679199E+01  0.73149295963E+01  0.35966341246E+02  0.36820917294E+02  0.00000000000E+00 0. -1.
         11    1    4    4    0    0  0.82226257096E+01  0.41743856806E+01  0.19165424695E+01  0.94186094871E+01  0.51100000000E-03 0. -1.
        -11    1    4    4    0    0 -0.93013369383E+01  0.16864439450E+01 -0.95180492491E+01  0.13414627233E+02  0.51100000000E-03 0.  1.
         12    1    4    4    0    0  0.40272791486E+01 -0.13175759222E+02 -0.28364834466E+02  0.31533845986E+02  0.00000000000E+00 0. -1.
</event>
<event>
 8    1  0.2521748E-006  0.9118800E+02  0.7816164E-02  0.1184000E+00
        -11   -1    0    0    0    0  0.00000000000E+00  0.00000000000E+00  0.45593999997E+02  0.45594000000E+02  0.51100000000E-03 0.  1.
         11   -1    0    0    0    0 -0.00000000000E+00 -0.00000000000E+00 -0.45593999997E+02  0.45594000000E+02  0.51100000000E-03 0. -1.
         23    2    1    2    0    0  0.00000000000E+00  0.00000000000E+00  0.00000000000E+00  0.91188000000E+02  0.91188000000E+02 0.  0.
    9900012    2    3    3    0    0  0.13283931286E+02 -0.99086516113E+01  0.32880639543E+02  0.54367073017E+02  0.39999974556E+02 0.  0.
         12    1    3    3    0    0 -0.13283931286E+02  0.99086516113E+01 -0.32880639543E+02  0.36820926983E+02  0.00000000000E+00 0. -1.
         11    1    4    4    0    0 -0.30748036814E+01  0.48076708138E+01  0.69018704979E+01  0.89556648533E+01  0.51100000000E-03 0. -1.
        -11    1    4    4    0    0  0.81351416431E+00 -0.15601333259E+01 -0.66885167445E+01  0.69160738712E+01  0.51100000000E-03 0.  1.
        -12    1    4    4    0    0  0.15545220804E+02 -0.13156189099E+02  0.32667285789E+02  0.38495334292E+02  0.00000000000E+00 0.  1.
</event>
<event>
 8    1  0.2521748E-006  0.9118800E+02  0.7816164E-02  0.1184000E+00
        -11   -1    0    0    0    0  0.00000000000E+00  0.00000000000E+00  0.45593999997E+02  0.45594000000E+02  0.51100000000E-03 0.  1.
         11   -1    0    0    0    0 -0.00000000000E+00 -0.00000000000E+00 -0.45593999997E+02  0.45594000000E+02  0.51100000000E-03 0. -1.
         23    2    1    2    0    0 -0.88817841970E-15  0.00000000000E+00  0.00000000000E+00  0.91188000000E+02  0.91188000000E+02 0.  0.
    9900012    2    3    3    0    0 -0.58836803753E+01  0.32093973658E+02  0.17062752479E+02  0.54367104274E+02  0.40000045813E+02 0.  0.
         12    1    3    3    0    0  0.58836803753E+01 -0.32093973658E+02 -0.17062752479E+02  0.36820895726E+02  0.00000000000E+00 0. -1.
         11    1    4    4    0    0  0.20560702747E+01  0.22813634258E+02 -0.47492233677E+01  0.23393256632E+02  0.51100000000E-03 0. -1.
        -11    1    4    4    0    0 -0.12452865186E+02  0.95048695197E+00  0.13177564766E+02  0.18155591155E+02  0.51100000000E-03 0.  1.
        -12    1    4    4    0    0  0.45131145355E+01  0.83298524484E+01  0.86344110808E+01  0.12818256486E+02  0.00000000000E+00 0.  1.
</event>
<event>
 8    1  0.2521748E-006  0.9118800E+02  0.7816164E-02  0.1184000E+00
        -11   -1    0    0    0    0  0.00000000000E+00  0.00000000000E+00  0.45593999997E+02  0.45594000000E+02  0.51100000000E-03 0. -1.
         11   -1    0    0    0    0 -0.00000000000E+00 -0.00000000000E+00 -0.45593999997E+02  0.45594000000E+02  0.51100000000E-03 0.  1.
         23    2    1    2    0    0  0.00000000000E+00  0.00000000000E+00 -0.44408920985E-14  0.91188000000E+02  0.91188000000E+02 0.  0.
    9900012    2    3    3    0    0  0.33548371218E+02 -0.14371404878E+02 -0.48735207027E+01  0.54367059034E+02  0.39999942680E+02 0.  0.
        -12    1    3    3    0    0 -0.33548371218E+02  0.14371404878E+02  0.48735207027E+01  0.36820940966E+02  0.00000000000E+00 0.  1.
         11    1    4    4    0    0  0.13624904998E+02 -0.12678691883E+01  0.31463938642E+01  0.14040844814E+02  0.51100000000E-03 0. -1.
        -11    1    4    4    0    0  0.58949385786E+01 -0.89074152419E+01  0.11649354776E+02  0.15805056599E+02  0.51100000000E-03 0.  1.
        -12    1    4    4    0    0  0.14028527642E+02 -0.41961204480E+01 -0.19669269343E+02  0.24521157621E+02  0.00000000000E+00 0.  1.
</event>
<event>
 8    1  0.2521748E-006  0.9118800E+02  0.7816164E-02  0.1184000E+00
        -11   -1    0    0    0    0  0.00000000000E+00  0.00000000000E+00  0.45593999997E+02  0.45594000000E+02  0.51100000000E-03 0.  1.
         11   -1    0    0    0    0 -0.00000000000E+00 -0.00000000000E+00 -0.45593999997E+02  0.45594000000E+02  0.51100000000E-03 0. -1.
         23    2    1    2    0    0  0.88817841970E-15  0.00000000000E+00 -0.71054273576E-14  0.91188000000E+02  0.91188000000E+02 0.  0.
    9900012    2    3    3    0    0  0.69623684452E+01  0.97837963804E+01 -0.34807817316E+02  0.54367063126E+02  0.39999952008E+02 0.  0.
        -12    1    3    3    0    0 -0.69623684452E+01 -0.97837963804E+01  0.34807817316E+02  0.36820936874E+02  0.00000000000E+00 0.  1.
         11    1    4    4    0    0  0.80217013243E+01  0.95633807941E+01 -0.16652248547E+02  0.20811134670E+02  0.51100000000E-03 0. -1.
        -11    1    4    4    0    0  0.11195046375E+01  0.83233263679E+01  0.44065166117E+01  0.94841152128E+01  0.51100000000E-03 0.  1.
         12    1    4    4    0    0 -0.21788375167E+01 -0.81029107816E+01 -0.22562085381E+02  0.24071813243E+02  0.00000000000E+00 0. -1.
</event>
<event>
 8    1  0.2521748E-006  0.9118800E+02  0.7816164E-02  0.1184000E+00
        -11   -1    0    0    0    0  0.00000000000E+00  0.00000000000E+00  0.45593999997E+02  0.45594000000E+02  0.51100000000E-03 0.  1.
         11   -1    0    0    0    0 -0.00000000000E+00 -0.00000000000E+00 -0.45593999997E+02  0.45594000000E+02  0.51100000000E-03 0. -1.
         23    2    1    2    0    0  0.00000000000E+00  0.00000000000E+00  0.00000000000E+00  0.91188000000E+02  0.91188000000E+02 0.  0.
    9900012    2    3    3    0    0  0.23203636480E+02 -0.18447263131E+02 -0.21841795403E+02  0.54367159578E+02  0.40000171890E+02 0.  0.
        -12    1    3    3    0    0 -0.23203636480E+02  0.18447263131E+02  0.21841795403E+02  0.36820840422E+02  0.00000000000E+00 0.  1.
         11    1    4    4    0    0  0.15136287469E+02 -0.51876532371E+01 -0.14451158226E+02  0.21560494400E+02  0.51100000000E-03 0. -1.
        -11    1    4    4    0    0  0.63185218777E+00  0.81650866876E+01  0.17175962642E+01  0.83676767977E+01  0.51100000000E-03 0.  1.
         12    1    4    4    0    0  0.74354968233E+01 -0.21424696582E+02 -0.91082334409E+01  0.24438988380E+02  0.00000000000E+00 0. -1.
</event>
<event>
 8    1  0.2521748E-006  0.9118800E+02  0.7816164E-02  0.1184000E+00
        -11   -1    0    0    0    0  0.00000000000E+00  0.00000000000E+00  0.45593999997E+02  0.45594000000E+02  0.51100000000E-03 0. -1.
         11   -1    0    0    0    0 -0.00000000000E+00 -0.00000000000E+00 -0.45593999997E+02  0.45594000000E+02  0.51100000000E-03 0.  1.
         23    2    1    2    0    0 -0.17763568394E-14  0.35527136788E-14 -0.71054273576E-14  0.91188000000E+02  0.91188000000E+02 0.  0.
    9900012    2    3    3    0    0 -0.56675752737E+01  0.22299391195E+02 -0.28747073196E+02  0.54367102747E+02  0.40000042333E+02 0.  0.
         12    1    3    3    0    0  0.56675752737E+01 -0.22299391195E+02  0.28747073196E+02  0.36820897253E+02  0.00000000000E+00 0. -1.
         11    1    4    4    0    0  0.37500454722E+01  0.14868473632E+02 -0.59186478148E+00  0.15345509225E+02  0.51100000000E-03 0. -1.
        -11    1    4    4    0    0  0.68361349900E+01  0.78626980973E+01 -0.14082989791E+02  0.17518143871E+02  0.51100000000E-03 0.  1.
         12    1    4    4    0    0 -0.16253755736E+02 -0.43178053367E+00 -0.14072218623E+02  0.21503449652E+02  0.00000000000E+00 0. -1.
</event>
<event>
 8    1  0.2521748E-006  0.9118800E+02  0.7816164E-02  0.1184000E+00
        -11   -1    0    0    0    0  0.00000000000E+00  0.00000000000E+00  0.45593999997E+02  0.45594000000E+02  0.51100000000E-03 0. -1.
         11   -1    0    0    0    0 -0.00000000000E+00 -0.00000000000E+00 -0.45593999997E+02  0.45594000000E+02  0.51100000000E-03 0.  1.
         23    2    1    2    0    0  0.17763568394E-14  0.00000000000E+00  0.00000000000E+00  0.91188000000E+02  0.91188000000E+02 0.  0.
    9900012    2    3    3    0    0  0.14436798072E+02  0.29334138694E+02  0.16937114945E+02  0.54367099764E+02  0.40000035532E+02 0.  0.
        -12    1    3    3    0    0 -0.14436798072E+02 -0.29334138694E+02 -0.16937114945E+02  0.36820900236E+02  0.00000000000E+00 0.  1.
         11    1    4    4    0    0  0.90148201394E+00  0.11570531892E+02  0.19220428013E+02  0.22452499445E+02  0.51100000000E-03 0. -1.
        -11    1    4    4    0    0  0.92757096598E+00  0.18717273652E+02  0.12634859214E+01  0.18782787807E+02  0.51100000000E-03 0.  1.
        -12    1    4    4    0    0  0.12607745092E+02 -0.95366684949E+00 -0.35467989897E+01  0.13131812512E+02  0.00000000000E+00 0.  1.
</event>
<event>
 8    1  0.2521748E-006  0.9118800E+02  0.7816164E-02  0.1184000E+00
        -11   -1    0    0    0    0  0.00000000000E+00  0.00000000000E+00  0.45593999997E+02  0.45594000000E+02  0.51100000000E-03 0. -1.
         11   -1    0    0    0    0 -0.00000000000E+00 -0.00000000000E+00 -0.45593999997E+02  0.45594000000E+02  0.51100000000E-03 0.  1.
         23    2    1    2    0    0 -0.33306690739E-15  0.35527136788E-14 -0.35527136788E-14  0.91188000000E+02  0.91188000000E+02 0.  0.
    9900012    2    3    3    0    0  0.85585249006E+00 -0.25372376622E+02  0.26670005223E+02  0.54367093472E+02  0.40000021189E+02 0.  0.
        -12    1    3    3    0    0 -0.85585249006E+00  0.25372376622E+02 -0.26670005223E+02  0.36820906528E+02  0.00000000000E+00 0.  1.
         11    1    4    4    0    0  0.15864010247E+00 -0.12789776708E+02 -0.35750995887E+01  0.13280997412E+02  0.51100000000E-03 0. -1.
        -11    1    4    4    0    0 -0.42280555053E+01  0.21788171605E+01 -0.20945738934E+01  0.51972047902E+01  0.51100000000E-03 0.  1.
         12    1    4    4    0    0  0.49252678929E+01 -0.14761417074E+02  0.32339678705E+02  0.35888891270E+02  0.00000000000E+00 0. -1.
</event>
<event>
 8    1  0.2521748E-006  0.9118800E+02  0.7816164E-02  0.1184000E+00
        -11   -1    0    0    0    0  0.00000000000E+00  0.00000000000E+00  0.45593999997E+02  0.45594000000E+02  0.51100000000E-03 0.  1.
         11   -1    0    0    0    0 -0.00000000000E+00 -0.00000000000E+00 -0.45593999997E+02  0.45594000000E+02  0.51100000000E-03 0. -1.
         23    2    1    2    0    0  0.17763568394E-14  0.00000000000E+00  0.00000000000E+00  0.91188000000E+02  0.91188000000E+02 0.  0.
    9900012    2    3    3    0    0  0.10792019275E+02 -0.30434102350E+02 -0.17693955246E+02  0.54367104870E+02  0.40000047173E+02 0.  0.
        -12    1    3    3    0    0 -0.10792019275E+02  0.30434102350E+02  0.17693955246E+02  0.36820895130E+02  0.00000000000E+00 0.  1.
         11    1    4    4    0    0  0.15805639300E+02 -0.12694820390E+02  0.36326385967E+01  0.20595454884E+02  0.51100000000E-03 0. -1.
        -11    1    4    4    0    0  0.33763334359E+01 -0.11298799363E+02 -0.23174076778E+01  0.12018022846E+02  0.51100000000E-03 0.  1.
        -12    1    4    4    0    0 -0.83899534613E+01 -0.64404825980E+01 -0.19009186164E+02  0.21753627141E+02  0.00000000000E+00 0.  1.
</event>
<event>
 8    1  0.2521748E-006  0.9118800E+02  0.7816164E-02  0.1184000E+00
        -11   -1    0    0    0    0  0.00000000000E+00  0.00000000000E+00  0.45593999997E+02  0.45594000000E+02  0.51100000000E-03 0. -1.
         11   -1    0    0    0    0 -0.00000000000E+00 -0.00000000000E+00 -0.45593999997E+02  0.45594000000E+02  0.51100000000E-03 0.  1.
         23    2    1    2    0    0  0.00000000000E+00 -0.44408920985E-15  0.00000000000E+00  0.91188000000E+02  0.91188000000E+02 0.  0.
    9900012    2    3    3    0    0  0.31613615180E+02  0.22011596573E+01  0.18748706487E+02  0.54367085243E+02  0.40000002429E+02 0.  0.
        -12    1    3    3    0    0 -0.31613615180E+02 -0.22011596573E+01 -0.18748706487E+02  0.36820914757E+02  0.00000000000E+00 0.  1.
         11    1    4    4    0    0  0.21154469156E+02  0.20023939577E+01 -0.51313690659E+01  0.21859828352E+02  0.51100000000E-03 0. -1.
        -11    1    4    4    0    0  0.64394032499E+01 -0.38845571801E+01 -0.42844705423E+00  0.75325471017E+01  0.51100000000E-03 0.  1.
        -12    1    4    4    0    0  0.40197427739E+01  0.40833228797E+01  0.24308522608E+02  0.24974709789E+02  0.00000000000E+00 0.  1.
</event>
<event>
 8    1  0.2521748E-006  0.9118800E+02  0.7816164E-02  0.1184000E+00
        -11   -1    0    0    0    0  0.00000000000E+00  0.00000000000E+00  0.45593999997E+02  0.45594000000E+02  0.51100000000E-03 0.  1.
         11   -1    0    0    0    0 -0.00000000000E+00 -0.00000000000E+00 -0.45593999997E+02  0.45594000000E+02  0.51100000000E-03 0. -1.
         23    2    1    2    0    0 -0.22204460493E-15  0.00000000000E+00  0.00000000000E+00  0.91188000000E+02  0.91188000000E+02 0.  0.
    9900012    2    3    3    0    0  0.15114633947E+01 -0.36678915270E+02  0.28552870522E+01  0.54367081881E+02  0.39999994764E+02 0.  0.
         12    1    3    3    0    0 -0.15114633947E+01  0.36678915270E+02 -0.28552870522E+01  0.36820918119E+02  0.00000000000E+00 0. -1.
         11    1    4    4    0    0 -0.11069372670E+01 -0.38609668216E+02 -0.69943558595E+01  0.39253697966E+02  0.51100000000E-03 0. -1.
        -11    1    4    4    0    0  0.21331455608E+01  0.62658851511E+01  0.37285305709E+01  0.75969445957E+01  0.51100000000E-03 0.  1.
        -12    1    4    4    0    0  0.48525510091E+00 -0.43351322053E+01  0.61211123407E+01  0.75164393192E+01  0.00000000000E+00 0.  1.
</event>
<event>
 8    1  0.2521748E-006  0.9118800E+02  0.7816164E-02  0.1184000E+00
        -11   -1    0    0    0    0  0.00000000000E+00  0.00000000000E+00  0.45593999997E+02  0.45594000000E+02  0.51100000000E-03 0.  1.
         11   -1    0    0    0    0 -0.00000000000E+00 -0.00000000000E+00 -0.45593999997E+02  0.45594000000E+02  0.51100000000E-03 0. -1.
         23    2    1    2    0    0  0.00000000000E+00  0.00000000000E+00  0.35527136788E-14  0.91188000000E+02  0.91188000000E+02 0.  0.
    9900012    2    3    3    0    0 -0.12043343524E+02  0.34793270171E+02  0.40675528651E+00  0.54367092593E+02  0.40000019184E+02 0.  0.
         12    1    3    3    0    0  0.12043343524E+02 -0.34793270171E+02 -0.40675528651E+00  0.36820907407E+02  0.00000000000E+00 0. -1.
         11    1    4    4    0    0  0.28098200102E+01  0.13794645981E+02 -0.16829259256E+02  0.21941087338E+02  0.51100000000E-03 0. -1.
        -11    1    4    4    0    0 -0.59653470811E+01  0.54992434286E+01  0.10640081536E+02  0.13380522391E+02  0.51100000000E-03 0.  1.
         12    1    4    4    0    0 -0.88878164527E+01  0.15499380762E+02  0.65959330063E+01  0.19045482864E+02  0.00000000000E+00 0. -1.
</event>
<event>
 8    1  0.2521748E-006  0.9118800E+02  0.7816164E-02  0.1184000E+00
        -11   -1    0    0    0    0  0.00000000000E+00  0.00000000000E+00  0.45593999997E+02  0.45594000000E+02  0.51100000000E-03 0. -1.
         11   -1    0    0    0    0 -0.00000000000E+00 -0.00000000000E+00 -0.45593999997E+02  0.45594000000E+02  0.51100000000E-03 0.  1.
         23    2    1    2    0    0 -0.71054273576E-14 -0.88817841970E-15 -0.11102230246E-15  0.91188000000E+02  0.91188000000E+02 0.  0.
    9900012    2    3    3    0    0 -0.36241234594E+02 -0.64512433805E+01  0.85670318344E+00  0.54367087920E+02  0.40000008530E+02 0.  0.
        -12    1    3    3    0    0  0.36241234594E+02  0.64512433805E+01 -0.85670318344E+00  0.36820912080E+02  0.00000000000E+00 0.  1.
         11    1    4    4    0    0 -0.66936409785E+01 -0.74307716220E+01 -0.15366845195E+01  0.10118428535E+02  0.51100000000E-03 0. -1.
        -11    1    4    4    0    0  0.68185179700E+01  0.25710616725E+01  0.29031772604E+01  0.78441687831E+01  0.51100000000E-03 0.  1.
        -12    1    4    4    0    0 -0.36366111586E+02 -0.15915334311E+01 -0.50978955749E+00  0.36404490601E+02  0.00000000000E+00 0.  1.
</event>
<event>
 8    1  0.2521748E-006  0.9118800E+02  0.7816164E-02  0.1184000E+00
        -11   -1    0    0    0    0  0.00000000000E+00  0.00000000000E+00  0.45593999997E+02  0.45594000000E+02  0.51100000000E-03 0. -1.
         11   -1    0    0    0    0 -0.00000000000E+00 -0.00000000000E+00 -0.45593999997E+02  0.45594000000E+02  0.51100000000E-03 0.  1.
         23    2    1    2    0    0  0.00000000000E+00  0.30531133177E-15  0.00000000000E+00  0.91188000000E+02  0.91188000000E+02 0.  0.
    9900012    2    3    3    0    0  0.10718158054E+02 -0.14792121934E+00 -0.35226100177E+02  0.54367096610E+02  0.40000028342E+02 0.  0.
         12    1    3    3    0    0 -0.10718158054E+02  0.14792121934E+00  0.35226100177E+02  0.36820903390E+02  0.00000000000E+00 0. -1.
         11    1    4    4    0    0 -0.18675046860E+01 -0.14349061000E+01  0.47119836465E+01  0.52677622777E+01  0.51100000000E-03 0. -1.
        -11    1    4    4    0    0  0.65695884495E+01  0.78903908334E+01 -0.24418332607E+01  0.10553687026E+02  0.51100000000E-03 0.  1.
        -12    1    4    4    0    0  0.60160742910E+01 -0.66034059528E+01 -0.37496250563E+02  0.38545647307E+02  0.00000000000E+00 0.  1.
</event>
<event>
 8    1  0.2521748E-006  0.9118800E+02  0.7816164E-02  0.1184000E+00
        -11   -1    0    0    0    0  0.00000000000E+00  0.00000000000E+00  0.45593999997E+02  0.45594000000E+02  0.51100000000E-03 0.  1.
         11   -1    0    0    0    0 -0.00000000000E+00 -0.00000000000E+00 -0.45593999997E+02  0.45594000000E+02  0.51100000000E-03 0. -1.
         23    2    1    2    0    0  0.00000000000E+00  0.00000000000E+00  0.17763568394E-14  0.91188000000E+02  0.91188000000E+02 0.  0.
    9900012    2    3    3    0    0  0.29922012808E+02 -0.19202756961E+02 -0.95763668754E+01  0.54367088443E+02  0.40000009724E+02 0.  0.
        -12    1    3    3    0    0 -0.29922012808E+02  0.19202756961E+02  0.95763668754E+01  0.36820911557E+02  0.00000000000E+00 0.  1.
         11    1    4    4    0    0 -0.36320837479E+00 -0.11119240906E+02 -0.12058994331E+02  0.16406973615E+02  0.51100000000E-03 0. -1.
        -11    1    4    4    0    0  0.13234102142E+02 -0.16300271916E+01  0.11511192519E+02  0.17615504580E+02  0.51100000000E-03 0.  1.
         12    1    4    4    0    0  0.17051119041E+02 -0.64534888631E+01 -0.90285650631E+01  0.20344610248E+02  0.00000000000E+00 0. -1.
</event>
<event>
 8    1  0.2521748E-006  0.9118800E+02  0.7816164E-02  0.1184000E+00
        -11   -1    0    0    0    0  0.00000000000E+00  0.00000000000E+00  0.45593999997E+02  0.45594000000E+02  0.51100000000E-03 0.  1.
         11   -1    0    0    0    0 -0.00000000000E+00 -0.00000000000E+00 -0.45593999997E+02  0.45594000000E+02  0.51100000000E-03 0. -1.
         23    2    1    2    0    0  0.00000000000E+00  0.00000000000E+00  0.00000000000E+00  0.91188000000E+02  0.91188000000E+02 0.  0.
    9900012    2    3    3    0    0 -0.23110503515E+02  0.13391042009E+02  0.25344897001E+02  0.54367093129E+02  0.40000020407E+02 0.  0.
         12    1    3    3    0    0  0.23110503515E+02 -0.13391042009E+02 -0.25344897001E+02  0.36820906871E+02  0.00000000000E+00 0. -1.
         11    1    4    4    0    0 -0.28953291160E+01  0.71066368503E+00 -0.62852859948E+01  0.69564929283E+01  0.51100000000E-03 0. -1.
        -11    1    4    4    0    0  0.50685037584E+01  0.26379209412E+00  0.12136775446E+02  0.13155251237E+02  0.51100000000E-03 0.  1.
        -12    1    4    4    0    0 -0.25283678157E+02  0.12416586229E+02  0.19493407550E+02  0.34255348964E+02  0.00000000000E+00 0.  1.
</event>
<event>
 8    1  0.2521748E-006  0.9118800E+02  0.7816164E-02  0.1184000E+00
        -11   -1    0    0    0    0  0.00000000000E+00  0.00000000000E+00  0.45593999997E+02  0.45594000000E+02  0.51100000000E-03 0.  1.
         11   -1    0    0    0    0 -0.00000000000E+00 -0.00000000000E+00 -0.45593999997E+02  0.45594000000E+02  0.51100000000E-03 0. -1.
         23    2    1    2    0    0  0.00000000000E+00  0.00000000000E+00 -0.16653345369E-14  0.91188000000E+02  0.91188000000E+02 0.  0.
    9900012    2    3    3    0    0 -0.11604299494E+02 -0.34935822154E+02 -0.78533534975E+00  0.54366970847E+02  0.39999741638E+02 0.  0.
        -12    1    3    3    0    0  0.11604299494E+02  0.34935822154E+02  0.78533534975E+00  0.36821029153E+02  0.00000000000E+00 0.  1.
         11    1    4    4    0    0 -0.60546587587E+01 -0.78500796587E+01 -0.16806312371E+02  0.19512426274E+02  0.51100000000E-03 0. -1.
        -11    1    4    4    0    0 -0.58708523506E+01 -0.20746913516E+02  0.49954821492E+01  0.22132694592E+02  0.51100000000E-03 0.  1.
         12    1    4    4    0    0  0.32121161503E+00 -0.63388289794E+01  0.11025494872E+02  0.12721849980E+02  0.00000000000E+00 0. -1.
</event>
<event>
 8    1  0.2521748E-006  0.9118800E+02  0.7816164E-02  0.1184000E+00
        -11   -1    0    0    0    0  0.00000000000E+00  0.00000000000E+00  0.45593999997E+02  0.45594000000E+02  0.51100000000E-03 0. -1.
         11   -1    0    0    0    0 -0.00000000000E+00 -0.00000000000E+00 -0.45593999997E+02  0.45594000000E+02  0.51100000000E-03 0.  1.
         23    2    1    2    0    0 -0.88817841970E-15  0.00000000000E+00 -0.35527136788E-14  0.91188000000E+02  0.91188000000E+02 0.  0.
    9900012    2    3    3    0    0  0.78379980794E+01 -0.21747212229E+02  0.28660125916E+02  0.54367105509E+02  0.40000048628E+02 0.  0.
        -12    1    3    3    0    0 -0.78379980794E+01  0.21747212229E+02 -0.28660125916E+02  0.36820894491E+02  0.00000000000E+00 0.  1.
         11    1    4    4    0    0 -0.85784258166E+01 -0.10699741674E+02  0.19365171356E+02  0.23729385228E+02  0.51100000000E-03 0. -1.
        -11    1    4    4    0    0  0.13021006064E+02 -0.15077479275E+01  0.14252147371E+02  0.19363460632E+02  0.51100000000E-03 0.  1.
        -12    1    4    4    0    0  0.33954178320E+01 -0.95397226268E+01 -0.49571928106E+01  0.11274259648E+02  0.00000000000E+00 0.  1.
</event>
<event>
 8    1  0.2521748E-006  0.9118800E+02  0.7816164E-02  0.1184000E+00
        -11   -1    0    0    0    0  0.00000000000E+00  0.00000000000E+00  0.45593999997E+02  0.45594000000E+02  0.51100000000E-03 0.  1.
         11   -1    0    0    0    0 -0.00000000000E+00 -0.00000000000E+00 -0.45593999997E+02  0.45594000000E+02  0.51100000000E-03 0. -1.
         23    2    1    2    0    0  0.00000000000E+00  0.00000000000E+00  0.44408920985E-15  0.91188000000E+02  0.91188000000E+02 0.  0.
    9900012    2    3    3    0    0 -0.13876322386E+02 -0.34027568560E+02 -0.23135112129E+01  0.54367080956E+02  0.39999992656E+02 0.  0.
         12    1    3    3    0    0  0.13876322386E+02  0.34027568560E+02  0.23135112129E+01  0.36820919044E+02  0.00000000000E+00 0. -1.
         11    1    4    4    0    0  0.57667354374E+00 -0.41283455903E+01  0.59576465891E+01  0.72711307808E+01  0.51100000000E-03 0. -1.
        -11    1    4    4    0    0 -0.23777275227E+02 -0.25601943933E+02 -0.18556713380E+01  0.34989453650E+02  0.51100000000E-03 0.  1.
         12    1    4    4    0    0  0.93242792974E+01 -0.42972790371E+01 -0.64154864640E+01  0.12106496525E+02  0.00000000000E+00 0. -1.
</event>
<event>
 8    1  0.2521748E-006  0.9118800E+02  0.7816164E-02  0.1184000E+00
        -11   -1    0    0    0    0  0.00000000000E+00  0.00000000000E+00  0.45593999997E+02  0.45594000000E+02  0.51100000000E-03 0. -1.
         11   -1    0    0    0    0 -0.00000000000E+00 -0.00000000000E+00 -0.45593999997E+02  0.45594000000E+02  0.51100000000E-03 0.  1.
         23    2    1    2    0    0  0.00000000000E+00 -0.35527136788E-14  0.26645352591E-14  0.91188000000E+02  0.91188000000E+02 0.  0.
    9900012    2    3    3    0    0  0.31498860560E+02  0.18992853962E+02 -0.16951640273E+01  0.54367077968E+02  0.39999985844E+02 0.  0.
        -12    1    3    3    0    0 -0.31498860560E+02 -0.18992853962E+02  0.16951640273E+01  0.36820922032E+02  0.00000000000E+00 0.  1.
         11    1    4    4    0    0 -0.60884416666E+01  0.56339989431E+01  0.30664123346E+01  0.88438651553E+01  0.51100000000E-03 0. -1.
        -11    1    4    4    0    0  0.21887415562E+02  0.60367061205E+01 -0.13190385601E+02  0.26258085485E+02  0.51100000000E-03 0.  1.
        -12    1    4    4    0    0  0.15699886665E+02  0.73221488980E+01  0.84288092394E+01  0.19265127328E+02  0.00000000000E+00 0.  1.
</event>
<event>
 8    1  0.2521748E-006  0.9118800E+02  0.7816164E-02  0.1184000E+00
        -11   -1    0    0    0    0  0.00000000000E+00  0.00000000000E+00  0.45593999997E+02  0.45594000000E+02  0.51100000000E-03 0.  1.
         11   -1    0    0    0    0 -0.00000000000E+00 -0.00000000000E+00 -0.45593999997E+02  0.45594000000E+02  0.51100000000E-03 0. -1.
         23    2    1    2    0    0  0.00000000000E+00  0.00000000000E+00  0.00000000000E+00  0.91188000000E+02  0.91188000000E+02 0.  0.
    9900012    2    3    3    0    0  0.11068083049E+02 -0.19847592285E+01 -0.35061965757E+02  0.54367038927E+02  0.39999896842E+02 0.  0.
        -12    1    3    3    0    0 -0.11068083049E+02  0.19847592285E+01  0.35061965757E+02  0.36820961073E+02  0.00000000000E+00 0.  1.
         11    1    4    4    0    0 -0.44255327820E+01 -0.20073487752E+00 -0.56975745268E+01  0.72172010257E+01  0.51100000000E-03 0. -1.
        -11    1    4    4    0    0 -0.59101363985E+01 -0.54047993779E+01  0.26795894645E+01  0.84452216385E+01  0.51100000000E-03 0.  1.
        -12    1    4    4    0    0  0.21403752230E+02  0.36207750269E+01 -0.32043980695E+02  0.38704616263E+02  0.00000000000E+00 0.  1.
</event>
<event>
 8    1  0.2521748E-006  0.9118800E+02  0.7816164E-02  0.1184000E+00
        -11   -1    0    0    0    0  0.00000000000E+00  0.00000000000E+00  0.45593999997E+02  0.45594000000E+02  0.51100000000E-03 0.  1.
         11   -1    0    0    0    0 -0.00000000000E+00 -0.00000000000E+00 -0.45593999997E+02  0.45594000000E+02  0.51100000000E-03 0. -1.
         23    2    1    2    0    0  0.00000000000E+00 -0.35527136788E-14 -0.17763568394E-14  0.91188000000E+02  0.91188000000E+02 0.  0.
    9900012    2    3    3    0    0  0.29825281269E+02 -0.14652941352E+02 -0.15859547874E+02  0.54367063675E+02  0.39999953261E+02 0.  0.
         12    1    3    3    0    0 -0.29825281269E+02  0.14652941352E+02  0.15859547874E+02  0.36820936325E+02  0.00000000000E+00 0. -1.
         11    1    4    4    0    0 -0.38730237555E+01 -0.16895455765E+02 -0.57071463548E+01  0.18249061847E+02  0.51100000000E-03 0. -1.
        -11    1    4    4    0    0  0.11028993798E+02 -0.64303722222E+00  0.15489299275E+00  0.11048809582E+02  0.51100000000E-03 0.  1.
        -12    1    4    4    0    0  0.22669311227E+02  0.28855516360E+01 -0.10307294512E+02  0.25069192247E+02  0.00000000000E+00 0.  1.
</event>
<event>
 8    1  0.2521748E-006  0.9118800E+02  0.7816164E-02  0.1184000E+00
        -11   -1    0    0    0    0  0.00000000000E+00  0.00000000000E+00  0.45593999997E+02  0.45594000000E+02  0.51100000000E-03 0.  1.
         11   -1    0    0    0    0 -0.00000000000E+00 -0.00000000000E+00 -0.45593999997E+02  0.45594000000E+02  0.51100000000E-03 0. -1.
         23    2    1    2    0    0  0.00000000000E+00  0.88817841970E-15  0.17763568394E-14  0.91188000000E+02  0.91188000000E+02 0.  0.
    9900012    2    3    3    0    0  0.32519742314E+02  0.74252407395E+01  0.15592043048E+02  0.54367086831E+02  0.40000006048E+02 0.  0.
         12    1    3    3    0    0 -0.32519742314E+02 -0.74252407395E+01 -0.15592043048E+02  0.36820913169E+02  0.00000000000E+00 0. -1.
         11    1    4    4    0    0  0.60783921892E+00  0.59467998992E+01 -0.38445197315E+00  0.59901336495E+01  0.51100000000E-03 0. -1.
        -11    1    4    4    0    0  0.15342673006E+02  0.27783158882E+01 -0.92782972528E+01  0.18143964680E+02  0.51100000000E-03 0.  1.
        -12    1    4    4    0    0  0.16569230089E+02 -0.12998750479E+01  0.25254792274E+02  0.30232988501E+02  0.00000000000E+00 0.  1.
</event>
<event>
 8    1  0.2521748E-006  0.9118800E+02  0.7816164E-02  0.1184000E+00
        -11   -1    0    0    0    0  0.00000000000E+00  0.00000000000E+00  0.45593999997E+02  0.45594000000E+02  0.51100000000E-03 0.  1.
         11   -1    0    0    0    0 -0.00000000000E+00 -0.00000000000E+00 -0.45593999997E+02  0.45594000000E+02  0.51100000000E-03 0. -1.
         23    2    1    2    0    0  0.00000000000E+00  0.00000000000E+00  0.00000000000E+00  0.91188000000E+02  0.91188000000E+02 0.  0.
    9900012    2    3    3    0    0  0.20931873568E+02  0.29604324887E+02 -0.64203313819E+01  0.54367081514E+02  0.39999993927E+02 0.  0.
         12    1    3    3    0    0 -0.20931873568E+02 -0.29604324887E+02  0.64203313819E+01  0.36820918486E+02  0.00000000000E+00 0. -1.
         11    1    4    4    0    0  0.12575912478E+02  0.14607902937E+02 -0.46794542807E+01  0.19835364769E+02  0.51100000000E-03 0. -1.
        -11    1    4    4    0    0  0.65066096725E+01  0.12241422421E+02  0.13250702342E+02  0.19177317464E+02  0.51100000000E-03 0.  1.
         12    1    4    4    0    0  0.18493514173E+01  0.27549995295E+01 -0.14991579443E+02  0.15354399281E+02  0.00000000000E+00 0. -1.
</event>
<event>
 8    1  0.2521748E-006  0.9118800E+02  0.7816164E-02  0.1184000E+00
        -11   -1    0    0    0    0  0.00000000000E+00  0.00000000000E+00  0.45593999997E+02  0.45594000000E+02  0.51100000000E-03 0.  1.
         11   -1    0    0    0    0 -0.00000000000E+00 -0.00000000000E+00 -0.45593999997E+02  0.45594000000E+02  0.51100000000E-03 0. -1.
         23    2    1    2    0    0  0.00000000000E+00 -0.35527136788E-14  0.13322676296E-14  0.91188000000E+02  0.91188000000E+02 0.  0.
    9900012    2    3    3    0    0  0.23440663571E+02  0.28185031634E+02  0.34525214614E+01  0.54367073596E+02  0.39999975876E+02 0.  0.
         12    1    3    3    0    0 -0.23440663571E+02 -0.28185031634E+02 -0.34525214614E+01  0.36820926404E+02  0.00000000000E+00 0. -1.
         11    1    4    4    0    0  0.25796357259E+01  0.16474482738E+02 -0.12705702500E+02  0.20964207074E+02  0.51100000000E-03 0. -1.
        -11    1    4    4    0    0  0.10726152223E+02  0.14163395583E+02  0.14309936040E+02  0.22812855711E+02  0.51100000000E-03 0.  1.
         12    1    4    4    0    0  0.10134875622E+02 -0.24528466866E+01  0.18482879208E+01  0.10590010811E+02  0.00000000000E+00 0. -1.
</event>
<event>
 8    1  0.2521748E-006  0.9118800E+02  0.7816164E-02  0.1184000E+00
        -11   -1    0    0    0    0  0.00000000000E+00  0.00000000000E+00  0.45593999997E+02  0.45594000000E+02  0.51100000000E-03 0.  1.
         11   -1    0    0    0    0 -0.00000000000E+00 -0.00000000000E+00 -0.45593999997E+02  0.45594000000E+02  0.51100000000E-03 0. -1.
         23    2    1    2    0    0  0.17763568394E-14  0.00000000000E+00  0.35527136788E-14  0.91188000000E+02  0.91188000000E+02 0.  0.
    9900012    2    3    3    0    0 -0.10954117041E+02 -0.22361834415E+02 -0.27124440666E+02  0.54367087464E+02  0.40000007492E+02 0.  0.
        -12    1    3    3    0    0  0.10954117041E+02  0.22361834415E+02  0.27124440666E+02  0.36820912536E+02  0.00000000000E+00 0.  1.
         11    1    4    4    0    0  0.24462208802E+01 -0.12822201059E+02 -0.24608098335E+02  0.27855903154E+02  0.51100000000E-03 0. -1.
        -11    1    4    4    0    0  0.42101870991E+01  0.22953446270E+01 -0.22373320587E+01  0.52914967040E+01  0.51100000000E-03 0.  1.
        -12    1    4    4    0    0 -0.17610525021E+02 -0.11834977983E+02 -0.27901027161E+00  0.21219687606E+02  0.00000000000E+00 0.  1.
</event>
<event>
 8    1  0.2521748E-006  0.9118800E+02  0.7816164E-02  0.1184000E+00
        -11   -1    0    0    0    0  0.00000000000E+00  0.00000000000E+00  0.45593999997E+02  0.45594000000E+02  0.51100000000E-03 0. -1.
         11   -1    0    0    0    0 -0.00000000000E+00 -0.00000000000E+00 -0.45593999997E+02  0.45594000000E+02  0.51100000000E-03 0.  1.
         23    2    1    2    0    0  0.00000000000E+00 -0.17763568394E-14  0.14210854715E-13  0.91188000000E+02  0.91188000000E+02 0.  0.
    9900012    2    3    3    0    0  0.11093405238E+02 -0.10843771956E+02 -0.33393532131E+02  0.54367095364E+02  0.40000025502E+02 0.  0.
         12    1    3    3    0    0 -0.11093405238E+02  0.10843771956E+02  0.33393532131E+02  0.36820904636E+02  0.00000000000E+00 0. -1.
         11    1    4    4    0    0  0.56200922189E+01  0.42597620973E+01  0.72289085903E-01  0.70523921932E+01  0.51100000000E-03 0. -1.
        -11    1    4    4    0    0  0.13659480625E+02  0.26253328097E+01 -0.14499469711E+02  0.20092496248E+02  0.51100000000E-03 0.  1.
         12    1    4    4    0    0 -0.81861676056E+01 -0.17728866863E+02 -0.18966351506E+02  0.27222206923E+02  0.00000000000E+00 0. -1.
</event>
<event>
 8    1  0.2521748E-006  0.9118800E+02  0.7816164E-02  0.1184000E+00
        -11   -1    0    0    0    0  0.00000000000E+00  0.00000000000E+00  0.45593999997E+02  0.45594000000E+02  0.51100000000E-03 0.  1.
         11   -1    0    0    0    0 -0.00000000000E+00 -0.00000000000E+00 -0.45593999997E+02  0.45594000000E+02  0.51100000000E-03 0. -1.
         23    2    1    2    0    0 -0.35527136788E-14 -0.71054273576E-14  0.35527136788E-14  0.91188000000E+02  0.91188000000E+02 0.  0.
    9900012    2    3    3    0    0 -0.24323840660E+02 -0.21612853299E+02  0.17234128213E+02  0.54367084376E+02  0.40000000452E+02 0.  0.
         12    1    3    3    0    0  0.24323840660E+02  0.21612853299E+02 -0.17234128213E+02  0.36820915624E+02  0.00000000000E+00 0. -1.
         11    1    4    4    0    0 -0.81024937901E+01 -0.19825093851E+02 -0.30107980551E+01  0.21627520825E+02  0.51100000000E-03 0. -1.
        -11    1    4    4    0    0 -0.85870721339E+01  0.85698703879E-01 -0.22778183447E+01  0.88844588340E+01  0.51100000000E-03 0.  1.
        -12    1    4    4    0    0 -0.76342747358E+01 -0.18734581513E+01  0.22522744612E+02  0.23855104717E+02  0.00000000000E+00 0.  1.
</event>
<event>
 8    1  0.2521748E-006  0.9118800E+02  0.7816164E-02  0.1184000E+00
        -11   -1    0    0    0    0  0.00000000000E+00  0.00000000000E+00  0.45593999997E+02  0.45594000000E+02  0.51100000000E-03 0.  1.
         11   -1    0    0    0    0 -0.00000000000E+00 -0.00000000000E+00 -0.45593999997E+02  0.45594000000E+02  0.51100000000E-03 0. -1.
         23    2    1    2    0    0 -0.22204460493E-15  0.00000000000E+00  0.00000000000E+00  0.91188000000E+02  0.91188000000E+02 0.  0.
    9900012    2    3    3    0    0  0.18802783455E+01  0.30889483953E+02  0.19952049223E+02  0.54367082932E+02  0.39999997160E+02 0.  0.
         12    1    3    3    0    0 -0.18802783455E+01 -0.30889483953E+02 -0.19952049223E+02  0.36820917068E+02  0.00000000000E+00 0. -1.
         11    1    4    4    0    0 -0.12152723192E+01  0.30905926691E+02  0.40705664372E+01  0.31196517479E+02  0.51100000000E-03 0. -1.
        -11    1    4    4    0    0 -0.28895456918E+01 -0.21522881182E+01  0.16403349104E+02  0.16794394318E+02  0.51100000000E-03 0.  1.
        -12    1    4    4    0    0  0.59850963566E+01  0.21358453800E+01 -0.52186631730E+00  0.63761711346E+01  0.00000000000E+00 0.  1.
</event>
<event>
 8    1  0.2521748E-006  0.9118800E+02  0.7816164E-02  0.1184000E+00
        -11   -1    0    0    0    0  0.00000000000E+00  0.00000000000E+00  0.45593999997E+02  0.45594000000E+02  0.51100000000E-03 0.  1.
         11   -1    0    0    0    0 -0.00000000000E+00 -0.00000000000E+00 -0.45593999997E+02  0.45594000000E+02  0.51100000000E-03 0. -1.
         23    2    1    2    0    0  0.10658141036E-13  0.00000000000E+00  0.00000000000E+00  0.91188000000E+02  0.91188000000E+02 0.  0.
    9900012    2    3    3    0    0 -0.29617374663E+02 -0.46176276785E+01 -0.21383828326E+02  0.54367089077E+02  0.40000011169E+02 0.  0.
        -12    1    3    3    0    0  0.29617374663E+02  0.46176276785E+01  0.21383828326E+02  0.36820910923E+02  0.00000000000E+00 0.  1.
         11    1    4    4    0    0  0.55863458888E+01 -0.24572978888E-01  0.67212090699E-01  0.55868042696E+01  0.51100000000E-03 0.  1.
        -11    1    4    4    0    0  0.14718446702E+01 -0.65621856433E+01 -0.11758534538E+01  0.68272423977E+01  0.51100000000E-03 0. -1.
         12    1    4    4    0    0 -0.36675565222E+02  0.19691309437E+01 -0.20275186963E+02  0.41953042410E+02  0.00000000000E+00 0. -1.
</event>
<event>
 8    1  0.2521748E-006  0.9118800E+02  0.7816164E-02  0.1184000E+00
        -11   -1    0    0    0    0  0.00000000000E+00  0.00000000000E+00  0.45593999997E+02  0.45594000000E+02  0.51100000000E-03 0. -1.
         11   -1    0    0    0    0 -0.00000000000E+00 -0.00000000000E+00 -0.45593999997E+02  0.45594000000E+02  0.51100000000E-03 0.  1.
         23    2    1    2    0    0  0.00000000000E+00  0.88817841970E-15 -0.44408920985E-15  0.91188000000E+02  0.91188000000E+02 0.  0.
    9900012    2    3    3    0    0  0.36053657454E+02 -0.67488525697E+01 -0.32192334571E+01  0.54367126967E+02  0.40000097547E+02 0.  0.
         12    1    3    3    0    0 -0.36053657454E+02  0.67488525697E+01  0.32192334571E+01  0.36820873033E+02  0.00000000000E+00 0. -1.
         11    1    4    4    0    0 -0.39385194507E+00  0.31285477628E+01  0.67932015758E+01  0.74893603445E+01  0.51100000000E-03 0. -1.
        -11    1    4    4    0    0 -0.63472742860E+00  0.52212829745E+01  0.99711863796E+00  0.53534027168E+01  0.51100000000E-03 0.  1.
         12    1    4    4    0    0  0.37082236828E+02 -0.15098683307E+02 -0.11009553671E+02  0.41524363906E+02  0.00000000000E+00 0. -1.
</event>
<event>
 8    1  0.2521748E-006  0.9118800E+02  0.7816164E-02  0.1184000E+00
        -11   -1    0    0    0    0  0.00000000000E+00  0.00000000000E+00  0.45593999997E+02  0.45594000000E+02  0.51100000000E-03 0.  1.
         11   -1    0    0    0    0 -0.00000000000E+00 -0.00000000000E+00 -0.45593999997E+02  0.45594000000E+02  0.51100000000E-03 0. -1.
         23    2    1    2    0    0  0.35527136788E-14 -0.44408920985E-15  0.35527136788E-14  0.91188000000E+02  0.91188000000E+02 0.  0.
    9900012    2    3    3    0    0  0.28265465069E+02 -0.28211951477E+01  0.23428273158E+02  0.54367086910E+02  0.40000006228E+02 0.  0.
         12    1    3    3    0    0 -0.28265465069E+02  0.28211951477E+01 -0.23428273158E+02  0.36820913090E+02  0.00000000000E+00 0. -1.
         11    1    4    4    0    0  0.61899053441E+01  0.76271899727E+01  0.74916449907E-01  0.98231648558E+01  0.51100000000E-03 0. -1.
        -11    1    4    4    0    0  0.13635562826E+02 -0.93064854555E+01 -0.30612608860E+01  0.16790192482E+02  0.51100000000E-03 0.  1.
        -12    1    4    4    0    0  0.84399968988E+01 -0.11418996649E+01  0.26414617594E+02  0.27753729572E+02  0.00000000000E+00 0.  1.
</event>
<event>
 8    1  0.2521748E-006  0.9118800E+02  0.7816164E-02  0.1184000E+00
        -11   -1    0    0    0    0  0.00000000000E+00  0.00000000000E+00  0.45593999997E+02  0.45594000000E+02  0.51100000000E-03 0.  1.
         11   -1    0    0    0    0 -0.00000000000E+00 -0.00000000000E+00 -0.45593999997E+02  0.45594000000E+02  0.51100000000E-03 0. -1.
         23    2    1    2    0    0  0.00000000000E+00 -0.35527136788E-14  0.00000000000E+00  0.91188000000E+02  0.91188000000E+02 0.  0.
    9900012    2    3    3    0    0 -0.12399637910E+02 -0.24142096114E+02 -0.24883475179E+02  0.54367093411E+02  0.40000021048E+02 0.  0.
        -12    1    3    3    0    0  0.12399637910E+02  0.24142096114E+02  0.24883475179E+02  0.36820906589E+02  0.00000000000E+00 0.  1.
         11    1    4    4    0    0 -0.35009880232E+00 -0.20104377308E+02 -0.11739423802E+02  0.23283526957E+02  0.51100000000E-03 0. -1.
        -11    1    4    4    0    0 -0.97708536794E+00 -0.46406019604E+01  0.67845054955E+01  0.82776444385E+01  0.51100000000E-03 0.  1.
         12    1    4    4    0    0 -0.11072453740E+02  0.60288315409E+00 -0.19928556872E+02  0.22805922015E+02  0.00000000000E+00 0. -1.
</event>
<event>
 8    1  0.2521748E-006  0.9118800E+02  0.7816164E-02  0.1184000E+00
        -11   -1    0    0    0    0  0.00000000000E+00  0.00000000000E+00  0.45593999997E+02  0.45594000000E+02  0.51100000000E-03 0. -1.
         11   -1    0    0    0    0 -0.00000000000E+00 -0.00000000000E+00 -0.45593999997E+02  0.45594000000E+02  0.51100000000E-03 0.  1.
         23    2    1    2    0    0  0.88817841970E-15  0.00000000000E+00 -0.35527136788E-14  0.91188000000E+02  0.91188000000E+02 0.  0.
    9900012    2    3    3    0    0  0.49746048028E+01  0.25697579367E+02 -0.25897157308E+02  0.54367149454E+02  0.40000148810E+02 0.  0.
         12    1    3    3    0    0 -0.49746048028E+01 -0.25697579367E+02  0.25897157308E+02  0.36820850546E+02  0.00000000000E+00 0. -1.
         11    1    4    4    0    0 -0.12044426057E+02  0.12736115670E+02 -0.87911718644E+01  0.19610240805E+02  0.51100000000E-03 0. -1.
        -11    1    4    4    0    0  0.66910427472E+01  0.16687260823E+02 -0.55480462720E+01  0.18815300808E+02  0.51100000000E-03 0.  1.
        -12    1    4    4    0    0  0.10327988112E+02 -0.37257971255E+01 -0.11557939172E+02  0.15941607841E+02  0.00000000000E+00 0.  1.
</event>
<event>
 8    1  0.2521748E-006  0.9118800E+02  0.7816164E-02  0.1184000E+00
        -11   -1    0    0    0    0  0.00000000000E+00  0.00000000000E+00  0.45593999997E+02  0.45594000000E+02  0.51100000000E-03 0.  1.
         11   -1    0    0    0    0 -0.00000000000E+00 -0.00000000000E+00 -0.45593999997E+02  0.45594000000E+02  0.51100000000E-03 0. -1.
         23    2    1    2    0    0  0.35527136788E-14  0.00000000000E+00 -0.35527136788E-14  0.91188000000E+02  0.91188000000E+02 0.  0.
    9900012    2    3    3    0    0  0.17337663636E+02 -0.18747309691E+02 -0.26527787942E+02  0.54367085642E+02  0.40000003339E+02 0.  0.
        -12    1    3    3    0    0 -0.17337663636E+02  0.18747309691E+02  0.26527787942E+02  0.36820914358E+02  0.00000000000E+00 0.  1.
         11    1    4    4    0    0  0.24482170371E+02 -0.50905151809E+01 -0.13411462544E+02  0.28375294513E+02  0.51100000000E-03 0. -1.
        -11    1    4    4    0    0 -0.49543432600E+01 -0.15501860804E+02 -0.44604743929E+01  0.16874508514E+02  0.51100000000E-03 0.  1.
         12    1    4    4    0    0 -0.21901634742E+01  0.18450662933E+01 -0.86558510051E+01  0.91172826156E+01  0.00000000000E+00 0. -1.
</event>
<event>
 8    1  0.2521748E-006  0.9118800E+02  0.7816164E-02  0.1184000E+00
        -11   -1    0    0    0    0  0.00000000000E+00  0.00000000000E+00  0.45593999997E+02  0.45594000000E+02  0.51100000000E-03 0.  1.
         11   -1    0    0    0    0 -0.00000000000E+00 -0.00000000000E+00 -0.45593999997E+02  0.45594000000E+02  0.51100000000E-03 0. -1.
         23    2    1    2    0    0  0.00000000000E+00  0.00000000000E+00  0.00000000000E+00  0.91188000000E+02  0.91188000000E+02 0.  0.
    9900012    2    3    3    0    0  0.23108130467E+02  0.21036512486E+02 -0.19474547785E+02  0.54367101550E+02  0.40000039604E+02 0.  0.
         12    1    3    3    0    0 -0.23108130467E+02 -0.21036512486E+02  0.19474547785E+02  0.36820898450E+02  0.00000000000E+00 0. -1.
         11    1    4    4    0    0  0.75500471381E+01 -0.84443017521E+01 -0.94951609094E+01  0.14780646969E+02  0.51100000000E-03 0. -1.
        -11    1    4    4    0    0  0.18761428692E+02  0.16717048907E+02 -0.71502448886E+01  0.26126173331E+02  0.51100000000E-03 0.  1.
        -12    1    4    4    0    0 -0.32033453629E+01  0.12763765331E+02 -0.28291419869E+01  0.13460281250E+02  0.00000000000E+00 0.  1.
</event>
<event>
 8    1  0.2521748E-006  0.9118800E+02  0.7816164E-02  0.1184000E+00
        -11   -1    0    0    0    0  0.00000000000E+00  0.00000000000E+00  0.45593999997E+02  0.45594000000E+02  0.51100000000E-03 0. -1.
         11   -1    0    0    0    0 -0.00000000000E+00 -0.00000000000E+00 -0.45593999997E+02  0.45594000000E+02  0.51100000000E-03 0.  1.
         23    2    1    2    0    0  0.35527136788E-14  0.00000000000E+00  0.00000000000E+00  0.91188000000E+02  0.91188000000E+02 0.  0.
    9900012    2    3    3    0    0 -0.11957673387E+02  0.11756814311E+02 -0.32780676244E+02  0.54367063420E+02  0.39999952679E+02 0.  0.
         12    1    3    3    0    0  0.11957673387E+02 -0.11756814311E+02  0.32780676244E+02  0.36820936580E+02  0.00000000000E+00 0. -1.
         11    1    4    4    0    0 -0.33881614582E+01 -0.53297081739E+01 -0.92556953688E+01  0.11205057979E+02  0.51100000000E-03 0. -1.
        -11    1    4    4    0    0  0.10568544310E+02  0.10343583911E+02 -0.15267027016E+02  0.21254787016E+02  0.51100000000E-03 0.  1.
        -12    1    4    4    0    0 -0.19138056238E+02  0.67429385737E+01 -0.82579538595E+01  0.21907218425E+02  0.00000000000E+00 0.  1.
</event>
<event>
 8    1  0.2521748E-006  0.9118800E+02  0.7816164E-02  0.1184000E+00
        -11   -1    0    0    0    0  0.00000000000E+00  0.00000000000E+00  0.45593999997E+02  0.45594000000E+02  0.51100000000E-03 0. -1.
         11   -1    0    0    0    0 -0.00000000000E+00 -0.00000000000E+00 -0.45593999997E+02  0.45594000000E+02  0.51100000000E-03 0.  1.
         23    2    1    2    0    0  0.00000000000E+00 -0.17763568394E-14  0.00000000000E+00  0.91188000000E+02  0.91188000000E+02 0.  0.
    9900012    2    3    3    0    0  0.21111837066E+02 -0.11021647800E+02 -0.28081907888E+02  0.54367082913E+02  0.39999997116E+02 0.  0.
         12    1    3    3    0    0 -0.21111837066E+02  0.11021647800E+02  0.28081907888E+02  0.36820917087E+02  0.00000000000E+00 0. -1.
         11    1    4    4    0    0  0.11453575256E+02  0.48216241868E+01 -0.22638598055E+02  0.25825153787E+02  0.51100000000E-03 0. -1.
        -11    1    4    4    0    0  0.15592614256E+02 -0.64091452064E+01 -0.28305880526E+01  0.17094414017E+02  0.51100000000E-03 0.  1.
         12    1    4    4    0    0 -0.59343524457E+01 -0.94341267803E+01 -0.26127217800E+01  0.11447515108E+02  0.00000000000E+00 0. -1.
</event>
<event>
 8    1  0.2521748E-006  0.9118800E+02  0.7816164E-02  0.1184000E+00
        -11   -1    0    0    0    0  0.00000000000E+00  0.00000000000E+00  0.45593999997E+02  0.45594000000E+02  0.51100000000E-03 0. -1.
         11   -1    0    0    0    0 -0.00000000000E+00 -0.00000000000E+00 -0.45593999997E+02  0.45594000000E+02  0.51100000000E-03 0.  1.
         23    2    1    2    0    0  0.00000000000E+00  0.00000000000E+00  0.00000000000E+00  0.91188000000E+02  0.91188000000E+02 0.  0.
    9900012    2    3    3    0    0 -0.14949472571E+02  0.32580526528E+02 -0.84144670643E+01  0.54367072595E+02  0.39999973595E+02 0.  0.
         12    1    3    3    0    0  0.14949472571E+02 -0.32580526528E+02  0.84144670643E+01  0.36820927405E+02  0.00000000000E+00 0. -1.
         11    1    4    4    0    0  0.11577803294E+01  0.21714885972E+02 -0.88136538197E+00  0.21763582730E+02  0.51100000000E-03 0. -1.
        -11    1    4    4    0    0 -0.14520306457E+01  0.10367119443E+02 -0.13231216646E+02  0.16871593070E+02  0.51100000000E-03 0.  1.
         12    1    4    4    0    0 -0.14655222254E+02  0.49852111318E+00  0.56981149634E+01  0.15731896795E+02  0.00000000000E+00 0. -1.
</event>
<event>
 8    1  0.2521748E-006  0.9118800E+02  0.7816164E-02  0.1184000E+00
        -11   -1    0    0    0    0  0.00000000000E+00  0.00000000000E+00  0.45593999997E+02  0.45594000000E+02  0.51100000000E-03 0.  1.
         11   -1    0    0    0    0 -0.00000000000E+00 -0.00000000000E+00 -0.45593999997E+02  0.45594000000E+02  0.51100000000E-03 0. -1.
         23    2    1    2    0    0  0.00000000000E+00  0.00000000000E+00 -0.44408920985E-15  0.91188000000E+02  0.91188000000E+02 0.  0.
    9900012    2    3    3    0    0 -0.13665909949E+02 -0.34085382157E+02  0.26850680243E+01  0.54367082551E+02  0.39999996291E+02 0.  0.
        -12    1    3    3    0    0  0.13665909949E+02  0.34085382157E+02 -0.26850680243E+01  0.36820917449E+02  0.00000000000E+00 0.  1.
         11    1    4    4    0    0 -0.15781818103E+02 -0.19831109567E+01  0.64163415699E+01  0.17151325054E+02  0.51100000000E-03 0. -1.
        -11    1    4    4    0    0 -0.55145602902E+01 -0.51255948557E+01 -0.51875213216E+01  0.91428920775E+01  0.51100000000E-03 0.  1.
         12    1    4    4    0    0  0.76304684439E+01 -0.26976676344E+02  0.14562477760E+01  0.28072865419E+02  0.00000000000E+00 0. -1.
</event>
<event>
 8    1  0.2521748E-006  0.9118800E+02  0.7816164E-02  0.1184000E+00
        -11   -1    0    0    0    0  0.00000000000E+00  0.00000000000E+00  0.45593999997E+02  0.45594000000E+02  0.51100000000E-03 0.  1.
         11   -1    0    0    0    0 -0.00000000000E+00 -0.00000000000E+00 -0.45593999997E+02  0.45594000000E+02  0.51100000000E-03 0. -1.
         23    2    1    2    0    0  0.00000000000E+00 -0.71054273576E-14  0.33306690739E-15  0.91188000000E+02  0.91188000000E+02 0.  0.
    9900012    2    3    3    0    0  0.10357298262E+02  0.35328130039E+02  0.65476342303E+00  0.54367094056E+02  0.40000022520E+02 0.  0.
        -12    1    3    3    0    0 -0.10357298262E+02 -0.35328130039E+02 -0.65476342303E+00  0.36820905944E+02  0.00000000000E+00 0.  1.
         11    1    4    4    0    0  0.15740039699E+01 -0.34719905673E+00 -0.42487067161E+01  0.45441770106E+01  0.51100000000E-03 0. -1.
        -11    1    4    4    0    0  0.14534724265E+02  0.86454942701E+01  0.12653956720E+02  0.21121680841E+02  0.51100000000E-03 0.  1.
         12    1    4    4    0    0 -0.57514299722E+01  0.27029834826E+02 -0.77504865803E+01  0.28701236205E+02  0.00000000000E+00 0. -1.
</event>
<event>
 8    1  0.2521748E-006  0.9118800E+02  0.7816164E-02  0.1184000E+00
        -11   -1    0    0    0    0  0.00000000000E+00  0.00000000000E+00  0.45593999997E+02  0.45594000000E+02  0.51100000000E-03 0. -1.
         11   -1    0    0    0    0 -0.00000000000E+00 -0.00000000000E+00 -0.45593999997E+02  0.45594000000E+02  0.51100000000E-03 0.  1.
         23    2    1    2    0    0  0.17763568394E-14  0.00000000000E+00  0.35527136788E-14  0.91188000000E+02  0.91188000000E+02 0.  0.
    9900012    2    3    3    0    0  0.97139554023E+01  0.22691304642E+02 -0.27322603681E+02  0.54367069705E+02  0.39999967006E+02 0.  0.
         12    1    3    3    0    0 -0.97139554023E+01 -0.22691304642E+02  0.27322603681E+02  0.36820930295E+02  0.00000000000E+00 0. -1.
         11    1    4    4    0    0  0.46038495987E+01  0.94635970331E+01  0.81098502605E+00  0.10555226047E+02  0.51100000000E-03 0. -1.
        -11    1    4    4    0    0 -0.63155661041E+01  0.76316144065E+01 -0.29402360213E+02  0.31026226003E+02  0.51100000000E-03 0.  1.
         12    1    4    4    0    0  0.11425671908E+02  0.55960932020E+01  0.12687715055E+01  0.12785617654E+02  0.00000000000E+00 0. -1.
</event>
<event>
 8    1  0.2521748E-006  0.9118800E+02  0.7816164E-02  0.1184000E+00
        -11   -1    0    0    0    0  0.00000000000E+00  0.00000000000E+00  0.45593999997E+02  0.45594000000E+02  0.51100000000E-03 0.  1.
         11   -1    0    0    0    0 -0.00000000000E+00 -0.00000000000E+00 -0.45593999997E+02  0.45594000000E+02  0.51100000000E-03 0. -1.
         23    2    1    2    0    0  0.00000000000E+00  0.00000000000E+00  0.00000000000E+00  0.91188000000E+02  0.91188000000E+02 0.  0.
    9900012    2    3    3    0    0 -0.19297755020E+02 -0.29982055822E+02 -0.91898784296E+01  0.54367070005E+02  0.39999967691E+02 0.  0.
        -12    1    3    3    0    0  0.19297755020E+02  0.29982055822E+02  0.91898784296E+01  0.36820929995E+02  0.00000000000E+00 0.  1.
         11    1    4    4    0    0 -0.20323812775E+02 -0.26038844185E+02 -0.28308701320E+01  0.33152565484E+02  0.51100000000E-03 0. -1.
        -11    1    4    4    0    0  0.10372941552E+02 -0.27721712694E+01 -0.43379134281E+01  0.11580170256E+02  0.51100000000E-03 0.  1.
         12    1    4    4    0    0 -0.93468837972E+01 -0.11710403674E+01 -0.20210948695E+01  0.96343342651E+01  0.00000000000E+00 0. -1.
</event>
<event>
 8    1  0.2521748E-006  0.9118800E+02  0.7816164E-02  0.1184000E+00
        -11   -1    0    0    0    0  0.00000000000E+00  0.00000000000E+00  0.45593999997E+02  0.45594000000E+02  0.51100000000E-03 0. -1.
         11   -1    0    0    0    0 -0.00000000000E+00 -0.00000000000E+00 -0.45593999997E+02  0.45594000000E+02  0.51100000000E-03 0.  1.
         23    2    1    2    0    0  0.17763568394E-14  0.00000000000E+00  0.00000000000E+00  0.91188000000E+02  0.91188000000E+02 0.  0.
    9900012    2    3    3    0    0  0.90651494977E+01 -0.24855921754E+01  0.35600921916E+02  0.54367071914E+02  0.39999972042E+02 0.  0.
        -12    1    3    3    0    0 -0.90651494977E+01  0.24855921754E+01 -0.35600921916E+02  0.36820928086E+02  0.00000000000E+00 0.  1.
         11    1    4    4    0    0 -0.28171149310E+01 -0.11629288134E+02  0.34355890504E+02  0.36379990264E+02  0.51100000000E-03 0. -1.
        -11    1    4    4    0    0  0.17364392888E+01  0.80596676453E+00 -0.35283460107E+01  0.40142284018E+01  0.51100000000E-03 0.  1.
         12    1    4    4    0    0  0.10145825140E+02  0.83377291938E+01  0.47733774225E+01  0.13972853248E+02  0.00000000000E+00 0. -1.
</event>
<event>
 8    1  0.2521748E-006  0.9118800E+02  0.7816164E-02  0.1184000E+00
        -11   -1    0    0    0    0  0.00000000000E+00  0.00000000000E+00  0.45593999997E+02  0.45594000000E+02  0.51100000000E-03 0.  1.
         11   -1    0    0    0    0 -0.00000000000E+00 -0.00000000000E+00 -0.45593999997E+02  0.45594000000E+02  0.51100000000E-03 0. -1.
         23    2    1    2    0    0 -0.35527136788E-14  0.88817841970E-15  0.35527136788E-14  0.91188000000E+02  0.91188000000E+02 0.  0.
    9900012    2    3    3    0    0  0.25424137412E+02 -0.66593611575E+01 -0.25788477713E+02  0.54367089678E+02  0.40000012539E+02 0.  0.
        -12    1    3    3    0    0 -0.25424137412E+02  0.66593611575E+01  0.25788477713E+02  0.36820910322E+02  0.00000000000E+00 0.  1.
         11    1    4    4    0    0  0.24266742257E+02 -0.20465346402E+02 -0.17967967310E+02  0.36476746464E+02  0.51100000000E-03 0. -1.
        -11    1    4    4    0    0  0.56168759079E+00  0.16114575699E+01  0.16994344448E+01  0.24083949308E+01  0.51100000000E-03 0.  1.
         12    1    4    4    0    0  0.59570756415E+00  0.12194527675E+02 -0.95199448485E+01  0.15481948283E+02  0.00000000000E+00 0. -1.
</event>
<event>
 8    1  0.2521748E-006  0.9118800E+02  0.7816164E-02  0.1184000E+00
        -11   -1    0    0    0    0  0.00000000000E+00  0.00000000000E+00  0.45593999997E+02  0.45594000000E+02  0.51100000000E-03 0. -1.
         11   -1    0    0    0    0 -0.00000000000E+00 -0.00000000000E+00 -0.45593999997E+02  0.45594000000E+02  0.51100000000E-03 0.  1.
         23    2    1    2    0    0 -0.17763568394E-14 -0.88817841970E-15  0.00000000000E+00  0.91188000000E+02  0.91188000000E+02 0.  0.
    9900012    2    3    3    0    0 -0.80147622806E+01 -0.61924711641E+01 -0.35400497793E+02  0.54367104335E+02  0.40000045953E+02 0.  0.
         12    1    3    3    0    0  0.80147622806E+01  0.61924711641E+01  0.35400497793E+02  0.36820895665E+02  0.00000000000E+00 0. -1.
         11    1    4    4    0    0  0.53766009209E+01  0.94388790336E+01 -0.10694313793E+02  0.15243642040E+02  0.51100000000E-03 0. -1.
        -11    1    4    4    0    0  0.60578910048E+01 -0.63160522392E+01 -0.65105003170E+01  0.10907665834E+02  0.51100000000E-03 0.  1.
         12    1    4    4    0    0 -0.19449254206E+02 -0.93152979585E+01 -0.18195683683E+02  0.28215796461E+02  0.00000000000E+00 0. -1.
</event>
<event>
 8    1  0.2521748E-006  0.9118800E+02  0.7816164E-02  0.1184000E+00
        -11   -1    0    0    0    0  0.00000000000E+00  0.00000000000E+00  0.45593999997E+02  0.45594000000E+02  0.51100000000E-03 0.  1.
         11   -1    0    0    0    0 -0.00000000000E+00 -0.00000000000E+00 -0.45593999997E+02  0.45594000000E+02  0.51100000000E-03 0. -1.
         23    2    1    2    0    0  0.00000000000E+00 -0.26645352591E-14 -0.35527136788E-14  0.91188000000E+02  0.91188000000E+02 0.  0.
    9900012    2    3    3    0    0  0.24599147750E+02  0.53918722841E+01 -0.26862377250E+02  0.54367113695E+02  0.40000067291E+02 0.  0.
        -12    1    3    3    0    0 -0.24599147750E+02 -0.53918722841E+01  0.26862377250E+02  0.36820886305E+02  0.00000000000E+00 0.  1.
         11    1    4    4    0    0  0.27811361213E+02 -0.56378438774E+01 -0.68112456166E+01  0.29183045818E+02  0.51100000000E-03 0. -1.
        -11    1    4    4    0    0 -0.65701070957E+01  0.73768712595E+01 -0.15880814910E+02  0.18702535104E+02  0.51100000000E-03 0.  1.
         12    1    4    4    0    0  0.33578936325E+01  0.36528449020E+01 -0.41703167228E+01  0.64815327735E+01  0.00000000000E+00 0. -1.
</event>
<event>
 8    1  0.2521748E-006  0.9118800E+02  0.7816164E-02  0.1184000E+00
        -11   -1    0    0    0    0  0.00000000000E+00  0.00000000000E+00  0.45593999997E+02  0.45594000000E+02  0.51100000000E-03 0. -1.
         11   -1    0    0    0    0 -0.00000000000E+00 -0.00000000000E+00 -0.45593999997E+02  0.45594000000E+02  0.51100000000E-03 0.  1.
         23    2    1    2    0    0  0.00000000000E+00  0.00000000000E+00  0.35527136788E-14  0.91188000000E+02  0.91188000000E+02 0.  0.
    9900012    2    3    3    0    0  0.28040894050E+02  0.15719434426E+02 -0.17955150002E+02  0.54367085164E+02  0.40000002247E+02 0.  0.
         12    1    3    3    0    0 -0.28040894050E+02 -0.15719434426E+02  0.17955150002E+02  0.36820914836E+02  0.00000000000E+00 0. -1.
         11    1    4    4    0    0  0.11091473143E+02  0.17674543576E+02 -0.19384375367E+01  0.20956330963E+02  0.51100000000E-03 0. -1.
        -11    1    4    4    0    0  0.59487624331E+01  0.10736939447E+02 -0.46302384322E+01  0.13119022501E+02  0.51100000000E-03 0.  1.
        -12    1    4    4    0    0  0.11000658475E+02 -0.12692048597E+02 -0.11386474033E+02  0.20291731700E+02  0.00000000000E+00 0.  1.
</event>
<event>
 8    1  0.2521748E-006  0.9118800E+02  0.7816164E-02  0.1184000E+00
        -11   -1    0    0    0    0  0.00000000000E+00  0.00000000000E+00  0.45593999997E+02  0.45594000000E+02  0.51100000000E-03 0. -1.
         11   -1    0    0    0    0 -0.00000000000E+00 -0.00000000000E+00 -0.45593999997E+02  0.45594000000E+02  0.51100000000E-03 0.  1.
         23    2    1    2    0    0  0.00000000000E+00  0.35527136788E-14  0.00000000000E+00  0.91188000000E+02  0.91188000000E+02 0.  0.
    9900012    2    3    3    0    0  0.26533287873E+02 -0.22975170282E+02 -0.11131300984E+02  0.54367086426E+02  0.40000005126E+02 0.  0.
         12    1    3    3    0    0 -0.26533287873E+02  0.22975170282E+02  0.11131300984E+02  0.36820913574E+02  0.00000000000E+00 0. -1.
         11    1    4    4    0    0  0.25813611720E+02 -0.21934861356E+02  0.13654189247E+01  0.33901992004E+02  0.51100000000E-03 0. -1.
        -11    1    4    4    0    0  0.73917257887E+01  0.22370923591E+00 -0.15077925496E+01  0.75472574219E+01  0.51100000000E-03 0.  1.
         12    1    4    4    0    0 -0.66720496361E+01 -0.12640181619E+01 -0.10988927359E+02  0.12917837000E+02  0.00000000000E+00 0. -1.
</event>
<event>
 8    1  0.2521748E-006  0.9118800E+02  0.7816164E-02  0.1184000E+00
        -11   -1    0    0    0    0  0.00000000000E+00  0.00000000000E+00  0.45593999997E+02  0.45594000000E+02  0.51100000000E-03 0.  1.
         11   -1    0    0    0    0 -0.00000000000E+00 -0.00000000000E+00 -0.45593999997E+02  0.45594000000E+02  0.51100000000E-03 0. -1.
         23    2    1    2    0    0  0.00000000000E+00 -0.17763568394E-14  0.00000000000E+00  0.91188000000E+02  0.91188000000E+02 0.  0.
    9900012    2    3    3    0    0 -0.76991676291E+01  0.11883826932E+02  0.33989368547E+02  0.54367086120E+02  0.40000004428E+02 0.  0.
         12    1    3    3    0    0  0.76991676291E+01 -0.11883826932E+02 -0.33989368547E+02  0.36820913880E+02  0.00000000000E+00 0. -1.
         11    1    4    4    0    0 -0.14735144552E+02  0.73383894737E+01  0.33079355189E+01  0.16790440217E+02  0.51100000000E-03 0. -1.
        -11    1    4    4    0    0  0.69840530128E+01  0.11899740360E+01  0.38525399670E+00  0.70951712872E+01  0.51100000000E-03 0.  1.
        -12    1    4    4    0    0  0.51923910064E-01  0.33554634228E+01  0.30296179031E+02  0.30481474616E+02  0.00000000000E+00 0.  1.
</event>
<event>
 8    1  0.2521748E-006  0.9118800E+02  0.7816164E-02  0.1184000E+00
        -11   -1    0    0    0    0  0.00000000000E+00  0.00000000000E+00  0.45593999997E+02  0.45594000000E+02  0.51100000000E-03 0.  1.
         11   -1    0    0    0    0 -0.00000000000E+00 -0.00000000000E+00 -0.45593999997E+02  0.45594000000E+02  0.51100000000E-03 0. -1.
         23    2    1    2    0    0  0.17763568394E-14  0.55511151231E-15  0.00000000000E+00  0.91188000000E+02  0.91188000000E+02 0.  0.
    9900012    2    3    3    0    0  0.13417190510E+02  0.67652571329E+00 -0.34282664044E+02  0.54367085533E+02  0.40000003089E+02 0.  0.
        -12    1    3    3    0    0 -0.13417190510E+02 -0.67652571329E+00  0.34282664044E+02  0.36820914467E+02  0.00000000000E+00 0.  1.
         11    1    4    4    0    0  0.21626651994E+02  0.13454401437E+02 -0.16957550545E+02  0.30598880948E+02  0.51100000000E-03 0. -1.
        -11    1    4    4    0    0 -0.16880720481E+01  0.23317450266E+00 -0.21265290747E+01  0.27250841739E+01  0.51100000000E-03 0.  1.
         12    1    4    4    0    0 -0.65213894358E+01 -0.13011050226E+02 -0.15198584424E+02  0.21043120411E+02  0.00000000000E+00 0. -1.
</event>
<event>
 8    1  0.2521748E-006  0.9118800E+02  0.7816164E-02  0.1184000E+00
        -11   -1    0    0    0    0  0.00000000000E+00  0.00000000000E+00  0.45593999997E+02  0.45594000000E+02  0.51100000000E-03 0.  1.
         11   -1    0    0    0    0 -0.00000000000E+00 -0.00000000000E+00 -0.45593999997E+02  0.45594000000E+02  0.51100000000E-03 0. -1.
         23    2    1    2    0    0  0.00000000000E+00  0.35527136788E-14 -0.35527136788E-14  0.91188000000E+02  0.91188000000E+02 0.  0.
    9900012    2    3    3    0    0 -0.12974209865E+02 -0.19754655187E+02  0.28234760195E+02  0.54367106387E+02  0.40000050630E+02 0.  0.
         12    1    3    3    0    0  0.12974209865E+02  0.19754655187E+02 -0.28234760195E+02  0.36820893613E+02  0.00000000000E+00 0. -1.
         11    1    4    4    0    0 -0.22754224914E+01 -0.10938734258E+02  0.28890223655E+01  0.11540359837E+02  0.51100000000E-03 0. -1.
        -11    1    4    4    0    0  0.67194627219E+01 -0.23714373013E+01  0.23034271118E+02  0.24111253396E+02  0.51100000000E-03 0.  1.
         12    1    4    4    0    0 -0.17418250096E+02 -0.64444836282E+01  0.23114667123E+01  0.18715493154E+02  0.00000000000E+00 0. -1.
</event>
<event>
 8    1  0.2521748E-006  0.9118800E+02  0.7816164E-02  0.1184000E+00
        -11   -1    0    0    0    0  0.00000000000E+00  0.00000000000E+00  0.45593999997E+02  0.45594000000E+02  0.51100000000E-03 0.  1.
         11   -1    0    0    0    0 -0.00000000000E+00 -0.00000000000E+00 -0.45593999997E+02  0.45594000000E+02  0.51100000000E-03 0. -1.
         23    2    1    2    0    0 -0.35527136788E-14  0.00000000000E+00  0.00000000000E+00  0.91188000000E+02  0.91188000000E+02 0.  0.
    9900012    2    3    3    0    0  0.31605952174E+02 -0.73508141722E+01  0.17401463527E+02  0.54367060105E+02  0.39999945122E+02 0.  0.
         12    1    3    3    0    0 -0.31605952174E+02  0.73508141722E+01 -0.17401463527E+02  0.36820939895E+02  0.00000000000E+00 0. -1.
         11    1    4    4    0    0  0.46798228621E+01 -0.70045165667E+01  0.58985919594E+01  0.10283840806E+02  0.51100000000E-03 0. -1.
        -11    1    4    4    0    0  0.16940142825E+02 -0.99838869726E+01 -0.70719920792E+01  0.20896399456E+02  0.51100000000E-03 0.  1.
        -12    1    4    4    0    0  0.99859864875E+01  0.96375893671E+01  0.18574863647E+02  0.23186819843E+02  0.00000000000E+00 0.  1.
</event>
<event>
 8    1  0.2521748E-006  0.9118800E+02  0.7816164E-02  0.1184000E+00
        -11   -1    0    0    0    0  0.00000000000E+00  0.00000000000E+00  0.45593999997E+02  0.45594000000E+02  0.51100000000E-03 0. -1.
         11   -1    0    0    0    0 -0.00000000000E+00 -0.00000000000E+00 -0.45593999997E+02  0.45594000000E+02  0.51100000000E-03 0.  1.
         23    2    1    2    0    0  0.00000000000E+00 -0.35527136788E-14  0.00000000000E+00  0.91188000000E+02  0.91188000000E+02 0.  0.
    9900012    2    3    3    0    0 -0.17330401647E+02  0.27216379328E+02  0.17739962637E+02  0.54367076610E+02  0.39999982748E+02 0.  0.
        -12    1    3    3    0    0  0.17330401647E+02 -0.27216379328E+02 -0.17739962637E+02  0.36820923390E+02  0.00000000000E+00 0.  1.
         11    1    4    4    0    0 -0.55551600710E+01  0.11106129301E+02  0.17408867785E+02  0.21383979735E+02  0.51100000000E-03 0. -1.
        -11    1    4    4    0    0  0.43935341724E+01  0.87153494396E+01  0.89338959670E+01  0.13231589315E+02  0.51100000000E-03 0.  1.
         12    1    4    4    0    0 -0.16168775748E+02  0.73949005874E+01 -0.86028011156E+01  0.19751507561E+02  0.00000000000E+00 0. -1.
</event>
<event>
 8    1  0.2521748E-006  0.9118800E+02  0.7816164E-02  0.1184000E+00
        -11   -1    0    0    0    0  0.00000000000E+00  0.00000000000E+00  0.45593999997E+02  0.45594000000E+02  0.51100000000E-03 0.  1.
         11   -1    0    0    0    0 -0.00000000000E+00 -0.00000000000E+00 -0.45593999997E+02  0.45594000000E+02  0.51100000000E-03 0. -1.
         23    2    1    2    0    0 -0.35527136788E-14 -0.71054273576E-14  0.00000000000E+00  0.91188000000E+02  0.91188000000E+02 0.  0.
    9900012    2    3    3    0    0  0.21153916954E+02  0.29759532215E+02  0.47604697245E+01  0.54367081596E+02  0.39999994114E+02 0.  0.
         12    1    3    3    0    0 -0.21153916954E+02 -0.29759532215E+02 -0.47604697245E+01  0.36820918404E+02  0.00000000000E+00 0. -1.
         11    1    4    4    0    0  0.51735574167E+01  0.10140247793E+01 -0.53810568668E+01  0.75332407277E+01  0.51100000000E-03 0. -1.
        -11    1    4    4    0    0 -0.34794228327E+01  0.13295707655E+02 -0.81515810564E+01  0.15979064405E+02  0.51100000000E-03 0.  1.
         12    1    4    4    0    0  0.19459782370E+02  0.15449799781E+02  0.18293107648E+02  0.30854776463E+02  0.00000000000E+00 0. -1.
</event>
<event>
 8    1  0.2521748E-006  0.9118800E+02  0.7816164E-02  0.1184000E+00
        -11   -1    0    0    0    0  0.00000000000E+00  0.00000000000E+00  0.45593999997E+02  0.45594000000E+02  0.51100000000E-03 0. -1.
         11   -1    0    0    0    0 -0.00000000000E+00 -0.00000000000E+00 -0.45593999997E+02  0.45594000000E+02  0.51100000000E-03 0.  1.
         23    2    1    2    0    0  0.00000000000E+00 -0.17763568394E-14  0.00000000000E+00  0.91188000000E+02  0.91188000000E+02 0.  0.
    9900012    2    3    3    0    0  0.26153514721E+02  0.18164231719E+01  0.25854860108E+02  0.54367088596E+02  0.40000010072E+02 0.  0.
        -12    1    3    3    0    0 -0.26153514721E+02 -0.18164231719E+01 -0.25854860108E+02  0.36820911404E+02  0.00000000000E+00 0.  1.
         11    1    4    4    0    0  0.28765874580E+01  0.15479557483E+02  0.13110760530E+02  0.20488618724E+02  0.51100000000E-03 0. -1.
        -11    1    4    4    0    0  0.11075987945E+02  0.21376221249E+01  0.30463754793E+01  0.11684491479E+02  0.51100000000E-03 0.  1.
         12    1    4    4    0    0  0.12200939318E+02 -0.15800756436E+02  0.96977240988E+01  0.22193978393E+02  0.00000000000E+00 0. -1.
</event>
<event>
 8    1  0.2521748E-006  0.9118800E+02  0.7816164E-02  0.1184000E+00
        -11   -1    0    0    0    0  0.00000000000E+00  0.00000000000E+00  0.45593999997E+02  0.45594000000E+02  0.51100000000E-03 0. -1.
         11   -1    0    0    0    0 -0.00000000000E+00 -0.00000000000E+00 -0.45593999997E+02  0.45594000000E+02  0.51100000000E-03 0.  1.
         23    2    1    2    0    0  0.00000000000E+00  0.88817841970E-15  0.00000000000E+00  0.91188000000E+02  0.91188000000E+02 0.  0.
    9900012    2    3    3    0    0  0.35436626168E+02  0.73612324041E+01  0.67703310353E+01  0.54367087478E+02  0.40000007523E+02 0.  0.
        -12    1    3    3    0    0 -0.35436626168E+02 -0.73612324041E+01 -0.67703310353E+01  0.36820912522E+02  0.00000000000E+00 0.  1.
         11    1    4    4    0    0 -0.21399333356E+01 -0.63215766178E+00  0.83334131087E+01  0.86269758486E+01  0.51100000000E-03 0. -1.
        -11    1    4    4    0    0  0.30799203763E+02  0.11361937360E+02 -0.10085334936E+02  0.34342372575E+02  0.51100000000E-03 0.  1.
         12    1    4    4    0    0  0.67773557402E+01 -0.33685472945E+01  0.85222528623E+01  0.11397739054E+02  0.00000000000E+00 0. -1.
</event>
<event>
 8    1  0.2521748E-006  0.9118800E+02  0.7816164E-02  0.1184000E+00
        -11   -1    0    0    0    0  0.00000000000E+00  0.00000000000E+00  0.45593999997E+02  0.45594000000E+02  0.51100000000E-03 0.  1.
         11   -1    0    0    0    0 -0.00000000000E+00 -0.00000000000E+00 -0.45593999997E+02  0.45594000000E+02  0.51100000000E-03 0. -1.
         23    2    1    2    0    0 -0.35527136788E-14 -0.35527136788E-14 -0.17763568394E-14  0.91188000000E+02  0.91188000000E+02 0.  0.
    9900012    2    3    3    0    0 -0.25267918904E+02 -0.26279727714E+02 -0.51660624912E+01  0.54367081813E+02  0.39999994609E+02 0.  0.
         12    1    3    3    0    0  0.25267918904E+02  0.26279727714E+02  0.51660624912E+01  0.36820918187E+02  0.00000000000E+00 0. -1.
         11    1    4    4    0    0 -0.16874047043E+02 -0.10373633026E+02  0.47664465098E+01  0.20373137666E+02  0.51100000000E-03 0. -1.
        -11    1    4    4    0    0 -0.11872466133E+02 -0.32459167722E+01  0.57129495065E+01  0.13569422246E+02  0.51100000000E-03 0.  1.
         12    1    4    4    0    0  0.34785942718E+01 -0.12660177916E+02 -0.15645458508E+02  0.20424521901E+02  0.00000000000E+00 0. -1.
</event>
<event>
 8    1  0.2521748E-006  0.9118800E+02  0.7816164E-02  0.1184000E+00
        -11   -1    0    0    0    0  0.00000000000E+00  0.00000000000E+00  0.45593999997E+02  0.45594000000E+02  0.51100000000E-03 0. -1.
         11   -1    0    0    0    0 -0.00000000000E+00 -0.00000000000E+00 -0.45593999997E+02  0.45594000000E+02  0.51100000000E-03 0.  1.
         23    2    1    2    0    0  0.00000000000E+00  0.00000000000E+00  0.00000000000E+00  0.91188000000E+02  0.91188000000E+02 0.  0.
    9900012    2    3    3    0    0 -0.32143607679E+02 -0.16977338094E+02 -0.58602059437E+01  0.54367034001E+02  0.39999885612E+02 0.  0.
         12    1    3    3    0    0  0.32143607679E+02  0.16977338094E+02  0.58602059437E+01  0.36820965999E+02  0.00000000000E+00 0. -1.
         11    1    4    4    0    0 -0.40869400999E+01  0.26707649957E+00 -0.67243638691E+01  0.78734667677E+01  0.51100000000E-03 0. -1.
        -11    1    4    4    0    0 -0.75131438392E+01 -0.27718251998E+01 -0.14838398781E+02  0.16861447860E+02  0.51100000000E-03 0.  1.
         12    1    4    4    0    0 -0.20543523740E+02 -0.14472589393E+02  0.15702556707E+02  0.29632119373E+02  0.00000000000E+00 0. -1.
</event>
<event>
 8    1  0.2521748E-006  0.9118800E+02  0.7816164E-02  0.1184000E+00
        -11   -1    0    0    0    0  0.00000000000E+00  0.00000000000E+00  0.45593999997E+02  0.45594000000E+02  0.51100000000E-03 0. -1.
         11   -1    0    0    0    0 -0.00000000000E+00 -0.00000000000E+00 -0.45593999997E+02  0.45594000000E+02  0.51100000000E-03 0.  1.
         23    2    1    2    0    0  0.35527136788E-14  0.35527136788E-14  0.13322676296E-14  0.91188000000E+02  0.91188000000E+02 0.  0.
    9900012    2    3    3    0    0  0.18767871724E+02  0.31447757160E+02  0.38191860392E+01  0.54367073593E+02  0.39999975870E+02 0.  0.
         12    1    3    3    0    0 -0.18767871724E+02 -0.31447757160E+02 -0.38191860392E+01  0.36820926407E+02  0.00000000000E+00 0. -1.
         11    1    4    4    0    0  0.10262346821E+02  0.13703785949E+02 -0.75588378641E+01  0.18714848162E+02  0.51100000000E-03 0. -1.
        -11    1    4    4    0    0  0.18146618016E+02  0.10510298131E+02  0.35203114024E+01  0.21264023723E+02  0.51100000000E-03 0.  1.
         12    1    4    4    0    0 -0.96410931134E+01  0.72336730795E+01  0.78577125009E+01  0.14388201708E+02  0.00000000000E+00 0. -1.
</event>
<event>
 8    1  0.2521748E-006  0.9118800E+02  0.7816164E-02  0.1184000E+00
        -11   -1    0    0    0    0  0.00000000000E+00  0.00000000000E+00  0.45593999997E+02  0.45594000000E+02  0.51100000000E-03 0. -1.
         11   -1    0    0    0    0 -0.00000000000E+00 -0.00000000000E+00 -0.45593999997E+02  0.45594000000E+02  0.51100000000E-03 0.  1.
         23    2    1    2    0    0  0.55511151231E-16  0.00000000000E+00  0.00000000000E+00  0.91188000000E+02  0.91188000000E+02 0.  0.
    9900012    2    3    3    0    0 -0.35611454546E+00 -0.33609377078E+02  0.15035367964E+02  0.54367091063E+02  0.40000015696E+02 0.  0.
        -12    1    3    3    0    0  0.35611454546E+00  0.33609377078E+02 -0.15035367964E+02  0.36820908937E+02  0.00000000000E+00 0.  1.
         11    1    4    4    0    0  0.61614125989E-01 -0.51709709377E+01  0.19935317842E+02  0.20595136185E+02  0.51100000000E-03 0. -1.
        -11    1    4    4    0    0  0.43599484771E+00 -0.26230148033E+02  0.21629696170E+01  0.26322788515E+02  0.51100000000E-03 0.  1.
         12    1    4    4    0    0 -0.85372351916E+00 -0.22082581068E+01 -0.70629194955E+01  0.74491663636E+01  0.00000000000E+00 0. -1.
</event>
<event>
 8    1  0.2521748E-006  0.9118800E+02  0.7816164E-02  0.1184000E+00
        -11   -1    0    0    0    0  0.00000000000E+00  0.00000000000E+00  0.45593999997E+02  0.45594000000E+02  0.51100000000E-03 0.  1.
         11   -1    0    0    0    0 -0.00000000000E+00 -0.00000000000E+00 -0.45593999997E+02  0.45594000000E+02  0.51100000000E-03 0. -1.
         23    2    1    2    0    0  0.00000000000E+00  0.00000000000E+00 -0.35527136788E-14  0.91188000000E+02  0.91188000000E+02 0.  0.
    9900012    2    3    3    0    0 -0.20627577321E+02 -0.16297782695E+02  0.25781091983E+02  0.54367090577E+02  0.40000014589E+02 0.  0.
         12    1    3    3    0    0  0.20627577321E+02  0.16297782695E+02 -0.25781091983E+02  0.36820909423E+02  0.00000000000E+00 0. -1.
         11    1    4    4    0    0 -0.27007778686E+01 -0.72077622294E+01 -0.45418701306E+01  0.89372603182E+01  0.51100000000E-03 0. -1.
        -11    1    4    4    0    0 -0.22978296068E+02 -0.12851178008E+02  0.28657549758E+02  0.38915421426E+02  0.51100000000E-03 0.  1.
        -12    1    4    4    0    0  0.50514966164E+01  0.37611575428E+01  0.16654123561E+01  0.65144088330E+01  0.00000000000E+00 0.  1.
</event>
<event>
 8    1  0.2521748E-006  0.9118800E+02  0.7816164E-02  0.1184000E+00
        -11   -1    0    0    0    0  0.00000000000E+00  0.00000000000E+00  0.45593999997E+02  0.45594000000E+02  0.51100000000E-03 0.  1.
         11   -1    0    0    0    0 -0.00000000000E+00 -0.00000000000E+00 -0.45593999997E+02  0.45594000000E+02  0.51100000000E-03 0. -1.
         23    2    1    2    0    0 -0.66613381478E-15  0.00000000000E+00  0.00000000000E+00  0.91188000000E+02  0.91188000000E+02 0.  0.
    9900012    2    3    3    0    0 -0.68055015415E+00  0.36399771566E+02  0.55118348393E+01  0.54366989125E+02  0.39999783308E+02 0.  0.
         12    1    3    3    0    0  0.68055015415E+00 -0.36399771566E+02 -0.55118348393E+01  0.36821010875E+02  0.00000000000E+00 0. -1.
         11    1    4    4    0    0 -0.40260694337E+01 -0.29145110839E+01  0.99534139330E+01  0.11125379055E+02  0.51100000000E-03 0. -1.
        -11    1    4    4    0    0 -0.51456301118E+01  0.26002599738E+02  0.10417951123E+01  0.26527307434E+02  0.51100000000E-03 0.  1.
        -12    1    4    4    0    0  0.84911493914E+01  0.13311682911E+02 -0.54833742060E+01  0.16714302636E+02  0.00000000000E+00 0.  1.
</event>
<event>
 8    1  0.2521748E-006  0.9118800E+02  0.7816164E-02  0.1184000E+00
        -11   -1    0    0    0    0  0.00000000000E+00  0.00000000000E+00  0.45593999997E+02  0.45594000000E+02  0.51100000000E-03 0. -1.
         11   -1    0    0    0    0 -0.00000000000E+00 -0.00000000000E+00 -0.45593999997E+02  0.45594000000E+02  0.51100000000E-03 0.  1.
         23    2    1    2    0    0  0.17763568394E-14  0.35527136788E-14  0.71054273576E-14  0.91188000000E+02  0.91188000000E+02 0.  0.
    9900012    2    3    3    0    0  0.41684544176E+01  0.15312031006E+02  0.33225674841E+02  0.54367085095E+02  0.40000002092E+02 0.  0.
        -12    1    3    3    0    0 -0.41684544176E+01 -0.15312031006E+02 -0.33225674841E+02  0.36820914905E+02  0.00000000000E+00 0.  1.
         11    1    4    4    0    0 -0.39110630799E+01 -0.63582671691E+01  0.14589474027E+02  0.16388310726E+02  0.51100000000E-03 0. -1.
        -11    1    4    4    0    0 -0.95720355188E+00  0.36617391869E+01 -0.54128324955E+01  0.66047958635E+01  0.51100000000E-03 0.  1.
         12    1    4    4    0    0  0.90367210493E+01  0.18008558988E+02  0.24049033310E+02  0.31373978506E+02  0.00000000000E+00 0. -1.
</event>
<event>
 8    1  0.2521748E-006  0.9118800E+02  0.7816164E-02  0.1184000E+00
        -11   -1    0    0    0    0  0.00000000000E+00  0.00000000000E+00  0.45593999997E+02  0.45594000000E+02  0.51100000000E-03 0.  1.
         11   -1    0    0    0    0 -0.00000000000E+00 -0.00000000000E+00 -0.45593999997E+02  0.45594000000E+02  0.51100000000E-03 0. -1.
         23    2    1    2    0    0  0.00000000000E+00  0.00000000000E+00  0.00000000000E+00  0.91188000000E+02  0.91188000000E+02 0.  0.
    9900012    2    3    3    0    0 -0.17995804825E+02 -0.28105243381E+02 -0.15557191435E+02  0.54367083361E+02  0.39999998138E+02 0.  0.
        -12    1    3    3    0    0  0.17995804825E+02  0.28105243381E+02  0.15557191435E+02  0.36820916639E+02  0.00000000000E+00 0.  1.
         11    1    4    4    0    0 -0.24087711990E+01 -0.16525424761E+02 -0.30511476025E+01  0.16976493872E+02  0.51100000000E-03 0. -1.
        -11    1    4    4    0    0 -0.94553693521E+01 -0.20451394923E+02 -0.13964695833E+02  0.26508042060E+02  0.51100000000E-03 0.  1.
        -12    1    4    4    0    0 -0.61316642738E+01  0.88715763039E+01  0.14586520008E+01  0.10882547429E+02  0.00000000000E+00 0.  1.
</event>
<event>
 8    1  0.2521748E-006  0.9118800E+02  0.7816164E-02  0.1184000E+00
        -11   -1    0    0    0    0  0.00000000000E+00  0.00000000000E+00  0.45593999997E+02  0.45594000000E+02  0.51100000000E-03 0.  1.
         11   -1    0    0    0    0 -0.00000000000E+00 -0.00000000000E+00 -0.45593999997E+02  0.45594000000E+02  0.51100000000E-03 0. -1.
         23    2    1    2    0    0 -0.35527136788E-14  0.00000000000E+00  0.10547118734E-14  0.91188000000E+02  0.91188000000E+02 0.  0.
    9900012    2    3    3    0    0  0.16555923408E+02 -0.32886811680E+02 -0.37446359862E+00  0.54367065664E+02  0.39999957794E+02 0.  0.
         12    1    3    3    0    0 -0.16555923408E+02  0.32886811680E+02  0.37446359862E+00  0.36820934336E+02  0.00000000000E+00 0. -1.
         11    1    4    4    0    0  0.98632519407E+01 -0.33243337709E+02 -0.32292607691E+01  0.34825728510E+02  0.51100000000E-03 0. -1.
        -11    1    4    4    0    0  0.13905931784E+01 -0.19866283137E+01  0.10028944659E+02  0.10317953900E+02  0.51100000000E-03 0.  1.
        -12    1    4    4    0    0  0.53020782892E+01  0.23431543428E+01 -0.71741474885E+01  0.92233832538E+01  0.00000000000E+00 0.  1.
</event>
<event>
 8    1  0.2521748E-006  0.9118800E+02  0.7816164E-02  0.1184000E+00
        -11   -1    0    0    0    0  0.00000000000E+00  0.00000000000E+00  0.45593999997E+02  0.45594000000E+02  0.51100000000E-03 0. -1.
         11   -1    0    0    0    0 -0.00000000000E+00 -0.00000000000E+00 -0.45593999997E+02  0.45594000000E+02  0.51100000000E-03 0.  1.
         23    2    1    2    0    0  0.00000000000E+00 -0.13322676296E-14  0.00000000000E+00  0.91188000000E+02  0.91188000000E+02 0.  0.
    9900012    2    3    3    0    0 -0.54157814109E+01 -0.30754410206E+01 -0.36290360835E+02  0.54367091330E+02  0.40000016304E+02 0.  0.
         12    1    3    3    0    0  0.54157814109E+01  0.30754410206E+01  0.36290360835E+02  0.36820908670E+02  0.00000000000E+00 0. -1.
         11    1    4    4    0    0 -0.73676268663E+01  0.30349292169E+00 -0.12082957779E-01  0.73738849905E+01  0.51100000000E-03 0. -1.
        -11    1    4    4    0    0 -0.78156338862E+01  0.10207447474E+02 -0.12615768059E+02  0.18012043775E+02  0.51100000000E-03 0.  1.
         12    1    4    4    0    0  0.97674793416E+01 -0.13586381416E+02 -0.23662509818E+02  0.28981162564E+02  0.00000000000E+00 0. -1.
</event>
<event>
 8    1  0.2521748E-006  0.9118800E+02  0.7816164E-02  0.1184000E+00
        -11   -1    0    0    0    0  0.00000000000E+00  0.00000000000E+00  0.45593999997E+02  0.45594000000E+02  0.51100000000E-03 0.  1.
         11   -1    0    0    0    0 -0.00000000000E+00 -0.00000000000E+00 -0.45593999997E+02  0.45594000000E+02  0.51100000000E-03 0. -1.
         23    2    1    2    0    0 -0.88817841970E-15  0.35527136788E-14  0.00000000000E+00  0.91188000000E+02  0.91188000000E+02 0.  0.
    9900012    2    3    3    0    0 -0.77376468075E+01  0.31536040698E+02 -0.17360532645E+02  0.54367066623E+02  0.39999959980E+02 0.  0.
        -12    1    3    3    0    0  0.77376468075E+01 -0.31536040698E+02  0.17360532645E+02  0.36820933377E+02  0.00000000000E+00 0.  1.
         11    1    4    4    0    0 -0.18668620592E+02  0.27597503101E+02 -0.13163348518E+02  0.35824758431E+02  0.51100000000E-03 0. -1.
        -11    1    4    4    0    0  0.14254733776E+02  0.34352585721E+01 -0.29491560499E+01  0.14956468773E+02  0.51100000000E-03 0.  1.
        -12    1    4    4    0    0 -0.33237599916E+01  0.50327902545E+00 -0.12480280768E+01  0.35858394191E+01  0.00000000000E+00 0.  1.
</event>
<event>
 8    1  0.2521748E-006  0.9118800E+02  0.7816164E-02  0.1184000E+00
        -11   -1    0    0    0    0  0.00000000000E+00  0.00000000000E+00  0.45593999997E+02  0.45594000000E+02  0.51100000000E-03 0.  1.
         11   -1    0    0    0    0 -0.00000000000E+00 -0.00000000000E+00 -0.45593999997E+02  0.45594000000E+02  0.51100000000E-03 0. -1.
         23    2    1    2    0    0  0.00000000000E+00  0.00000000000E+00  0.71054273576E-14  0.91188000000E+02  0.91188000000E+02 0.  0.
    9900012    2    3    3    0    0  0.12538648289E+02 -0.47005442158E+01 -0.34299709926E+02  0.54367042410E+02  0.39999904782E+02 0.  0.
        -12    1    3    3    0    0 -0.12538648289E+02  0.47005442158E+01  0.34299709926E+02  0.36820957590E+02  0.00000000000E+00 0.  1.
         11    1    4    4    0    0 -0.52663066651E+01  0.16151138817E+01 -0.33677183617E+02  0.34124701836E+02  0.51100000000E-03 0. -1.
        -11    1    4    4    0    0  0.96816258469E+01 -0.18613311906E+01 -0.36239194270E+01  0.10503867150E+02  0.51100000000E-03 0.  1.
         12    1    4    4    0    0  0.81233291076E+01 -0.44543269068E+01  0.30013931183E+01  0.97384734242E+01  0.00000000000E+00 0. -1.
</event>
<event>
 8    1  0.2521748E-006  0.9118800E+02  0.7816164E-02  0.1184000E+00
        -11   -1    0    0    0    0  0.00000000000E+00  0.00000000000E+00  0.45593999997E+02  0.45594000000E+02  0.51100000000E-03 0.  1.
         11   -1    0    0    0    0 -0.00000000000E+00 -0.00000000000E+00 -0.45593999997E+02  0.45594000000E+02  0.51100000000E-03 0. -1.
         23    2    1    2    0    0  0.35527136788E-14  0.00000000000E+00  0.00000000000E+00  0.91188000000E+02  0.91188000000E+02 0.  0.
    9900012    2    3    3    0    0 -0.18805219010E+02  0.29470880668E+02 -0.11558876559E+02  0.54367126889E+02  0.40000097370E+02 0.  0.
        -12    1    3    3    0    0  0.18805219010E+02 -0.29470880668E+02  0.11558876559E+02  0.36820873111E+02  0.00000000000E+00 0.  1.
         11    1    4    4    0    0 -0.98576185438E+01  0.17983638145E+02 -0.81772807959E+01  0.22078310754E+02  0.51100000000E-03 0. -1.
        -11    1    4    4    0    0 -0.88432937295E+01 -0.84141201292E+01 -0.15001911029E+01  0.12298448485E+02  0.51100000000E-03 0.  1.
        -12    1    4    4    0    0 -0.10430673645E+00  0.19901362651E+02 -0.18814046599E+01  0.19990367650E+02  0.00000000000E+00 0.  1.
</event>
<event>
 8    1  0.2521748E-006  0.9118800E+02  0.7816164E-02  0.1184000E+00
        -11   -1    0    0    0    0  0.00000000000E+00  0.00000000000E+00  0.45593999997E+02  0.45594000000E+02  0.51100000000E-03 0. -1.
         11   -1    0    0    0    0 -0.00000000000E+00 -0.00000000000E+00 -0.45593999997E+02  0.45594000000E+02  0.51100000000E-03 0.  1.
         23    2    1    2    0    0  0.35527136788E-14  0.00000000000E+00 -0.17763568394E-14  0.91188000000E+02  0.91188000000E+02 0.  0.
    9900012    2    3    3    0    0  0.24777737917E+02  0.23733962205E+02  0.13362016046E+02  0.54367072105E+02  0.39999972478E+02 0.  0.
        -12    1    3    3    0    0 -0.24777737917E+02 -0.23733962205E+02 -0.13362016046E+02  0.36820927895E+02  0.00000000000E+00 0.  1.
         11    1    4    4    0    0 -0.60559530150E+01  0.49617200326E+01 -0.86949474091E+00  0.78771348832E+01  0.51100000000E-03 0. -1.
        -11    1    4    4    0    0  0.20145300514E+02  0.28947647451E+01  0.17778863221E+02  0.27024077660E+02  0.51100000000E-03 0.  1.
         12    1    4    4    0    0  0.10688390419E+02  0.15877477427E+02 -0.35473524341E+01  0.19465859562E+02  0.00000000000E+00 0. -1.
</event>
<event>
 8    1  0.2521748E-006  0.9118800E+02  0.7816164E-02  0.1184000E+00
        -11   -1    0    0    0    0  0.00000000000E+00  0.00000000000E+00  0.45593999997E+02  0.45594000000E+02  0.51100000000E-03 0.  1.
         11   -1    0    0    0    0 -0.00000000000E+00 -0.00000000000E+00 -0.45593999997E+02  0.45594000000E+02  0.51100000000E-03 0. -1.
         23    2    1    2    0    0  0.00000000000E+00 -0.88817841970E-15  0.00000000000E+00  0.91188000000E+02  0.91188000000E+02 0.  0.
    9900012    2    3    3    0    0  0.13685222074E+02  0.62433019305E+01 -0.33608007248E+02  0.54367322746E+02  0.40000543861E+02 0.  0.
        -12    1    3    3    0    0 -0.13685222074E+02 -0.62433019305E+01  0.33608007248E+02  0.36820677254E+02  0.00000000000E+00 0.  1.
         11    1    4    4    0    0 -0.37543948794E+01  0.10006589888E+01 -0.97588159096E+01  0.10503870122E+02  0.51100000000E-03 0. -1.
        -11    1    4    4    0    0  0.20465619614E+02  0.15761375647E+02 -0.17635088249E+02  0.31277130404E+02  0.51100000000E-03 0.  1.
        -12    1    4    4    0    0 -0.30260026608E+01 -0.10518732705E+02 -0.62141030895E+01  0.12586322220E+02  0.00000000000E+00 0.  1.
</event>
<event>
 8    1  0.2521748E-006  0.9118800E+02  0.7816164E-02  0.1184000E+00
        -11   -1    0    0    0    0  0.00000000000E+00  0.00000000000E+00  0.45593999997E+02  0.45594000000E+02  0.51100000000E-03 0.  1.
         11   -1    0    0    0    0 -0.00000000000E+00 -0.00000000000E+00 -0.45593999997E+02  0.45594000000E+02  0.51100000000E-03 0. -1.
         23    2    1    2    0    0  0.00000000000E+00  0.35527136788E-14  0.00000000000E+00  0.91188000000E+02  0.91188000000E+02 0.  0.
    9900012    2    3    3    0    0  0.10283945186E+02 -0.30234344513E+02  0.18327682896E+02  0.54367094565E+02  0.40000023681E+02 0.  0.
         12    1    3    3    0    0 -0.10283945186E+02  0.30234344513E+02 -0.18327682896E+02  0.36820905435E+02  0.00000000000E+00 0. -1.
         11    1    4    4    0    0  0.91179834654E+01 -0.20274633337E+02 -0.80059920028E+01  0.23628251895E+02  0.51100000000E-03 0. -1.
        -11    1    4    4    0    0 -0.28242247535E+00 -0.82835797762E+00 -0.13181988961E+01  0.15822730436E+01  0.51100000000E-03 0.  1.
        -12    1    4    4    0    0  0.14483841960E+01 -0.91313531979E+01  0.27651873795E+02  0.29156569626E+02  0.00000000000E+00 0.  1.
</event>
<event>
 8    1  0.2521748E-006  0.9118800E+02  0.7816164E-02  0.1184000E+00
        -11   -1    0    0    0    0  0.00000000000E+00  0.00000000000E+00  0.45593999997E+02  0.45594000000E+02  0.51100000000E-03 0.  1.
         11   -1    0    0    0    0 -0.00000000000E+00 -0.00000000000E+00 -0.45593999997E+02  0.45594000000E+02  0.51100000000E-03 0. -1.
         23    2    1    2    0    0  0.17763568394E-14  0.35527136788E-14  0.00000000000E+00  0.91188000000E+02  0.91188000000E+02 0.  0.
    9900012    2    3    3    0    0 -0.70248056263E+01 -0.31901224566E+02  0.16992461540E+02  0.54367085127E+02  0.40000002164E+02 0.  0.
        -12    1    3    3    0    0  0.70248056263E+01  0.31901224566E+02 -0.16992461540E+02  0.36820914873E+02  0.00000000000E+00 0.  1.
         11    1    4    4    0    0  0.65677347994E+01 -0.68265694218E+01  0.13576777210E+02  0.16554940958E+02  0.51100000000E-03 0. -1.
        -11    1    4    4    0    0 -0.28016225261E+01 -0.63085809449E+01  0.12544822951E+02  0.14318514778E+02  0.51100000000E-03 0.  1.
        -12    1    4    4    0    0 -0.10790917900E+02 -0.18766074199E+02 -0.91291386209E+01  0.23493629390E+02  0.00000000000E+00 0.  1.
</event>
<event>
 8    1  0.2521748E-006  0.9118800E+02  0.7816164E-02  0.1184000E+00
        -11   -1    0    0    0    0  0.00000000000E+00  0.00000000000E+00  0.45593999997E+02  0.45594000000E+02  0.51100000000E-03 0. -1.
         11   -1    0    0    0    0 -0.00000000000E+00 -0.00000000000E+00 -0.45593999997E+02  0.45594000000E+02  0.51100000000E-03 0.  1.
         23    2    1    2    0    0  0.00000000000E+00  0.00000000000E+00  0.00000000000E+00  0.91188000000E+02  0.91188000000E+02 0.  0.
    9900012    2    3    3    0    0 -0.29590752847E+02 -0.18296902407E+02  0.12057667530E+02  0.54367127685E+02  0.40000099184E+02 0.  0.
        -12    1    3    3    0    0  0.29590752847E+02  0.18296902407E+02 -0.12057667530E+02  0.36820872315E+02  0.00000000000E+00 0.  1.
         11    1    4    4    0    0 -0.11932223291E+02  0.48112401687E+01  0.17723164542E+02  0.21900606071E+02  0.51100000000E-03 0. -1.
        -11    1    4    4    0    0 -0.38875612900E+01 -0.14229361513E+02 -0.63671579958E+01  0.16066379899E+02  0.51100000000E-03 0.  1.
        -12    1    4    4    0    0 -0.13770968266E+02 -0.88787810626E+01  0.70166098416E+00  0.16400141715E+02  0.00000000000E+00 0.  1.
</event>
<event>
 8    1  0.2521748E-006  0.9118800E+02  0.7816164E-02  0.1184000E+00
        -11   -1    0    0    0    0  0.00000000000E+00  0.00000000000E+00  0.45593999997E+02  0.45594000000E+02  0.51100000000E-03 0. -1.
         11   -1    0    0    0    0 -0.00000000000E+00 -0.00000000000E+00 -0.45593999997E+02  0.45594000000E+02  0.51100000000E-03 0.  1.
         23    2    1    2    0    0 -0.35527136788E-14  0.00000000000E+00  0.00000000000E+00  0.91188000000E+02  0.91188000000E+02 0.  0.
    9900012    2    3    3    0    0 -0.27744574188E+02 -0.19080327326E+02  0.14898219325E+02  0.54367119690E+02  0.40000080957E+02 0.  0.
        -12    1    3    3    0    0  0.27744574188E+02  0.19080327326E+02 -0.14898219325E+02  0.36820880310E+02  0.00000000000E+00 0.  1.
         11    1    4    4    0    0 -0.15526498486E+02 -0.45392382551E+01 -0.47547657783E+01  0.16860742482E+02  0.51100000000E-03 0. -1.
        -11    1    4    4    0    0  0.23543957580E+01 -0.16314976398E+02  0.62528565790E+01  0.17630083661E+02  0.51100000000E-03 0.  1.
        -12    1    4    4    0    0 -0.14572471460E+02  0.17738873265E+01  0.13400128524E+02  0.19876293547E+02  0.00000000000E+00 0.  1.
</event>
<event>
 8    1  0.2521748E-006  0.9118800E+02  0.7816164E-02  0.1184000E+00
        -11   -1    0    0    0    0  0.00000000000E+00  0.00000000000E+00  0.45593999997E+02  0.45594000000E+02  0.51100000000E-03 0. -1.
         11   -1    0    0    0    0 -0.00000000000E+00 -0.00000000000E+00 -0.45593999997E+02  0.45594000000E+02  0.51100000000E-03 0.  1.
         23    2    1    2    0    0  0.00000000000E+00  0.35527136788E-14  0.00000000000E+00  0.91188000000E+02  0.91188000000E+02 0.  0.
    9900012    2    3    3    0    0  0.31436205880E+02  0.19067229231E+02 -0.19963091282E+01  0.54367088539E+02  0.40000009942E+02 0.  0.
         12    1    3    3    0    0 -0.31436205880E+02 -0.19067229231E+02  0.19963091282E+01  0.36820911461E+02  0.00000000000E+00 0. -1.
         11    1    4    4    0    0  0.96765952942E+01 -0.25629013105E+01  0.46470779134E+01  0.11036317004E+02  0.51100000000E-03 0. -1.
        -11    1    4    4    0    0 -0.68760521963E+01  0.31758616489E+01  0.26409644319E+01  0.80212769813E+01  0.51100000000E-03 0.  1.
        -12    1    4    4    0    0  0.28635662782E+02  0.18454268893E+02 -0.92843514734E+01  0.35309494554E+02  0.00000000000E+00 0.  1.
</event>
<event>
 8    1  0.2521748E-006  0.9118800E+02  0.7816164E-02  0.1184000E+00
        -11   -1    0    0    0    0  0.00000000000E+00  0.00000000000E+00  0.45593999997E+02  0.45594000000E+02  0.51100000000E-03 0. -1.
         11   -1    0    0    0    0 -0.00000000000E+00 -0.00000000000E+00 -0.45593999997E+02  0.45594000000E+02  0.51100000000E-03 0.  1.
         23    2    1    2    0    0  0.00000000000E+00  0.00000000000E+00  0.00000000000E+00  0.91188000000E+02  0.91188000000E+02 0.  0.
    9900012    2    3    3    0    0  0.19611130732E+01  0.14920844380E+02 -0.33605107357E+02  0.54367071142E+02  0.39999970283E+02 0.  0.
         12    1    3    3    0    0 -0.19611130732E+01 -0.14920844380E+02  0.33605107357E+02  0.36820928858E+02  0.00000000000E+00 0. -1.
         11    1    4    4    0    0 -0.18681652456E+00  0.24474143745E+02 -0.16182427865E+02  0.29340919965E+02  0.51100000000E-03 0. -1.
        -11    1    4    4    0    0  0.39525503487E+01  0.11416233577E+01 -0.12416690984E+02  0.13080526496E+02  0.51100000000E-03 0.  1.
         12    1    4    4    0    0 -0.18046207509E+01 -0.10694922723E+02 -0.50059885068E+01  0.11945624682E+02  0.00000000000E+00 0. -1.
</event>
<event>
 8    1  0.2521748E-006  0.9118800E+02  0.7816164E-02  0.1184000E+00
        -11   -1    0    0    0    0  0.00000000000E+00  0.00000000000E+00  0.45593999997E+02  0.45594000000E+02  0.51100000000E-03 0. -1.
         11   -1    0    0    0    0 -0.00000000000E+00 -0.00000000000E+00 -0.45593999997E+02  0.45594000000E+02  0.51100000000E-03 0.  1.
         23    2    1    2    0    0  0.00000000000E+00  0.22204460493E-15  0.00000000000E+00  0.91188000000E+02  0.91188000000E+02 0.  0.
    9900012    2    3    3    0    0  0.28336455361E+02  0.11722987859E+01 -0.23482981048E+02  0.54367090373E+02  0.40000014124E+02 0.  0.
         12    1    3    3    0    0 -0.28336455361E+02 -0.11722987859E+01  0.23482981048E+02  0.36820909627E+02  0.00000000000E+00 0. -1.
         11    1    4    4    0    0  0.14822483131E+02 -0.14642491909E+02 -0.64750189540E+01  0.21818213634E+02  0.51100000000E-03 0. -1.
        -11    1    4    4    0    0  0.16317681056E+02  0.80071573180E+01 -0.15956761005E+02  0.24186763020E+02  0.51100000000E-03 0.  1.
        -12    1    4    4    0    0 -0.28037088263E+01  0.78076333765E+01 -0.10512010885E+01  0.83621137192E+01  0.00000000000E+00 0.  1.
</event>
<event>
 8    1  0.2521748E-006  0.9118800E+02  0.7816164E-02  0.1184000E+00
        -11   -1    0    0    0    0  0.00000000000E+00  0.00000000000E+00  0.45593999997E+02  0.45594000000E+02  0.51100000000E-03 0. -1.
         11   -1    0    0    0    0 -0.00000000000E+00 -0.00000000000E+00 -0.45593999997E+02  0.45594000000E+02  0.51100000000E-03 0.  1.
         23    2    1    2    0    0 -0.44408920985E-15  0.00000000000E+00  0.71054273576E-14  0.91188000000E+02  0.91188000000E+02 0.  0.
    9900012    2    3    3    0    0 -0.14296144068E+01 -0.14809890862E+02  0.33680896918E+02  0.54367089068E+02  0.40000011149E+02 0.  0.
        -12    1    3    3    0    0  0.14296144068E+01  0.14809890862E+02 -0.33680896918E+02  0.36820910932E+02  0.00000000000E+00 0.  1.
         11    1    4    4    0    0 -0.91473174708E+01  0.21829091487E+01  0.90528301179E+01  0.13053437963E+02  0.51100000000E-03 0. -1.
        -11    1    4    4    0    0  0.33742921230E+01 -0.20706517909E+02  0.59882943472E+01  0.21817547999E+02  0.51100000000E-03 0.  1.
         12    1    4    4    0    0  0.43434109410E+01  0.37137178984E+01  0.18639772453E+02  0.19496103106E+02  0.00000000000E+00 0. -1.
</event>
<event>
 8    1  0.2521748E-006  0.9118800E+02  0.7816164E-02  0.1184000E+00
        -11   -1    0    0    0    0  0.00000000000E+00  0.00000000000E+00  0.45593999997E+02  0.45594000000E+02  0.51100000000E-03 0.  1.
         11   -1    0    0    0    0 -0.00000000000E+00 -0.00000000000E+00 -0.45593999997E+02  0.45594000000E+02  0.51100000000E-03 0. -1.
         23    2    1    2    0    0  0.00000000000E+00  0.00000000000E+00  0.00000000000E+00  0.91188000000E+02  0.91188000000E+02 0.  0.
    9900012    2    3    3    0    0 -0.91310861911E+01  0.21158911409E+02 -0.28717671955E+02  0.54367069138E+02  0.39999965714E+02 0.  0.
        -12    1    3    3    0    0  0.91310861911E+01 -0.21158911409E+02  0.28717671955E+02  0.36820930862E+02  0.00000000000E+00 0.  1.
         11    1    4    4    0    0 -0.11924965798E+02  0.19969388268E+02 -0.22545060591E+02  0.32392298999E+02  0.51100000000E-03 0. -1.
        -11    1    4    4    0    0  0.83808886553E+01 -0.70410583775E+01 -0.17372217957E+01  0.11083038282E+02  0.51100000000E-03 0.  1.
        -12    1    4    4    0    0 -0.55870090480E+01  0.82305815187E+01 -0.44353895677E+01  0.10891731858E+02  0.00000000000E+00 0.  1.
</event>
<event>
 8    1  0.2521748E-006  0.9118800E+02  0.7816164E-02  0.1184000E+00
        -11   -1    0    0    0    0  0.00000000000E+00  0.00000000000E+00  0.45593999997E+02  0.45594000000E+02  0.51100000000E-03 0. -1.
         11   -1    0    0    0    0 -0.00000000000E+00 -0.00000000000E+00 -0.45593999997E+02  0.45594000000E+02  0.51100000000E-03 0.  1.
         23    2    1    2    0    0  0.00000000000E+00  0.13322676296E-14 -0.11102230246E-15  0.91188000000E+02  0.91188000000E+02 0.  0.
    9900012    2    3    3    0    0 -0.36670574860E+02  0.32233764191E+01  0.81151114799E+00  0.54367085204E+02  0.40000002339E+02 0.  0.
        -12    1    3    3    0    0  0.36670574860E+02 -0.32233764191E+01 -0.81151114799E+00  0.36820914796E+02  0.00000000000E+00 0.  1.
         11    1    4    4    0    0 -0.10126019297E+02  0.10036140810E+01  0.32286949074E+01  0.10675578630E+02  0.51100000000E-03 0. -1.
        -11    1    4    4    0    0 -0.32009639561E+02 -0.20311732282E+01  0.61686358174E+01  0.32661824162E+02  0.51100000000E-03 0.  1.
        -12    1    4    4    0    0  0.54650839978E+01  0.42509355663E+01 -0.85858195769E+01  0.11029682412E+02  0.00000000000E+00 0.  1.
</event>
<event>
 8    1  0.2521748E-006  0.9118800E+02  0.7816164E-02  0.1184000E+00
        -11   -1    0    0    0    0  0.00000000000E+00  0.00000000000E+00  0.45593999997E+02  0.45594000000E+02  0.51100000000E-03 0. -1.
         11   -1    0    0    0    0 -0.00000000000E+00 -0.00000000000E+00 -0.45593999997E+02  0.45594000000E+02  0.51100000000E-03 0.  1.
         23    2    1    2    0    0  0.35527136788E-14 -0.17763568394E-14  0.35527136788E-14  0.91188000000E+02  0.91188000000E+02 0.  0.
    9900012    2    3    3    0    0  0.17117863541E+02 -0.14581666918E+02  0.29157039519E+02  0.54367092680E+02  0.40000019383E+02 0.  0.
        -12    1    3    3    0    0 -0.17117863541E+02  0.14581666918E+02 -0.29157039519E+02  0.36820907320E+02  0.00000000000E+00 0.  1.
         11    1    4    4    0    0  0.66650823413E+01 -0.39042772169E+01  0.17958465265E+02  0.19549250066E+02  0.51100000000E-03 0. -1.
        -11    1    4    4    0    0  0.50196621325E+01 -0.12217636532E+02  0.20233486860E+02  0.24163229112E+02  0.51100000000E-03 0.  1.
        -12    1    4    4    0    0  0.54331190672E+01  0.15402468302E+01 -0.90349126056E+01  0.10654613502E+02  0.00000000000E+00 0.  1.
</event>
<event>
 8    1  0.2521748E-006  0.9118800E+02  0.7816164E-02  0.1184000E+00
        -11   -1    0    0    0    0  0.00000000000E+00  0.00000000000E+00  0.45593999997E+02  0.45594000000E+02  0.51100000000E-03 0. -1.
         11   -1    0    0    0    0 -0.00000000000E+00 -0.00000000000E+00 -0.45593999997E+02  0.45594000000E+02  0.51100000000E-03 0.  1.
         23    2    1    2    0    0  0.00000000000E+00  0.00000000000E+00  0.00000000000E+00  0.91188000000E+02  0.91188000000E+02 0.  0.
    9900012    2    3    3    0    0 -0.17363799399E+02  0.34502505155E+01 -0.32285805748E+02  0.54367095462E+02  0.40000025724E+02 0.  0.
         12    1    3    3    0    0  0.17363799399E+02 -0.34502505155E+01  0.32285805748E+02  0.36820904538E+02  0.00000000000E+00 0. -1.
         11    1    4    4    0    0  0.66745411309E+01  0.33966870191E+01 -0.11673272251E+01  0.75795537551E+01  0.51100000000E-03 0. -1.
        -11    1    4    4    0    0 -0.26526047182E+02  0.22852160038E+01 -0.15483183405E+02  0.30799064270E+02  0.51100000000E-03 0.  1.
         12    1    4    4    0    0  0.24877066521E+01 -0.22316525074E+01 -0.15635295119E+02  0.15988477437E+02  0.00000000000E+00 0. -1.
</event>
<event>
 8    1  0.2521748E-006  0.9118800E+02  0.7816164E-02  0.1184000E+00
        -11   -1    0    0    0    0  0.00000000000E+00  0.00000000000E+00  0.45593999997E+02  0.45594000000E+02  0.51100000000E-03 0.  1.
         11   -1    0    0    0    0 -0.00000000000E+00 -0.00000000000E+00 -0.45593999997E+02  0.45594000000E+02  0.51100000000E-03 0. -1.
         23    2    1    2    0    0  0.35527136788E-14  0.00000000000E+00 -0.35527136788E-14  0.91188000000E+02  0.91188000000E+02 0.  0.
    9900012    2    3    3    0    0  0.20869834848E+02 -0.21871261514E+02 -0.21020863866E+02  0.54367098267E+02  0.40000032119E+02 0.  0.
         12    1    3    3    0    0 -0.20869834848E+02  0.21871261514E+02  0.21020863866E+02  0.36820901733E+02  0.00000000000E+00 0. -1.
         11    1    4    4    0    0  0.48682043700E+01 -0.12106572074E+02 -0.16060181052E+02  0.20692943649E+02  0.51100000000E-03 0. -1.
        -11    1    4    4    0    0  0.12996781826E+02 -0.19239386263E+02 -0.49241839463E+01  0.23734319232E+02  0.51100000000E-03 0.  1.
         12    1    4    4    0    0  0.30048486515E+01  0.94746968235E+01 -0.36498867181E-01  0.99398353851E+01  0.00000000000E+00 0. -1.
</event>
<event>
 8    1  0.2521748E-006  0.9118800E+02  0.7816164E-02  0.1184000E+00
        -11   -1    0    0    0    0  0.00000000000E+00  0.00000000000E+00  0.45593999997E+02  0.45594000000E+02  0.51100000000E-03 0. -1.
         11   -1    0    0    0    0 -0.00000000000E+00 -0.00000000000E+00 -0.45593999997E+02  0.45594000000E+02  0.51100000000E-03 0.  1.
         23    2    1    2    0    0  0.00000000000E+00  0.88817841970E-15  0.00000000000E+00  0.91188000000E+02  0.91188000000E+02 0.  0.
    9900012    2    3    3    0    0  0.26516898163E+02 -0.66709561088E+01 -0.24660323682E+02  0.54367094149E+02  0.40000022731E+02 0.  0.
         12    1    3    3    0    0 -0.26516898163E+02  0.66709561088E+01  0.24660323682E+02  0.36820905851E+02  0.00000000000E+00 0. -1.
         11    1    4    4    0    0  0.19870188814E+01  0.13239457730E+02 -0.26160908564E+01  0.13640946326E+02  0.51100000000E-03 0. -1.
        -11    1    4    4    0    0  0.13326252659E+02 -0.16840897363E+02 -0.19104449091E+02  0.28743430714E+02  0.51100000000E-03 0.  1.
         12    1    4    4    0    0  0.11203626623E+02 -0.30695164761E+01 -0.29397837350E+01  0.11982717109E+02  0.00000000000E+00 0. -1.
</event>
<event>
 8    1  0.2521748E-006  0.9118800E+02  0.7816164E-02  0.1184000E+00
        -11   -1    0    0    0    0  0.00000000000E+00  0.00000000000E+00  0.45593999997E+02  0.45594000000E+02  0.51100000000E-03 0.  1.
         11   -1    0    0    0    0 -0.00000000000E+00 -0.00000000000E+00 -0.45593999997E+02  0.45594000000E+02  0.51100000000E-03 0. -1.
         23    2    1    2    0    0  0.35527136788E-14 -0.88817841970E-15  0.71054273576E-14  0.91188000000E+02  0.91188000000E+02 0.  0.
    9900012    2    3    3    0    0 -0.19008924261E+02  0.18272126673E+01 -0.31481772282E+02  0.54367083476E+02  0.39999998400E+02 0.  0.
        -12    1    3    3    0    0  0.19008924261E+02 -0.18272126673E+01  0.31481772282E+02  0.36820916524E+02  0.00000000000E+00 0.  1.
         11    1    4    4    0    0 -0.15517423640E+02 -0.10837206208E+01 -0.32455363845E+02  0.35990492208E+02  0.51100000000E-03 0. -1.
        -11    1    4    4    0    0  0.16581194695E+00  0.67768494969E+01 -0.63735332307E+01  0.93045746173E+01  0.51100000000E-03 0.  1.
        -12    1    4    4    0    0 -0.36573125684E+01 -0.38659162089E+01  0.73471247945E+01  0.90720166503E+01  0.00000000000E+00 0.  1.
</event>
<event>
 8    1  0.2521748E-006  0.9118800E+02  0.7816164E-02  0.1184000E+00
        -11   -1    0    0    0    0  0.00000000000E+00  0.00000000000E+00  0.45593999997E+02  0.45594000000E+02  0.51100000000E-03 0.  1.
         11   -1    0    0    0    0 -0.00000000000E+00 -0.00000000000E+00 -0.45593999997E+02  0.45594000000E+02  0.51100000000E-03 0. -1.
         23    2    1    2    0    0  0.00000000000E+00 -0.35527136788E-14  0.00000000000E+00  0.91188000000E+02  0.91188000000E+02 0.  0.
    9900012    2    3    3    0    0  0.14995049584E+02  0.31680246730E+02 -0.11282264740E+02  0.54367095033E+02  0.40000024746E+02 0.  0.
        -12    1    3    3    0    0 -0.14995049584E+02 -0.31680246730E+02  0.11282264740E+02  0.36820904967E+02  0.00000000000E+00 0.  1.
         11    1    4    4    0    0  0.17872641089E+02  0.25948548071E+02 -0.16567423364E+02  0.35598285966E+02  0.51100000000E-03 0. -1.
        -11    1    4    4    0    0  0.10645040262E+00  0.92071863014E+01  0.89965009436E+01  0.12873252921E+02  0.51100000000E-03 0.  1.
        -12    1    4    4    0    0 -0.29840419077E+01 -0.34754876423E+01 -0.37113423197E+01  0.58955561462E+01  0.00000000000E+00 0.  1.
</event>
<event>
 8    1  0.2521748E-006  0.9118800E+02  0.7816164E-02  0.1184000E+00
        -11   -1    0    0    0    0  0.00000000000E+00  0.00000000000E+00  0.45593999997E+02  0.45594000000E+02  0.51100000000E-03 0.  1.
         11   -1    0    0    0    0 -0.00000000000E+00 -0.00000000000E+00 -0.45593999997E+02  0.45594000000E+02  0.51100000000E-03 0. -1.
         23    2    1    2    0    0 -0.17763568394E-14  0.00000000000E+00  0.00000000000E+00  0.91188000000E+02  0.91188000000E+02 0.  0.
    9900012    2    3    3    0    0  0.90862538310E+01  0.17509207680E+02  0.31090977294E+02  0.54367065312E+02  0.39999956991E+02 0.  0.
         12    1    3    3    0    0 -0.90862538310E+01 -0.17509207680E+02 -0.31090977294E+02  0.36820934688E+02  0.00000000000E+00 0. -1.
         11    1    4    4    0    0 -0.28415636445E+01  0.18036137334E+02  0.56999679353E+01  0.19127633638E+02  0.51100000000E-03 0. -1.
        -11    1    4    4    0    0  0.15951739631E+02  0.72221847149E+00  0.26448838843E+02  0.30895317981E+02  0.51100000000E-03 0.  1.
        -12    1    4    4    0    0 -0.40239221550E+01 -0.12491481260E+01 -0.10578294847E+01  0.43441136920E+01  0.00000000000E+00 0.  1.
</event>
<event>
 8    1  0.2521748E-006  0.9118800E+02  0.7816164E-02  0.1184000E+00
        -11   -1    0    0    0    0  0.00000000000E+00  0.00000000000E+00  0.45593999997E+02  0.45594000000E+02  0.51100000000E-03 0.  1.
         11   -1    0    0    0    0 -0.00000000000E+00 -0.00000000000E+00 -0.45593999997E+02  0.45594000000E+02  0.51100000000E-03 0. -1.
         23    2    1    2    0    0 -0.35527136788E-14  0.17763568394E-14  0.00000000000E+00  0.91188000000E+02  0.91188000000E+02 0.  0.
    9900012    2    3    3    0    0  0.25348038141E+02 -0.15155330812E+02  0.21990282154E+02  0.54367087480E+02  0.40000007527E+02 0.  0.
         12    1    3    3    0    0 -0.25348038141E+02  0.15155330812E+02 -0.21990282154E+02  0.36820912520E+02  0.00000000000E+00 0. -1.
         11    1    4    4    0    0  0.22074834851E+02 -0.14967327485E+01  0.15251665167E+02  0.26872882861E+02  0.51100000000E-03 0. -1.
        -11    1    4    4    0    0 -0.69844891092E+01 -0.12595169838E+02 -0.12400330266E+01  0.14455416754E+02  0.51100000000E-03 0.  1.
        -12    1    4    4    0    0  0.10257692399E+02 -0.10634282257E+01  0.79786500143E+01  0.13038787865E+02  0.00000000000E+00 0.  1.
</event>
<event>
 8    1  0.2521748E-006  0.9118800E+02  0.7816164E-02  0.1184000E+00
        -11   -1    0    0    0    0  0.00000000000E+00  0.00000000000E+00  0.45593999997E+02  0.45594000000E+02  0.51100000000E-03 0. -1.
         11   -1    0    0    0    0 -0.00000000000E+00 -0.00000000000E+00 -0.45593999997E+02  0.45594000000E+02  0.51100000000E-03 0.  1.
         23    2    1    2    0    0 -0.44408920985E-15  0.00000000000E+00  0.71054273576E-14  0.91188000000E+02  0.91188000000E+02 0.  0.
    9900012    2    3    3    0    0 -0.25180022161E+01 -0.62452712798E+01  0.36199940432E+02  0.54367089694E+02  0.40000012575E+02 0.  0.
        -12    1    3    3    0    0  0.25180022161E+01  0.62452712798E+01 -0.36199940432E+02  0.36820910306E+02  0.00000000000E+00 0.  1.
         11    1    4    4    0    0  0.11679233682E+01 -0.22681872946E+01  0.29033647422E+02  0.29145521122E+02  0.51100000000E-03 0. -1.
        -11    1    4    4    0    0 -0.12529058654E+02  0.26464166092E+01  0.17755850051E+01  0.12928013536E+02  0.51100000000E-03 0.  1.
        -12    1    4    4    0    0  0.88431330697E+01 -0.66235005944E+01  0.53907080051E+01  0.12293555035E+02  0.00000000000E+00 0.  1.
</event>
<event>
 8    1  0.2521748E-006  0.9118800E+02  0.7816164E-02  0.1184000E+00
        -11   -1    0    0    0    0  0.00000000000E+00  0.00000000000E+00  0.45593999997E+02  0.45594000000E+02  0.51100000000E-03 0. -1.
         11   -1    0    0    0    0 -0.00000000000E+00 -0.00000000000E+00 -0.45593999997E+02  0.45594000000E+02  0.51100000000E-03 0.  1.
         23    2    1    2    0    0  0.00000000000E+00  0.00000000000E+00  0.00000000000E+00  0.91188000000E+02  0.91188000000E+02 0.  0.
    9900012    2    3    3    0    0 -0.17867786698E+02 -0.23070188224E+02 -0.22456382857E+02  0.54367075009E+02  0.39999979098E+02 0.  0.
         12    1    3    3    0    0  0.17867786698E+02  0.23070188224E+02  0.22456382857E+02  0.36820924991E+02  0.00000000000E+00 0. -1.
         11    1    4    4    0    0 -0.72756243898E+01 -0.14020535400E+02 -0.22398658846E+01  0.15953906187E+02  0.51100000000E-03 0. -1.
        -11    1    4    4    0    0 -0.19812157406E+02 -0.97365041256E+01 -0.18926506624E+02  0.29078062984E+02  0.51100000000E-03 0.  1.
        -12    1    4    4    0    0  0.92199950974E+01  0.68685130202E+00 -0.12900103487E+01  0.93351058380E+01  0.00000000000E+00 0.  1.
</event>
<event>
 8    1  0.2521748E-006  0.9118800E+02  0.7816164E-02  0.1184000E+00
        -11   -1    0    0    0    0  0.00000000000E+00  0.00000000000E+00  0.45593999997E+02  0.45594000000E+02  0.51100000000E-03 0.  1.
         11   -1    0    0    0    0 -0.00000000000E+00 -0.00000000000E+00 -0.45593999997E+02  0.45594000000E+02  0.51100000000E-03 0. -1.
         23    2    1    2    0    0  0.15543122345E-14  0.00000000000E+00 -0.35527136788E-14  0.91188000000E+02  0.91188000000E+02 0.  0.
    9900012    2    3    3    0    0 -0.15326909837E+01 -0.26394177961E+02 -0.25627661781E+02  0.54367098052E+02  0.40000031630E+02 0.  0.
        -12    1    3    3    0    0  0.15326909837E+01  0.26394177961E+02  0.25627661781E+02  0.36820901948E+02  0.00000000000E+00 0.  1.
         11    1    4    4    0    0 -0.39022342627E+01 -0.10296836200E+02 -0.18515517266E+02  0.21542438299E+02  0.51100000000E-03 0. -1.
        -11    1    4    4    0    0  0.14631856105E+02 -0.54982095005E+01 -0.53496695002E+01  0.16520910532E+02  0.51100000000E-03 0.  1.
        -12    1    4    4    0    0 -0.12262312826E+02 -0.10599132260E+02 -0.17624750152E+01  0.16303749221E+02  0.00000000000E+00 0.  1.
</event>
<event>
 8    1  0.2521748E-006  0.9118800E+02  0.7816164E-02  0.1184000E+00
        -11   -1    0    0    0    0  0.00000000000E+00  0.00000000000E+00  0.45593999997E+02  0.45594000000E+02  0.51100000000E-03 0. -1.
         11   -1    0    0    0    0 -0.00000000000E+00 -0.00000000000E+00 -0.45593999997E+02  0.45594000000E+02  0.51100000000E-03 0.  1.
         23    2    1    2    0    0 -0.88817841970E-15  0.35527136788E-14  0.00000000000E+00  0.91188000000E+02  0.91188000000E+02 0.  0.
    9900012    2    3    3    0    0 -0.58957660409E+01  0.20638568168E+02 -0.29917892848E+02  0.54366934484E+02  0.39999658742E+02 0.  0.
         12    1    3    3    0    0  0.58957660409E+01 -0.20638568168E+02  0.29917892848E+02  0.36821065516E+02  0.00000000000E+00 0. -1.
         11    1    4    4    0    0  0.26828729553E+01  0.80148254887E+01  0.33177998159E+01  0.90798144689E+01  0.51100000000E-03 0. -1.
        -11    1    4    4    0    0 -0.12032989449E+02  0.12030243288E+02 -0.36641792544E+02  0.40399759279E+02  0.51100000000E-03 0.  1.
         12    1    4    4    0    0  0.34543504529E+01  0.59349939100E+00  0.34060998799E+01  0.48873607367E+01  0.00000000000E+00 0. -1.
</event>
<event>
 8    1  0.2521748E-006  0.9118800E+02  0.7816164E-02  0.1184000E+00
        -11   -1    0    0    0    0  0.00000000000E+00  0.00000000000E+00  0.45593999997E+02  0.45594000000E+02  0.51100000000E-03 0.  1.
         11   -1    0    0    0    0 -0.00000000000E+00 -0.00000000000E+00 -0.45593999997E+02  0.45594000000E+02  0.51100000000E-03 0. -1.
         23    2    1    2    0    0 -0.17763568394E-14  0.35527136788E-14  0.35527136788E-14  0.91188000000E+02  0.91188000000E+02 0.  0.
    9900012    2    3    3    0    0  0.11157493587E+02 -0.31566056839E+02 -0.15325587659E+02  0.54367092290E+02  0.40000018493E+02 0.  0.
        -12    1    3    3    0    0 -0.11157493587E+02  0.31566056839E+02  0.15325587659E+02  0.36820907710E+02  0.00000000000E+00 0.  1.
         11    1    4    4    0    0  0.63977200426E+01  0.34871907206E+01 -0.45682005148E+01  0.85999870390E+01  0.51100000000E-03 0. -1.
        -11    1    4    4    0    0  0.67047154464E+01 -0.25659031646E+02 -0.19396806524E+02  0.32856889960E+02  0.51100000000E-03 0.  1.
        -12    1    4    4    0    0 -0.19449419020E+01 -0.93942159135E+01  0.86394193803E+01  0.12910215291E+02  0.00000000000E+00 0.  1.
</event>
<event>
 8    1  0.2521748E-006  0.9118800E+02  0.7816164E-02  0.1184000E+00
        -11   -1    0    0    0    0  0.00000000000E+00  0.00000000000E+00  0.45593999997E+02  0.45594000000E+02  0.51100000000E-03 0. -1.
         11   -1    0    0    0    0 -0.00000000000E+00 -0.00000000000E+00 -0.45593999997E+02  0.45594000000E+02  0.51100000000E-03 0.  1.
         23    2    1    2    0    0 -0.35527136788E-14 -0.88817841970E-15 -0.71054273576E-14  0.91188000000E+02  0.91188000000E+02 0.  0.
    9900012    2    3    3    0    0  0.15250290509E+02 -0.16347645477E+01  0.33474544047E+02  0.54366960974E+02  0.39999719132E+02 0.  0.
        -12    1    3    3    0    0 -0.15250290509E+02  0.16347645477E+01 -0.33474544047E+02  0.36821039026E+02  0.00000000000E+00 0.  1.
         11    1    4    4    0    0  0.17303010303E+01 -0.15988916579E+02  0.14908653555E+02  0.21929599771E+02  0.51100000000E-03 0. -1.
        -11    1    4    4    0    0 -0.11620704029E+01  0.23368157994E+01  0.12122097473E+02  0.12399853350E+02  0.51100000000E-03 0.  1.
        -12    1    4    4    0    0  0.14682059882E+02  0.12017336232E+02  0.64437930196E+01  0.20037507853E+02  0.00000000000E+00 0.  1.
</event>
<event>
 8    1  0.2521748E-006  0.9118800E+02  0.7816164E-02  0.1184000E+00
        -11   -1    0    0    0    0  0.00000000000E+00  0.00000000000E+00  0.45593999997E+02  0.45594000000E+02  0.51100000000E-03 0.  1.
         11   -1    0    0    0    0 -0.00000000000E+00 -0.00000000000E+00 -0.45593999997E+02  0.45594000000E+02  0.51100000000E-03 0. -1.
         23    2    1    2    0    0  0.44408920985E-15  0.35527136788E-14 -0.35527136788E-14  0.91188000000E+02  0.91188000000E+02 0.  0.
    9900012    2    3    3    0    0 -0.25239639595E+01 -0.23969466940E+02  0.27836498759E+02  0.54367130882E+02  0.40000106472E+02 0.  0.
         12    1    3    3    0    0  0.25239639595E+01  0.23969466940E+02 -0.27836498759E+02  0.36820869118E+02  0.00000000000E+00 0. -1.
         11    1    4    4    0    0  0.26549372892E+01  0.19883461220E+01  0.11549474426E+02  0.12016346037E+02  0.51100000000E-03 0. -1.
        -11    1    4    4    0    0  0.84882342488E+01  0.13136432797E+01  0.35773926111E+01  0.93044891039E+01  0.51100000000E-03 0.  1.
        -12    1    4    4    0    0 -0.13667135498E+02 -0.27271456341E+02  0.12709631721E+02  0.33046295741E+02  0.00000000000E+00 0.  1.
</event>
<event>
 8    1  0.2521748E-006  0.9118800E+02  0.7816164E-02  0.1184000E+00
        -11   -1    0    0    0    0  0.00000000000E+00  0.00000000000E+00  0.45593999997E+02  0.45594000000E+02  0.51100000000E-03 0. -1.
         11   -1    0    0    0    0 -0.00000000000E+00 -0.00000000000E+00 -0.45593999997E+02  0.45594000000E+02  0.51100000000E-03 0.  1.
         23    2    1    2    0    0  0.00000000000E+00  0.00000000000E+00  0.35527136788E-14  0.91188000000E+02  0.91188000000E+02 0.  0.
    9900012    2    3    3    0    0 -0.25042240393E+02 -0.11932311039E+02  0.24213331783E+02  0.54367091718E+02  0.40000017191E+02 0.  0.
        -12    1    3    3    0    0  0.25042240393E+02  0.11932311039E+02 -0.24213331783E+02  0.36820908282E+02  0.00000000000E+00 0.  1.
         11    1    4    4    0    0 -0.42931696790E+01  0.10568573419E+01  0.15235129442E+02  0.15863714027E+02  0.51100000000E-03 0. -1.
        -11    1    4    4    0    0  0.63292174852E+01 -0.24422271971E+01  0.64049236649E+01  0.93298721895E+01  0.51100000000E-03 0.  1.
         12    1    4    4    0    0 -0.27078288200E+02 -0.10546941184E+02  0.25732786757E+01  0.29173505502E+02  0.00000000000E+00 0. -1.
</event>
<event>
 8    1  0.2521748E-006  0.9118800E+02  0.7816164E-02  0.1184000E+00
        -11   -1    0    0    0    0  0.00000000000E+00  0.00000000000E+00  0.45593999997E+02  0.45594000000E+02  0.51100000000E-03 0. -1.
         11   -1    0    0    0    0 -0.00000000000E+00 -0.00000000000E+00 -0.45593999997E+02  0.45594000000E+02  0.51100000000E-03 0.  1.
         23    2    1    2    0    0 -0.17763568394E-14 -0.35527136788E-14 -0.35527136788E-14  0.91188000000E+02  0.91188000000E+02 0.  0.
    9900012    2    3    3    0    0  0.92083635636E+01  0.26270167937E+02  0.24101151694E+02  0.54367065792E+02  0.39999958087E+02 0.  0.
        -12    1    3    3    0    0 -0.92083635636E+01 -0.26270167937E+02 -0.24101151694E+02  0.36820934208E+02  0.00000000000E+00 0.  1.
         11    1    4    4    0    0  0.12909244455E+01  0.23028062564E+02  0.11373181739E+02  0.25715898088E+02  0.51100000000E-03 0. -1.
        -11    1    4    4    0    0  0.65026716552E+01  0.12380371440E+02  0.13415254033E+02  0.19378528754E+02  0.51100000000E-03 0.  1.
        -12    1    4    4    0    0  0.14147674629E+01 -0.91382660670E+01 -0.68728407786E+00  0.92726389495E+01  0.00000000000E+00 0.  1.
</event>
<event>
 8    1  0.2521748E-006  0.9118800E+02  0.7816164E-02  0.1184000E+00
        -11   -1    0    0    0    0  0.00000000000E+00  0.00000000000E+00  0.45593999997E+02  0.45594000000E+02  0.51100000000E-03 0.  1.
         11   -1    0    0    0    0 -0.00000000000E+00 -0.00000000000E+00 -0.45593999997E+02  0.45594000000E+02  0.51100000000E-03 0. -1.
         23    2    1    2    0    0  0.88817841970E-15  0.88817841970E-15  0.00000000000E+00  0.91188000000E+02  0.91188000000E+02 0.  0.
    9900012    2    3    3    0    0 -0.49913116735E+01 -0.35485422430E+01  0.36308039711E+02  0.54367094363E+02  0.40000023220E+02 0.  0.
         12    1    3    3    0    0  0.49913116735E+01  0.35485422430E+01 -0.36308039711E+02  0.36820905637E+02  0.00000000000E+00 0. -1.
         11    1    4    4    0    0  0.79285663619E+01  0.26425549975E+01  0.24738935620E+01  0.87158138511E+01  0.51100000000E-03 0. -1.
        -11    1    4    4    0    0 -0.10882797196E+01 -0.15091011853E+02  0.12199724804E+02  0.19435953207E+02  0.51100000000E-03 0.  1.
        -12    1    4    4    0    0 -0.11831598316E+02  0.88999146124E+01  0.21634421345E+02  0.26215327306E+02  0.00000000000E+00 0.  1.
</event>
<event>
 8    1  0.2521748E-006  0.9118800E+02  0.7816164E-02  0.1184000E+00
        -11   -1    0    0    0    0  0.00000000000E+00  0.00000000000E+00  0.45593999997E+02  0.45594000000E+02  0.51100000000E-03 0. -1.
         11   -1    0    0    0    0 -0.00000000000E+00 -0.00000000000E+00 -0.45593999997E+02  0.45594000000E+02  0.51100000000E-03 0.  1.
         23    2    1    2    0    0  0.00000000000E+00  0.00000000000E+00  0.00000000000E+00  0.91188000000E+02  0.91188000000E+02 0.  0.
    9900012    2    3    3    0    0  0.21395714307E+02  0.97549130559E+01  0.28334509673E+02  0.54367090752E+02  0.40000014988E+02 0.  0.
        -12    1    3    3    0    0 -0.21395714307E+02 -0.97549130559E+01 -0.28334509673E+02  0.36820909248E+02  0.00000000000E+00 0.  1.
         11    1    4    4    0    0  0.43923792295E+01 -0.12023735188E+02  0.13204469800E+02  0.18390791885E+02  0.51100000000E-03 0. -1.
        -11    1    4    4    0    0  0.70993211342E+01  0.13874739225E+02 -0.81823042740E+00  0.15606993638E+02  0.51100000000E-03 0.  1.
        -12    1    4    4    0    0  0.99040139428E+01  0.79039090192E+01  0.15948270300E+02  0.20369305229E+02  0.00000000000E+00 0.  1.
</event>
<event>
 8    1  0.2521748E-006  0.9118800E+02  0.7816164E-02  0.1184000E+00
        -11   -1    0    0    0    0  0.00000000000E+00  0.00000000000E+00  0.45593999997E+02  0.45594000000E+02  0.51100000000E-03 0.  1.
         11   -1    0    0    0    0 -0.00000000000E+00 -0.00000000000E+00 -0.45593999997E+02  0.45594000000E+02  0.51100000000E-03 0. -1.
         23    2    1    2    0    0 -0.17763568394E-14  0.00000000000E+00  0.35527136788E-14  0.91188000000E+02  0.91188000000E+02 0.  0.
    9900012    2    3    3    0    0 -0.79772568171E+01  0.18449802896E+02  0.30850437971E+02  0.54367063344E+02  0.39999952504E+02 0.  0.
         12    1    3    3    0    0  0.79772568171E+01 -0.18449802896E+02 -0.30850437971E+02  0.36820936656E+02  0.00000000000E+00 0. -1.
         11    1    4    4    0    0  0.32126207928E+00 -0.18348436588E+01 -0.26342611013E+01  0.32263280036E+01  0.51100000000E-03 0. -1.
        -11    1    4    4    0    0 -0.36670649661E+01  0.28210680853E+02  0.19792457086E+02  0.34655897585E+02  0.51100000000E-03 0.  1.
        -12    1    4    4    0    0 -0.46314539304E+01 -0.79260342978E+01  0.13692241986E+02  0.16484837755E+02  0.00000000000E+00 0.  1.
</event>
<event>
 8    1  0.2521748E-006  0.9118800E+02  0.7816164E-02  0.1184000E+00
        -11   -1    0    0    0    0  0.00000000000E+00  0.00000000000E+00  0.45593999997E+02  0.45594000000E+02  0.51100000000E-03 0.  1.
         11   -1    0    0    0    0 -0.00000000000E+00 -0.00000000000E+00 -0.45593999997E+02  0.45594000000E+02  0.51100000000E-03 0. -1.
         23    2    1    2    0    0  0.00000000000E+00  0.00000000000E+00  0.00000000000E+00  0.91188000000E+02  0.91188000000E+02 0.  0.
    9900012    2    3    3    0    0 -0.88547623075E+01  0.33457471494E+02  0.12568627353E+02  0.54367087357E+02  0.40000007248E+02 0.  0.
         12    1    3    3    0    0  0.88547623075E+01 -0.33457471494E+02 -0.12568627353E+02  0.36820912643E+02  0.00000000000E+00 0. -1.
         11    1    4    4    0    0 -0.65375921720E+01  0.62148328983E+01 -0.26687564535E+01  0.94067274134E+01  0.51100000000E-03 0. -1.
        -11    1    4    4    0    0  0.16848984256E+01 -0.49256239466E+01 -0.46075620565E+01  0.69519984417E+01  0.51100000000E-03 0.  1.
        -12    1    4    4    0    0 -0.40020685612E+01  0.32168262543E+02  0.19844945863E+02  0.38008361502E+02  0.00000000000E+00 0.  1.
</event>
<event>
 8    1  0.2521748E-006  0.9118800E+02  0.7816164E-02  0.1184000E+00
        -11   -1    0    0    0    0  0.00000000000E+00  0.00000000000E+00  0.45593999997E+02  0.45594000000E+02  0.51100000000E-03 0. -1.
         11   -1    0    0    0    0 -0.00000000000E+00 -0.00000000000E+00 -0.45593999997E+02  0.45594000000E+02  0.51100000000E-03 0.  1.
         23    2    1    2    0    0  0.17763568394E-14  0.17763568394E-14  0.35527136788E-14  0.91188000000E+02  0.91188000000E+02 0.  0.
    9900012    2    3    3    0    0  0.15362262679E+02 -0.15168933064E+02 -0.29827577885E+02  0.54367081388E+02  0.39999993641E+02 0.  0.
         12    1    3    3    0    0 -0.15362262679E+02  0.15168933064E+02  0.29827577885E+02  0.36820918612E+02  0.00000000000E+00 0. -1.
         11    1    4    4    0    0  0.30631635312E+01  0.74976788712E+00  0.61226827067E+01  0.68871159778E+01  0.51100000000E-03 0. -1.
        -11    1    4    4    0    0  0.11344642966E+02 -0.18083813709E+02 -0.14285982480E+02  0.25686855354E+02  0.51100000000E-03 0.  1.
        -12    1    4    4    0    0  0.95445618150E+00  0.21651127573E+01 -0.21664278112E+02  0.21793110057E+02  0.00000000000E+00 0.  1.
</event>
<event>
 8    1  0.2521748E-006  0.9118800E+02  0.7816164E-02  0.1184000E+00
        -11   -1    0    0    0    0  0.00000000000E+00  0.00000000000E+00  0.45593999997E+02  0.45594000000E+02  0.51100000000E-03 0.  1.
         11   -1    0    0    0    0 -0.00000000000E+00 -0.00000000000E+00 -0.45593999997E+02  0.45594000000E+02  0.51100000000E-03 0. -1.
         23    2    1    2    0    0 -0.35527136788E-14  0.11206313655E-14  0.35527136788E-14  0.91188000000E+02  0.91188000000E+02 0.  0.
    9900012    2    3    3    0    0  0.24696440311E+02  0.30251376774E-01 -0.27310481443E+02  0.54367116309E+02  0.40000073249E+02 0.  0.
        -12    1    3    3    0    0 -0.24696440311E+02 -0.30251376774E-01  0.27310481443E+02  0.36820883691E+02  0.00000000000E+00 0.  1.
         11    1    4    4    0    0  0.17077727324E+01 -0.97767623340E+01 -0.99079219290E+01  0.14023854201E+02  0.51100000000E-03 0. -1.
        -11    1    4    4    0    0  0.19824435153E+02  0.64903744131E+01  0.14799857761E+01  0.20912282212E+02  0.51100000000E-03 0.  1.
        -12    1    4    4    0    0  0.31642324252E+01  0.33166392976E+01 -0.18882545290E+02  0.19430979895E+02  0.00000000000E+00 0.  1.
</event>
<event>
 8    1  0.2521748E-006  0.9118800E+02  0.7816164E-02  0.1184000E+00
        -11   -1    0    0    0    0  0.00000000000E+00  0.00000000000E+00  0.45593999997E+02  0.45594000000E+02  0.51100000000E-03 0. -1.
         11   -1    0    0    0    0 -0.00000000000E+00 -0.00000000000E+00 -0.45593999997E+02  0.45594000000E+02  0.51100000000E-03 0.  1.
         23    2    1    2    0    0 -0.71054273576E-14 -0.88817841970E-15 -0.44408920985E-15  0.91188000000E+02  0.91188000000E+02 0.  0.
    9900012    2    3    3    0    0 -0.36016338920E+02 -0.67741819241E+01  0.35652442283E+01  0.54367120375E+02  0.40000082518E+02 0.  0.
        -12    1    3    3    0    0  0.36016338920E+02  0.67741819241E+01 -0.35652442283E+01  0.36820879625E+02  0.00000000000E+00 0.  1.
         11    1    4    4    0    0 -0.25345411594E+01  0.29535273460E+00  0.14738687614E+02  0.14957942538E+02  0.51100000000E-03 0. -1.
        -11    1    4    4    0    0 -0.12402403278E+02  0.50504172955E+01 -0.52432462654E+01  0.14381166628E+02  0.51100000000E-03 0.  1.
         12    1    4    4    0    0 -0.21079394483E+02 -0.12119951954E+02 -0.59301971207E+01  0.25028011208E+02  0.00000000000E+00 0. -1.
</event>
<event>
 8    1  0.2521748E-006  0.9118800E+02  0.7816164E-02  0.1184000E+00
        -11   -1    0    0    0    0  0.00000000000E+00  0.00000000000E+00  0.45593999997E+02  0.45594000000E+02  0.51100000000E-03 0.  1.
         11   -1    0    0    0    0 -0.00000000000E+00 -0.00000000000E+00 -0.45593999997E+02  0.45594000000E+02  0.51100000000E-03 0. -1.
         23    2    1    2    0    0  0.00000000000E+00  0.88817841970E-15  0.00000000000E+00  0.91188000000E+02  0.91188000000E+02 0.  0.
    9900012    2    3    3    0    0  0.17779494630E+02 -0.29346526318E+01 -0.32110121256E+02  0.54367048051E+02  0.39999917642E+02 0.  0.
        -12    1    3    3    0    0 -0.17779494630E+02  0.29346526318E+01  0.32110121256E+02  0.36820951949E+02  0.00000000000E+00 0.  1.
         11    1    4    4    0    0 -0.62470392933E+01  0.12681325681E+01  0.18821412994E+01  0.66465115869E+01  0.51100000000E-03 0. -1.
        -11    1    4    4    0    0  0.13229908428E+02  0.87556007147E+01 -0.21555687704E+02  0.26764504358E+02  0.51100000000E-03 0.  1.
        -12    1    4    4    0    0  0.10796625496E+02 -0.12958385915E+02 -0.12436574852E+02  0.20956032106E+02  0.00000000000E+00 0.  1.
</event>
<event>
 8    1  0.2521748E-006  0.9118800E+02  0.7816164E-02  0.1184000E+00
        -11   -1    0    0    0    0  0.00000000000E+00  0.00000000000E+00  0.45593999997E+02  0.45594000000E+02  0.51100000000E-03 0. -1.
         11   -1    0    0    0    0 -0.00000000000E+00 -0.00000000000E+00 -0.45593999997E+02  0.45594000000E+02  0.51100000000E-03 0.  1.
         23    2    1    2    0    0  0.00000000000E+00 -0.35527136788E-14 -0.88817841970E-15  0.91188000000E+02  0.91188000000E+02 0.  0.
    9900012    2    3    3    0    0 -0.22818236238E+02 -0.28556997110E+02 -0.44277957997E+01  0.54367090660E+02  0.40000014778E+02 0.  0.
         12    1    3    3    0    0  0.22818236238E+02  0.28556997110E+02  0.44277957997E+01  0.36820909340E+02  0.00000000000E+00 0. -1.
         11    1    4    4    0    0 -0.73200646873E+01  0.46567276459E+01  0.12859974215E+01  0.87705329954E+01  0.51100000000E-03 0. -1.
        -11    1    4    4    0    0 -0.38359240603E+01 -0.24607443033E+02 -0.14331820709E+02  0.28733980774E+02  0.51100000000E-03 0.  1.
         12    1    4    4    0    0 -0.11662247491E+02 -0.86062817228E+01  0.86180274876E+01  0.16862576891E+02  0.00000000000E+00 0. -1.
</event>
<event>
 8    1  0.2521748E-006  0.9118800E+02  0.7816164E-02  0.1184000E+00
        -11   -1    0    0    0    0  0.00000000000E+00  0.00000000000E+00  0.45593999997E+02  0.45594000000E+02  0.51100000000E-03 0. -1.
         11   -1    0    0    0    0 -0.00000000000E+00 -0.00000000000E+00 -0.45593999997E+02  0.45594000000E+02  0.51100000000E-03 0.  1.
         23    2    1    2    0    0  0.00000000000E+00 -0.71054273576E-14  0.35527136788E-14  0.91188000000E+02  0.91188000000E+02 0.  0.
    9900012    2    3    3    0    0 -0.10420074727E+02  0.32432413473E+02  0.13976531250E+02  0.54367043647E+02  0.39999907601E+02 0.  0.
        -12    1    3    3    0    0  0.10420074727E+02 -0.32432413473E+02 -0.13976531250E+02  0.36820956353E+02  0.00000000000E+00 0.  1.
         11    1    4    4    0    0 -0.12069149524E+01 -0.49767883945E+01  0.10750336607E+02  0.11907762336E+02  0.51100000000E-03 0. -1.
        -11    1    4    4    0    0 -0.40274429673E+01  0.15042043516E+02 -0.73034571986E+01  0.17199530729E+02  0.51100000000E-03 0.  1.
        -12    1    4    4    0    0 -0.51857168077E+01  0.22367158351E+02  0.10529651841E+02  0.25259750581E+02  0.00000000000E+00 0.  1.
</event>
<event>
 8    1  0.2521748E-006  0.9118800E+02  0.7816164E-02  0.1184000E+00
        -11   -1    0    0    0    0  0.00000000000E+00  0.00000000000E+00  0.45593999997E+02  0.45594000000E+02  0.51100000000E-03 0. -1.
         11   -1    0    0    0    0 -0.00000000000E+00 -0.00000000000E+00 -0.45593999997E+02  0.45594000000E+02  0.51100000000E-03 0.  1.
         23    2    1    2    0    0  0.71054273576E-14  0.00000000000E+00  0.13322676296E-14  0.91188000000E+02  0.91188000000E+02 0.  0.
    9900012    2    3    3    0    0  0.32073132646E+02  0.17854853893E+02 -0.28806418039E+01  0.54367085529E+02  0.40000003082E+02 0.  0.
         12    1    3    3    0    0 -0.32073132646E+02 -0.17854853893E+02  0.28806418039E+01  0.36820914471E+02  0.00000000000E+00 0. -1.
         11    1    4    4    0    0 -0.11446316224E+01  0.12931543982E+02  0.51262021779E+01  0.13957541342E+02  0.51100000000E-03 0. -1.
        -11    1    4    4    0    0  0.22135427196E+02  0.11020127466E+02 -0.11524737150E+02  0.27280760861E+02  0.51100000000E-03 0.  1.
        -12    1    4    4    0    0  0.11082337072E+02 -0.60968175548E+01  0.35178931682E+01  0.13128783326E+02  0.00000000000E+00 0.  1.
</event>
<event>
 8    1  0.2521748E-006  0.9118800E+02  0.7816164E-02  0.1184000E+00
        -11   -1    0    0    0    0  0.00000000000E+00  0.00000000000E+00  0.45593999997E+02  0.45594000000E+02  0.51100000000E-03 0.  1.
         11   -1    0    0    0    0 -0.00000000000E+00 -0.00000000000E+00 -0.45593999997E+02  0.45594000000E+02  0.51100000000E-03 0. -1.
         23    2    1    2    0    0  0.00000000000E+00  0.44408920985E-15 -0.17763568394E-14  0.91188000000E+02  0.91188000000E+02 0.  0.
    9900012    2    3    3    0    0 -0.33828367416E+02  0.13152665069E+01  0.14480747573E+02  0.54367076352E+02  0.39999982160E+02 0.  0.
         12    1    3    3    0    0  0.33828367416E+02 -0.13152665069E+01 -0.14480747573E+02  0.36820923648E+02  0.00000000000E+00 0. -1.
         11    1    4    4    0    0 -0.13090359277E+02 -0.57802718974E+01 -0.69420196493E+01  0.15904737856E+02  0.51100000000E-03 0. -1.
        -11    1    4    4    0    0 -0.56823011936E+01 -0.78296988086E+01  0.11578672084E+02  0.15088352388E+02  0.51100000000E-03 0.  1.
        -12    1    4    4    0    0 -0.15055706945E+02  0.14925237213E+02  0.98440951379E+01  0.23373986108E+02  0.00000000000E+00 0.  1.
</event>
<event>
 8    1  0.2521748E-006  0.9118800E+02  0.7816164E-02  0.1184000E+00
        -11   -1    0    0    0    0  0.00000000000E+00  0.00000000000E+00  0.45593999997E+02  0.45594000000E+02  0.51100000000E-03 0. -1.
         11   -1    0    0    0    0 -0.00000000000E+00 -0.00000000000E+00 -0.45593999997E+02  0.45594000000E+02  0.51100000000E-03 0.  1.
         23    2    1    2    0    0  0.35527136788E-14  0.35527136788E-14  0.00000000000E+00  0.91188000000E+02  0.91188000000E+02 0.  0.
    9900012    2    3    3    0    0  0.23716286050E+02  0.26864816743E+02 -0.84616805351E+01  0.54367073339E+02  0.39999975292E+02 0.  0.
         12    1    3    3    0    0 -0.23716286050E+02 -0.26864816743E+02  0.84616805351E+01  0.36820926661E+02  0.00000000000E+00 0. -1.
         11    1    4    4    0    0  0.57098095283E+00 -0.36777396813E+01  0.42369078328E+01  0.56394305259E+01  0.51100000000E-03 0. -1.
        -11    1    4    4    0    0  0.15207184894E+02 -0.26269921662E+00 -0.48202060845E+01  0.15954995150E+02  0.51100000000E-03 0.  1.
        -12    1    4    4    0    0  0.79381202037E+01  0.30805255641E+02 -0.78783822834E+01  0.32772647664E+02  0.00000000000E+00 0.  1.
</event>
<event>
 8    1  0.2521748E-006  0.9118800E+02  0.7816164E-02  0.1184000E+00
        -11   -1    0    0    0    0  0.00000000000E+00  0.00000000000E+00  0.45593999997E+02  0.45594000000E+02  0.51100000000E-03 0.  1.
         11   -1    0    0    0    0 -0.00000000000E+00 -0.00000000000E+00 -0.45593999997E+02  0.45594000000E+02  0.51100000000E-03 0. -1.
         23    2    1    2    0    0  0.00000000000E+00  0.00000000000E+00  0.00000000000E+00  0.91188000000E+02  0.91188000000E+02 0.  0.
    9900012    2    3    3    0    0  0.11200918424E+02 -0.32387236840E+02  0.13468044079E+02  0.54367056300E+02  0.39999936447E+02 0.  0.
         12    1    3    3    0    0 -0.11200918424E+02  0.32387236840E+02 -0.13468044079E+02  0.36820943700E+02  0.00000000000E+00 0. -1.
         11    1    4    4    0    0 -0.87690710752E+01 -0.10761065714E+02 -0.48985493819E+01  0.14720493509E+02  0.51100000000E-03 0. -1.
        -11    1    4    4    0    0  0.19432336340E+02 -0.23983842546E+02  0.19952081147E+02  0.36754944447E+02  0.51100000000E-03 0.  1.
         12    1    4    4    0    0  0.53765315909E+00  0.23576714209E+01 -0.15854876864E+01  0.28916183448E+01  0.00000000000E+00 0. -1.
</event>
<event>
 8    1  0.2521748E-006  0.9118800E+02  0.7816164E-02  0.1184000E+00
        -11   -1    0    0    0    0  0.00000000000E+00  0.00000000000E+00  0.45593999997E+02  0.45594000000E+02  0.51100000000E-03 0.  1.
         11   -1    0    0    0    0 -0.00000000000E+00 -0.00000000000E+00 -0.45593999997E+02  0.45594000000E+02  0.51100000000E-03 0. -1.
         23    2    1    2    0    0  0.17763568394E-14  0.00000000000E+00  0.00000000000E+00  0.91188000000E+02  0.91188000000E+02 0.  0.
    9900012    2    3    3    0    0 -0.89250108405E+01  0.74549497125E+01 -0.34936152246E+02  0.54367260905E+02  0.40000402883E+02 0.  0.
        -12    1    3    3    0    0  0.89250108405E+01 -0.74549497125E+01  0.34936152246E+02  0.36820739095E+02  0.00000000000E+00 0.  1.
         11    1    4    4    0    0 -0.57565051197E+01 -0.81738108082E+01 -0.13712573306E+02  0.16970067804E+02  0.51100000000E-03 0. -1.
        -11    1    4    4    0    0  0.16675026335E+01 -0.44754759471E+01 -0.15091787341E+02  0.15829481842E+02  0.51100000000E-03 0.  1.
        -12    1    4    4    0    0 -0.48360083543E+01  0.20104236468E+02 -0.61317915997E+01  0.21567711260E+02  0.00000000000E+00 0.  1.
</event>
<event>
 8    1  0.2521748E-006  0.9118800E+02  0.7816164E-02  0.1184000E+00
        -11   -1    0    0    0    0  0.00000000000E+00  0.00000000000E+00  0.45593999997E+02  0.45594000000E+02  0.51100000000E-03 0. -1.
         11   -1    0    0    0    0 -0.00000000000E+00 -0.00000000000E+00 -0.45593999997E+02  0.45594000000E+02  0.51100000000E-03 0.  1.
         23    2    1    2    0    0  0.00000000000E+00  0.88817841970E-15  0.00000000000E+00  0.91188000000E+02  0.91188000000E+02 0.  0.
    9900012    2    3    3    0    0  0.32862696607E+02 -0.29421730965E+01 -0.16345221372E+02  0.54367089195E+02  0.40000011439E+02 0.  0.
        -12    1    3    3    0    0 -0.32862696607E+02  0.29421730965E+01  0.16345221372E+02  0.36820910805E+02  0.00000000000E+00 0.  1.
         11    1    4    4    0    0  0.30154893947E+02  0.19699919798E+01 -0.25410049993E+02  0.39482516868E+02  0.51100000000E-03 0. -1.
        -11    1    4    4    0    0  0.34259418425E+01 -0.89216689276E+00  0.10074118013E+02  0.10678056624E+02  0.51100000000E-03 0.  1.
        -12    1    4    4    0    0 -0.71813918258E+00 -0.40199981834E+01 -0.10092893922E+01  0.42065157028E+01  0.00000000000E+00 0.  1.
</event>
<event>
 8    1  0.2521748E-006  0.9118800E+02  0.7816164E-02  0.1184000E+00
        -11   -1    0    0    0    0  0.00000000000E+00  0.00000000000E+00  0.45593999997E+02  0.45594000000E+02  0.51100000000E-03 0.  1.
         11   -1    0    0    0    0 -0.00000000000E+00 -0.00000000000E+00 -0.45593999997E+02  0.45594000000E+02  0.51100000000E-03 0. -1.
         23    2    1    2    0    0  0.00000000000E+00  0.00000000000E+00  0.00000000000E+00  0.91188000000E+02  0.91188000000E+02 0.  0.
    9900012    2    3    3    0    0 -0.29088715789E+02  0.19328173305E+02  0.11663973220E+02  0.54367082835E+02  0.39999996940E+02 0.  0.
         12    1    3    3    0    0  0.29088715789E+02 -0.19328173305E+02 -0.11663973220E+02  0.36820917165E+02  0.00000000000E+00 0. -1.
         11    1    4    4    0    0 -0.18294769939E+02  0.81908345201E+01  0.23894188242E+01  0.20186572266E+02  0.51100000000E-03 0. -1.
        -11    1    4    4    0    0 -0.19276404600E+02  0.47437199117E+01  0.12023015318E+02  0.23208523230E+02  0.51100000000E-03 0.  1.
        -12    1    4    4    0    0  0.84824587500E+01  0.63936188734E+01 -0.27484609221E+01  0.10971987340E+02  0.00000000000E+00 0.  1.
</event>
<event>
 8    1  0.2521748E-006  0.9118800E+02  0.7816164E-02  0.1184000E+00
        -11   -1    0    0    0    0  0.00000000000E+00  0.00000000000E+00  0.45593999997E+02  0.45594000000E+02  0.51100000000E-03 0.  1.
         11   -1    0    0    0    0 -0.00000000000E+00 -0.00000000000E+00 -0.45593999997E+02  0.45594000000E+02  0.51100000000E-03 0. -1.
         23    2    1    2    0    0  0.00000000000E+00  0.35527136788E-14 -0.44408920985E-15  0.91188000000E+02  0.91188000000E+02 0.  0.
    9900012    2    3    3    0    0 -0.30103844644E+02 -0.20912396036E+02 -0.34944570971E+01  0.54367068443E+02  0.39999964129E+02 0.  0.
        -12    1    3    3    0    0  0.30103844644E+02  0.20912396036E+02  0.34944570971E+01  0.36820931557E+02  0.00000000000E+00 0.  1.
         11    1    4    4    0    0 -0.26932519262E+02 -0.21786681953E+02 -0.30544009273E+01  0.34775702288E+02  0.51100000000E-03 0. -1.
        -11    1    4    4    0    0  0.91007439915E+00 -0.84372728835E+01 -0.31790354145E+01  0.90621231259E+01  0.51100000000E-03 0.  1.
        -12    1    4    4    0    0 -0.40813997813E+01  0.93115588004E+01  0.27389792446E+01  0.10529243029E+02  0.00000000000E+00 0.  1.
</event>
<event>
 8    1  0.2521748E-006  0.9118800E+02  0.7816164E-02  0.1184000E+00
        -11   -1    0    0    0    0  0.00000000000E+00  0.00000000000E+00  0.45593999997E+02  0.45594000000E+02  0.51100000000E-03 0.  1.
         11   -1    0    0    0    0 -0.00000000000E+00 -0.00000000000E+00 -0.45593999997E+02  0.45594000000E+02  0.51100000000E-03 0. -1.
         23    2    1    2    0    0  0.00000000000E+00 -0.35527136788E-14 -0.17763568394E-14  0.91188000000E+02  0.91188000000E+02 0.  0.
    9900012    2    3    3    0    0  0.32673731672E+02  0.14256319835E+02  0.92176065230E+01  0.54367086559E+02  0.40000005428E+02 0.  0.
         12    1    3    3    0    0 -0.32673731672E+02 -0.14256319835E+02 -0.92176065230E+01  0.36820913441E+02  0.00000000000E+00 0. -1.
         11    1    4    4    0    0  0.64335866564E+01 -0.96196788955E+01 -0.20647504241E+01  0.11755528652E+02  0.51100000000E-03 0. -1.
        -11    1    4    4    0    0 -0.34749067724E+01  0.11690083669E+01  0.14524665946E+01  0.39435031518E+01  0.51100000000E-03 0.  1.
         12    1    4    4    0    0  0.29715051788E+02  0.22706990364E+02  0.98298903525E+01  0.38668054755E+02  0.00000000000E+00 0. -1.
</event>
<event>
 8    1  0.2521748E-006  0.9118800E+02  0.7816164E-02  0.1184000E+00
        -11   -1    0    0    0    0  0.00000000000E+00  0.00000000000E+00  0.45593999997E+02  0.45594000000E+02  0.51100000000E-03 0.  1.
         11   -1    0    0    0    0 -0.00000000000E+00 -0.00000000000E+00 -0.45593999997E+02  0.45594000000E+02  0.51100000000E-03 0. -1.
         23    2    1    2    0    0  0.00000000000E+00  0.00000000000E+00 -0.35527136788E-14  0.91188000000E+02  0.91188000000E+02 0.  0.
    9900012    2    3    3    0    0  0.11879901388E+02  0.22896100361E+02  0.26275801636E+02  0.54367065461E+02  0.39999957331E+02 0.  0.
         12    1    3    3    0    0 -0.11879901388E+02 -0.22896100361E+02 -0.26275801636E+02  0.36820934539E+02  0.00000000000E+00 0. -1.
         11    1    4    4    0    0 -0.10629586277E+02  0.52733730318E+01  0.31628213174E-01  0.11865815107E+02  0.51100000000E-03 0. -1.
        -11    1    4    4    0    0  0.13317767186E+02  0.10163675033E+02  0.38784422741E+01  0.17196090478E+02  0.51100000000E-03 0.  1.
         12    1    4    4    0    0  0.91917204786E+01  0.74590522966E+01  0.22365731149E+02  0.25305159876E+02  0.00000000000E+00 0. -1.
</event>
<event>
 8    1  0.2521748E-006  0.9118800E+02  0.7816164E-02  0.1184000E+00
        -11   -1    0    0    0    0  0.00000000000E+00  0.00000000000E+00  0.45593999997E+02  0.45594000000E+02  0.51100000000E-03 0. -1.
         11   -1    0    0    0    0 -0.00000000000E+00 -0.00000000000E+00 -0.45593999997E+02  0.45594000000E+02  0.51100000000E-03 0.  1.
         23    2    1    2    0    0  0.35527136788E-14 -0.35527136788E-14  0.88817841970E-15  0.91188000000E+02  0.91188000000E+02 0.  0.
    9900012    2    3    3    0    0  0.30131663938E+02 -0.20985109632E+02  0.27364318758E+01  0.54367081253E+02  0.39999993333E+02 0.  0.
         12    1    3    3    0    0 -0.30131663938E+02  0.20985109632E+02 -0.27364318758E+01  0.36820918747E+02  0.00000000000E+00 0. -1.
         11    1    4    4    0    0  0.61041856428E-01  0.46251569655E+01  0.26369309167E+01  0.53243974292E+01  0.51100000000E-03 0. -1.
        -11    1    4    4    0    0  0.21716713606E+02 -0.23576252119E+02 -0.11976721162E+02  0.34218374652E+02  0.51100000000E-03 0.  1.
        -12    1    4    4    0    0  0.83539084755E+01 -0.20340144788E+01  0.12076222121E+02  0.14824309172E+02  0.00000000000E+00 0.  1.
</event>
<event>
 8    1  0.2521748E-006  0.9118800E+02  0.7816164E-02  0.1184000E+00
        -11   -1    0    0    0    0  0.00000000000E+00  0.00000000000E+00  0.45593999997E+02  0.45594000000E+02  0.51100000000E-03 0. -1.
         11   -1    0    0    0    0 -0.00000000000E+00 -0.00000000000E+00 -0.45593999997E+02  0.45594000000E+02  0.51100000000E-03 0.  1.
         23    2    1    2    0    0  0.00000000000E+00  0.00000000000E+00 -0.88817841970E-15  0.91188000000E+02  0.91188000000E+02 0.  0.
    9900012    2    3    3    0    0  0.31805443483E+02 -0.17685754521E+02  0.56043407468E+01  0.54367071395E+02  0.39999970859E+02 0.  0.
        -12    1    3    3    0    0 -0.31805443483E+02  0.17685754521E+02 -0.56043407468E+01  0.36820928605E+02  0.00000000000E+00 0.  1.
         11    1    4    4    0    0  0.60445074259E+01  0.80714104988E+01  0.35544113757E+01  0.10691939859E+02  0.51100000000E-03 0. -1.
        -11    1    4    4    0    0 -0.18019623316E+01 -0.11875144527E+02  0.42366841079E+01  0.12736389531E+02  0.51100000000E-03 0.  1.
         12    1    4    4    0    0  0.27562898389E+02 -0.13882020492E+02 -0.21867547368E+01  0.30938742005E+02  0.00000000000E+00 0. -1.
</event>
<event>
 8    1  0.2521748E-006  0.9118800E+02  0.7816164E-02  0.1184000E+00
        -11   -1    0    0    0    0  0.00000000000E+00  0.00000000000E+00  0.45593999997E+02  0.45594000000E+02  0.51100000000E-03 0. -1.
         11   -1    0    0    0    0 -0.00000000000E+00 -0.00000000000E+00 -0.45593999997E+02  0.45594000000E+02  0.51100000000E-03 0.  1.
         23    2    1    2    0    0 -0.44408920985E-15 -0.71054273576E-14 -0.35527136788E-14  0.91188000000E+02  0.91188000000E+02 0.  0.
    9900012    2    3    3    0    0  0.31757425650E+00 -0.29503789122E+02 -0.22027377713E+02  0.54367084817E+02  0.40000001457E+02 0.  0.
         12    1    3    3    0    0 -0.31757425650E+00  0.29503789122E+02  0.22027377713E+02  0.36820915183E+02  0.00000000000E+00 0. -1.
         11    1    4    4    0    0  0.14979339663E+02 -0.14149502753E+02  0.20616025915E+00  0.20606589898E+02  0.51100000000E-03 0. -1.
        -11    1    4    4    0    0 -0.13578192577E+01 -0.70083892027E+01 -0.14700688555E+02  0.16342320417E+02  0.51100000000E-03 0.  1.
        -12    1    4    4    0    0 -0.13303946149E+02 -0.83458971668E+01 -0.75328494178E+01  0.17418174503E+02  0.00000000000E+00 0.  1.
</event>
<event>
 8    1  0.2521748E-006  0.9118800E+02  0.7816164E-02  0.1184000E+00
        -11   -1    0    0    0    0  0.00000000000E+00  0.00000000000E+00  0.45593999997E+02  0.45594000000E+02  0.51100000000E-03 0.  1.
         11   -1    0    0    0    0 -0.00000000000E+00 -0.00000000000E+00 -0.45593999997E+02  0.45594000000E+02  0.51100000000E-03 0. -1.
         23    2    1    2    0    0  0.35527136788E-14  0.00000000000E+00  0.35527136788E-14  0.91188000000E+02  0.91188000000E+02 0.  0.
    9900012    2    3    3    0    0 -0.22431366904E+02  0.12547896181E+02 -0.26365962760E+02  0.54367083228E+02  0.39999997834E+02 0.  0.
        -12    1    3    3    0    0  0.22431366904E+02 -0.12547896181E+02  0.26365962760E+02  0.36820916772E+02  0.00000000000E+00 0.  1.
         11    1    4    4    0    0 -0.82074627911E+01 -0.24226424838E+01 -0.73193468565E+00  0.85887933213E+01  0.51100000000E-03 0. -1.
        -11    1    4    4    0    0 -0.72038079120E+01 -0.97412805132E+01 -0.99648218313E+01  0.15687098803E+02  0.51100000000E-03 0.  1.
        -12    1    4    4    0    0 -0.70200962005E+01  0.24711819178E+02 -0.15669206243E+02  0.30091191103E+02  0.00000000000E+00 0.  1.
</event>
<event>
 8    1  0.2521748E-006  0.9118800E+02  0.7816164E-02  0.1184000E+00
        -11   -1    0    0    0    0  0.00000000000E+00  0.00000000000E+00  0.45593999997E+02  0.45594000000E+02  0.51100000000E-03 0.  1.
         11   -1    0    0    0    0 -0.00000000000E+00 -0.00000000000E+00 -0.45593999997E+02  0.45594000000E+02  0.51100000000E-03 0. -1.
         23    2    1    2    0    0 -0.88817841970E-15  0.00000000000E+00 -0.33306690739E-15  0.91188000000E+02  0.91188000000E+02 0.  0.
    9900012    2    3    3    0    0 -0.74582952289E+01 -0.36046790183E+02 -0.88480384578E+00  0.54367080293E+02  0.39999991143E+02 0.  0.
         12    1    3    3    0    0  0.74582952289E+01  0.36046790183E+02  0.88480384578E+00  0.36820919707E+02  0.00000000000E+00 0. -1.
         11    1    4    4    0    0 -0.57263071138E+00  0.52035739626E+01  0.14238715123E+01  0.54251726480E+01  0.51100000000E-03 0. -1.
        -11    1    4    4    0    0 -0.68721939028E+01 -0.65332518061E+01  0.83404122360E+01  0.12628258183E+02  0.51100000000E-03 0.  1.
         12    1    4    4    0    0 -0.13470614714E-01 -0.34717112340E+02 -0.10649087594E+02  0.36313649462E+02  0.00000000000E+00 0. -1.
</event>
<event>
 8    1  0.2521748E-006  0.9118800E+02  0.7816164E-02  0.1184000E+00
        -11   -1    0    0    0    0  0.00000000000E+00  0.00000000000E+00  0.45593999997E+02  0.45594000000E+02  0.51100000000E-03 0.  1.
         11   -1    0    0    0    0 -0.00000000000E+00 -0.00000000000E+00 -0.45593999997E+02  0.45594000000E+02  0.51100000000E-03 0. -1.
         23    2    1    2    0    0  0.00000000000E+00  0.00000000000E+00  0.00000000000E+00  0.91188000000E+02  0.91188000000E+02 0.  0.
    9900012    2    3    3    0    0 -0.15148303024E+02 -0.33281966014E+02 -0.43147639989E+01  0.54367115509E+02  0.40000071427E+02 0.  0.
         12    1    3    3    0    0  0.15148303024E+02  0.33281966014E+02  0.43147639989E+01  0.36820884491E+02  0.00000000000E+00 0. -1.
         11    1    4    4    0    0 -0.53265200079E+01  0.76190877955E+01 -0.10537181086E+01  0.93558877903E+01  0.51100000000E-03 0. -1.
        -11    1    4    4    0    0 -0.93551623991E+01 -0.33889455279E+02 -0.85910129394E+01  0.36191431945E+02  0.51100000000E-03 0.  1.
        -12    1    4    4    0    0 -0.46662061722E+00 -0.70115985309E+01  0.53299670490E+01  0.88197957744E+01  0.00000000000E+00 0.  1.
</event>
<event>
 8    1  0.2521748E-006  0.9118800E+02  0.7816164E-02  0.1184000E+00
        -11   -1    0    0    0    0  0.00000000000E+00  0.00000000000E+00  0.45593999997E+02  0.45594000000E+02  0.51100000000E-03 0.  1.
         11   -1    0    0    0    0 -0.00000000000E+00 -0.00000000000E+00 -0.45593999997E+02  0.45594000000E+02  0.51100000000E-03 0. -1.
         23    2    1    2    0    0 -0.35527136788E-14 -0.35527136788E-14 -0.17763568394E-14  0.91188000000E+02  0.91188000000E+02 0.  0.
    9900012    2    3    3    0    0  0.26952867046E+02  0.22365909777E+02  0.11361715982E+02  0.54367088113E+02  0.40000008971E+02 0.  0.
        -12    1    3    3    0    0 -0.26952867046E+02 -0.22365909777E+02 -0.11361715982E+02  0.36820911887E+02  0.00000000000E+00 0.  1.
         11    1    4    4    0    0  0.30056615477E+01  0.12940421097E+02  0.21956747423E+01  0.13465121141E+02  0.51100000000E-03 0. -1.
        -11    1    4    4    0    0 -0.47020425240E+01  0.10092129773E+02  0.14764655750E+01  0.11231217125E+02  0.51100000000E-03 0.  1.
        -12    1    4    4    0    0  0.28649248022E+02 -0.66664109305E+00  0.76895756643E+01  0.29670749847E+02  0.00000000000E+00 0.  1.
</event>
<event>
 8    1  0.2521748E-006  0.9118800E+02  0.7816164E-02  0.1184000E+00
        -11   -1    0    0    0    0  0.00000000000E+00  0.00000000000E+00  0.45593999997E+02  0.45594000000E+02  0.51100000000E-03 0. -1.
         11   -1    0    0    0    0 -0.00000000000E+00 -0.00000000000E+00 -0.45593999997E+02  0.45594000000E+02  0.51100000000E-03 0.  1.
         23    2    1    2    0    0  0.00000000000E+00  0.72164496601E-15  0.00000000000E+00  0.91188000000E+02  0.91188000000E+02 0.  0.
    9900012    2    3    3    0    0  0.18296465727E+02 -0.19518647427E+00  0.31952792330E+02  0.54367086193E+02  0.40000004595E+02 0.  0.
        -12    1    3    3    0    0 -0.18296465727E+02  0.19518647427E+00 -0.31952792330E+02  0.36820913807E+02  0.00000000000E+00 0.  1.
         11    1    4    4    0    0  0.83291861786E+01 -0.92903921869E+01  0.19377803901E+02  0.23047473043E+02  0.51100000000E-03 0. -1.
        -11    1    4    4    0    0 -0.34791225457E+01 -0.44662036805E+01 -0.32407663335E+01  0.65233301077E+01  0.51100000000E-03 0.  1.
        -12    1    4    4    0    0  0.13446402094E+02  0.13561409393E+02  0.15815754762E+02  0.24796283042E+02  0.00000000000E+00 0.  1.
</event>
<event>
 8    1  0.2521748E-006  0.9118800E+02  0.7816164E-02  0.1184000E+00
        -11   -1    0    0    0    0  0.00000000000E+00  0.00000000000E+00  0.45593999997E+02  0.45594000000E+02  0.51100000000E-03 0. -1.
         11   -1    0    0    0    0 -0.00000000000E+00 -0.00000000000E+00 -0.45593999997E+02  0.45594000000E+02  0.51100000000E-03 0.  1.
         23    2    1    2    0    0  0.00000000000E+00  0.00000000000E+00 -0.17763568394E-14  0.91188000000E+02  0.91188000000E+02 0.  0.
    9900012    2    3    3    0    0  0.30897704545E+02 -0.17382548659E+02  0.99477724473E+01  0.54367091257E+02  0.40000016138E+02 0.  0.
         12    1    3    3    0    0 -0.30897704545E+02  0.17382548659E+02 -0.99477724473E+01  0.36820908743E+02  0.00000000000E+00 0. -1.
         11    1    4    4    0    0  0.53657273060E+01  0.53950415863E+00 -0.96552705782E+01  0.11059219885E+02  0.51100000000E-03 0.  1.
        -11    1    4    4    0    0  0.18766610888E+02 -0.22563523497E+02  0.10794076493E+02  0.31269959456E+02  0.51100000000E-03 0. -1.
         12    1    4    4    0    0  0.67653663507E+01  0.46414706793E+01  0.88089665326E+01  0.12037911916E+02  0.00000000000E+00 0. -1.
</event>
<event>
 8    1  0.2521748E-006  0.9118800E+02  0.7816164E-02  0.1184000E+00
        -11   -1    0    0    0    0  0.00000000000E+00  0.00000000000E+00  0.45593999997E+02  0.45594000000E+02  0.51100000000E-03 0.  1.
         11   -1    0    0    0    0 -0.00000000000E+00 -0.00000000000E+00 -0.45593999997E+02  0.45594000000E+02  0.51100000000E-03 0. -1.
         23    2    1    2    0    0  0.00000000000E+00  0.00000000000E+00  0.00000000000E+00  0.91188000000E+02  0.91188000000E+02 0.  0.
    9900012    2    3    3    0    0  0.63498470435E+01  0.14140820773E+02 -0.33399034513E+02  0.54367097295E+02  0.40000029903E+02 0.  0.
        -12    1    3    3    0    0 -0.63498470435E+01 -0.14140820773E+02  0.33399034513E+02  0.36820902705E+02  0.00000000000E+00 0.  1.
         11    1    4    4    0    0  0.69366188535E+00 -0.48525219879E+01 -0.14132508270E+02  0.14958473408E+02  0.51100000000E-03 0.  1.
        -11    1    4    4    0    0 -0.10664978314E+02  0.71310179928E+01 -0.13040212000E+02  0.18293176578E+02  0.51100000000E-03 0. -1.
         12    1    4    4    0    0  0.16321163472E+02  0.11862324768E+02 -0.62263142437E+01  0.21115447308E+02  0.00000000000E+00 0. -1.
</event>
<event>
 8    1  0.2521748E-006  0.9118800E+02  0.7816164E-02  0.1184000E+00
        -11   -1    0    0    0    0  0.00000000000E+00  0.00000000000E+00  0.45593999997E+02  0.45594000000E+02  0.51100000000E-03 0.  1.
         11   -1    0    0    0    0 -0.00000000000E+00 -0.00000000000E+00 -0.45593999997E+02  0.45594000000E+02  0.51100000000E-03 0. -1.
         23    2    1    2    0    0  0.13322676296E-14  0.00000000000E+00  0.00000000000E+00  0.91188000000E+02  0.91188000000E+02 0.  0.
    9900012    2    3    3    0    0 -0.36871474281E+01  0.33815041987E+02  0.14097116813E+02  0.54367070854E+02  0.39999969625E+02 0.  0.
         12    1    3    3    0    0  0.36871474281E+01 -0.33815041987E+02 -0.14097116813E+02  0.36820929146E+02  0.00000000000E+00 0. -1.
         11    1    4    4    0    0  0.80578957008E+01  0.51841642665E+01 -0.64631461936E+01  0.11557573329E+02  0.51100000000E-03 0. -1.
        -11    1    4    4    0    0  0.66172489781E-01 -0.32274793319E+01  0.28076135847E+00  0.32403439382E+01  0.51100000000E-03 0.  1.
        -12    1    4    4    0    0 -0.11811215619E+02  0.31858357053E+02  0.20279501648E+02  0.39569153587E+02  0.00000000000E+00 0.  1.
</event>
<event>
 8    1  0.2521748E-006  0.9118800E+02  0.7816164E-02  0.1184000E+00
        -11   -1    0    0    0    0  0.00000000000E+00  0.00000000000E+00  0.45593999997E+02  0.45594000000E+02  0.51100000000E-03 0. -1.
         11   -1    0    0    0    0 -0.00000000000E+00 -0.00000000000E+00 -0.45593999997E+02  0.45594000000E+02  0.51100000000E-03 0.  1.
         23    2    1    2    0    0 -0.35527136788E-14  0.00000000000E+00  0.00000000000E+00  0.91188000000E+02  0.91188000000E+02 0.  0.
    9900012    2    3    3    0    0  0.21745205973E+02 -0.25719821000E+02  0.14880140090E+02  0.54367058348E+02  0.39999941115E+02 0.  0.
        -12    1    3    3    0    0 -0.21745205973E+02  0.25719821000E+02 -0.14880140090E+02  0.36820941652E+02  0.00000000000E+00 0.  1.
         11    1    4    4    0    0  0.11269646376E+01 -0.14154997290E+02  0.24323405167E+02  0.28164907896E+02  0.51100000000E-03 0. -1.
        -11    1    4    4    0    0  0.98253428288E+01 -0.86595633022E+01 -0.66161570079E+01  0.14673068258E+02  0.51100000000E-03 0.  1.
         12    1    4    4    0    0  0.10792898506E+02 -0.29052604080E+01 -0.28271080694E+01  0.11529082194E+02  0.00000000000E+00 0. -1.
</event>
<event>
 8    1  0.2521748E-006  0.9118800E+02  0.7816164E-02  0.1184000E+00
        -11   -1    0    0    0    0  0.00000000000E+00  0.00000000000E+00  0.45593999997E+02  0.45594000000E+02  0.51100000000E-03 0.  1.
         11   -1    0    0    0    0 -0.00000000000E+00 -0.00000000000E+00 -0.45593999997E+02  0.45594000000E+02  0.51100000000E-03 0. -1.
         23    2    1    2    0    0  0.17763568394E-14 -0.17763568394E-14  0.71054273576E-14  0.91188000000E+02  0.91188000000E+02 0.  0.
    9900012    2    3    3    0    0  0.91270112653E+01 -0.12859127009E+02  0.33273431374E+02  0.54367072289E+02  0.39999972897E+02 0.  0.
         12    1    3    3    0    0 -0.91270112653E+01  0.12859127009E+02 -0.33273431374E+02  0.36820927711E+02  0.00000000000E+00 0. -1.
         11    1    4    4    0    0 -0.48356957183E+01 -0.13156531135E+01  0.13284824695E+02  0.14198643021E+02  0.51100000000E-03 0. -1.
        -11    1    4    4    0    0  0.14303664110E+02  0.42319477476E+01  0.27703411943E+00  0.14919146653E+02  0.51100000000E-03 0.  1.
         12    1    4    4    0    0 -0.34095712602E+00 -0.15775421643E+02  0.19711572560E+02  0.25249282615E+02  0.00000000000E+00 0. -1.
</event>
<event>
 8    1  0.2521748E-006  0.9118800E+02  0.7816164E-02  0.1184000E+00
        -11   -1    0    0    0    0  0.00000000000E+00  0.00000000000E+00  0.45593999997E+02  0.45594000000E+02  0.51100000000E-03 0. -1.
         11   -1    0    0    0    0 -0.00000000000E+00 -0.00000000000E+00 -0.45593999997E+02  0.45594000000E+02  0.51100000000E-03 0.  1.
         23    2    1    2    0    0 -0.17763568394E-14  0.00000000000E+00  0.00000000000E+00  0.91188000000E+02  0.91188000000E+02 0.  0.
    9900012    2    3    3    0    0 -0.12497466478E+02 -0.10536060445E+02  0.32993704205E+02  0.54367085356E+02  0.40000002685E+02 0.  0.
        -12    1    3    3    0    0  0.12497466478E+02  0.10536060445E+02 -0.32993704205E+02  0.36820914644E+02  0.00000000000E+00 0.  1.
         11    1    4    4    0    0 -0.10388571782E+02 -0.83844110356E+01  0.26487086558E+02  0.29661195638E+02  0.51100000000E-03 0. -1.
        -11    1    4    4    0    0 -0.81158048286E+01 -0.98612017040E+01 -0.33489135676E+00  0.12775826374E+02  0.51100000000E-03 0.  1.
        -12    1    4    4    0    0  0.60069101322E+01  0.77095522949E+01  0.68415090038E+01  0.11930063343E+02  0.00000000000E+00 0.  1.
</event>
<event>
 8    1  0.2521748E-006  0.9118800E+02  0.7816164E-02  0.1184000E+00
        -11   -1    0    0    0    0  0.00000000000E+00  0.00000000000E+00  0.45593999997E+02  0.45594000000E+02  0.51100000000E-03 0. -1.
         11   -1    0    0    0    0 -0.00000000000E+00 -0.00000000000E+00 -0.45593999997E+02  0.45594000000E+02  0.51100000000E-03 0.  1.
         23    2    1    2    0    0  0.00000000000E+00  0.00000000000E+00  0.35527136788E-14  0.91188000000E+02  0.91188000000E+02 0.  0.
    9900012    2    3    3    0    0 -0.29769844238E+02  0.88627343421E+01 -0.19773423519E+02  0.54367082526E+02  0.39999996234E+02 0.  0.
         12    1    3    3    0    0  0.29769844238E+02 -0.88627343421E+01  0.19773423519E+02  0.36820917474E+02  0.00000000000E+00 0. -1.
         11    1    4    4    0    0 -0.24746946411E+02  0.14741128186E+02 -0.52312989588E+01  0.29275906577E+02  0.51100000000E-03 0. -1.
        -11    1    4    4    0    0 -0.76532486308E+01  0.49368775867E+01 -0.83410389480E+01  0.12349814003E+02  0.51100000000E-03 0.  1.
         12    1    4    4    0    0  0.26303508040E+01 -0.10815271430E+02 -0.62010856123E+01  0.12741361946E+02  0.00000000000E+00 0. -1.
</event>
<event>
 8    1  0.2521748E-006  0.9118800E+02  0.7816164E-02  0.1184000E+00
        -11   -1    0    0    0    0  0.00000000000E+00  0.00000000000E+00  0.45593999997E+02  0.45594000000E+02  0.51100000000E-03 0. -1.
         11   -1    0    0    0    0 -0.00000000000E+00 -0.00000000000E+00 -0.45593999997E+02  0.45594000000E+02  0.51100000000E-03 0.  1.
         23    2    1    2    0    0  0.00000000000E+00  0.00000000000E+00 -0.35527136788E-14  0.91188000000E+02  0.91188000000E+02 0.  0.
    9900012    2    3    3    0    0  0.16122164829E+02  0.26938518031E+02  0.19239859664E+02  0.54367079963E+02  0.39999990392E+02 0.  0.
        -12    1    3    3    0    0 -0.16122164829E+02 -0.26938518031E+02 -0.19239859664E+02  0.36820920037E+02  0.00000000000E+00 0.  1.
         11    1    4    4    0    0 -0.68579105538E+01  0.10594760917E+02  0.38075958335E+01  0.13182476336E+02  0.51100000000E-03 0. -1.
        -11    1    4    4    0    0  0.11600592538E+02  0.46143850466E+01 -0.63073964888E+01  0.13987478233E+02  0.51100000000E-03 0.  1.
        -12    1    4    4    0    0  0.11379482846E+02  0.11729372067E+02  0.21739660319E+02  0.27197125394E+02  0.00000000000E+00 0.  1.
</event>
<event>
 8    1  0.2521748E-006  0.9118800E+02  0.7816164E-02  0.1184000E+00
        -11   -1    0    0    0    0  0.00000000000E+00  0.00000000000E+00  0.45593999997E+02  0.45594000000E+02  0.51100000000E-03 0. -1.
         11   -1    0    0    0    0 -0.00000000000E+00 -0.00000000000E+00 -0.45593999997E+02  0.45594000000E+02  0.51100000000E-03 0.  1.
         23    2    1    2    0    0 -0.17763568394E-14  0.00000000000E+00  0.53290705182E-14  0.91188000000E+02  0.91188000000E+02 0.  0.
    9900012    2    3    3    0    0  0.13100570130E+02  0.33178631894E+02 -0.91286908658E+01  0.54367088156E+02  0.40000009070E+02 0.  0.
         12    1    3    3    0    0 -0.13100570130E+02 -0.33178631894E+02  0.91286908658E+01  0.36820911844E+02  0.00000000000E+00 0. -1.
         11    1    4    4    0    0 -0.56152150894E+00  0.10387004491E+01  0.16224380067E+01  0.20066166487E+01  0.51100000000E-03 0. -1.
        -11    1    4    4    0    0  0.12534123412E+02  0.18057858075E+02  0.12401140485E+02  0.25238438414E+02  0.51100000000E-03 0.  1.
        -12    1    4    4    0    0  0.11279682273E+01  0.14082073370E+02 -0.23152269358E+02  0.27122033094E+02  0.00000000000E+00 0.  1.
</event>
<event>
 8    1  0.2521748E-006  0.9118800E+02  0.7816164E-02  0.1184000E+00
        -11   -1    0    0    0    0  0.00000000000E+00  0.00000000000E+00  0.45593999997E+02  0.45594000000E+02  0.51100000000E-03 0.  1.
         11   -1    0    0    0    0 -0.00000000000E+00 -0.00000000000E+00 -0.45593999997E+02  0.45594000000E+02  0.51100000000E-03 0. -1.
         23    2    1    2    0    0 -0.13322676296E-14  0.88817841970E-15  0.00000000000E+00  0.91188000000E+02  0.91188000000E+02 0.  0.
    9900012    2    3    3    0    0  0.34610286642E+01 -0.51237963835E+01  0.36298059759E+02  0.54367066401E+02  0.39999959475E+02 0.  0.
         12    1    3    3    0    0 -0.34610286642E+01  0.51237963835E+01 -0.36298059759E+02  0.36820933599E+02  0.00000000000E+00 0. -1.
         11    1    4    4    0    0 -0.52004906260E+01 -0.79691837126E+01  0.33945942605E+01  0.10103279777E+02  0.51100000000E-03 0. -1.
        -11    1    4    4    0    0 -0.75989238707E+01  0.42155511041E+01  0.24320032017E+02  0.25825926366E+02  0.51100000000E-03 0.  1.
         12    1    4    4    0    0  0.16260443161E+02 -0.13701637750E+01  0.85834334822E+01  0.18437860258E+02  0.00000000000E+00 0. -1.
</event>
<event>
 8    1  0.2521748E-006  0.9118800E+02  0.7816164E-02  0.1184000E+00
        -11   -1    0    0    0    0  0.00000000000E+00  0.00000000000E+00  0.45593999997E+02  0.45594000000E+02  0.51100000000E-03 0.  1.
         11   -1    0    0    0    0 -0.00000000000E+00 -0.00000000000E+00 -0.45593999997E+02  0.45594000000E+02  0.51100000000E-03 0. -1.
         23    2    1    2    0    0  0.00000000000E+00 -0.35527136788E-14  0.17763568394E-14  0.91188000000E+02  0.91188000000E+02 0.  0.
    9900012    2    3    3    0    0 -0.19597063077E+02 -0.29237794961E+02  0.10811415532E+02  0.54367078756E+02  0.39999987641E+02 0.  0.
        -12    1    3    3    0    0  0.19597063077E+02  0.29237794961E+02 -0.10811415532E+02  0.36820921244E+02  0.00000000000E+00 0.  1.
         11    1    4    4    0    0  0.54958059813E+01 -0.11896426443E+02  0.15256540023E+02  0.20111958115E+02  0.51100000000E-03 0. -1.
        -11    1    4    4    0    0 -0.86375699801E+01 -0.14182289675E+02 -0.54288572621E+01  0.17470473577E+02  0.51100000000E-03 0.  1.
        -12    1    4    4    0    0 -0.16455299078E+02 -0.31590788435E+01  0.98373277091E+00  0.16784647064E+02  0.00000000000E+00 0.  1.
</event>
<event>
 8    1  0.2521748E-006  0.9118800E+02  0.7816164E-02  0.1184000E+00
        -11   -1    0    0    0    0  0.00000000000E+00  0.00000000000E+00  0.45593999997E+02  0.45594000000E+02  0.51100000000E-03 0. -1.
         11   -1    0    0    0    0 -0.00000000000E+00 -0.00000000000E+00 -0.45593999997E+02  0.45594000000E+02  0.51100000000E-03 0.  1.
         23    2    1    2    0    0 -0.17763568394E-14  0.71054273576E-14  0.00000000000E+00  0.91188000000E+02  0.91188000000E+02 0.  0.
    9900012    2    3    3    0    0 -0.12485209897E+02  0.21827290164E+02  0.26897363241E+02  0.54367092741E+02  0.40000019521E+02 0.  0.
        -12    1    3    3    0    0  0.12485209897E+02 -0.21827290164E+02 -0.26897363241E+02  0.36820907259E+02  0.00000000000E+00 0.  1.
         11    1    4    4    0    0  0.38203767461E+01 -0.84198443783E+01  0.15069373012E+02  0.17679792450E+02  0.51100000000E-03 0. -1.
        -11    1    4    4    0    0 -0.41636351588E+01  0.11700103199E+02  0.26729690923E+01  0.12703268738E+02  0.51100000000E-03 0.  1.
         12    1    4    4    0    0 -0.12141951485E+02  0.18547031343E+02  0.91550211367E+01  0.23984031553E+02  0.00000000000E+00 0. -1.
</event>
<event>
 8    1  0.2521748E-006  0.9118800E+02  0.7816164E-02  0.1184000E+00
        -11   -1    0    0    0    0  0.00000000000E+00  0.00000000000E+00  0.45593999997E+02  0.45594000000E+02  0.51100000000E-03 0. -1.
         11   -1    0    0    0    0 -0.00000000000E+00 -0.00000000000E+00 -0.45593999997E+02  0.45594000000E+02  0.51100000000E-03 0.  1.
         23    2    1    2    0    0  0.88817841970E-15  0.26645352591E-14  0.00000000000E+00  0.91188000000E+02  0.91188000000E+02 0.  0.
    9900012    2    3    3    0    0  0.74556263558E+01 -0.29338593493E+01  0.35938635818E+02  0.54367089644E+02  0.40000012461E+02 0.  0.
        -12    1    3    3    0    0 -0.74556263558E+01  0.29338593493E+01 -0.35938635818E+02  0.36820910356E+02  0.00000000000E+00 0.  1.
         11    1    4    4    0    0  0.14425926291E+02 -0.62708648753E+01  0.29055907176E+02  0.33040533254E+02  0.51100000000E-03 0. -1.
        -11    1    4    4    0    0 -0.10853434541E+02  0.83338562794E+01  0.33867503577E+01  0.14096818083E+02  0.51100000000E-03 0.  1.
        -12    1    4    4    0    0  0.38831346055E+01 -0.49968507534E+01  0.34959782839E+01  0.72297383063E+01  0.00000000000E+00 0.  1.
</event>
<event>
 8    1  0.2521748E-006  0.9118800E+02  0.7816164E-02  0.1184000E+00
        -11   -1    0    0    0    0  0.00000000000E+00  0.00000000000E+00  0.45593999997E+02  0.45594000000E+02  0.51100000000E-03 0. -1.
         11   -1    0    0    0    0 -0.00000000000E+00 -0.00000000000E+00 -0.45593999997E+02  0.45594000000E+02  0.51100000000E-03 0.  1.
         23    2    1    2    0    0  0.00000000000E+00  0.00000000000E+00  0.00000000000E+00  0.91188000000E+02  0.91188000000E+02 0.  0.
    9900012    2    3    3    0    0  0.24249809011E+02 -0.20991702210E+02  0.18085228505E+02  0.54367078110E+02  0.39999986168E+02 0.  0.
         12    1    3    3    0    0 -0.24249809011E+02  0.20991702210E+02 -0.18085228505E+02  0.36820921890E+02  0.00000000000E+00 0. -1.
         11    1    4    4    0    0 -0.27325500204E+01 -0.16636448349E+02  0.18202950802E+02  0.24810998800E+02  0.51100000000E-03 0.  1.
        -11    1    4    4    0    0  0.36088248814E+01 -0.16693354613E+01 -0.40803810259E+01  0.56973509182E+01  0.51100000000E-03 0. -1.
        -12    1    4    4    0    0  0.23373534150E+02 -0.26859183993E+01  0.39626587295E+01  0.23858728392E+02  0.00000000000E+00 0.  1.
</event>
<event>
 8    1  0.2521748E-006  0.9118800E+02  0.7816164E-02  0.1184000E+00
        -11   -1    0    0    0    0  0.00000000000E+00  0.00000000000E+00  0.45593999997E+02  0.45594000000E+02  0.51100000000E-03 0.  1.
         11   -1    0    0    0    0 -0.00000000000E+00 -0.00000000000E+00 -0.45593999997E+02  0.45594000000E+02  0.51100000000E-03 0. -1.
         23    2    1    2    0    0 -0.55511151231E-15  0.88817841970E-15  0.00000000000E+00  0.91188000000E+02  0.91188000000E+02 0.  0.
    9900012    2    3    3    0    0 -0.86860824975E+00  0.79752474171E+01  0.35936332040E+02  0.54367095446E+02  0.40000025689E+02 0.  0.
         12    1    3    3    0    0  0.86860824975E+00 -0.79752474171E+01 -0.35936332040E+02  0.36820904554E+02  0.00000000000E+00 0. -1.
         11    1    4    4    0    0  0.45627054183E+00  0.64576773514E+01  0.35766803550E+01  0.73961085853E+01  0.51100000000E-03 0. -1.
        -11    1    4    4    0    0  0.45477848727E+01  0.16533686670E+02  0.21634280409E+02  0.27605927466E+02  0.51100000000E-03 0.  1.
         12    1    4    4    0    0 -0.58726636643E+01 -0.15016116604E+02  0.10725371276E+02  0.19365059395E+02  0.00000000000E+00 0. -1.
</event>
<event>
 8    1  0.2521748E-006  0.9118800E+02  0.7816164E-02  0.1184000E+00
        -11   -1    0    0    0    0  0.00000000000E+00  0.00000000000E+00  0.45593999997E+02  0.45594000000E+02  0.51100000000E-03 0.  1.
         11   -1    0    0    0    0 -0.00000000000E+00 -0.00000000000E+00 -0.45593999997E+02  0.45594000000E+02  0.51100000000E-03 0. -1.
         23    2    1    2    0    0  0.71054273576E-14  0.99920072216E-15  0.35527136788E-14  0.91188000000E+02  0.91188000000E+02 0.  0.
    9900012    2    3    3    0    0 -0.32149787071E+02  0.72657027116E+00 -0.17934419801E+02  0.54367080312E+02  0.39999991186E+02 0.  0.
         12    1    3    3    0    0  0.32149787071E+02 -0.72657027116E+00  0.17934419801E+02  0.36820919688E+02  0.00000000000E+00 0. -1.
         11    1    4    4    0    0  0.25906978115E+01 -0.50571653604E+01  0.31440431485E+01  0.64939698346E+01  0.51100000000E-03 0. -1.
        -11    1    4    4    0    0 -0.14862567922E+02  0.14138699058E+02 -0.15177774759E+02  0.25517907108E+02  0.51100000000E-03 0.  1.
        -12    1    4    4    0    0 -0.19877916961E+02 -0.83549634261E+01 -0.59006881910E+01  0.22355203369E+02  0.00000000000E+00 0.  1.
</event>
<event>
 8    1  0.2521748E-006  0.9118800E+02  0.7816164E-02  0.1184000E+00
        -11   -1    0    0    0    0  0.00000000000E+00  0.00000000000E+00  0.45593999997E+02  0.45594000000E+02  0.51100000000E-03 0. -1.
         11   -1    0    0    0    0 -0.00000000000E+00 -0.00000000000E+00 -0.45593999997E+02  0.45594000000E+02  0.51100000000E-03 0.  1.
         23    2    1    2    0    0 -0.17763568394E-14  0.00000000000E+00  0.00000000000E+00  0.91188000000E+02  0.91188000000E+02 0.  0.
    9900012    2    3    3    0    0  0.11801349877E+02  0.29487038080E+02 -0.18628541359E+02  0.54367084384E+02  0.40000000469E+02 0.  0.
         12    1    3    3    0    0 -0.11801349877E+02 -0.29487038080E+02  0.18628541359E+02  0.36820915616E+02  0.00000000000E+00 0. -1.
         11    1    4    4    0    0 -0.31968143197E+01  0.12011111027E+02 -0.11652147367E+01  0.12483754866E+02  0.51100000000E-03 0. -1.
        -11    1    4    4    0    0  0.12509998919E+01  0.22437501577E+02 -0.15110249405E+02  0.27079994739E+02  0.51100000000E-03 0.  1.
         12    1    4    4    0    0  0.13747164304E+02 -0.49615745241E+01 -0.23530772177E+01  0.14803334778E+02  0.00000000000E+00 0. -1.
</event>
<event>
 8    1  0.2521748E-006  0.9118800E+02  0.7816164E-02  0.1184000E+00
        -11   -1    0    0    0    0  0.00000000000E+00  0.00000000000E+00  0.45593999997E+02  0.45594000000E+02  0.51100000000E-03 0. -1.
         11   -1    0    0    0    0 -0.00000000000E+00 -0.00000000000E+00 -0.45593999997E+02  0.45594000000E+02  0.51100000000E-03 0.  1.
         23    2    1    2    0    0  0.35527136788E-14 -0.88817841970E-15  0.00000000000E+00  0.91188000000E+02  0.91188000000E+02 0.  0.
    9900012    2    3    3    0    0  0.16921669948E+02 -0.56504484575E+01  0.32210393615E+02  0.54367082868E+02  0.39999997014E+02 0.  0.
        -12    1    3    3    0    0 -0.16921669948E+02  0.56504484575E+01 -0.32210393615E+02  0.36820917132E+02  0.00000000000E+00 0.  1.
         11    1    4    4    0    0  0.87278164304E+01  0.10111081910E+02  0.13956680304E+02  0.19318325042E+02  0.51100000000E-03 0. -1.
        -11    1    4    4    0    0  0.12322332317E+02 -0.97277238909E+01  0.34268082251E+00  0.15703054360E+02  0.51100000000E-03 0.  1.
        -12    1    4    4    0    0 -0.41284787995E+01 -0.60338064767E+01  0.17911032489E+02  0.19345703466E+02  0.00000000000E+00 0.  1.
</event>
<event>
 8    1  0.2521748E-006  0.9118800E+02  0.7816164E-02  0.1184000E+00
        -11   -1    0    0    0    0  0.00000000000E+00  0.00000000000E+00  0.45593999997E+02  0.45594000000E+02  0.51100000000E-03 0. -1.
         11   -1    0    0    0    0 -0.00000000000E+00 -0.00000000000E+00 -0.45593999997E+02  0.45594000000E+02  0.51100000000E-03 0.  1.
         23    2    1    2    0    0  0.00000000000E+00  0.35527136788E-14  0.17763568394E-14  0.91188000000E+02  0.91188000000E+02 0.  0.
    9900012    2    3    3    0    0 -0.24603828507E+02 -0.24901554610E+02 -0.11417244964E+02  0.54366955993E+02  0.39999707777E+02 0.  0.
         12    1    3    3    0    0  0.24603828507E+02  0.24901554610E+02  0.11417244964E+02  0.36821044007E+02  0.00000000000E+00 0. -1.
         11    1    4    4    0    0  0.79839681360E+01 -0.13589498167E+01  0.24957996726E+01  0.84746391113E+01  0.51100000000E-03 0. -1.
        -11    1    4    4    0    0 -0.96351152605E+01 -0.17445360823E+02 -0.74905800611E+01  0.21290487318E+02  0.51100000000E-03 0.  1.
         12    1    4    4    0    0 -0.22952681382E+02 -0.60972439704E+01 -0.64224645755E+01  0.24601829564E+02  0.00000000000E+00 0. -1.
</event>
<event>
 8    1  0.2521748E-006  0.9118800E+02  0.7816164E-02  0.1184000E+00
        -11   -1    0    0    0    0  0.00000000000E+00  0.00000000000E+00  0.45593999997E+02  0.45594000000E+02  0.51100000000E-03 0.  1.
         11   -1    0    0    0    0 -0.00000000000E+00 -0.00000000000E+00 -0.45593999997E+02  0.45594000000E+02  0.51100000000E-03 0. -1.
         23    2    1    2    0    0  0.00000000000E+00  0.00000000000E+00  0.00000000000E+00  0.91188000000E+02  0.91188000000E+02 0.  0.
    9900012    2    3    3    0    0 -0.32597394750E+02  0.94508065537E+01  0.14277940330E+02  0.54367252193E+02  0.40000383022E+02 0.  0.
         12    1    3    3    0    0  0.32597394750E+02 -0.94508065537E+01 -0.14277940330E+02  0.36820747807E+02  0.00000000000E+00 0. -1.
         11    1    4    4    0    0 -0.73789566632E+01  0.36339130320E+01 -0.68213146425E+01  0.10685722207E+02  0.51100000000E-03 0. -1.
        -11    1    4    4    0    0 -0.95586294579E+01  0.55090566742E+01 -0.58677452026E+01  0.12495900791E+02  0.51100000000E-03 0.  1.
         12    1    4    4    0    0 -0.15659808629E+02  0.30783684754E+00  0.26967000176E+02  0.31185629195E+02  0.00000000000E+00 0. -1.
</event>
<event>
 8    1  0.2521748E-006  0.9118800E+02  0.7816164E-02  0.1184000E+00
        -11   -1    0    0    0    0  0.00000000000E+00  0.00000000000E+00  0.45593999997E+02  0.45594000000E+02  0.51100000000E-03 0.  1.
         11   -1    0    0    0    0 -0.00000000000E+00 -0.00000000000E+00 -0.45593999997E+02  0.45594000000E+02  0.51100000000E-03 0. -1.
         23    2    1    2    0    0  0.00000000000E+00  0.00000000000E+00 -0.17763568394E-14  0.91188000000E+02  0.91188000000E+02 0.  0.
    9900012    2    3    3    0    0 -0.34860458984E+02 -0.23382010069E+01  0.11621487411E+02  0.54367112529E+02  0.40000064631E+02 0.  0.
         12    1    3    3    0    0  0.34860458984E+02  0.23382010069E+01 -0.11621487411E+02  0.36820887471E+02  0.00000000000E+00 0. -1.
         11    1    4    4    0    0 -0.79119519466E+01 -0.12639167464E+02 -0.39141786682E+01  0.15416495474E+02  0.51100000000E-03 0. -1.
        -11    1    4    4    0    0 -0.10670590993E+02  0.12745541298E+02  0.15142181870E+02  0.22485462130E+02  0.51100000000E-03 0.  1.
         12    1    4    4    0    0 -0.16277916044E+02 -0.24445748412E+01  0.39348420953E+00  0.16465154925E+02  0.00000000000E+00 0. -1.
</event>
<event>
 8    1  0.2521748E-006  0.9118800E+02  0.7816164E-02  0.1184000E+00
        -11   -1    0    0    0    0  0.00000000000E+00  0.00000000000E+00  0.45593999997E+02  0.45594000000E+02  0.51100000000E-03 0.  1.
         11   -1    0    0    0    0 -0.00000000000E+00 -0.00000000000E+00 -0.45593999997E+02  0.45594000000E+02  0.51100000000E-03 0. -1.
         23    2    1    2    0    0  0.00000000000E+00  0.00000000000E+00 -0.35527136788E-14  0.91188000000E+02  0.91188000000E+02 0.  0.
    9900012    2    3    3    0    0  0.17915876145E+01  0.31425347432E+02 -0.19105415756E+02  0.54367093457E+02  0.40000021155E+02 0.  0.
        -12    1    3    3    0    0 -0.17915876145E+01 -0.31425347432E+02  0.19105415756E+02  0.36820906543E+02  0.00000000000E+00 0.  1.
         11    1    4    4    0    0 -0.37913897926E+00  0.22842234725E+02 -0.11573679010E+02  0.25609792652E+02  0.51100000000E-03 0. -1.
        -11    1    4    4    0    0 -0.30753948984E+01 -0.27703636318E+01  0.78849830076E+01  0.89053874551E+01  0.51100000000E-03 0.  1.
         12    1    4    4    0    0  0.52461214921E+01  0.11353476339E+02 -0.15416719754E+02  0.19851913350E+02  0.00000000000E+00 0. -1.
</event>
<event>
 8    1  0.2521748E-006  0.9118800E+02  0.7816164E-02  0.1184000E+00
        -11   -1    0    0    0    0  0.00000000000E+00  0.00000000000E+00  0.45593999997E+02  0.45594000000E+02  0.51100000000E-03 0. -1.
         11   -1    0    0    0    0 -0.00000000000E+00 -0.00000000000E+00 -0.45593999997E+02  0.45594000000E+02  0.51100000000E-03 0.  1.
         23    2    1    2    0    0  0.35527136788E-14 -0.35527136788E-14  0.17763568394E-14  0.91188000000E+02  0.91188000000E+02 0.  0.
    9900012    2    3    3    0    0 -0.20582736608E+02  0.26981133404E+02 -0.14287979247E+02  0.54367123353E+02  0.40000089309E+02 0.  0.
         12    1    3    3    0    0  0.20582736608E+02 -0.26981133404E+02  0.14287979247E+02  0.36820876647E+02  0.00000000000E+00 0. -1.
         11    1    4    4    0    0 -0.16597352764E+02  0.11630259839E+02 -0.74802950238E+01  0.21603006193E+02  0.51100000000E-03 0. -1.
        -11    1    4    4    0    0 -0.12498774843E+02  0.21775076338E+01 -0.10707660980E+02  0.16601654014E+02  0.51100000000E-03 0.  1.
        -12    1    4    4    0    0  0.85133909984E+01  0.13173365931E+02  0.38999767566E+01  0.16162463146E+02  0.00000000000E+00 0.  1.
</event>
<event>
 8    1  0.2521748E-006  0.9118800E+02  0.7816164E-02  0.1184000E+00
        -11   -1    0    0    0    0  0.00000000000E+00  0.00000000000E+00  0.45593999997E+02  0.45594000000E+02  0.51100000000E-03 0. -1.
         11   -1    0    0    0    0 -0.00000000000E+00 -0.00000000000E+00 -0.45593999997E+02  0.45594000000E+02  0.51100000000E-03 0.  1.
         23    2    1    2    0    0  0.00000000000E+00  0.35527136788E-14 -0.35527136788E-14  0.91188000000E+02  0.91188000000E+02 0.  0.
    9900012    2    3    3    0    0  0.62376258997E+01  0.20286109720E+02 -0.30088991012E+02  0.54367060244E+02  0.39999945438E+02 0.  0.
         12    1    3    3    0    0 -0.62376258997E+01 -0.20286109720E+02  0.30088991012E+02  0.36820939756E+02  0.00000000000E+00 0. -1.
         11    1    4    4    0    0 -0.57604253917E+01 -0.47515964462E+00  0.30343949233E+01  0.65280801307E+01  0.51100000000E-03 0. -1.
        -11    1    4    4    0    0  0.18262695151E+02  0.75575746927E+01 -0.16913063018E+02  0.26013355615E+02  0.51100000000E-03 0.  1.
        -12    1    4    4    0    0 -0.62646438597E+01  0.13203694672E+02 -0.16210322917E+02  0.21825624498E+02  0.00000000000E+00 0.  1.
</event>
<event>
 8    1  0.2521748E-006  0.9118800E+02  0.7816164E-02  0.1184000E+00
        -11   -1    0    0    0    0  0.00000000000E+00  0.00000000000E+00  0.45593999997E+02  0.45594000000E+02  0.51100000000E-03 0. -1.
         11   -1    0    0    0    0 -0.00000000000E+00 -0.00000000000E+00 -0.45593999997E+02  0.45594000000E+02  0.51100000000E-03 0.  1.
         23    2    1    2    0    0  0.17763568394E-14 -0.17763568394E-14  0.00000000000E+00  0.91188000000E+02  0.91188000000E+02 0.  0.
    9900012    2    3    3    0    0 -0.84475461288E+01  0.87253089541E+01 -0.34760434320E+02  0.54367084123E+02  0.39999999875E+02 0.  0.
         12    1    3    3    0    0  0.84475461288E+01 -0.87253089541E+01  0.34760434320E+02  0.36820915877E+02  0.00000000000E+00 0. -1.
         11    1    4    4    0    0 -0.10786232678E+02 -0.11696554630E+02 -0.90193333742E+01  0.18289357025E+02  0.51100000000E-03 0. -1.
        -11    1    4    4    0    0 -0.55776885427E+01  0.12636156818E+02 -0.11203387476E+02  0.17784795749E+02  0.51100000000E-03 0.  1.
        -12    1    4    4    0    0  0.79163750918E+01  0.77857067663E+01 -0.14537713469E+02  0.18292931349E+02  0.00000000000E+00 0.  1.
</event>
<event>
 8    1  0.2521748E-006  0.9118800E+02  0.7816164E-02  0.1184000E+00
        -11   -1    0    0    0    0  0.00000000000E+00  0.00000000000E+00  0.45593999997E+02  0.45594000000E+02  0.51100000000E-03 0.  1.
         11   -1    0    0    0    0 -0.00000000000E+00 -0.00000000000E+00 -0.45593999997E+02  0.45594000000E+02  0.51100000000E-03 0. -1.
         23    2    1    2    0    0  0.00000000000E+00  0.00000000000E+00  0.17763568394E-14  0.91188000000E+02  0.91188000000E+02 0.  0.
    9900012    2    3    3    0    0  0.11156150408E+02  0.33569161199E+02  0.10219276991E+02  0.54367056262E+02  0.39999936361E+02 0.  0.
         12    1    3    3    0    0 -0.11156150408E+02 -0.33569161199E+02 -0.10219276991E+02  0.36820943738E+02  0.00000000000E+00 0. -1.
         11    1    4    4    0    0  0.66882768069E+01  0.14724966599E+02 -0.10077379548E+02  0.19055478656E+02  0.51100000000E-03 0. -1.
        -11    1    4    4    0    0  0.10953173736E+02  0.69360789065E+01  0.16959693060E+02  0.21347421260E+02  0.51100000000E-03 0.  1.
         12    1    4    4    0    0 -0.64853001349E+01  0.11908115694E+02  0.33369634793E+01  0.13964156347E+02  0.00000000000E+00 0. -1.
</event>
<event>
 8    1  0.2521748E-006  0.9118800E+02  0.7816164E-02  0.1184000E+00
        -11   -1    0    0    0    0  0.00000000000E+00  0.00000000000E+00  0.45593999997E+02  0.45594000000E+02  0.51100000000E-03 0. -1.
         11   -1    0    0    0    0 -0.00000000000E+00 -0.00000000000E+00 -0.45593999997E+02  0.45594000000E+02  0.51100000000E-03 0.  1.
         23    2    1    2    0    0 -0.17763568394E-14  0.35527136788E-14 -0.35527136788E-14  0.91188000000E+02  0.91188000000E+02 0.  0.
    9900012    2    3    3    0    0  0.15326108361E+02 -0.21278329350E+02  0.25848135984E+02  0.54367040870E+02  0.39999901270E+02 0.  0.
        -12    1    3    3    0    0 -0.15326108361E+02  0.21278329350E+02 -0.25848135984E+02  0.36820959130E+02  0.00000000000E+00 0.  1.
         11    1    4    4    0    0  0.25780907414E+01  0.91802987079E+01  0.74904843962E+01  0.12125666703E+02  0.51100000000E-03 0. -1.
        -11    1    4    4    0    0  0.12519583451E+01  0.26744715630E+01  0.10669340074E+01  0.31398322051E+01  0.51100000000E-03 0.  1.
        -12    1    4    4    0    0  0.11496059274E+02 -0.33133099621E+02  0.17290717581E+02  0.39101541962E+02  0.00000000000E+00 0.  1.
</event>
<event>
 8    1  0.2521748E-006  0.9118800E+02  0.7816164E-02  0.1184000E+00
        -11   -1    0    0    0    0  0.00000000000E+00  0.00000000000E+00  0.45593999997E+02  0.45594000000E+02  0.51100000000E-03 0. -1.
         11   -1    0    0    0    0 -0.00000000000E+00 -0.00000000000E+00 -0.45593999997E+02  0.45594000000E+02  0.51100000000E-03 0.  1.
         23    2    1    2    0    0  0.00000000000E+00  0.00000000000E+00  0.00000000000E+00  0.91188000000E+02  0.91188000000E+02 0.  0.
    9900012    2    3    3    0    0 -0.84750330408E+01  0.34472394796E+02 -0.97779943116E+01  0.54367063553E+02  0.39999952983E+02 0.  0.
        -12    1    3    3    0    0  0.84750330408E+01 -0.34472394796E+02  0.97779943116E+01  0.36820936447E+02  0.00000000000E+00 0.  1.
         11    1    4    4    0    0 -0.75075277759E+01  0.17772619772E+02  0.39459917549E+01  0.19692634107E+02  0.51100000000E-03 0. -1.
        -11    1    4    4    0    0 -0.26095215968E+01  0.10697788614E+02 -0.21833248772E+02  0.24452873786E+02  0.51100000000E-03 0.  1.
        -12    1    4    4    0    0  0.16420163319E+01  0.60019864102E+01  0.81092627053E+01  0.10221555661E+02  0.00000000000E+00 0.  1.
</event>
<event>
 8    1  0.2521748E-006  0.9118800E+02  0.7816164E-02  0.1184000E+00
        -11   -1    0    0    0    0  0.00000000000E+00  0.00000000000E+00  0.45593999997E+02  0.45594000000E+02  0.51100000000E-03 0. -1.
         11   -1    0    0    0    0 -0.00000000000E+00 -0.00000000000E+00 -0.45593999997E+02  0.45594000000E+02  0.51100000000E-03 0.  1.
         23    2    1    2    0    0  0.35527136788E-14  0.00000000000E+00  0.88817841970E-15  0.91188000000E+02  0.91188000000E+02 0.  0.
    9900012    2    3    3    0    0 -0.26643709199E+02 -0.24567959641E+02  0.65045466305E+01  0.54367068349E+02  0.39999963915E+02 0.  0.
        -12    1    3    3    0    0  0.26643709199E+02  0.24567959641E+02 -0.65045466305E+01  0.36820931651E+02  0.00000000000E+00 0.  1.
         11    1    4    4    0    0 -0.81517039113E+01 -0.16217763577E+02 -0.13467945055E+02  0.22602028147E+02  0.51100000000E-03 0. -1.
        -11    1    4    4    0    0 -0.32867558002E+01 -0.48821267614E+01  0.13781214444E+02  0.14985319390E+02  0.51100000000E-03 0.  1.
        -12    1    4    4    0    0 -0.15205249487E+02 -0.34680693021E+01  0.61912772412E+01  0.16779720812E+02  0.00000000000E+00 0.  1.
</event>
<event>
 8    1  0.2521748E-006  0.9118800E+02  0.7816164E-02  0.1184000E+00
        -11   -1    0    0    0    0  0.00000000000E+00  0.00000000000E+00  0.45593999997E+02  0.45594000000E+02  0.51100000000E-03 0. -1.
         11   -1    0    0    0    0 -0.00000000000E+00 -0.00000000000E+00 -0.45593999997E+02  0.45594000000E+02  0.51100000000E-03 0.  1.
         23    2    1    2    0    0  0.00000000000E+00  0.00000000000E+00  0.00000000000E+00  0.91188000000E+02  0.91188000000E+02 0.  0.
    9900012    2    3    3    0    0 -0.23752600534E+02 -0.22129651993E+02  0.17374353082E+02  0.54367140769E+02  0.40000129011E+02 0.  0.
        -12    1    3    3    0    0  0.23752600534E+02  0.22129651993E+02 -0.17374353082E+02  0.36820859231E+02  0.00000000000E+00 0.  1.
         11    1    4    4    0    0 -0.22432491967E+02 -0.27623317223E+02  0.15095654524E+02  0.38654147721E+02  0.51100000000E-03 0. -1.
        -11    1    4    4    0    0 -0.26598187413E+00  0.10462754496E+02  0.14470643658E+01  0.10565697968E+02  0.51100000000E-03 0.  1.
        -12    1    4    4    0    0 -0.10541266934E+01 -0.49690892658E+01  0.83163419213E+00  0.51472950806E+01  0.00000000000E+00 0.  1.
</event>
<event>
 8    1  0.2521748E-006  0.9118800E+02  0.7816164E-02  0.1184000E+00
        -11   -1    0    0    0    0  0.00000000000E+00  0.00000000000E+00  0.45593999997E+02  0.45594000000E+02  0.51100000000E-03 0. -1.
         11   -1    0    0    0    0 -0.00000000000E+00 -0.00000000000E+00 -0.45593999997E+02  0.45594000000E+02  0.51100000000E-03 0.  1.
         23    2    1    2    0    0  0.00000000000E+00 -0.35527136788E-14 -0.35527136788E-14  0.91188000000E+02  0.91188000000E+02 0.  0.
    9900012    2    3    3    0    0  0.20157897086E+02  0.28514064891E+02  0.11678528989E+02  0.54367071836E+02  0.39999971863E+02 0.  0.
         12    1    3    3    0    0 -0.20157897086E+02 -0.28514064891E+02 -0.11678528989E+02  0.36820928164E+02  0.00000000000E+00 0. -1.
         11    1    4    4    0    0  0.93952122160E+01 -0.11947383248E+01 -0.10448821416E+02  0.14102314757E+02  0.51100000000E-03 0. -1.
        -11    1    4    4    0    0  0.16618624557E+01  0.91851122789E+01  0.91718619591E+00  0.93791953374E+01  0.51100000000E-03 0.  1.
         12    1    4    4    0    0  0.91008224141E+01  0.20523690937E+02  0.21210164209E+02  0.30885561741E+02  0.00000000000E+00 0. -1.
</event>
<event>
 8    1  0.2521748E-006  0.9118800E+02  0.7816164E-02  0.1184000E+00
        -11   -1    0    0    0    0  0.00000000000E+00  0.00000000000E+00  0.45593999997E+02  0.45594000000E+02  0.51100000000E-03 0.  1.
         11   -1    0    0    0    0 -0.00000000000E+00 -0.00000000000E+00 -0.45593999997E+02  0.45594000000E+02  0.51100000000E-03 0. -1.
         23    2    1    2    0    0  0.00000000000E+00  0.35527136788E-14  0.00000000000E+00  0.91188000000E+02  0.91188000000E+02 0.  0.
    9900012    2    3    3    0    0 -0.11993974262E+02 -0.29339764483E+02  0.18737729254E+02  0.54367086159E+02  0.40000004516E+02 0.  0.
         12    1    3    3    0    0  0.11993974262E+02  0.29339764483E+02 -0.18737729254E+02  0.36820913841E+02  0.00000000000E+00 0. -1.
         11    1    4    4    0    0 -0.49795837040E+01 -0.63924272438E+01  0.73985781790E+01  0.10972617703E+02  0.51100000000E-03 0.  1.
        -11    1    4    4    0    0 -0.34498716274E+00  0.66295909509E+01  0.11264117897E+02  0.13074817191E+02  0.51100000000E-03 0. -1.
         12    1    4    4    0    0 -0.66694033954E+01 -0.29576928190E+02  0.75033178230E-01  0.30319651265E+02  0.00000000000E+00 0. -1.
</event>
<event>
 8    1  0.2521748E-006  0.9118800E+02  0.7816164E-02  0.1184000E+00
        -11   -1    0    0    0    0  0.00000000000E+00  0.00000000000E+00  0.45593999997E+02  0.45594000000E+02  0.51100000000E-03 0. -1.
         11   -1    0    0    0    0 -0.00000000000E+00 -0.00000000000E+00 -0.45593999997E+02  0.45594000000E+02  0.51100000000E-03 0.  1.
         23    2    1    2    0    0  0.00000000000E+00  0.00000000000E+00  0.00000000000E+00  0.91188000000E+02  0.91188000000E+02 0.  0.
    9900012    2    3    3    0    0 -0.25897212065E+02  0.23034224522E+02 -0.12431343938E+02  0.54367090123E+02  0.40000013553E+02 0.  0.
         12    1    3    3    0    0  0.25897212065E+02 -0.23034224522E+02  0.12431343938E+02  0.36820909877E+02  0.00000000000E+00 0. -1.
         11    1    4    4    0    0 -0.18967123764E+02  0.16039240051E+02  0.13439708727E+01  0.24875997734E+02  0.51100000000E-03 0.  1.
        -11    1    4    4    0    0 -0.97095396739E+01 -0.52017263462E+01 -0.12882766249E+02  0.16949890388E+02  0.51100000000E-03 0. -1.
         12    1    4    4    0    0  0.27794513734E+01  0.12196710817E+02 -0.89254856174E+00  0.12541202001E+02  0.00000000000E+00 0. -1.
</event>
<event>
 8    1  0.2521748E-006  0.9118800E+02  0.7816164E-02  0.1184000E+00
        -11   -1    0    0    0    0  0.00000000000E+00  0.00000000000E+00  0.45593999997E+02  0.45594000000E+02  0.51100000000E-03 0.  1.
         11   -1    0    0    0    0 -0.00000000000E+00 -0.00000000000E+00 -0.45593999997E+02  0.45594000000E+02  0.51100000000E-03 0. -1.
         23    2    1    2    0    0  0.00000000000E+00 -0.17763568394E-14  0.00000000000E+00  0.91188000000E+02  0.91188000000E+02 0.  0.
    9900012    2    3    3    0    0 -0.16112232257E+02  0.14128521765E+02 -0.29942628925E+02  0.54367079554E+02  0.39999989459E+02 0.  0.
        -12    1    3    3    0    0  0.16112232257E+02 -0.14128521765E+02  0.29942628925E+02  0.36820920446E+02  0.00000000000E+00 0.  1.
         11    1    4    4    0    0 -0.11314400411E+02 -0.73853644053E+01 -0.14922908761E+02  0.20130883493E+02  0.51100000000E-03 0. -1.
        -11    1    4    4    0    0  0.51837829775E+01  0.10254738043E+02  0.18419108541E+01  0.11637177241E+02  0.51100000000E-03 0.  1.
         12    1    4    4    0    0 -0.99816148229E+01  0.11259148128E+02 -0.16861631018E+02  0.22599018820E+02  0.00000000000E+00 0. -1.
</event>
<event>
 8    1  0.2521748E-006  0.9118800E+02  0.7816164E-02  0.1184000E+00
        -11   -1    0    0    0    0  0.00000000000E+00  0.00000000000E+00  0.45593999997E+02  0.45594000000E+02  0.51100000000E-03 0. -1.
         11   -1    0    0    0    0 -0.00000000000E+00 -0.00000000000E+00 -0.45593999997E+02  0.45594000000E+02  0.51100000000E-03 0.  1.
         23    2    1    2    0    0  0.00000000000E+00  0.00000000000E+00  0.35527136788E-14  0.91188000000E+02  0.91188000000E+02 0.  0.
    9900012    2    3    3    0    0  0.19702252534E+02 -0.95581265265E+01 -0.29601460956E+02  0.54367040909E+02  0.39999901361E+02 0.  0.
         12    1    3    3    0    0 -0.19702252534E+02  0.95581265265E+01  0.29601460956E+02  0.36820959091E+02  0.00000000000E+00 0. -1.
         11    1    4    4    0    0 -0.45081802786E+01 -0.48834569726E+01 -0.15742369561E+02  0.17087833130E+02  0.51100000000E-03 0. -1.
        -11    1    4    4    0    0  0.24924444146E+01 -0.10622387024E+02 -0.92285618602E+01  0.14290337278E+02  0.51100000000E-03 0.  1.
        -12    1    4    4    0    0  0.21717988398E+02  0.59477174698E+01 -0.46305295349E+01  0.22988870502E+02  0.00000000000E+00 0.  1.
</event>
<event>
 8    1  0.2521748E-006  0.9118800E+02  0.7816164E-02  0.1184000E+00
        -11   -1    0    0    0    0  0.00000000000E+00  0.00000000000E+00  0.45593999997E+02  0.45594000000E+02  0.51100000000E-03 0. -1.
         11   -1    0    0    0    0 -0.00000000000E+00 -0.00000000000E+00 -0.45593999997E+02  0.45594000000E+02  0.51100000000E-03 0.  1.
         23    2    1    2    0    0  0.00000000000E+00  0.00000000000E+00  0.88817841970E-15  0.91188000000E+02  0.91188000000E+02 0.  0.
    9900012    2    3    3    0    0 -0.35876757470E+02 -0.56536449192E+01 -0.60554661944E+01  0.54367162173E+02  0.40000177806E+02 0.  0.
         12    1    3    3    0    0  0.35876757470E+02  0.56536449192E+01  0.60554661944E+01  0.36820837827E+02  0.00000000000E+00 0. -1.
         11    1    4    4    0    0 -0.34593031564E+01  0.72384397509E+01  0.90020108262E+01  0.12058108787E+02  0.51100000000E-03 0. -1.
        -11    1    4    4    0    0 -0.39484769809E+01 -0.68220098562E+01 -0.10050379926E+02  0.12772643652E+02  0.51100000000E-03 0.  1.
        -12    1    4    4    0    0 -0.28468977333E+02 -0.60700748139E+01 -0.50070970946E+01  0.29536409733E+02  0.00000000000E+00 0.  1.
</event>
<event>
 8    1  0.2521748E-006  0.9118800E+02  0.7816164E-02  0.1184000E+00
        -11   -1    0    0    0    0  0.00000000000E+00  0.00000000000E+00  0.45593999997E+02  0.45594000000E+02  0.51100000000E-03 0.  1.
         11   -1    0    0    0    0 -0.00000000000E+00 -0.00000000000E+00 -0.45593999997E+02  0.45594000000E+02  0.51100000000E-03 0. -1.
         23    2    1    2    0    0  0.35527136788E-14  0.00000000000E+00  0.71054273576E-14  0.91188000000E+02  0.91188000000E+02 0.  0.
    9900012    2    3    3    0    0 -0.21268848497E+02 -0.49674768181E+01 -0.29643562440E+02  0.54367074747E+02  0.39999978501E+02 0.  0.
         12    1    3    3    0    0  0.21268848497E+02  0.49674768181E+01  0.29643562440E+02  0.36820925253E+02  0.00000000000E+00 0. -1.
         11    1    4    4    0    0  0.30192862351E+01 -0.58980705299E+01  0.20649791730E+01  0.69402784232E+01  0.51100000000E-03 0. -1.
        -11    1    4    4    0    0 -0.17225466517E+01 -0.28885584333E+01  0.38672916364E+01  0.51251225987E+01  0.51100000000E-03 0.  1.
         12    1    4    4    0    0 -0.22565588081E+02  0.38191521451E+01 -0.35575833250E+02  0.42301673725E+02  0.00000000000E+00 0. -1.
</event>
<event>
 8    1  0.2521748E-006  0.9118800E+02  0.7816164E-02  0.1184000E+00
        -11   -1    0    0    0    0  0.00000000000E+00  0.00000000000E+00  0.45593999997E+02  0.45594000000E+02  0.51100000000E-03 0. -1.
         11   -1    0    0    0    0 -0.00000000000E+00 -0.00000000000E+00 -0.45593999997E+02  0.45594000000E+02  0.51100000000E-03 0.  1.
         23    2    1    2    0    0 -0.35527136788E-14  0.00000000000E+00  0.00000000000E+00  0.91188000000E+02  0.91188000000E+02 0.  0.
    9900012    2    3    3    0    0  0.28312102847E+02  0.21924629038E+02  0.85741077875E+01  0.54367084063E+02  0.39999999739E+02 0.  0.
        -12    1    3    3    0    0 -0.28312102847E+02 -0.21924629038E+02 -0.85741077875E+01  0.36820915937E+02  0.00000000000E+00 0.  1.
         11    1    4    4    0    0  0.24327392081E+02  0.11524800503E+01  0.17789522960E+00  0.24355325140E+02  0.51100000000E-03 0. -1.
        -11    1    4    4    0    0  0.13486690002E+01  0.61695973468E+01  0.13018915334E+02  0.14469795998E+02  0.51100000000E-03 0.  1.
        -12    1    4    4    0    0  0.26360417658E+01  0.14602551641E+02 -0.46227027756E+01  0.15541962925E+02  0.00000000000E+00 0.  1.
</event>
<event>
 8    1  0.2521748E-006  0.9118800E+02  0.7816164E-02  0.1184000E+00
        -11   -1    0    0    0    0  0.00000000000E+00  0.00000000000E+00  0.45593999997E+02  0.45594000000E+02  0.51100000000E-03 0. -1.
         11   -1    0    0    0    0 -0.00000000000E+00 -0.00000000000E+00 -0.45593999997E+02  0.45594000000E+02  0.51100000000E-03 0.  1.
         23    2    1    2    0    0  0.17763568394E-14  0.35527136788E-14  0.00000000000E+00  0.91188000000E+02  0.91188000000E+02 0.  0.
    9900012    2    3    3    0    0 -0.15909491141E+02 -0.25954460280E+02  0.20713134138E+02  0.54367084169E+02  0.39999999980E+02 0.  0.
        -12    1    3    3    0    0  0.15909491141E+02  0.25954460280E+02 -0.20713134138E+02  0.36820915831E+02  0.00000000000E+00 0.  1.
         11    1    4    4    0    0 -0.17412750195E+02 -0.15401752510E+02  0.14036850380E+02  0.27156049392E+02  0.51100000000E-03 0. -1.
        -11    1    4    4    0    0  0.79003298857E+01 -0.10516405985E+02  0.12801327040E+02  0.18354399510E+02  0.51100000000E-03 0.  1.
        -12    1    4    4    0    0 -0.63970708316E+01 -0.36301785590E-01 -0.61250432815E+01  0.88566352665E+01  0.00000000000E+00 0.  1.
</event>
<event>
 8    1  0.2521748E-006  0.9118800E+02  0.7816164E-02  0.1184000E+00
        -11   -1    0    0    0    0  0.00000000000E+00  0.00000000000E+00  0.45593999997E+02  0.45594000000E+02  0.51100000000E-03 0. -1.
         11   -1    0    0    0    0 -0.00000000000E+00 -0.00000000000E+00 -0.45593999997E+02  0.45594000000E+02  0.51100000000E-03 0.  1.
         23    2    1    2    0    0 -0.17763568394E-14  0.71054273576E-14  0.00000000000E+00  0.91188000000E+02  0.91188000000E+02 0.  0.
    9900012    2    3    3    0    0  0.11992656732E+02 -0.26649376664E+02 -0.22400017859E+02  0.54367164972E+02  0.40000184187E+02 0.  0.
         12    1    3    3    0    0 -0.11992656732E+02  0.26649376664E+02  0.22400017859E+02  0.36820835028E+02  0.00000000000E+00 0. -1.
         11    1    4    4    0    0 -0.59978435601E+01 -0.35713606275E+01  0.22649950546E+01  0.73388655092E+01  0.51100000000E-03 0. -1.
        -11    1    4    4    0    0  0.50357479048E+01 -0.20799169364E+02 -0.28977484529E+01  0.21595396490E+02  0.51100000000E-03 0.  1.
         12    1    4    4    0    0  0.12954752387E+02 -0.22788466721E+01 -0.21767264460E+02  0.25432902973E+02  0.00000000000E+00 0. -1.
</event>
<event>
 8    1  0.2521748E-006  0.9118800E+02  0.7816164E-02  0.1184000E+00
        -11   -1    0    0    0    0  0.00000000000E+00  0.00000000000E+00  0.45593999997E+02  0.45594000000E+02  0.51100000000E-03 0.  1.
         11   -1    0    0    0    0 -0.00000000000E+00 -0.00000000000E+00 -0.45593999997E+02  0.45594000000E+02  0.51100000000E-03 0. -1.
         23    2    1    2    0    0  0.00000000000E+00  0.66613381478E-15  0.00000000000E+00  0.91188000000E+02  0.91188000000E+02 0.  0.
    9900012    2    3    3    0    0 -0.30945435783E+02 -0.86211711821E+00 -0.19935323772E+02  0.54367076931E+02  0.39999983481E+02 0.  0.
        -12    1    3    3    0    0  0.30945435783E+02  0.86211711821E+00  0.19935323772E+02  0.36820923069E+02  0.00000000000E+00 0.  1.
         11    1    4    4    0    0  0.71524093867E+00 -0.10409518267E+02 -0.67149441567E+01  0.12408066547E+02  0.51100000000E-03 0. -1.
        -11    1    4    4    0    0 -0.26645422899E+02  0.20597163962E+01 -0.17538373404E+02  0.31965849512E+02  0.51100000000E-03 0.  1.
        -12    1    4    4    0    0 -0.50152538224E+01  0.74876847526E+01  0.43179937888E+01  0.99931608722E+01  0.00000000000E+00 0.  1.
</event>
<event>
 8    1  0.2521748E-006  0.9118800E+02  0.7816164E-02  0.1184000E+00
        -11   -1    0    0    0    0  0.00000000000E+00  0.00000000000E+00  0.45593999997E+02  0.45594000000E+02  0.51100000000E-03 0. -1.
         11   -1    0    0    0    0 -0.00000000000E+00 -0.00000000000E+00 -0.45593999997E+02  0.45594000000E+02  0.51100000000E-03 0.  1.
         23    2    1    2    0    0 -0.22204460493E-15  0.00000000000E+00  0.00000000000E+00  0.91188000000E+02  0.91188000000E+02 0.  0.
    9900012    2    3    3    0    0  0.71826908862E+00  0.30004798633E+02 -0.21330151552E+02  0.54367092669E+02  0.40000019356E+02 0.  0.
         12    1    3    3    0    0 -0.71826908862E+00 -0.30004798633E+02  0.21330151552E+02  0.36820907331E+02  0.00000000000E+00 0. -1.
         11    1    4    4    0    0 -0.90494255479E+00  0.12976634075E+02 -0.81756163300E+00  0.13033816027E+02  0.51100000000E-03 0. -1.
        -11    1    4    4    0    0 -0.44178341989E+01  0.24872104550E+02 -0.18286556713E+02  0.31185525496E+02  0.51100000000E-03 0.  1.
         12    1    4    4    0    0  0.60410458423E+01 -0.78439399925E+01 -0.22260332057E+01  0.10147751145E+02  0.00000000000E+00 0. -1.
</event>
<event>
 8    1  0.2521748E-006  0.9118800E+02  0.7816164E-02  0.1184000E+00
        -11   -1    0    0    0    0  0.00000000000E+00  0.00000000000E+00  0.45593999997E+02  0.45594000000E+02  0.51100000000E-03 0. -1.
         11   -1    0    0    0    0 -0.00000000000E+00 -0.00000000000E+00 -0.45593999997E+02  0.45594000000E+02  0.51100000000E-03 0.  1.
         23    2    1    2    0    0  0.17763568394E-14 -0.58286708793E-15  0.00000000000E+00  0.91188000000E+02  0.91188000000E+02 0.  0.
    9900012    2    3    3    0    0 -0.32802390562E+01  0.88618314399E-01 -0.36674388690E+02  0.54367100944E+02  0.40000038222E+02 0.  0.
         12    1    3    3    0    0  0.32802390562E+01 -0.88618314399E-01  0.36674388690E+02  0.36820899056E+02  0.00000000000E+00 0. -1.
         11    1    4    4    0    0  0.96169328728E+01  0.54047196638E+01 -0.83306671841E+01  0.13823762459E+02  0.51100000000E-03 0. -1.
        -11    1    4    4    0    0 -0.88746915281E+01  0.39392418914E+01  0.76025371241E+00  0.97393922996E+01  0.51100000000E-03 0.  1.
        -12    1    4    4    0    0 -0.40224804009E+01 -0.92553432408E+01 -0.29103975219E+02  0.30803946186E+02  0.00000000000E+00 0.  1.
</event>
<event>
 8    1  0.2521748E-006  0.9118800E+02  0.7816164E-02  0.1184000E+00
        -11   -1    0    0    0    0  0.00000000000E+00  0.00000000000E+00  0.45593999997E+02  0.45594000000E+02  0.51100000000E-03 0.  1.
         11   -1    0    0    0    0 -0.00000000000E+00 -0.00000000000E+00 -0.45593999997E+02  0.45594000000E+02  0.51100000000E-03 0. -1.
         23    2    1    2    0    0  0.35527136788E-14  0.00000000000E+00 -0.35527136788E-14  0.91188000000E+02  0.91188000000E+02 0.  0.
    9900012    2    3    3    0    0 -0.22306866660E+02 -0.16011850706E+02 -0.24531672839E+02  0.54367100561E+02  0.40000037349E+02 0.  0.
        -12    1    3    3    0    0  0.22306866660E+02  0.16011850706E+02  0.24531672839E+02  0.36820899439E+02  0.00000000000E+00 0.  1.
         11    1    4    4    0    0 -0.29253258145E+02 -0.12476850830E+02 -0.36884539536E+01  0.32016083639E+02  0.51100000000E-03 0. -1.
        -11    1    4    4    0    0  0.18965638501E+00  0.15385694999E+00 -0.17078152117E+01  0.17251882691E+01  0.51100000000E-03 0.  1.
         12    1    4    4    0    0  0.67567351001E+01 -0.36888568264E+01 -0.19135403673E+02  0.20625828653E+02  0.00000000000E+00 0. -1.
</event>
<event>
 8    1  0.2521748E-006  0.9118800E+02  0.7816164E-02  0.1184000E+00
        -11   -1    0    0    0    0  0.00000000000E+00  0.00000000000E+00  0.45593999997E+02  0.45594000000E+02  0.51100000000E-03 0. -1.
         11   -1    0    0    0    0 -0.00000000000E+00 -0.00000000000E+00 -0.45593999997E+02  0.45594000000E+02  0.51100000000E-03 0.  1.
         23    2    1    2    0    0  0.00000000000E+00 -0.35527136788E-14 -0.88817841970E-15  0.91188000000E+02  0.91188000000E+02 0.  0.
    9900012    2    3    3    0    0 -0.32044741159E+02  0.16329191546E+02  0.78912787384E+01  0.54367079145E+02  0.39999988527E+02 0.  0.
        -12    1    3    3    0    0  0.32044741159E+02 -0.16329191546E+02 -0.78912787384E+01  0.36820920855E+02  0.00000000000E+00 0.  1.
         11    1    4    4    0    0 -0.53502441222E+01  0.10333447364E+02  0.88470641420E+01  0.14617653395E+02  0.51100000000E-03 0. -1.
        -11    1    4    4    0    0  0.16854523473E+01  0.83290535069E+01 -0.65502284185E+01  0.10729369717E+02  0.51100000000E-03 0.  1.
        -12    1    4    4    0    0 -0.28379949384E+02 -0.23333093255E+01  0.55944430149E+01  0.29020056032E+02  0.00000000000E+00 0.  1.
</event>
<event>
 8    1  0.2521748E-006  0.9118800E+02  0.7816164E-02  0.1184000E+00
        -11   -1    0    0    0    0  0.00000000000E+00  0.00000000000E+00  0.45593999997E+02  0.45594000000E+02  0.51100000000E-03 0.  1.
         11   -1    0    0    0    0 -0.00000000000E+00 -0.00000000000E+00 -0.45593999997E+02  0.45594000000E+02  0.51100000000E-03 0. -1.
         23    2    1    2    0    0 -0.35527136788E-14  0.00000000000E+00  0.00000000000E+00  0.91188000000E+02  0.91188000000E+02 0.  0.
    9900012    2    3    3    0    0  0.18353947752E+02  0.28541248321E+02 -0.14293711550E+02  0.54367076007E+02  0.39999981374E+02 0.  0.
        -12    1    3    3    0    0 -0.18353947752E+02 -0.28541248321E+02  0.14293711550E+02  0.36820923993E+02  0.00000000000E+00 0.  1.
         11    1    4    4    0    0 -0.74821404326E+01 -0.21884881271E+01  0.10785154765E+01  0.78698857444E+01  0.51100000000E-03 0. -1.
        -11    1    4    4    0    0  0.14913709761E+02  0.63486484412E+01 -0.10576758911E+02  0.19354376900E+02  0.51100000000E-03 0.  1.
         12    1    4    4    0    0  0.10922378424E+02  0.24381088007E+02 -0.47954681159E+01  0.27142813363E+02  0.00000000000E+00 0. -1.
</event>
<event>
 8    1  0.2521748E-006  0.9118800E+02  0.7816164E-02  0.1184000E+00
        -11   -1    0    0    0    0  0.00000000000E+00  0.00000000000E+00  0.45593999997E+02  0.45594000000E+02  0.51100000000E-03 0.  1.
         11   -1    0    0    0    0 -0.00000000000E+00 -0.00000000000E+00 -0.45593999997E+02  0.45594000000E+02  0.51100000000E-03 0. -1.
         23    2    1    2    0    0 -0.35527136788E-14  0.00000000000E+00  0.00000000000E+00  0.91188000000E+02  0.91188000000E+02 0.  0.
    9900012    2    3    3    0    0  0.27707013786E+02  0.80866127369E+01  0.22862821300E+02  0.54367075021E+02  0.39999979126E+02 0.  0.
         12    1    3    3    0    0 -0.27707013786E+02 -0.80866127369E+01 -0.22862821300E+02  0.36820924979E+02  0.00000000000E+00 0. -1.
         11    1    4    4    0    0  0.95337441403E+01 -0.11053102862E+02  0.11099251768E+02  0.18337304880E+02  0.51100000000E-03 0. -1.
        -11    1    4    4    0    0 -0.25031551819E+01  0.16047184098E+01 -0.37565898576E+01  0.47909158476E+01  0.51100000000E-03 0.  1.
        -12    1    4    4    0    0  0.20676424828E+02  0.17534997189E+02  0.15520159390E+02  0.31238854293E+02  0.00000000000E+00 0.  1.
</event>
<event>
 8    1  0.2521748E-006  0.9118800E+02  0.7816164E-02  0.1184000E+00
        -11   -1    0    0    0    0  0.00000000000E+00  0.00000000000E+00  0.45593999997E+02  0.45594000000E+02  0.51100000000E-03 0.  1.
         11   -1    0    0    0    0 -0.00000000000E+00 -0.00000000000E+00 -0.45593999997E+02  0.45594000000E+02  0.51100000000E-03 0. -1.
         23    2    1    2    0    0 -0.35527136788E-14  0.00000000000E+00  0.00000000000E+00  0.91188000000E+02  0.91188000000E+02 0.  0.
    9900012    2    3    3    0    0 -0.16522451523E+02 -0.31230652741E+02 -0.10365072511E+02  0.54367084705E+02  0.40000001202E+02 0.  0.
        -12    1    3    3    0    0  0.16522451523E+02  0.31230652741E+02  0.10365072511E+02  0.36820915295E+02  0.00000000000E+00 0.  1.
         11    1    4    4    0    0 -0.82449593994E+00 -0.52949813589E+01  0.20514155364E+01  0.57380246697E+01  0.51100000000E-03 0. -1.
        -11    1    4    4    0    0  0.66962881649E+01 -0.77441398035E+01  0.82424929453E+01  0.13143464790E+02  0.51100000000E-03 0.  1.
        -12    1    4    4    0    0 -0.22394243748E+02 -0.18191531579E+02 -0.20658980992E+02  0.35485595245E+02  0.00000000000E+00 0.  1.
</event>
<event>
 8    1  0.2521748E-006  0.9118800E+02  0.7816164E-02  0.1184000E+00
        -11   -1    0    0    0    0  0.00000000000E+00  0.00000000000E+00  0.45593999997E+02  0.45594000000E+02  0.51100000000E-03 0.  1.
         11   -1    0    0    0    0 -0.00000000000E+00 -0.00000000000E+00 -0.45593999997E+02  0.45594000000E+02  0.51100000000E-03 0. -1.
         23    2    1    2    0    0  0.00000000000E+00  0.00000000000E+00  0.00000000000E+00  0.91188000000E+02  0.91188000000E+02 0.  0.
    9900012    2    3    3    0    0  0.34007376964E+02 -0.12158524538E+02  0.71727847810E+01  0.54367078659E+02  0.39999987418E+02 0.  0.
         12    1    3    3    0    0 -0.34007376964E+02  0.12158524538E+02 -0.71727847810E+01  0.36820921341E+02  0.00000000000E+00 0. -1.
         11    1    4    4    0    0  0.25532370232E+00 -0.12075970518E+02  0.50780410302E+01  0.13102700299E+02  0.51100000000E-03 0. -1.
        -11    1    4    4    0    0  0.18456105417E+02  0.10419658938E+02 -0.43245936820E+01  0.21630978488E+02  0.51100000000E-03 0.  1.
        -12    1    4    4    0    0  0.15295947844E+02 -0.10502212958E+02  0.64193374329E+01  0.19633399872E+02  0.00000000000E+00 0.  1.
</event>
<event>
 8    1  0.2521748E-006  0.9118800E+02  0.7816164E-02  0.1184000E+00
        -11   -1    0    0    0    0  0.00000000000E+00  0.00000000000E+00  0.45593999997E+02  0.45594000000E+02  0.51100000000E-03 0. -1.
         11   -1    0    0    0    0 -0.00000000000E+00 -0.00000000000E+00 -0.45593999997E+02  0.45594000000E+02  0.51100000000E-03 0.  1.
         23    2    1    2    0    0  0.00000000000E+00  0.00000000000E+00 -0.14210854715E-13  0.91188000000E+02  0.91188000000E+02 0.  0.
    9900012    2    3    3    0    0  0.62158671816E+01 -0.15455664304E+02 -0.32836928236E+02  0.54367103489E+02  0.40000044023E+02 0.  0.
         12    1    3    3    0    0 -0.62158671816E+01  0.15455664304E+02  0.32836928236E+02  0.36820896511E+02  0.00000000000E+00 0. -1.
         11    1    4    4    0    0  0.53693645119E+01  0.42328631406E+01 -0.75085641737E+01  0.10155084531E+02  0.51100000000E-03 0. -1.
        -11    1    4    4    0    0  0.33384722456E+01 -0.13416106871E+02  0.37789841848E+01  0.14332412296E+02  0.51100000000E-03 0.  1.
        -12    1    4    4    0    0 -0.24919695758E+01 -0.62724205738E+01 -0.29107348247E+02  0.29879606661E+02  0.00000000000E+00 0.  1.
</event>
<event>
 8    1  0.2521748E-006  0.9118800E+02  0.7816164E-02  0.1184000E+00
        -11   -1    0    0    0    0  0.00000000000E+00  0.00000000000E+00  0.45593999997E+02  0.45594000000E+02  0.51100000000E-03 0. -1.
         11   -1    0    0    0    0 -0.00000000000E+00 -0.00000000000E+00 -0.45593999997E+02  0.45594000000E+02  0.51100000000E-03 0.  1.
         23    2    1    2    0    0  0.35527136788E-14  0.00000000000E+00  0.35527136788E-14  0.91188000000E+02  0.91188000000E+02 0.  0.
    9900012    2    3    3    0    0 -0.16634317840E+02 -0.27851686156E+02  0.17417316369E+02  0.54367083916E+02  0.39999999404E+02 0.  0.
        -12    1    3    3    0    0  0.16634317840E+02  0.27851686156E+02 -0.17417316369E+02  0.36820916084E+02  0.00000000000E+00 0.  1.
         11    1    4    4    0    0  0.24419351610E+01  0.12148546760E+00  0.54695419501E+01  0.59911347385E+01  0.51100000000E-03 0. -1.
        -11    1    4    4    0    0 -0.81368113527E+00 -0.18488276607E+02  0.19095069026E+02  0.26591354051E+02  0.51100000000E-03 0.  1.
        -12    1    4    4    0    0 -0.18262571866E+02 -0.94848950169E+01 -0.71472946076E+01  0.21784595127E+02  0.00000000000E+00 0.  1.
</event>
<event>
 8    1  0.2521748E-006  0.9118800E+02  0.7816164E-02  0.1184000E+00
        -11   -1    0    0    0    0  0.00000000000E+00  0.00000000000E+00  0.45593999997E+02  0.45594000000E+02  0.51100000000E-03 0. -1.
         11   -1    0    0    0    0 -0.00000000000E+00 -0.00000000000E+00 -0.45593999997E+02  0.45594000000E+02  0.51100000000E-03 0.  1.
         23    2    1    2    0    0  0.13322676296E-14  0.35527136788E-14  0.35527136788E-14  0.91188000000E+02  0.91188000000E+02 0.  0.
    9900012    2    3    3    0    0 -0.22373521213E+01  0.18757373771E+02  0.31605929810E+02  0.54367087267E+02  0.40000007044E+02 0.  0.
        -12    1    3    3    0    0  0.22373521213E+01 -0.18757373771E+02 -0.31605929810E+02  0.36820912733E+02  0.00000000000E+00 0.  1.
         11    1    4    4    0    0 -0.68437033162E+01  0.92149376974E+01  0.28813130504E+02  0.31015283999E+02  0.51100000000E-03 0. -1.
        -11    1    4    4    0    0  0.35171442304E+01  0.10377506834E+02 -0.72998413769E+01  0.13166268872E+02  0.51100000000E-03 0.  1.
         12    1    4    4    0    0  0.10892069645E+01 -0.83507075985E+00  0.10092640683E+02  0.10185534397E+02  0.00000000000E+00 0. -1.
</event>
<event>
 8    1  0.2521748E-006  0.9118800E+02  0.7816164E-02  0.1184000E+00
        -11   -1    0    0    0    0  0.00000000000E+00  0.00000000000E+00  0.45593999997E+02  0.45594000000E+02  0.51100000000E-03 0.  1.
         11   -1    0    0    0    0 -0.00000000000E+00 -0.00000000000E+00 -0.45593999997E+02  0.45594000000E+02  0.51100000000E-03 0. -1.
         23    2    1    2    0    0  0.00000000000E+00  0.17763568394E-14  0.00000000000E+00  0.91188000000E+02  0.91188000000E+02 0.  0.
    9900012    2    3    3    0    0 -0.81937720355E+01  0.13352948492E+02  0.33321767114E+02  0.54367091576E+02  0.40000016865E+02 0.  0.
         12    1    3    3    0    0  0.81937720355E+01 -0.13352948492E+02 -0.33321767114E+02  0.36820908424E+02  0.00000000000E+00 0. -1.
         11    1    4    4    0    0 -0.36595852947E+01  0.19065465943E+02  0.12813741331E+02  0.23261051638E+02  0.51100000000E-03 0. -1.
        -11    1    4    4    0    0 -0.29434936125E+01 -0.10629699151E+01 -0.45767645699E+01  0.55444417101E+01  0.51100000000E-03 0.  1.
         12    1    4    4    0    0 -0.15906931283E+01 -0.46495475359E+01  0.25084790353E+02  0.25561598228E+02  0.00000000000E+00 0. -1.
</event>
<event>
 8    1  0.2521748E-006  0.9118800E+02  0.7816164E-02  0.1184000E+00
        -11   -1    0    0    0    0  0.00000000000E+00  0.00000000000E+00  0.45593999997E+02  0.45594000000E+02  0.51100000000E-03 0. -1.
         11   -1    0    0    0    0 -0.00000000000E+00 -0.00000000000E+00 -0.45593999997E+02  0.45594000000E+02  0.51100000000E-03 0.  1.
         23    2    1    2    0    0  0.00000000000E+00  0.00000000000E+00  0.00000000000E+00  0.91188000000E+02  0.91188000000E+02 0.  0.
    9900012    2    3    3    0    0  0.25360595305E+02  0.48240139090E+01  0.26255505909E+02  0.54367048152E+02  0.39999917872E+02 0.  0.
        -12    1    3    3    0    0 -0.25360595305E+02 -0.48240139090E+01 -0.26255505909E+02  0.36820951848E+02  0.00000000000E+00 0.  1.
         11    1    4    4    0    0  0.20073189213E+02 -0.14803065569E+01  0.24072366999E+02  0.31378385648E+02  0.51100000000E-03 0. -1.
        -11    1    4    4    0    0 -0.64655285092E+01 -0.36988609748E+01  0.55493150794E+00  0.74694431288E+01  0.51100000000E-03 0.  1.
        -12    1    4    4    0    0  0.11752934601E+02  0.10003181441E+02  0.16282074025E+01  0.15519219375E+02  0.00000000000E+00 0.  1.
</event>
<event>
 8    1  0.2521748E-006  0.9118800E+02  0.7816164E-02  0.1184000E+00
        -11   -1    0    0    0    0  0.00000000000E+00  0.00000000000E+00  0.45593999997E+02  0.45594000000E+02  0.51100000000E-03 0. -1.
         11   -1    0    0    0    0 -0.00000000000E+00 -0.00000000000E+00 -0.45593999997E+02  0.45594000000E+02  0.51100000000E-03 0.  1.
         23    2    1    2    0    0  0.17763568394E-14  0.00000000000E+00  0.71054273576E-14  0.91188000000E+02  0.91188000000E+02 0.  0.
    9900012    2    3    3    0    0 -0.14432876918E+02 -0.77372950351E+01 -0.32979087564E+02  0.54366893456E+02  0.39999565209E+02 0.  0.
         12    1    3    3    0    0  0.14432876918E+02  0.77372950351E+01  0.32979087564E+02  0.36821106544E+02  0.00000000000E+00 0. -1.
         11    1    4    4    0    0 -0.11981048096E+02 -0.66564515210E+01 -0.12832116026E+02  0.18775437739E+02  0.51100000000E-03 0. -1.
        -11    1    4    4    0    0 -0.93887210165E+01 -0.12702411203E+02 -0.11318933958E+02  0.19432385312E+02  0.51100000000E-03 0.  1.
         12    1    4    4    0    0  0.69368921943E+01  0.11621567689E+02 -0.88280375795E+01  0.16159070405E+02  0.00000000000E+00 0. -1.
</event>
<event>
 8    1  0.2521748E-006  0.9118800E+02  0.7816164E-02  0.1184000E+00
        -11   -1    0    0    0    0  0.00000000000E+00  0.00000000000E+00  0.45593999997E+02  0.45594000000E+02  0.51100000000E-03 0. -1.
         11   -1    0    0    0    0 -0.00000000000E+00 -0.00000000000E+00 -0.45593999997E+02  0.45594000000E+02  0.51100000000E-03 0.  1.
         23    2    1    2    0    0  0.00000000000E+00  0.17763568394E-14  0.35527136788E-14  0.91188000000E+02  0.91188000000E+02 0.  0.
    9900012    2    3    3    0    0 -0.16799711928E+02  0.15408660608E+02  0.28915743785E+02  0.54367117593E+02  0.40000076177E+02 0.  0.
        -12    1    3    3    0    0  0.16799711928E+02 -0.15408660608E+02 -0.28915743785E+02  0.36820882407E+02  0.00000000000E+00 0.  1.
         11    1    4    4    0    0  0.72878315698E+01  0.41536201285E+00  0.41279407093E+01  0.83859948338E+01  0.51100000000E-03 0. -1.
        -11    1    4    4    0    0  0.45482895190E+01  0.80027474850E+01  0.68678359476E+01  0.11484688752E+02  0.51100000000E-03 0.  1.
        -12    1    4    4    0    0 -0.28635833016E+02  0.69905511103E+01  0.17919967128E+02  0.34496434008E+02  0.00000000000E+00 0.  1.
</event>
<event>
 8    1  0.2521748E-006  0.9118800E+02  0.7816164E-02  0.1184000E+00
        -11   -1    0    0    0    0  0.00000000000E+00  0.00000000000E+00  0.45593999997E+02  0.45594000000E+02  0.51100000000E-03 0. -1.
         11   -1    0    0    0    0 -0.00000000000E+00 -0.00000000000E+00 -0.45593999997E+02  0.45594000000E+02  0.51100000000E-03 0.  1.
         23    2    1    2    0    0  0.00000000000E+00  0.00000000000E+00 -0.88817841970E-15  0.91188000000E+02  0.91188000000E+02 0.  0.
    9900012    2    3    3    0    0 -0.12875795417E+02 -0.34465525271E+02 -0.14565182075E+01  0.54367082234E+02  0.39999995569E+02 0.  0.
         12    1    3    3    0    0  0.12875795417E+02  0.34465525271E+02  0.14565182075E+01  0.36820917766E+02  0.00000000000E+00 0. -1.
         11    1    4    4    0    0 -0.52039713854E+01 -0.20336491423E+01 -0.46563219602E+01  0.72731273516E+01  0.51100000000E-03 0.  1.
        -11    1    4    4    0    0  0.70702341357E+01  0.10003329126E+01 -0.60993115167E+01  0.93909785384E+01  0.51100000000E-03 0. -1.
         12    1    4    4    0    0 -0.14742058168E+02 -0.33432209041E+02  0.92991152694E+01  0.37702976344E+02  0.00000000000E+00 0. -1.
</event>
<event>
 8    1  0.2521748E-006  0.9118800E+02  0.7816164E-02  0.1184000E+00
        -11   -1    0    0    0    0  0.00000000000E+00  0.00000000000E+00  0.45593999997E+02  0.45594000000E+02  0.51100000000E-03 0. -1.
         11   -1    0    0    0    0 -0.00000000000E+00 -0.00000000000E+00 -0.45593999997E+02  0.45594000000E+02  0.51100000000E-03 0.  1.
         23    2    1    2    0    0  0.35527136788E-14  0.00000000000E+00  0.00000000000E+00  0.91188000000E+02  0.91188000000E+02 0.  0.
    9900012    2    3    3    0    0  0.24624358777E+02  0.25904181680E+02  0.88540053227E+01  0.54367094472E+02  0.40000023467E+02 0.  0.
        -12    1    3    3    0    0 -0.24624358777E+02 -0.25904181680E+02 -0.88540053227E+01  0.36820905528E+02  0.00000000000E+00 0.  1.
         11    1    4    4    0    0  0.28212357583E+02  0.18418088992E+02  0.14389093763E+02  0.36636172590E+02  0.51100000000E-03 0. -1.
        -11    1    4    4    0    0 -0.62301408827E+01 -0.22540687629E+01 -0.32668769270E+01  0.73870133696E+01  0.51100000000E-03 0.  1.
        -12    1    4    4    0    0  0.26421420771E+01  0.97401614500E+01 -0.22682115131E+01  0.10343908512E+02  0.00000000000E+00 0.  1.
</event>
<event>
 8    1  0.2521748E-006  0.9118800E+02  0.7816164E-02  0.1184000E+00
        -11   -1    0    0    0    0  0.00000000000E+00  0.00000000000E+00  0.45593999997E+02  0.45594000000E+02  0.51100000000E-03 0. -1.
         11   -1    0    0    0    0 -0.00000000000E+00 -0.00000000000E+00 -0.45593999997E+02  0.45594000000E+02  0.51100000000E-03 0.  1.
         23    2    1    2    0    0  0.00000000000E+00  0.17763568394E-14  0.00000000000E+00  0.91188000000E+02  0.91188000000E+02 0.  0.
    9900012    2    3    3    0    0  0.24898048346E+02  0.99839564871E+01 -0.25222756726E+02  0.54367086711E+02  0.40000005774E+02 0.  0.
         12    1    3    3    0    0 -0.24898048346E+02 -0.99839564871E+01  0.25222756726E+02  0.36820913289E+02  0.00000000000E+00 0. -1.
         11    1    4    4    0    0  0.34535091414E+01  0.16656265517E+02 -0.82230797962E+01  0.18893833596E+02  0.51100000000E-03 0.  1.
        -11    1    4    4    0    0  0.17975169586E+02 -0.10545149312E+02 -0.20478113268E+02  0.29217460858E+02  0.51100000000E-03 0. -1.
        -12    1    4    4    0    0  0.34693696185E+01  0.38728402827E+01  0.34784363383E+01  0.62557922572E+01  0.00000000000E+00 0.  1.
</event>
<event>
 8    1  0.2521748E-006  0.9118800E+02  0.7816164E-02  0.1184000E+00
        -11   -1    0    0    0    0  0.00000000000E+00  0.00000000000E+00  0.45593999997E+02  0.45594000000E+02  0.51100000000E-03 0.  1.
         11   -1    0    0    0    0 -0.00000000000E+00 -0.00000000000E+00 -0.45593999997E+02  0.45594000000E+02  0.51100000000E-03 0. -1.
         23    2    1    2    0    0  0.35527136788E-14  0.00000000000E+00  0.88817841970E-15  0.91188000000E+02  0.91188000000E+02 0.  0.
    9900012    2    3    3    0    0 -0.29075860004E+02  0.21950598124E+02 -0.53428107712E+01  0.54367081761E+02  0.39999994491E+02 0.  0.
        -12    1    3    3    0    0  0.29075860004E+02 -0.21950598124E+02  0.53428107712E+01  0.36820918239E+02  0.00000000000E+00 0.  1.
         11    1    4    4    0    0 -0.84285652684E+01  0.16699662579E+02 -0.14472089478E+02  0.23650810068E+02  0.51100000000E-03 0. -1.
        -11    1    4    4    0    0 -0.11055890989E+02 -0.75033341558E+01  0.45256995167E+01  0.14107257189E+02  0.51100000000E-03 0.  1.
        -12    1    4    4    0    0 -0.95914037465E+01  0.12754269701E+02  0.46035791904E+01  0.16609014504E+02  0.00000000000E+00 0.  1.
</event>
<event>
 8    1  0.2521748E-006  0.9118800E+02  0.7816164E-02  0.1184000E+00
        -11   -1    0    0    0    0  0.00000000000E+00  0.00000000000E+00  0.45593999997E+02  0.45594000000E+02  0.51100000000E-03 0.  1.
         11   -1    0    0    0    0 -0.00000000000E+00 -0.00000000000E+00 -0.45593999997E+02  0.45594000000E+02  0.51100000000E-03 0. -1.
         23    2    1    2    0    0  0.00000000000E+00  0.00000000000E+00  0.00000000000E+00  0.91188000000E+02  0.91188000000E+02 0.  0.
    9900012    2    3    3    0    0  0.13422020127E+02 -0.30103999082E+02  0.16412744225E+02  0.54367088033E+02  0.40000008790E+02 0.  0.
         12    1    3    3    0    0 -0.13422020127E+02  0.30103999082E+02 -0.16412744225E+02  0.36820911967E+02  0.00000000000E+00 0. -1.
         11    1    4    4    0    0 -0.92986483456E+00 -0.72891741562E+01  0.85544237754E+01  0.11277183819E+02  0.51100000000E-03 0. -1.
        -11    1    4    4    0    0  0.10802043904E+02 -0.16615896833E+02 -0.11180780940E+02  0.22754824604E+02  0.51100000000E-03 0.  1.
        -12    1    4    4    0    0  0.35498410579E+01 -0.61989280933E+01  0.19039101390E+02  0.20335079611E+02  0.00000000000E+00 0.  1.
</event>
<event>
 8    1  0.2521748E-006  0.9118800E+02  0.7816164E-02  0.1184000E+00
        -11   -1    0    0    0    0  0.00000000000E+00  0.00000000000E+00  0.45593999997E+02  0.45594000000E+02  0.51100000000E-03 0.  1.
         11   -1    0    0    0    0 -0.00000000000E+00 -0.00000000000E+00 -0.45593999997E+02  0.45594000000E+02  0.51100000000E-03 0. -1.
         23    2    1    2    0    0  0.00000000000E+00  0.22204460493E-15  0.00000000000E+00  0.91188000000E+02  0.91188000000E+02 0.  0.
    9900012    2    3    3    0    0 -0.52166495187E+01 -0.13087385324E+01  0.36426022500E+02  0.54367063783E+02  0.39999953506E+02 0.  0.
         12    1    3    3    0    0  0.52166495187E+01  0.13087385324E+01 -0.36426022500E+02  0.36820936217E+02  0.00000000000E+00 0. -1.
         11    1    4    4    0    0 -0.86221072364E+01 -0.56997839074E+01  0.17473454542E+02  0.20301474914E+02  0.51100000000E-03 0. -1.
        -11    1    4    4    0    0  0.47532281486E+01 -0.11072028244E+02  0.12172968909E+02  0.17127876681E+02  0.51100000000E-03 0.  1.
         12    1    4    4    0    0 -0.13477704309E+01  0.15463073619E+02  0.67795990491E+01  0.16937712188E+02  0.00000000000E+00 0. -1.
</event>
<event>
 8    1  0.2521748E-006  0.9118800E+02  0.7816164E-02  0.1184000E+00
        -11   -1    0    0    0    0  0.00000000000E+00  0.00000000000E+00  0.45593999997E+02  0.45594000000E+02  0.51100000000E-03 0.  1.
         11   -1    0    0    0    0 -0.00000000000E+00 -0.00000000000E+00 -0.45593999997E+02  0.45594000000E+02  0.51100000000E-03 0. -1.
         23    2    1    2    0    0  0.00000000000E+00  0.00000000000E+00  0.17763568394E-14  0.91188000000E+02  0.91188000000E+02 0.  0.
    9900012    2    3    3    0    0  0.30433284702E+02  0.14983229444E+02  0.14321238520E+02  0.54367084000E+02  0.39999999594E+02 0.  0.
         12    1    3    3    0    0 -0.30433284702E+02 -0.14983229444E+02 -0.14321238520E+02  0.36820916000E+02  0.00000000000E+00 0. -1.
         11    1    4    4    0    0  0.30567384138E+02  0.24673677330E+02  0.69215274125E+01  0.39888129412E+02  0.51100000000E-03 0. -1.
        -11    1    4    4    0    0  0.25822959347E+01 -0.48102467009E+01  0.70029150880E+01  0.88796140461E+01  0.51100000000E-03 0.  1.
        -12    1    4    4    0    0 -0.27163953704E+01 -0.48802011853E+01  0.39679601935E+00  0.55993405414E+01  0.00000000000E+00 0.  1.
</event>
<event>
 8    1  0.2521748E-006  0.9118800E+02  0.7816164E-02  0.1184000E+00
        -11   -1    0    0    0    0  0.00000000000E+00  0.00000000000E+00  0.45593999997E+02  0.45594000000E+02  0.51100000000E-03 0.  1.
         11   -1    0    0    0    0 -0.00000000000E+00 -0.00000000000E+00 -0.45593999997E+02  0.45594000000E+02  0.51100000000E-03 0. -1.
         23    2    1    2    0    0  0.88817841970E-15  0.17763568394E-14  0.00000000000E+00  0.91188000000E+02  0.91188000000E+02 0.  0.
    9900012    2    3    3    0    0  0.71411323206E+01  0.10694427174E+02  0.34502160897E+02  0.54367276895E+02  0.40000439336E+02 0.  0.
         12    1    3    3    0    0 -0.71411323206E+01 -0.10694427174E+02 -0.34502160897E+02  0.36820723105E+02  0.00000000000E+00 0. -1.
         11    1    4    4    0    0  0.17752133128E+02 -0.52838179596E+01  0.23399134541E+02  0.29842527714E+02  0.51100000000E-03 0. -1.
        -11    1    4    4    0    0 -0.16542371827E+01  0.39859154289E+01  0.82166725748E+01  0.92810414785E+01  0.51100000000E-03 0.  1.
         12    1    4    4    0    0 -0.89567636249E+01  0.11992329705E+02  0.28863537812E+01  0.15243707703E+02  0.00000000000E+00 0. -1.
</event>
<event>
 8    1  0.2521748E-006  0.9118800E+02  0.7816164E-02  0.1184000E+00
        -11   -1    0    0    0    0  0.00000000000E+00  0.00000000000E+00  0.45593999997E+02  0.45594000000E+02  0.51100000000E-03 0.  1.
         11   -1    0    0    0    0 -0.00000000000E+00 -0.00000000000E+00 -0.45593999997E+02  0.45594000000E+02  0.51100000000E-03 0. -1.
         23    2    1    2    0    0 -0.44408920985E-15  0.00000000000E+00  0.00000000000E+00  0.91188000000E+02  0.91188000000E+02 0.  0.
    9900012    2    3    3    0    0  0.31575265647E+01  0.27124055381E+02  0.24700142380E+02  0.54367063185E+02  0.39999952143E+02 0.  0.
         12    1    3    3    0    0 -0.31575265647E+01 -0.27124055381E+02 -0.24700142380E+02  0.36820936815E+02  0.00000000000E+00 0. -1.
         11    1    4    4    0    0  0.43035528533E+00  0.21805679004E+01 -0.71101090705E+01  0.74494116073E+01  0.51100000000E-03 0. -1.
        -11    1    4    4    0    0 -0.52951659191E+00  0.25235287961E+02  0.14108105393E+02  0.28916064468E+02  0.51100000000E-03 0.  1.
        -12    1    4    4    0    0  0.32566878713E+01 -0.29180048003E+00  0.17702146058E+02  0.18001587109E+02  0.00000000000E+00 0.  1.
</event>
<event>
 8    1  0.2521748E-006  0.9118800E+02  0.7816164E-02  0.1184000E+00
        -11   -1    0    0    0    0  0.00000000000E+00  0.00000000000E+00  0.45593999997E+02  0.45594000000E+02  0.51100000000E-03 0. -1.
         11   -1    0    0    0    0 -0.00000000000E+00 -0.00000000000E+00 -0.45593999997E+02  0.45594000000E+02  0.51100000000E-03 0.  1.
         23    2    1    2    0    0 -0.17763568394E-14 -0.35527136788E-14  0.00000000000E+00  0.91188000000E+02  0.91188000000E+02 0.  0.
    9900012    2    3    3    0    0 -0.78430168857E+01 -0.27768734773E+02  0.22872551361E+02  0.54367229360E+02  0.40000330972E+02 0.  0.
         12    1    3    3    0    0  0.78430168857E+01  0.27768734773E+02 -0.22872551361E+02  0.36820770640E+02  0.00000000000E+00 0. -1.
         11    1    4    4    0    0 -0.10115835714E+02  0.71718704005E+00  0.18220146132E+01  0.10303602620E+02  0.51100000000E-03 0. -1.
        -11    1    4    4    0    0 -0.21228005285E+01  0.41307690790E+01 -0.57981497231E+00  0.46803547869E+01  0.51100000000E-03 0.  1.
         12    1    4    4    0    0  0.43956193565E+01 -0.32616690892E+02  0.21630351720E+02  0.39383271954E+02  0.00000000000E+00 0. -1.
</event>
<event>
 8    1  0.2521748E-006  0.9118800E+02  0.7816164E-02  0.1184000E+00
        -11   -1    0    0    0    0  0.00000000000E+00  0.00000000000E+00  0.45593999997E+02  0.45594000000E+02  0.51100000000E-03 0. -1.
         11   -1    0    0    0    0 -0.00000000000E+00 -0.00000000000E+00 -0.45593999997E+02  0.45594000000E+02  0.51100000000E-03 0.  1.
         23    2    1    2    0    0 -0.17763568394E-14  0.00000000000E+00  0.00000000000E+00  0.91188000000E+02  0.91188000000E+02 0.  0.
    9900012    2    3    3    0    0 -0.10552370835E+02 -0.27120296499E+02 -0.22558854641E+02  0.54367286602E+02  0.40000461464E+02 0.  0.
         12    1    3    3    0    0  0.10552370835E+02  0.27120296499E+02  0.22558854641E+02  0.36820713398E+02  0.00000000000E+00 0. -1.
         11    1    4    4    0    0  0.63447784881E+01 -0.23788690551E+00  0.37172366531E+00  0.63601087245E+01  0.51100000000E-03 0. -1.
        -11    1    4    4    0    0 -0.23970393976E+02 -0.20669110362E+02 -0.22001406594E+02  0.38546774222E+02  0.51100000000E-03 0.  1.
        -12    1    4    4    0    0  0.70732446534E+01 -0.62132992308E+01 -0.92917171289E+00  0.94604036558E+01  0.00000000000E+00 0.  1.
</event>
<event>
 8    1  0.2521748E-006  0.9118800E+02  0.7816164E-02  0.1184000E+00
        -11   -1    0    0    0    0  0.00000000000E+00  0.00000000000E+00  0.45593999997E+02  0.45594000000E+02  0.51100000000E-03 0.  1.
         11   -1    0    0    0    0 -0.00000000000E+00 -0.00000000000E+00 -0.45593999997E+02  0.45594000000E+02  0.51100000000E-03 0. -1.
         23    2    1    2    0    0  0.35527136788E-14  0.35527136788E-14 -0.71054273576E-14  0.91188000000E+02  0.91188000000E+02 0.  0.
    9900012    2    3    3    0    0 -0.15124289918E+02 -0.21705705894E+02  0.25610517798E+02  0.54367076115E+02  0.39999981618E+02 0.  0.
         12    1    3    3    0    0  0.15124289918E+02  0.21705705894E+02 -0.25610517798E+02  0.36820923885E+02  0.00000000000E+00 0. -1.
         11    1    4    4    0    0 -0.60263113792E+01  0.23274825135E+01  0.53193776616E+01  0.83683560308E+01  0.51100000000E-03 0. -1.
        -11    1    4    4    0    0  0.10712043012E+02 -0.11668673164E+02  0.12892116055E+01  0.15892383891E+02  0.51100000000E-03 0.  1.
        -12    1    4    4    0    0 -0.19810021551E+02 -0.12364515243E+02  0.19001928531E+02  0.30106336193E+02  0.00000000000E+00 0.  1.
</event>
<event>
 8    1  0.2521748E-006  0.9118800E+02  0.7816164E-02  0.1184000E+00
        -11   -1    0    0    0    0  0.00000000000E+00  0.00000000000E+00  0.45593999997E+02  0.45594000000E+02  0.51100000000E-03 0. -1.
         11   -1    0    0    0    0 -0.00000000000E+00 -0.00000000000E+00 -0.45593999997E+02  0.45594000000E+02  0.51100000000E-03 0.  1.
         23    2    1    2    0    0 -0.71054273576E-14 -0.17763568394E-14 -0.88817841970E-15  0.91188000000E+02  0.91188000000E+02 0.  0.
    9900012    2    3    3    0    0  0.35483315292E+02 -0.85028134554E+01 -0.49415814753E+01  0.54367044985E+02  0.39999910652E+02 0.  0.
         12    1    3    3    0    0 -0.35483315292E+02  0.85028134554E+01  0.49415814753E+01  0.36820955015E+02  0.00000000000E+00 0. -1.
         11    1    4    4    0    0 -0.11739119411E+01 -0.99649451305E+01 -0.11162124949E+02  0.15009038422E+02  0.51100000000E-03 0. -1.
        -11    1    4    4    0    0  0.43312210757E+01 -0.41010237268E+00 -0.34633126919E+01  0.55607728802E+01  0.51100000000E-03 0.  1.
         12    1    4    4    0    0  0.32326006157E+02  0.18722340478E+01  0.96838561659E+01  0.33797233683E+02  0.00000000000E+00 0. -1.
</event>
<event>
 8    1  0.2521748E-006  0.9118800E+02  0.7816164E-02  0.1184000E+00
        -11   -1    0    0    0    0  0.00000000000E+00  0.00000000000E+00  0.45593999997E+02  0.45594000000E+02  0.51100000000E-03 0. -1.
         11   -1    0    0    0    0 -0.00000000000E+00 -0.00000000000E+00 -0.45593999997E+02  0.45594000000E+02  0.51100000000E-03 0.  1.
         23    2    1    2    0    0  0.44408920985E-15  0.22204460493E-15  0.00000000000E+00  0.91188000000E+02  0.91188000000E+02 0.  0.
    9900012    2    3    3    0    0 -0.11888117268E+01 -0.37151451971E+00 -0.36799862673E+02  0.54367065885E+02  0.39999958297E+02 0.  0.
         12    1    3    3    0    0  0.11888117268E+01  0.37151451971E+00  0.36799862673E+02  0.36820934115E+02  0.00000000000E+00 0. -1.
         11    1    4    4    0    0 -0.55258190692E+01 -0.57585940967E+01 -0.22461355067E+01  0.82910317411E+01  0.51100000000E-03 0. -1.
        -11    1    4    4    0    0 -0.27901014219E+01  0.21577137738E+01 -0.37536747460E+02  0.37702092844E+02  0.51100000000E-03 0.  1.
        -12    1    4    4    0    0  0.71271087643E+01  0.32293658031E+01  0.29830202931E+01  0.83739413001E+01  0.00000000000E+00 0.  1.
</event>
<event>
 8    1  0.2521748E-006  0.9118800E+02  0.7816164E-02  0.1184000E+00
        -11   -1    0    0    0    0  0.00000000000E+00  0.00000000000E+00  0.45593999997E+02  0.45594000000E+02  0.51100000000E-03 0.  1.
         11   -1    0    0    0    0 -0.00000000000E+00 -0.00000000000E+00 -0.45593999997E+02  0.45594000000E+02  0.51100000000E-03 0. -1.
         23    2    1    2    0    0  0.35527136788E-14 -0.35527136788E-14  0.00000000000E+00  0.91188000000E+02  0.91188000000E+02 0.  0.
    9900012    2    3    3    0    0  0.27077791938E+02 -0.16477418170E+02  0.18737070962E+02  0.54366946864E+02  0.39999686966E+02 0.  0.
         12    1    3    3    0    0 -0.27077791938E+02  0.16477418170E+02 -0.18737070962E+02  0.36821053136E+02  0.00000000000E+00 0. -1.
         11    1    4    4    0    0 -0.54260731918E+01  0.29905614911E+01  0.27148830533E+01  0.67643416952E+01  0.51100000000E-03 0. -1.
        -11    1    4    4    0    0  0.29954250803E+02 -0.16149004338E+02  0.21840192073E+02  0.40435646061E+02  0.51100000000E-03 0.  1.
        -12    1    4    4    0    0  0.25496143267E+01 -0.33189753225E+01 -0.58180041645E+01  0.71669591085E+01  0.00000000000E+00 0.  1.
</event>
<event>
 8    1  0.2521748E-006  0.9118800E+02  0.7816164E-02  0.1184000E+00
        -11   -1    0    0    0    0  0.00000000000E+00  0.00000000000E+00  0.45593999997E+02  0.45594000000E+02  0.51100000000E-03 0.  1.
         11   -1    0    0    0    0 -0.00000000000E+00 -0.00000000000E+00 -0.45593999997E+02  0.45594000000E+02  0.51100000000E-03 0. -1.
         23    2    1    2    0    0  0.71054273576E-14  0.35527136788E-14 -0.17763568394E-14  0.91188000000E+02  0.91188000000E+02 0.  0.
    9900012    2    3    3    0    0 -0.33950837196E+02 -0.13039947864E+02  0.57515414161E+01  0.54367084541E+02  0.40000000827E+02 0.  0.
        -12    1    3    3    0    0  0.33950837196E+02  0.13039947864E+02 -0.57515414161E+01  0.36820915459E+02  0.00000000000E+00 0.  1.
         11    1    4    4    0    0 -0.12185342745E+02  0.52423208571E+01 -0.11834875687E+02  0.17777198558E+02  0.51100000000E-03 0. -1.
        -11    1    4    4    0    0  0.18221323390E+01 -0.22845108260E+01 -0.30589681363E+00  0.29381506253E+01  0.51100000000E-03 0.  1.
         12    1    4    4    0    0 -0.23587626790E+02 -0.15997757895E+02  0.17892313917E+02  0.33651735357E+02  0.00000000000E+00 0. -1.
</event>
<event>
 8    1  0.2521748E-006  0.9118800E+02  0.7816164E-02  0.1184000E+00
        -11   -1    0    0    0    0  0.00000000000E+00  0.00000000000E+00  0.45593999997E+02  0.45594000000E+02  0.51100000000E-03 0. -1.
         11   -1    0    0    0    0 -0.00000000000E+00 -0.00000000000E+00 -0.45593999997E+02  0.45594000000E+02  0.51100000000E-03 0.  1.
         23    2    1    2    0    0  0.66613381478E-15  0.35527136788E-14  0.35527136788E-14  0.91188000000E+02  0.91188000000E+02 0.  0.
    9900012    2    3    3    0    0 -0.12403392662E+01 -0.25057287796E+02 -0.26951328218E+02  0.54367079236E+02  0.39999988734E+02 0.  0.
         12    1    3    3    0    0  0.12403392662E+01  0.25057287796E+02  0.26951328218E+02  0.36820920764E+02  0.00000000000E+00 0. -1.
         11    1    4    4    0    0  0.28552883267E+01  0.56596974820E+01  0.32171306932E+01  0.71087816942E+01  0.51100000000E-03 0. -1.
        -11    1    4    4    0    0  0.41262314600E+01 -0.19827294529E+02 -0.26068268369E+02  0.33010634808E+02  0.51100000000E-03 0.  1.
        -12    1    4    4    0    0 -0.82218590530E+01 -0.10889690749E+02 -0.41001905424E+01  0.14247662734E+02  0.00000000000E+00 0.  1.
</event>
<event>
 8    1  0.2521748E-006  0.9118800E+02  0.7816164E-02  0.1184000E+00
        -11   -1    0    0    0    0  0.00000000000E+00  0.00000000000E+00  0.45593999997E+02  0.45594000000E+02  0.51100000000E-03 0.  1.
         11   -1    0    0    0    0 -0.00000000000E+00 -0.00000000000E+00 -0.45593999997E+02  0.45594000000E+02  0.51100000000E-03 0. -1.
         23    2    1    2    0    0  0.71054273576E-14  0.00000000000E+00  0.00000000000E+00  0.91188000000E+02  0.91188000000E+02 0.  0.
    9900012    2    3    3    0    0  0.36096880852E+02  0.65852072342E+01 -0.30714280655E+01  0.54367035430E+02  0.39999888869E+02 0.  0.
         12    1    3    3    0    0 -0.36096880852E+02 -0.65852072342E+01  0.30714280655E+01  0.36820964570E+02  0.00000000000E+00 0. -1.
         11    1    4    4    0    0  0.13097916357E+02  0.16681421084E+02  0.25872757443E+01  0.21366310358E+02  0.51100000000E-03 0.  1.
        -11    1    4    4    0    0  0.53004567169E+01 -0.13128203024E+02  0.52716312305E-01  0.14157942482E+02  0.51100000000E-03 0. -1.
         12    1    4    4    0    0  0.17698507777E+02  0.30319891749E+01 -0.57114201222E+01  0.18842782590E+02  0.00000000000E+00 0. -1.
</event>
<event>
 8    1  0.2521748E-006  0.9118800E+02  0.7816164E-02  0.1184000E+00
        -11   -1    0    0    0    0  0.00000000000E+00  0.00000000000E+00  0.45593999997E+02  0.45594000000E+02  0.51100000000E-03 0. -1.
         11   -1    0    0    0    0 -0.00000000000E+00 -0.00000000000E+00 -0.45593999997E+02  0.45594000000E+02  0.51100000000E-03 0.  1.
         23    2    1    2    0    0  0.17763568394E-14 -0.44408920985E-15 -0.71054273576E-14  0.91188000000E+02  0.91188000000E+02 0.  0.
    9900012    2    3    3    0    0 -0.10234843936E+02  0.13742263654E+01  0.35343138895E+02  0.54367109252E+02  0.40000057161E+02 0.  0.
        -12    1    3    3    0    0  0.10234843936E+02 -0.13742263654E+01 -0.35343138895E+02  0.36820890748E+02  0.00000000000E+00 0.  1.
         11    1    4    4    0    0 -0.16267539768E+02 -0.10631346879E+02  0.15229302765E+02  0.24689877471E+02  0.51100000000E-03 0. -1.
        -11    1    4    4    0    0 -0.12901328760E+01  0.13597828505E+02  0.93148190844E+01  0.16532732313E+02  0.51100000000E-03 0.  1.
        -12    1    4    4    0    0  0.73228287075E+01 -0.15922552608E+01  0.10799017046E+02  0.13144499468E+02  0.00000000000E+00 0.  1.
</event>
<event>
 8    1  0.2521748E-006  0.9118800E+02  0.7816164E-02  0.1184000E+00
        -11   -1    0    0    0    0  0.00000000000E+00  0.00000000000E+00  0.45593999997E+02  0.45594000000E+02  0.51100000000E-03 0.  1.
         11   -1    0    0    0    0 -0.00000000000E+00 -0.00000000000E+00 -0.45593999997E+02  0.45594000000E+02  0.51100000000E-03 0. -1.
         23    2    1    2    0    0  0.00000000000E+00  0.00000000000E+00  0.35527136788E-14  0.91188000000E+02  0.91188000000E+02 0.  0.
    9900012    2    3    3    0    0 -0.18487356997E+02  0.16918554054E+02 -0.26977017871E+02  0.54367091087E+02  0.40000015751E+02 0.  0.
        -12    1    3    3    0    0  0.18487356997E+02 -0.16918554054E+02  0.26977017871E+02  0.36820908913E+02  0.00000000000E+00 0.  1.
         11    1    4    4    0    0 -0.11432077135E+02  0.23858158776E+01 -0.19051139314E+02  0.22345702371E+02  0.51100000000E-03 0. -1.
        -11    1    4    4    0    0  0.94167143131E+01  0.46096891568E+01 -0.73105247706E+01  0.12781530239E+02  0.51100000000E-03 0.  1.
         12    1    4    4    0    0 -0.16471994175E+02  0.99230490192E+01 -0.61535378613E+00  0.19239858477E+02  0.00000000000E+00 0. -1.
</event>
<event>
 8    1  0.2521748E-006  0.9118800E+02  0.7816164E-02  0.1184000E+00
        -11   -1    0    0    0    0  0.00000000000E+00  0.00000000000E+00  0.45593999997E+02  0.45594000000E+02  0.51100000000E-03 0.  1.
         11   -1    0    0    0    0 -0.00000000000E+00 -0.00000000000E+00 -0.45593999997E+02  0.45594000000E+02  0.51100000000E-03 0. -1.
         23    2    1    2    0    0  0.00000000000E+00  0.00000000000E+00  0.00000000000E+00  0.91188000000E+02  0.91188000000E+02 0.  0.
    9900012    2    3    3    0    0  0.32444473278E+02 -0.88014285639E+01  0.15022452815E+02  0.54367040213E+02  0.39999899773E+02 0.  0.
         12    1    3    3    0    0 -0.32444473278E+02  0.88014285639E+01 -0.15022452815E+02  0.36820959787E+02  0.00000000000E+00 0. -1.
         11    1    4    4    0    0  0.22118165822E+02 -0.18125972030E+02  0.10815531862E+02  0.30573515517E+02  0.51100000000E-03 0.  1.
        -11    1    4    4    0    0  0.55463973556E+01  0.88781391458E+01 -0.63168582684E+01  0.12226470339E+02  0.51100000000E-03 0. -1.
         12    1    4    4    0    0  0.47799101009E+01  0.44640432037E+00  0.10523779221E+02  0.11567054356E+02  0.00000000000E+00 0. -1.
</event>
<event>
 8    1  0.2521748E-006  0.9118800E+02  0.7816164E-02  0.1184000E+00
        -11   -1    0    0    0    0  0.00000000000E+00  0.00000000000E+00  0.45593999997E+02  0.45594000000E+02  0.51100000000E-03 0. -1.
         11   -1    0    0    0    0 -0.00000000000E+00 -0.00000000000E+00 -0.45593999997E+02  0.45594000000E+02  0.51100000000E-03 0.  1.
         23    2    1    2    0    0  0.00000000000E+00 -0.88817841970E-15  0.00000000000E+00  0.91188000000E+02  0.91188000000E+02 0.  0.
    9900012    2    3    3    0    0 -0.84520063711E+01 -0.74123977558E+01 -0.35062813733E+02  0.54367069009E+02  0.39999965419E+02 0.  0.
         12    1    3    3    0    0  0.84520063711E+01  0.74123977558E+01  0.35062813733E+02  0.36820930991E+02  0.00000000000E+00 0. -1.
         11    1    4    4    0    0 -0.21432089490E+01 -0.85471744890E+01  0.27673450172E-01  0.88118274169E+01  0.51100000000E-03 0. -1.
        -11    1    4    4    0    0 -0.15855922376E+02 -0.14128407580E+01 -0.31024628632E+02  0.34870244843E+02  0.51100000000E-03 0.  1.
         12    1    4    4    0    0  0.95471249537E+01  0.25476174912E+01 -0.40658585512E+01  0.10684996749E+02  0.00000000000E+00 0. -1.
</event>
<event>
 8    1  0.2521748E-006  0.9118800E+02  0.7816164E-02  0.1184000E+00
        -11   -1    0    0    0    0  0.00000000000E+00  0.00000000000E+00  0.45593999997E+02  0.45594000000E+02  0.51100000000E-03 0.  1.
         11   -1    0    0    0    0 -0.00000000000E+00 -0.00000000000E+00 -0.45593999997E+02  0.45594000000E+02  0.51100000000E-03 0. -1.
         23    2    1    2    0    0  0.00000000000E+00  0.00000000000E+00  0.00000000000E+00  0.91188000000E+02  0.91188000000E+02 0.  0.
    9900012    2    3    3    0    0  0.11869513393E+02  0.32591093829E+02 -0.12358064205E+02  0.54366993821E+02  0.39999794013E+02 0.  0.
        -12    1    3    3    0    0 -0.11869513393E+02 -0.32591093829E+02  0.12358064205E+02  0.36821006179E+02  0.00000000000E+00 0.  1.
         11    1    4    4    0    0  0.27983084061E-01  0.23159420549E+02 -0.12098261992E+02  0.26129054455E+02  0.51100000000E-03 0. -1.
        -11    1    4    4    0    0  0.78828089978E+01  0.17195572710E+02 -0.28876962082E+01  0.19135443245E+02  0.51100000000E-03 0.  1.
        -12    1    4    4    0    0  0.39587213108E+01 -0.77638994306E+01  0.26278939947E+01  0.91024961210E+01  0.00000000000E+00 0.  1.
</event>
<event>
 8    1  0.2521748E-006  0.9118800E+02  0.7816164E-02  0.1184000E+00
        -11   -1    0    0    0    0  0.00000000000E+00  0.00000000000E+00  0.45593999997E+02  0.45594000000E+02  0.51100000000E-03 0.  1.
         11   -1    0    0    0    0 -0.00000000000E+00 -0.00000000000E+00 -0.45593999997E+02  0.45594000000E+02  0.51100000000E-03 0. -1.
         23    2    1    2    0    0  0.35527136788E-14 -0.35527136788E-14  0.00000000000E+00  0.91188000000E+02  0.91188000000E+02 0.  0.
    9900012    2    3    3    0    0  0.19894228042E+02 -0.29160095623E+02 -0.10473203963E+02  0.54367088993E+02  0.40000010977E+02 0.  0.
        -12    1    3    3    0    0 -0.19894228042E+02  0.29160095623E+02  0.10473203963E+02  0.36820911007E+02  0.00000000000E+00 0.  1.
         11    1    4    4    0    0 -0.36215288960E+01  0.22173148382E+01 -0.70115600592E+01  0.81971904554E+01  0.51100000000E-03 0.  1.
        -11    1    4    4    0    0 -0.11821470531E+01 -0.43994521070E+01 -0.81079309306E+01  0.93000642328E+01  0.51100000000E-03 0. -1.
         12    1    4    4    0    0  0.24697903991E+02 -0.26977958355E+02  0.46462870272E+01  0.36869834305E+02  0.00000000000E+00 0. -1.
</event>
<event>
 8    1  0.2521748E-006  0.9118800E+02  0.7816164E-02  0.1184000E+00
        -11   -1    0    0    0    0  0.00000000000E+00  0.00000000000E+00  0.45593999997E+02  0.45594000000E+02  0.51100000000E-03 0.  1.
         11   -1    0    0    0    0 -0.00000000000E+00 -0.00000000000E+00 -0.45593999997E+02  0.45594000000E+02  0.51100000000E-03 0. -1.
         23    2    1    2    0    0  0.00000000000E+00  0.00000000000E+00  0.35527136788E-14  0.91188000000E+02  0.91188000000E+02 0.  0.
    9900012    2    3    3    0    0  0.23872583226E+02 -0.16732520207E+02  0.22492259382E+02  0.54367092971E+02  0.40000020046E+02 0.  0.
         12    1    3    3    0    0 -0.23872583226E+02  0.16732520207E+02 -0.22492259382E+02  0.36820907029E+02  0.00000000000E+00 0. -1.
         11    1    4    4    0    0  0.11509319415E+02 -0.10103288672E+02 -0.17811848974E+01  0.15417960153E+02  0.51100000000E-03 0. -1.
        -11    1    4    4    0    0  0.19590597359E+02 -0.16739520468E+01  0.22725268389E+02  0.30050481593E+02  0.51100000000E-03 0.  1.
        -12    1    4    4    0    0 -0.72273335489E+01 -0.49552794884E+01  0.15481758902E+01  0.88986512249E+01  0.00000000000E+00 0.  1.
</event>
<event>
 8    1  0.2521748E-006  0.9118800E+02  0.7816164E-02  0.1184000E+00
        -11   -1    0    0    0    0  0.00000000000E+00  0.00000000000E+00  0.45593999997E+02  0.45594000000E+02  0.51100000000E-03 0.  1.
         11   -1    0    0    0    0 -0.00000000000E+00 -0.00000000000E+00 -0.45593999997E+02  0.45594000000E+02  0.51100000000E-03 0. -1.
         23    2    1    2    0    0 -0.35527136788E-14  0.00000000000E+00  0.00000000000E+00  0.91188000000E+02  0.91188000000E+02 0.  0.
    9900012    2    3    3    0    0  0.24103886710E+02 -0.27168848372E+02  0.60528131025E+01  0.54367079005E+02  0.39999988209E+02 0.  0.
        -12    1    3    3    0    0 -0.24103886710E+02  0.27168848372E+02 -0.60528131025E+01  0.36820920995E+02  0.00000000000E+00 0.  1.
         11    1    4    4    0    0  0.10631303210E+02 -0.20424405698E+01 -0.51028832816E+00  0.10837738042E+02  0.51100000000E-03 0. -1.
        -11    1    4    4    0    0  0.20795014412E+02 -0.11720487746E+02  0.12733887326E+02  0.27054654758E+02  0.51100000000E-03 0.  1.
        -12    1    4    4    0    0 -0.73224309115E+01 -0.13405920056E+02 -0.61707858950E+01  0.16474686205E+02  0.00000000000E+00 0.  1.
</event>
<event>
 8    1  0.2521748E-006  0.9118800E+02  0.7816164E-02  0.1184000E+00
        -11   -1    0    0    0    0  0.00000000000E+00  0.00000000000E+00  0.45593999997E+02  0.45594000000E+02  0.51100000000E-03 0. -1.
         11   -1    0    0    0    0 -0.00000000000E+00 -0.00000000000E+00 -0.45593999997E+02  0.45594000000E+02  0.51100000000E-03 0.  1.
         23    2    1    2    0    0  0.00000000000E+00 -0.17763568394E-14 -0.88817841970E-15  0.91188000000E+02  0.91188000000E+02 0.  0.
    9900012    2    3    3    0    0 -0.32724051363E+02  0.15994879524E+02 -0.53920845582E+01  0.54367159644E+02  0.40000172041E+02 0.  0.
        -12    1    3    3    0    0  0.32724051363E+02 -0.15994879524E+02  0.53920845582E+01  0.36820840356E+02  0.00000000000E+00 0.  1.
         11    1    4    4    0    0 -0.41913193221E+00 -0.74367229785E+01 -0.65986465130E+01  0.99510128279E+01  0.51100000000E-03 0. -1.
        -11    1    4    4    0    0 -0.59686479186E-01  0.10605694887E+01  0.48844053710E+01  0.49985784184E+01  0.51100000000E-03 0.  1.
         12    1    4    4    0    0 -0.32245232952E+02  0.22371033014E+02 -0.36778434161E+01  0.39417568398E+02  0.00000000000E+00 0. -1.
</event>
<event>
 8    1  0.2521748E-006  0.9118800E+02  0.7816164E-02  0.1184000E+00
        -11   -1    0    0    0    0  0.00000000000E+00  0.00000000000E+00  0.45593999997E+02  0.45594000000E+02  0.51100000000E-03 0. -1.
         11   -1    0    0    0    0 -0.00000000000E+00 -0.00000000000E+00 -0.45593999997E+02  0.45594000000E+02  0.51100000000E-03 0.  1.
         23    2    1    2    0    0 -0.66613381478E-15  0.35527136788E-14  0.35527136788E-14  0.91188000000E+02  0.91188000000E+02 0.  0.
    9900012    2    3    3    0    0  0.14451715890E+01  0.30394632311E+02 -0.20732997424E+02  0.54367090500E+02  0.40000014413E+02 0.  0.
         12    1    3    3    0    0 -0.14451715890E+01 -0.30394632311E+02  0.20732997424E+02  0.36820909500E+02  0.00000000000E+00 0. -1.
         11    1    4    4    0    0  0.14478934760E+02  0.13741186141E+02  0.45992060290E+01  0.20484443969E+02  0.51100000000E-03 0. -1.
        -11    1    4    4    0    0 -0.75615391449E+01  0.39788849809E+01 -0.11632756073E+02  0.14433620961E+02  0.51100000000E-03 0.  1.
         12    1    4    4    0    0 -0.54722240261E+01  0.12674561189E+02 -0.13699447380E+02  0.19449025570E+02  0.00000000000E+00 0. -1.
</event>
<event>
 8    1  0.2521748E-006  0.9118800E+02  0.7816164E-02  0.1184000E+00
        -11   -1    0    0    0    0  0.00000000000E+00  0.00000000000E+00  0.45593999997E+02  0.45594000000E+02  0.51100000000E-03 0. -1.
         11   -1    0    0    0    0 -0.00000000000E+00 -0.00000000000E+00 -0.45593999997E+02  0.45594000000E+02  0.51100000000E-03 0.  1.
         23    2    1    2    0    0  0.17763568394E-14 -0.35527136788E-14  0.00000000000E+00  0.91188000000E+02  0.91188000000E+02 0.  0.
    9900012    2    3    3    0    0  0.90534811058E+01 -0.26877001545E+02  0.23482785417E+02  0.54367082804E+02  0.39999996869E+02 0.  0.
        -12    1    3    3    0    0 -0.90534811058E+01  0.26877001545E+02 -0.23482785417E+02  0.36820917196E+02  0.00000000000E+00 0.  1.
         11    1    4    4    0    0 -0.33997913000E+01 -0.20673232729E+02  0.15148015055E+02  0.25853500590E+02  0.51100000000E-03 0. -1.
        -11    1    4    4    0    0 -0.51052018215E+01  0.17990849181E+01  0.74345665127E+01  0.91963346869E+01  0.51100000000E-03 0.  1.
        -12    1    4    4    0    0  0.17558474227E+02 -0.80028537340E+01  0.90020384917E+00  0.19317247528E+02  0.00000000000E+00 0.  1.
</event>
<event>
 8    1  0.2521748E-006  0.9118800E+02  0.7816164E-02  0.1184000E+00
        -11   -1    0    0    0    0  0.00000000000E+00  0.00000000000E+00  0.45593999997E+02  0.45594000000E+02  0.51100000000E-03 0.  1.
         11   -1    0    0    0    0 -0.00000000000E+00 -0.00000000000E+00 -0.45593999997E+02  0.45594000000E+02  0.51100000000E-03 0. -1.
         23    2    1    2    0    0  0.74940054162E-15  0.35527136788E-14 -0.35527136788E-14  0.91188000000E+02  0.91188000000E+02 0.  0.
    9900012    2    3    3    0    0 -0.16342029883E+00 -0.27644168317E+02  0.24321872673E+02  0.54367078793E+02  0.39999987725E+02 0.  0.
         12    1    3    3    0    0  0.16342029883E+00  0.27644168317E+02 -0.24321872673E+02  0.36820921207E+02  0.00000000000E+00 0. -1.
         11    1    4    4    0    0 -0.72925596510E+00 -0.10886924997E+01 -0.69392392699E+01  0.70618770542E+01  0.51100000000E-03 0. -1.
        -11    1    4    4    0    0  0.67528182578E+01 -0.18508244870E+02  0.31497568359E+02  0.37151749560E+02  0.51100000000E-03 0.  1.
        -12    1    4    4    0    0 -0.61869825916E+01 -0.80472309477E+01 -0.23645641564E+00  0.10153452179E+02  0.00000000000E+00 0.  1.
</event>
<event>
 8    1  0.2521748E-006  0.9118800E+02  0.7816164E-02  0.1184000E+00
        -11   -1    0    0    0    0  0.00000000000E+00  0.00000000000E+00  0.45593999997E+02  0.45594000000E+02  0.51100000000E-03 0.  1.
         11   -1    0    0    0    0 -0.00000000000E+00 -0.00000000000E+00 -0.45593999997E+02  0.45594000000E+02  0.51100000000E-03 0. -1.
         23    2    1    2    0    0  0.00000000000E+00  0.88817841970E-15  0.00000000000E+00  0.91188000000E+02  0.91188000000E+02 0.  0.
    9900012    2    3    3    0    0  0.27888911978E+02 -0.40123198021E+01 -0.23704234448E+02  0.54367070459E+02  0.39999968726E+02 0.  0.
        -12    1    3    3    0    0 -0.27888911978E+02  0.40123198021E+01  0.23704234448E+02  0.36820929541E+02  0.00000000000E+00 0.  1.
         11    1    4    4    0    0  0.24908685134E+02 -0.84413956401E+01 -0.19118202282E+02  0.32514695357E+02  0.51100000000E-03 0. -1.
        -11    1    4    4    0    0  0.11331902783E+02  0.15364435998E+01  0.86486824684E+00  0.11468246464E+02  0.51100000000E-03 0.  1.
        -12    1    4    4    0    0 -0.83516759388E+01  0.28926322382E+01 -0.54509004128E+01  0.10384128638E+02  0.00000000000E+00 0.  1.
</event>
<event>
 8    1  0.2521748E-006  0.9118800E+02  0.7816164E-02  0.1184000E+00
        -11   -1    0    0    0    0  0.00000000000E+00  0.00000000000E+00  0.45593999997E+02  0.45594000000E+02  0.51100000000E-03 0. -1.
         11   -1    0    0    0    0 -0.00000000000E+00 -0.00000000000E+00 -0.45593999997E+02  0.45594000000E+02  0.51100000000E-03 0.  1.
         23    2    1    2    0    0 -0.13322676296E-14  0.00000000000E+00  0.00000000000E+00  0.91188000000E+02  0.91188000000E+02 0.  0.
    9900012    2    3    3    0    0  0.19485304609E+01 -0.30724603877E+02  0.20198537106E+02  0.54367096215E+02  0.40000027441E+02 0.  0.
        -12    1    3    3    0    0 -0.19485304609E+01  0.30724603877E+02 -0.20198537106E+02  0.36820903785E+02  0.00000000000E+00 0.  1.
         11    1    4    4    0    0 -0.31811700862E+01 -0.99080348354E+00  0.30418755193E+01  0.45116007798E+01  0.51100000000E-03 0. -1.
        -11    1    4    4    0    0 -0.12936520020E+02 -0.24977239778E+02  0.10320240498E+02  0.29962032998E+02  0.51100000000E-03 0.  1.
        -12    1    4    4    0    0  0.18066220567E+02 -0.47565606153E+01  0.68364210884E+01  0.19893462438E+02  0.00000000000E+00 0.  1.
</event>
<event>
 8    1  0.2521748E-006  0.9118800E+02  0.7816164E-02  0.1184000E+00
        -11   -1    0    0    0    0  0.00000000000E+00  0.00000000000E+00  0.45593999997E+02  0.45594000000E+02  0.51100000000E-03 0.  1.
         11   -1    0    0    0    0 -0.00000000000E+00 -0.00000000000E+00 -0.45593999997E+02  0.45594000000E+02  0.51100000000E-03 0. -1.
         23    2    1    2    0    0  0.35527136788E-14  0.00000000000E+00  0.71054273576E-14  0.91188000000E+02  0.91188000000E+02 0.  0.
    9900012    2    3    3    0    0  0.14507728507E+02  0.25091337786E+01  0.33749195398E+02  0.54367107442E+02  0.40000053035E+02 0.  0.
         12    1    3    3    0    0 -0.14507728507E+02 -0.25091337786E+01 -0.33749195398E+02  0.36820892558E+02  0.00000000000E+00 0. -1.
         11    1    4    4    0    0 -0.64147497564E+01  0.10381851697E+02  0.15210006334E+02  0.19500670553E+02  0.51100000000E-03 0. -1.
        -11    1    4    4    0    0  0.15290925217E+02  0.43057243089E+01  0.78931322371E+01  0.17738466467E+02  0.51100000000E-03 0.  1.
         12    1    4    4    0    0  0.56315530467E+01 -0.12178442227E+02  0.10646056827E+02  0.17127970422E+02  0.00000000000E+00 0. -1.
</event>
<event>
 8    1  0.2521748E-006  0.9118800E+02  0.7816164E-02  0.1184000E+00
        -11   -1    0    0    0    0  0.00000000000E+00  0.00000000000E+00  0.45593999997E+02  0.45594000000E+02  0.51100000000E-03 0. -1.
         11   -1    0    0    0    0 -0.00000000000E+00 -0.00000000000E+00 -0.45593999997E+02  0.45594000000E+02  0.51100000000E-03 0.  1.
         23    2    1    2    0    0 -0.35527136788E-14  0.35527136788E-14  0.00000000000E+00  0.91188000000E+02  0.91188000000E+02 0.  0.
    9900012    2    3    3    0    0  0.27276887930E+02 -0.18823188240E+02 -0.16044925140E+02  0.54367073160E+02  0.39999974882E+02 0.  0.
         12    1    3    3    0    0 -0.27276887930E+02  0.18823188240E+02  0.16044925140E+02  0.36820926840E+02  0.00000000000E+00 0. -1.
         11    1    4    4    0    0  0.16025912017E+02  0.46178198373E+00 -0.45868992639E+01  0.16675813135E+02  0.51100000000E-03 0. -1.
        -11    1    4    4    0    0  0.17211754950E+02 -0.16198767560E+02 -0.16895033460E+02  0.29053170822E+02  0.51100000000E-03 0.  1.
        -12    1    4    4    0    0 -0.59607790374E+01 -0.30862026638E+01  0.54370075842E+01  0.86380892034E+01  0.00000000000E+00 0.  1.
</event>
<event>
 8    1  0.2521748E-006  0.9118800E+02  0.7816164E-02  0.1184000E+00
        -11   -1    0    0    0    0  0.00000000000E+00  0.00000000000E+00  0.45593999997E+02  0.45594000000E+02  0.51100000000E-03 0. -1.
         11   -1    0    0    0    0 -0.00000000000E+00 -0.00000000000E+00 -0.45593999997E+02  0.45594000000E+02  0.51100000000E-03 0.  1.
         23    2    1    2    0    0  0.13739009930E-14  0.00000000000E+00  0.00000000000E+00  0.91188000000E+02  0.91188000000E+02 0.  0.
    9900012    2    3    3    0    0  0.21156468857E-01  0.35790295503E+02 -0.86507580775E+01  0.54367064174E+02  0.39999954398E+02 0.  0.
         12    1    3    3    0    0 -0.21156468857E-01 -0.35790295503E+02  0.86507580775E+01  0.36820935826E+02  0.00000000000E+00 0. -1.
         11    1    4    4    0    0 -0.97178834818E+01  0.13717381445E+02 -0.65744411248E+01  0.18050681135E+02  0.51100000000E-03 0. -1.
        -11    1    4    4    0    0  0.33492226132E+01  0.13423854840E+02 -0.14394079119E+02  0.19965136734E+02  0.51100000000E-03 0.  1.
         12    1    4    4    0    0  0.63898173374E+01  0.86490592181E+01  0.12317762166E+02  0.16351246305E+02  0.00000000000E+00 0. -1.
</event>
<event>
 8    1  0.2521748E-006  0.9118800E+02  0.7816164E-02  0.1184000E+00
        -11   -1    0    0    0    0  0.00000000000E+00  0.00000000000E+00  0.45593999997E+02  0.45594000000E+02  0.51100000000E-03 0. -1.
         11   -1    0    0    0    0 -0.00000000000E+00 -0.00000000000E+00 -0.45593999997E+02  0.45594000000E+02  0.51100000000E-03 0.  1.
         23    2    1    2    0    0  0.17763568394E-14  0.00000000000E+00  0.00000000000E+00  0.91188000000E+02  0.91188000000E+02 0.  0.
    9900012    2    3    3    0    0 -0.15539331313E+02  0.33268954411E+02  0.27360204911E+01  0.54367082665E+02  0.39999996552E+02 0.  0.
         12    1    3    3    0    0  0.15539331313E+02 -0.33268954411E+02 -0.27360204911E+01  0.36820917335E+02  0.00000000000E+00 0. -1.
         11    1    4    4    0    0 -0.46856137646E+01 -0.64783998585E+01  0.11810719149E+01  0.80820524749E+01  0.51100000000E-03 0. -1.
        -11    1    4    4    0    0 -0.14075309373E+02  0.12524982598E+02  0.98096734259E+00  0.18866685459E+02  0.51100000000E-03 0.  1.
        -12    1    4    4    0    0  0.32215918254E+01  0.27222371672E+02  0.57398123360E+00  0.27418344731E+02  0.00000000000E+00 0.  1.
</event>
<event>
 8    1  0.2521748E-006  0.9118800E+02  0.7816164E-02  0.1184000E+00
        -11   -1    0    0    0    0  0.00000000000E+00  0.00000000000E+00  0.45593999997E+02  0.45594000000E+02  0.51100000000E-03 0.  1.
         11   -1    0    0    0    0 -0.00000000000E+00 -0.00000000000E+00 -0.45593999997E+02  0.45594000000E+02  0.51100000000E-03 0. -1.
         23    2    1    2    0    0  0.17763568394E-14  0.00000000000E+00  0.00000000000E+00  0.91188000000E+02  0.91188000000E+02 0.  0.
    9900012    2    3    3    0    0  0.13978311441E+02  0.32587119085E+02 -0.99230164185E+01  0.54367085076E+02  0.40000002048E+02 0.  0.
        -12    1    3    3    0    0 -0.13978311441E+02 -0.32587119085E+02  0.99230164185E+01  0.36820914924E+02  0.00000000000E+00 0.  1.
         11    1    4    4    0    0 -0.53820598350E+01  0.20109701819E+00  0.61269739552E+01  0.81576233173E+01  0.51100000000E-03 0. -1.
        -11    1    4    4    0    0  0.15049822918E+02  0.58384331788E+01 -0.86530251672E+01  0.18315548495E+02  0.51100000000E-03 0.  1.
         12    1    4    4    0    0  0.43105483579E+01  0.26547588888E+02 -0.73969652065E+01  0.27893913264E+02  0.00000000000E+00 0. -1.
</event>
<event>
 8    1  0.2521748E-006  0.9118800E+02  0.7816164E-02  0.1184000E+00
        -11   -1    0    0    0    0  0.00000000000E+00  0.00000000000E+00  0.45593999997E+02  0.45594000000E+02  0.51100000000E-03 0. -1.
         11   -1    0    0    0    0 -0.00000000000E+00 -0.00000000000E+00 -0.45593999997E+02  0.45594000000E+02  0.51100000000E-03 0.  1.
         23    2    1    2    0    0 -0.35527136788E-14  0.00000000000E+00  0.00000000000E+00  0.91188000000E+02  0.91188000000E+02 0.  0.
    9900012    2    3    3    0    0 -0.19232063153E+02  0.63345357266E+01  0.30753593654E+02  0.54367053263E+02  0.39999929523E+02 0.  0.
        -12    1    3    3    0    0  0.19232063153E+02 -0.63345357266E+01 -0.30753593654E+02  0.36820946737E+02  0.00000000000E+00 0.  1.
         11    1    4    4    0    0 -0.19935134669E+01 -0.13025814016E+01  0.67028310491E+01  0.71132804377E+01  0.51100000000E-03 0. -1.
        -11    1    4    4    0    0  0.99013608503E+01  0.88274731112E+01  0.10370061059E+02  0.16837440270E+02  0.51100000000E-03 0.  1.
         12    1    4    4    0    0 -0.27139910537E+02 -0.11903559829E+01  0.13680701545E+02  0.30416332555E+02  0.00000000000E+00 0. -1.
</event>
<event>
 8    1  0.2521748E-006  0.9118800E+02  0.7816164E-02  0.1184000E+00
        -11   -1    0    0    0    0  0.00000000000E+00  0.00000000000E+00  0.45593999997E+02  0.45594000000E+02  0.51100000000E-03 0.  1.
         11   -1    0    0    0    0 -0.00000000000E+00 -0.00000000000E+00 -0.45593999997E+02  0.45594000000E+02  0.51100000000E-03 0. -1.
         23    2    1    2    0    0  0.00000000000E+00  0.00000000000E+00  0.00000000000E+00  0.91188000000E+02  0.91188000000E+02 0.  0.
    9900012    2    3    3    0    0 -0.16169310489E+02  0.48338745708E+01 -0.32725747443E+02  0.54366980314E+02  0.39999763220E+02 0.  0.
        -12    1    3    3    0    0  0.16169310489E+02 -0.48338745708E+01  0.32725747443E+02  0.36821019686E+02  0.00000000000E+00 0.  1.
         11    1    4    4    0    0 -0.69650892508E+01 -0.43683749135E+01 -0.15076315005E+02  0.17172374386E+02  0.51100000000E-03 0.  1.
        -11    1    4    4    0    0 -0.93949594682E+01  0.19506154603E+02 -0.15604213917E+02  0.26687952770E+02  0.51100000000E-03 0. -1.
        -12    1    4    4    0    0  0.19073823000E+00 -0.10303905119E+02 -0.20452185201E+01  0.10506653157E+02  0.00000000000E+00 0.  1.
</event>
<event>
 8    1  0.2521748E-006  0.9118800E+02  0.7816164E-02  0.1184000E+00
        -11   -1    0    0    0    0  0.00000000000E+00  0.00000000000E+00  0.45593999997E+02  0.45594000000E+02  0.51100000000E-03 0.  1.
         11   -1    0    0    0    0 -0.00000000000E+00 -0.00000000000E+00 -0.45593999997E+02  0.45594000000E+02  0.51100000000E-03 0. -1.
         23    2    1    2    0    0 -0.11102230246E-14 -0.71054273576E-14  0.17763568394E-14  0.91188000000E+02  0.91188000000E+02 0.  0.
    9900012    2    3    3    0    0 -0.18139425204E+01  0.35135955820E+02 -0.10860673814E+02  0.54367081835E+02  0.39999994658E+02 0.  0.
        -12    1    3    3    0    0  0.18139425204E+01 -0.35135955820E+02  0.10860673814E+02  0.36820918165E+02  0.00000000000E+00 0.  1.
         11    1    4    4    0    0  0.19672185843E+01 -0.27829243544E+01  0.49294410638E+01  0.59928295807E+01  0.51100000000E-03 0. -1.
        -11    1    4    4    0    0 -0.10422192767E+02  0.18996020794E+02  0.17414933383E+01  0.21737150397E+02  0.51100000000E-03 0.  1.
         12    1    4    4    0    0  0.66410316628E+01  0.18922859381E+02 -0.17531608216E+02  0.26637101857E+02  0.00000000000E+00 0. -1.
</event>
<event>
 8    1  0.2521748E-006  0.9118800E+02  0.7816164E-02  0.1184000E+00
        -11   -1    0    0    0    0  0.00000000000E+00  0.00000000000E+00  0.45593999997E+02  0.45594000000E+02  0.51100000000E-03 0.  1.
         11   -1    0    0    0    0 -0.00000000000E+00 -0.00000000000E+00 -0.45593999997E+02  0.45594000000E+02  0.51100000000E-03 0. -1.
         23    2    1    2    0    0 -0.17763568394E-14 -0.71054273576E-14 -0.17763568394E-14  0.91188000000E+02  0.91188000000E+02 0.  0.
    9900012    2    3    3    0    0 -0.80384683221E+00 -0.34767788203E+02  0.12096842412E+02  0.54367097477E+02  0.40000030318E+02 0.  0.
        -12    1    3    3    0    0  0.80384683221E+00  0.34767788203E+02 -0.12096842412E+02  0.36820902523E+02  0.00000000000E+00 0.  1.
         11    1    4    4    0    0 -0.16873566013E+01 -0.18823229545E+02 -0.50993836921E+01  0.19574597240E+02  0.51100000000E-03 0. -1.
        -11    1    4    4    0    0  0.80758139278E+01 -0.14498743301E+02  0.55439365835E+00  0.16605411181E+02  0.51100000000E-03 0.  1.
        -12    1    4    4    0    0 -0.71923041587E+01 -0.14458153571E+01  0.16641832446E+02  0.18187089056E+02  0.00000000000E+00 0.  1.
</event>
<event>
 8    1  0.2521748E-006  0.9118800E+02  0.7816164E-02  0.1184000E+00
        -11   -1    0    0    0    0  0.00000000000E+00  0.00000000000E+00  0.45593999997E+02  0.45594000000E+02  0.51100000000E-03 0.  1.
         11   -1    0    0    0    0 -0.00000000000E+00 -0.00000000000E+00 -0.45593999997E+02  0.45594000000E+02  0.51100000000E-03 0. -1.
         23    2    1    2    0    0 -0.17763568394E-14  0.00000000000E+00  0.71054273576E-14  0.91188000000E+02  0.91188000000E+02 0.  0.
    9900012    2    3    3    0    0 -0.13208361549E+02 -0.97728271668E+01 -0.32951652416E+02  0.54367077109E+02  0.39999983884E+02 0.  0.
        -12    1    3    3    0    0  0.13208361549E+02  0.97728271668E+01  0.32951652416E+02  0.36820922891E+02  0.00000000000E+00 0.  1.
         11    1    4    4    0    0 -0.21766244617E+02 -0.57120436777E+01 -0.22803616773E+02  0.32037505925E+02  0.51100000000E-03 0. -1.
        -11    1    4    4    0    0 -0.50668767500E+01 -0.16211624409E+01 -0.27364241723E+00  0.53269398432E+01  0.51100000000E-03 0.  1.
        -12    1    4    4    0    0  0.13624759817E+02 -0.24396210483E+01 -0.98743932254E+01  0.17002631341E+02  0.00000000000E+00 0.  1.
</event>
<event>
 8    1  0.2521748E-006  0.9118800E+02  0.7816164E-02  0.1184000E+00
        -11   -1    0    0    0    0  0.00000000000E+00  0.00000000000E+00  0.45593999997E+02  0.45594000000E+02  0.51100000000E-03 0.  1.
         11   -1    0    0    0    0 -0.00000000000E+00 -0.00000000000E+00 -0.45593999997E+02  0.45594000000E+02  0.51100000000E-03 0. -1.
         23    2    1    2    0    0  0.35527136788E-14 -0.35527136788E-14 -0.17763568394E-14  0.91188000000E+02  0.91188000000E+02 0.  0.
    9900012    2    3    3    0    0  0.27377503987E+02 -0.20001717585E+02 -0.14359048463E+02  0.54367099635E+02  0.40000035239E+02 0.  0.
        -12    1    3    3    0    0 -0.27377503987E+02  0.20001717585E+02  0.14359048463E+02  0.36820900365E+02  0.00000000000E+00 0.  1.
         11    1    4    4    0    0  0.13807942888E+01  0.46989586927E+01  0.50439329746E+01  0.70305096385E+01  0.51100000000E-03 0.  1.
        -11    1    4    4    0    0  0.65474855487E+01 -0.64329603489E+01 -0.18484205000E+02  0.20637790110E+02  0.51100000000E-03 0. -1.
         12    1    4    4    0    0  0.19449224149E+02 -0.18267715929E+02 -0.91877643688E+00  0.26698799887E+02  0.00000000000E+00 0. -1.
</event>
<event>
 8    1  0.2521748E-006  0.9118800E+02  0.7816164E-02  0.1184000E+00
        -11   -1    0    0    0    0  0.00000000000E+00  0.00000000000E+00  0.45593999997E+02  0.45594000000E+02  0.51100000000E-03 0.  1.
         11   -1    0    0    0    0 -0.00000000000E+00 -0.00000000000E+00 -0.45593999997E+02  0.45594000000E+02  0.51100000000E-03 0. -1.
         23    2    1    2    0    0  0.35527136788E-14  0.00000000000E+00 -0.35527136788E-14  0.91188000000E+02  0.91188000000E+02 0.  0.
    9900012    2    3    3    0    0  0.23542076718E+02  0.15901806750E+02 -0.23424004579E+02  0.54367070834E+02  0.39999969581E+02 0.  0.
        -12    1    3    3    0    0 -0.23542076718E+02 -0.15901806750E+02  0.23424004579E+02  0.36820929166E+02  0.00000000000E+00 0.  1.
         11    1    4    4    0    0  0.18266369469E+02 -0.27390850372E+01 -0.18265439286E+02  0.25976703274E+02  0.51100000000E-03 0. -1.
        -11    1    4    4    0    0 -0.74230564381E+01  0.38453753707E+01 -0.69964362992E+00  0.83891704057E+01  0.51100000000E-03 0.  1.
        -12    1    4    4    0    0  0.12698763688E+02  0.14795516416E+02 -0.44589216633E+01  0.20001197155E+02  0.00000000000E+00 0.  1.
</event>
<event>
 8    1  0.2521748E-006  0.9118800E+02  0.7816164E-02  0.1184000E+00
        -11   -1    0    0    0    0  0.00000000000E+00  0.00000000000E+00  0.45593999997E+02  0.45594000000E+02  0.51100000000E-03 0.  1.
         11   -1    0    0    0    0 -0.00000000000E+00 -0.00000000000E+00 -0.45593999997E+02  0.45594000000E+02  0.51100000000E-03 0. -1.
         23    2    1    2    0    0  0.17763568394E-14  0.35527136788E-14  0.00000000000E+00  0.91188000000E+02  0.91188000000E+02 0.  0.
    9900012    2    3    3    0    0  0.73211515948E+01  0.23118262988E+02  0.27708099102E+02  0.54366917722E+02  0.39999620529E+02 0.  0.
        -12    1    3    3    0    0 -0.73211515948E+01 -0.23118262988E+02 -0.27708099102E+02  0.36821082278E+02  0.00000000000E+00 0.  1.
         11    1    4    4    0    0 -0.11400766244E+01 -0.36885779933E+01  0.12005970670E+02  0.12611451714E+02  0.51100000000E-03 0. -1.
        -11    1    4    4    0    0  0.11794467329E+02  0.55753058950E+01 -0.28622110523E+01  0.13356112749E+02  0.51100000000E-03 0.  1.
         12    1    4    4    0    0 -0.33332391096E+01  0.21231535087E+02  0.18564339484E+02  0.28399353260E+02  0.00000000000E+00 0. -1.
</event>
<event>
 8    1  0.2521748E-006  0.9118800E+02  0.7816164E-02  0.1184000E+00
        -11   -1    0    0    0    0  0.00000000000E+00  0.00000000000E+00  0.45593999997E+02  0.45594000000E+02  0.51100000000E-03 0. -1.
         11   -1    0    0    0    0 -0.00000000000E+00 -0.00000000000E+00 -0.45593999997E+02  0.45594000000E+02  0.51100000000E-03 0.  1.
         23    2    1    2    0    0 -0.35527136788E-14  0.00000000000E+00 -0.35527136788E-14  0.91188000000E+02  0.91188000000E+02 0.  0.
    9900012    2    3    3    0    0  0.22870681730E+02 -0.47397466585E+01  0.28464839869E+02  0.54367076737E+02  0.39999983037E+02 0.  0.
        -12    1    3    3    0    0 -0.22870681730E+02  0.47397466585E+01 -0.28464839869E+02  0.36820923263E+02  0.00000000000E+00 0.  1.
         11    1    4    4    0    0  0.77181977467E+01 -0.30302888247E+01  0.33730599580E+02  0.34734803513E+02  0.51100000000E-03 0. -1.
        -11    1    4    4    0    0  0.26742869367E+01 -0.47857560666E+01 -0.38577936134E+01  0.67035694651E+01  0.51100000000E-03 0.  1.
        -12    1    4    4    0    0  0.12478197047E+02  0.30762982328E+01 -0.14079660971E+01  0.12928703759E+02  0.00000000000E+00 0.  1.
</event>
<event>
 8    1  0.2521748E-006  0.9118800E+02  0.7816164E-02  0.1184000E+00
        -11   -1    0    0    0    0  0.00000000000E+00  0.00000000000E+00  0.45593999997E+02  0.45594000000E+02  0.51100000000E-03 0.  1.
         11   -1    0    0    0    0 -0.00000000000E+00 -0.00000000000E+00 -0.45593999997E+02  0.45594000000E+02  0.51100000000E-03 0. -1.
         23    2    1    2    0    0  0.00000000000E+00  0.88817841970E-15  0.00000000000E+00  0.91188000000E+02  0.91188000000E+02 0.  0.
    9900012    2    3    3    0    0 -0.35670052658E+02 -0.54060288995E+01  0.73621042070E+01  0.54367103984E+02  0.40000045153E+02 0.  0.
         12    1    3    3    0    0  0.35670052658E+02  0.54060288995E+01 -0.73621042070E+01  0.36820896016E+02  0.00000000000E+00 0. -1.
         11    1    4    4    0    0 -0.16771836310E+02  0.48359935612E+01  0.11427352058E+01  0.17492488986E+02  0.51100000000E-03 0. -1.
        -11    1    4    4    0    0 -0.75430221680E+01  0.59758419493E+01  0.12797880262E+02  0.16012295585E+02  0.51100000000E-03 0.  1.
         12    1    4    4    0    0 -0.11355194180E+02 -0.16217864410E+02 -0.65785112609E+01  0.20862319413E+02  0.00000000000E+00 0. -1.
</event>
<event>
 8    1  0.2521748E-006  0.9118800E+02  0.7816164E-02  0.1184000E+00
        -11   -1    0    0    0    0  0.00000000000E+00  0.00000000000E+00  0.45593999997E+02  0.45594000000E+02  0.51100000000E-03 0.  1.
         11   -1    0    0    0    0 -0.00000000000E+00 -0.00000000000E+00 -0.45593999997E+02  0.45594000000E+02  0.51100000000E-03 0. -1.
         23    2    1    2    0    0  0.00000000000E+00  0.35527136788E-14  0.00000000000E+00  0.91188000000E+02  0.91188000000E+02 0.  0.
    9900012    2    3    3    0    0 -0.20295369840E+02  0.23925953618E+02 -0.19272425729E+02  0.54367086283E+02  0.40000004800E+02 0.  0.
        -12    1    3    3    0    0  0.20295369840E+02 -0.23925953618E+02  0.19272425729E+02  0.36820913717E+02  0.00000000000E+00 0.  1.
         11    1    4    4    0    0 -0.46997512499E+01  0.83232411100E+01 -0.18242759955E+02  0.20595200786E+02  0.51100000000E-03 0. -1.
        -11    1    4    4    0    0  0.14208627552E+01  0.30306551132E+00 -0.93205181957E+01  0.94330673363E+01  0.51100000000E-03 0.  1.
        -12    1    4    4    0    0 -0.17016481345E+02  0.15299646997E+02  0.82908524215E+01  0.24338818161E+02  0.00000000000E+00 0.  1.
</event>
<event>
 8    1  0.2521748E-006  0.9118800E+02  0.7816164E-02  0.1184000E+00
        -11   -1    0    0    0    0  0.00000000000E+00  0.00000000000E+00  0.45593999997E+02  0.45594000000E+02  0.51100000000E-03 0. -1.
         11   -1    0    0    0    0 -0.00000000000E+00 -0.00000000000E+00 -0.45593999997E+02  0.45594000000E+02  0.51100000000E-03 0.  1.
         23    2    1    2    0    0  0.17763568394E-14 -0.35527136788E-14 -0.35527136788E-14  0.91188000000E+02  0.91188000000E+02 0.  0.
    9900012    2    3    3    0    0 -0.84735167804E+01  0.30006925974E+02  0.19584749469E+02  0.54367102336E+02  0.40000041395E+02 0.  0.
        -12    1    3    3    0    0  0.84735167804E+01 -0.30006925974E+02 -0.19584749469E+02  0.36820897664E+02  0.00000000000E+00 0.  1.
         11    1    4    4    0    0  0.10808618604E+01 -0.57523284229E+00  0.69491690084E+01  0.70562104102E+01  0.51100000000E-03 0. -1.
        -11    1    4    4    0    0  0.11529698190E+02  0.67304162138E+01  0.89514356306E+00  0.13380348465E+02  0.51100000000E-03 0.  1.
        -12    1    4    4    0    0 -0.21084076831E+02  0.23851742603E+02  0.11740436897E+02  0.33930543461E+02  0.00000000000E+00 0.  1.
</event>
<event>
 8    1  0.2521748E-006  0.9118800E+02  0.7816164E-02  0.1184000E+00
        -11   -1    0    0    0    0  0.00000000000E+00  0.00000000000E+00  0.45593999997E+02  0.45594000000E+02  0.51100000000E-03 0. -1.
         11   -1    0    0    0    0 -0.00000000000E+00 -0.00000000000E+00 -0.45593999997E+02  0.45594000000E+02  0.51100000000E-03 0.  1.
         23    2    1    2    0    0 -0.88817841970E-15  0.00000000000E+00  0.00000000000E+00  0.91188000000E+02  0.91188000000E+02 0.  0.
    9900012    2    3    3    0    0  0.76480672977E+01  0.36006925424E+02  0.88772240685E+00  0.54367086609E+02  0.40000005543E+02 0.  0.
         12    1    3    3    0    0 -0.76480672977E+01 -0.36006925424E+02 -0.88772240685E+00  0.36820913391E+02  0.00000000000E+00 0. -1.
         11    1    4    4    0    0 -0.59855696928E+01  0.18293919846E+02 -0.18387713413E+01  0.19335863782E+02  0.51100000000E-03 0. -1.
        -11    1    4    4    0    0  0.88047020678E+01  0.24473417180E+02 -0.76291952267E+00  0.26020241610E+02  0.51100000000E-03 0.  1.
        -12    1    4    4    0    0  0.48289349226E+01 -0.67604116026E+01  0.34894132708E+01  0.90109812173E+01  0.00000000000E+00 0.  1.
</event>
<event>
 8    1  0.2521748E-006  0.9118800E+02  0.7816164E-02  0.1184000E+00
        -11   -1    0    0    0    0  0.00000000000E+00  0.00000000000E+00  0.45593999997E+02  0.45594000000E+02  0.51100000000E-03 0. -1.
         11   -1    0    0    0    0 -0.00000000000E+00 -0.00000000000E+00 -0.45593999997E+02  0.45594000000E+02  0.51100000000E-03 0.  1.
         23    2    1    2    0    0  0.00000000000E+00 -0.17763568394E-14 -0.71054273576E-14  0.91188000000E+02  0.91188000000E+02 0.  0.
    9900012    2    3    3    0    0  0.88471028783E+01  0.15987968242E+02  0.31967057786E+02  0.54367093692E+02  0.40000021690E+02 0.  0.
        -12    1    3    3    0    0 -0.88471028783E+01 -0.15987968242E+02 -0.31967057786E+02  0.36820906308E+02  0.00000000000E+00 0.  1.
         11    1    4    4    0    0 -0.65386174021E+01  0.11248511431E+02  0.17045641220E+02  0.21443796581E+02  0.51100000000E-03 0. -1.
        -11    1    4    4    0    0  0.64303892632E+01  0.48640814925E+01 -0.60757924569E+01  0.10095763918E+02  0.51100000000E-03 0.  1.
        -12    1    4    4    0    0  0.89553310173E+01 -0.12462468117E+00  0.20997209023E+02  0.22827533193E+02  0.00000000000E+00 0.  1.
</event>
<event>
 8    1  0.2521748E-006  0.9118800E+02  0.7816164E-02  0.1184000E+00
        -11   -1    0    0    0    0  0.00000000000E+00  0.00000000000E+00  0.45593999997E+02  0.45594000000E+02  0.51100000000E-03 0. -1.
         11   -1    0    0    0    0 -0.00000000000E+00 -0.00000000000E+00 -0.45593999997E+02  0.45594000000E+02  0.51100000000E-03 0.  1.
         23    2    1    2    0    0  0.00000000000E+00  0.00000000000E+00  0.00000000000E+00  0.91188000000E+02  0.91188000000E+02 0.  0.
    9900012    2    3    3    0    0 -0.12742565353E+02  0.19795368990E+02 -0.28311686671E+02  0.54367065637E+02  0.39999957733E+02 0.  0.
         12    1    3    3    0    0  0.12742565353E+02 -0.19795368990E+02  0.28311686671E+02  0.36820934363E+02  0.00000000000E+00 0. -1.
         11    1    4    4    0    0  0.36168895615E+01 -0.65353568071E+01 -0.11597559837E+02  0.13794787898E+02  0.51100000000E-03 0. -1.
        -11    1    4    4    0    0 -0.15949909241E+02  0.71381661894E+01 -0.10539708481E+02  0.20406824262E+02  0.51100000000E-03 0.  1.
        -12    1    4    4    0    0 -0.40954567336E+00  0.19192559608E+02 -0.61744183525E+01  0.20165453477E+02  0.00000000000E+00 0.  1.
</event>
<event>
 8    1  0.2521748E-006  0.9118800E+02  0.7816164E-02  0.1184000E+00
        -11   -1    0    0    0    0  0.00000000000E+00  0.00000000000E+00  0.45593999997E+02  0.45594000000E+02  0.51100000000E-03 0. -1.
         11   -1    0    0    0    0 -0.00000000000E+00 -0.00000000000E+00 -0.45593999997E+02  0.45594000000E+02  0.51100000000E-03 0.  1.
         23    2    1    2    0    0  0.00000000000E+00  0.17763568394E-14  0.35527136788E-14  0.91188000000E+02  0.91188000000E+02 0.  0.
    9900012    2    3    3    0    0  0.16908979112E+02  0.81172521123E+01  0.31685551214E+02  0.54367115814E+02  0.40000072121E+02 0.  0.
        -12    1    3    3    0    0 -0.16908979112E+02 -0.81172521123E+01 -0.31685551214E+02  0.36820884186E+02  0.00000000000E+00 0.  1.
         11    1    4    4    0    0  0.72726155330E+01 -0.10749762571E+02  0.14279717601E+02  0.19296597292E+02  0.51100000000E-03 0.  1.
        -11    1    4    4    0    0  0.35854825351E+01 -0.26119153481E+01 -0.25648944270E+01  0.51241067980E+01  0.51100000000E-03 0. -1.
        -12    1    4    4    0    0  0.60508810444E+01  0.21478930031E+02  0.19970728041E+02  0.29946411724E+02  0.00000000000E+00 0.  1.
</event>
<event>
 8    1  0.2521748E-006  0.9118800E+02  0.7816164E-02  0.1184000E+00
        -11   -1    0    0    0    0  0.00000000000E+00  0.00000000000E+00  0.45593999997E+02  0.45594000000E+02  0.51100000000E-03 0.  1.
         11   -1    0    0    0    0 -0.00000000000E+00 -0.00000000000E+00 -0.45593999997E+02  0.45594000000E+02  0.51100000000E-03 0. -1.
         23    2    1    2    0    0 -0.44408920985E-15  0.17763568394E-14  0.00000000000E+00  0.91188000000E+02  0.91188000000E+02 0.  0.
    9900012    2    3    3    0    0 -0.17623087085E+01 -0.89193678505E+01  0.35680802767E+02  0.54367074687E+02  0.39999978364E+02 0.  0.
         12    1    3    3    0    0  0.17623087085E+01  0.89193678505E+01 -0.35680802767E+02  0.36820925313E+02  0.00000000000E+00 0. -1.
         11    1    4    4    0    0  0.41152577475E+01  0.70264714872E+00  0.37286360482E+01  0.55974803604E+01  0.51100000000E-03 0. -1.
        -11    1    4    4    0    0  0.12548625388E+02 -0.12240531522E+02  0.20256313453E+02  0.26788371470E+02  0.51100000000E-03 0.  1.
         12    1    4    4    0    0 -0.18426191844E+02  0.26185165230E+01  0.11695853266E+02  0.21981222856E+02  0.00000000000E+00 0. -1.
</event>
<event>
 8    1  0.2521748E-006  0.9118800E+02  0.7816164E-02  0.1184000E+00
        -11   -1    0    0    0    0  0.00000000000E+00  0.00000000000E+00  0.45593999997E+02  0.45594000000E+02  0.51100000000E-03 0. -1.
         11   -1    0    0    0    0 -0.00000000000E+00 -0.00000000000E+00 -0.45593999997E+02  0.45594000000E+02  0.51100000000E-03 0.  1.
         23    2    1    2    0    0  0.00000000000E+00  0.35527136788E-14  0.17763568394E-14  0.91188000000E+02  0.91188000000E+02 0.  0.
    9900012    2    3    3    0    0 -0.32932393594E+02  0.14324336526E+02  0.81271071582E+01  0.54367095130E+02  0.40000024967E+02 0.  0.
        -12    1    3    3    0    0  0.32932393594E+02 -0.14324336526E+02 -0.81271071582E+01  0.36820904870E+02  0.00000000000E+00 0.  1.
         11    1    4    4    0    0 -0.12400896871E+02  0.50987346910E+01 -0.12152377562E+02  0.18095845361E+02  0.51100000000E-03 0. -1.
        -11    1    4    4    0    0  0.39862567024E+01  0.14784461153E+01  0.40059688152E+01  0.58415607352E+01  0.51100000000E-03 0.  1.
         12    1    4    4    0    0 -0.24517753425E+02  0.77471557196E+01  0.16273515905E+02  0.30429689034E+02  0.00000000000E+00 0. -1.
</event>
<event>
 8    1  0.2521748E-006  0.9118800E+02  0.7816164E-02  0.1184000E+00
        -11   -1    0    0    0    0  0.00000000000E+00  0.00000000000E+00  0.45593999997E+02  0.45594000000E+02  0.51100000000E-03 0.  1.
         11   -1    0    0    0    0 -0.00000000000E+00 -0.00000000000E+00 -0.45593999997E+02  0.45594000000E+02  0.51100000000E-03 0. -1.
         23    2    1    2    0    0 -0.35527136788E-14  0.17763568394E-14 -0.35527136788E-14  0.91188000000E+02  0.91188000000E+02 0.  0.
    9900012    2    3    3    0    0 -0.23551081251E+02  0.15790022434E+02 -0.23490459955E+02  0.54367082773E+02  0.39999996798E+02 0.  0.
        -12    1    3    3    0    0  0.23551081251E+02 -0.15790022434E+02  0.23490459955E+02  0.36820917227E+02  0.00000000000E+00 0.  1.
         11    1    4    4    0    0 -0.96999494944E+01 -0.55332674519E+01 -0.20297246788E+02  0.23166447642E+02  0.51100000000E-03 0. -1.
        -11    1    4    4    0    0  0.18662871621E+01  0.49454774482E+00  0.37336630302E+01  0.42033135890E+01  0.51100000000E-03 0.  1.
        -12    1    4    4    0    0 -0.15717418918E+02  0.20828742141E+02 -0.69268761968E+01  0.26997321542E+02  0.00000000000E+00 0.  1.
</event>
<event>
 8    1  0.2521748E-006  0.9118800E+02  0.7816164E-02  0.1184000E+00
        -11   -1    0    0    0    0  0.00000000000E+00  0.00000000000E+00  0.45593999997E+02  0.45594000000E+02  0.51100000000E-03 0. -1.
         11   -1    0    0    0    0 -0.00000000000E+00 -0.00000000000E+00 -0.45593999997E+02  0.45594000000E+02  0.51100000000E-03 0.  1.
         23    2    1    2    0    0 -0.35527136788E-14  0.35527136788E-14  0.00000000000E+00  0.91188000000E+02  0.91188000000E+02 0.  0.
    9900012    2    3    3    0    0  0.23375591101E+02 -0.25141035519E+02 -0.13314918013E+02  0.54367123204E+02  0.40000088969E+02 0.  0.
         12    1    3    3    0    0 -0.23375591101E+02  0.25141035519E+02  0.13314918013E+02  0.36820876796E+02  0.00000000000E+00 0. -1.
         11    1    4    4    0    0  0.32242066793E+01 -0.27316610237E+02 -0.94727498257E+01  0.29091677385E+02  0.51100000000E-03 0. -1.
        -11    1    4    4    0    0  0.10681246094E+02 -0.10585042400E+01  0.50739869235E+01  0.11872438372E+02  0.51100000000E-03 0.  1.
        -12    1    4    4    0    0  0.94701383281E+01  0.32340789580E+01 -0.89161551107E+01  0.13403007447E+02  0.00000000000E+00 0.  1.
</event>
<event>
 8    1  0.2521748E-006  0.9118800E+02  0.7816164E-02  0.1184000E+00
        -11   -1    0    0    0    0  0.00000000000E+00  0.00000000000E+00  0.45593999997E+02  0.45594000000E+02  0.51100000000E-03 0.  1.
         11   -1    0    0    0    0 -0.00000000000E+00 -0.00000000000E+00 -0.45593999997E+02  0.45594000000E+02  0.51100000000E-03 0. -1.
         23    2    1    2    0    0  0.00000000000E+00  0.00000000000E+00  0.00000000000E+00  0.91188000000E+02  0.91188000000E+02 0.  0.
    9900012    2    3    3    0    0 -0.20848981979E+02 -0.28876066091E+02  0.93420327834E+01  0.54367070910E+02  0.39999969755E+02 0.  0.
         12    1    3    3    0    0  0.20848981979E+02  0.28876066091E+02 -0.93420327834E+01  0.36820929090E+02  0.00000000000E+00 0. -1.
         11    1    4    4    0    0  0.12747191977E+01 -0.14879416179E+02  0.59659803209E+01  0.16081506656E+02  0.51100000000E-03 0. -1.
        -11    1    4    4    0    0 -0.10741804926E+01 -0.16600469378E+02  0.38314560966E+01  0.17070720647E+02  0.51100000000E-03 0.  1.
         12    1    4    4    0    0 -0.21049520684E+02  0.26038194660E+01 -0.45540363415E+00  0.21214843608E+02  0.00000000000E+00 0. -1.
</event>
<event>
 8    1  0.2521748E-006  0.9118800E+02  0.7816164E-02  0.1184000E+00
        -11   -1    0    0    0    0  0.00000000000E+00  0.00000000000E+00  0.45593999997E+02  0.45594000000E+02  0.51100000000E-03 0. -1.
         11   -1    0    0    0    0 -0.00000000000E+00 -0.00000000000E+00 -0.45593999997E+02  0.45594000000E+02  0.51100000000E-03 0.  1.
         23    2    1    2    0    0  0.00000000000E+00  0.00000000000E+00  0.35527136788E-14  0.91188000000E+02  0.91188000000E+02 0.  0.
    9900012    2    3    3    0    0 -0.24514313197E+02  0.11801700153E+02  0.24810260658E+02  0.54367072365E+02  0.39999973070E+02 0.  0.
        -12    1    3    3    0    0  0.24514313197E+02 -0.11801700153E+02 -0.24810260658E+02  0.36820927635E+02  0.00000000000E+00 0.  1.
         11    1    4    4    0    0 -0.80639807659E+01  0.10409746885E+02  0.12287475348E+02  0.18010348878E+02  0.51100000000E-03 0. -1.
        -11    1    4    4    0    0 -0.45348609184E+01 -0.13827229100E+02  0.75717030846E+01  0.16403899414E+02  0.51100000000E-03 0.  1.
        -12    1    4    4    0    0 -0.11915471512E+02  0.15219182367E+02  0.49510822252E+01  0.19952824073E+02  0.00000000000E+00 0.  1.
</event>
<event>
 8    1  0.2521748E-006  0.9118800E+02  0.7816164E-02  0.1184000E+00
        -11   -1    0    0    0    0  0.00000000000E+00  0.00000000000E+00  0.45593999997E+02  0.45594000000E+02  0.51100000000E-03 0.  1.
         11   -1    0    0    0    0 -0.00000000000E+00 -0.00000000000E+00 -0.45593999997E+02  0.45594000000E+02  0.51100000000E-03 0. -1.
         23    2    1    2    0    0  0.88817841970E-15  0.00000000000E+00  0.00000000000E+00  0.91188000000E+02  0.91188000000E+02 0.  0.
    9900012    2    3    3    0    0  0.35100638578E+01  0.28037719771E+02 -0.23608162878E+02  0.54367087020E+02  0.40000006479E+02 0.  0.
        -12    1    3    3    0    0 -0.35100638578E+01 -0.28037719771E+02  0.23608162878E+02  0.36820912980E+02  0.00000000000E+00 0.  1.
         11    1    4    4    0    0 -0.56219552631E+01  0.28621980755E+02 -0.11863704830E+02  0.31489230792E+02  0.51100000000E-03 0. -1.
        -11    1    4    4    0    0  0.11707860688E+02  0.12363053594E+01 -0.11560155343E+01  0.11829574169E+02  0.51100000000E-03 0.  1.
         12    1    4    4    0    0 -0.25758415675E+01 -0.18205663434E+01 -0.10588442513E+02  0.11048282058E+02  0.00000000000E+00 0. -1.
</event>
<event>
 8    1  0.2521748E-006  0.9118800E+02  0.7816164E-02  0.1184000E+00
        -11   -1    0    0    0    0  0.00000000000E+00  0.00000000000E+00  0.45593999997E+02  0.45594000000E+02  0.51100000000E-03 0.  1.
         11   -1    0    0    0    0 -0.00000000000E+00 -0.00000000000E+00 -0.45593999997E+02  0.45594000000E+02  0.51100000000E-03 0. -1.
         23    2    1    2    0    0  0.17763568394E-14 -0.35527136788E-14 -0.35527136788E-14  0.91188000000E+02  0.91188000000E+02 0.  0.
    9900012    2    3    3    0    0 -0.15156285775E+02  0.28197903441E+02 -0.18191929466E+02  0.54367067711E+02  0.39999962460E+02 0.  0.
        -12    1    3    3    0    0  0.15156285775E+02 -0.28197903441E+02  0.18191929466E+02  0.36820932289E+02  0.00000000000E+00 0.  1.
         11    1    4    4    0    0 -0.89990269958E+01  0.14999616391E+02 -0.13728540478E+02  0.22236092343E+02  0.51100000000E-03 0. -1.
        -11    1    4    4    0    0 -0.36339017973E+01  0.21834804797E+02 -0.61567640973E+01  0.22975414843E+02  0.51100000000E-03 0.  1.
        -12    1    4    4    0    0 -0.25233569824E+01 -0.86365177476E+01  0.16933751099E+01  0.91555605250E+01  0.00000000000E+00 0.  1.
</event>
<event>
 8    1  0.2521748E-006  0.9118800E+02  0.7816164E-02  0.1184000E+00
        -11   -1    0    0    0    0  0.00000000000E+00  0.00000000000E+00  0.45593999997E+02  0.45594000000E+02  0.51100000000E-03 0. -1.
         11   -1    0    0    0    0 -0.00000000000E+00 -0.00000000000E+00 -0.45593999997E+02  0.45594000000E+02  0.51100000000E-03 0.  1.
         23    2    1    2    0    0 -0.35527136788E-14  0.35527136788E-14  0.00000000000E+00  0.91188000000E+02  0.91188000000E+02 0.  0.
    9900012    2    3    3    0    0 -0.31382707818E+02 -0.18264842159E+02 -0.61074818108E+01  0.54367080088E+02  0.39999990677E+02 0.  0.
         12    1    3    3    0    0  0.31382707818E+02  0.18264842159E+02  0.61074818108E+01  0.36820919912E+02  0.00000000000E+00 0. -1.
         11    1    4    4    0    0 -0.18127028803E+02  0.78608794896E+00 -0.37925347446E+01  0.18536192369E+02  0.51100000000E-03 0. -1.
        -11    1    4    4    0    0 -0.16498103413E+02 -0.21215832739E+02  0.51914130960E+01  0.27372426733E+02  0.51100000000E-03 0.  1.
         12    1    4    4    0    0  0.32424243980E+01  0.21649026312E+01 -0.75063601622E+01  0.84584609867E+01  0.00000000000E+00 0. -1.
</event>
<event>
 8    1  0.2521748E-006  0.9118800E+02  0.7816164E-02  0.1184000E+00
        -11   -1    0    0    0    0  0.00000000000E+00  0.00000000000E+00  0.45593999997E+02  0.45594000000E+02  0.51100000000E-03 0.  1.
         11   -1    0    0    0    0 -0.00000000000E+00 -0.00000000000E+00 -0.45593999997E+02  0.45594000000E+02  0.51100000000E-03 0. -1.
         23    2    1    2    0    0 -0.35527136788E-14 -0.88817841970E-15  0.35527136788E-14  0.91188000000E+02  0.91188000000E+02 0.  0.
    9900012    2    3    3    0    0 -0.27245446572E+02  0.23401547630E+01  0.24657391298E+02  0.54367114230E+02  0.40000068511E+02 0.  0.
         12    1    3    3    0    0  0.27245446572E+02 -0.23401547630E+01 -0.24657391298E+02  0.36820885770E+02  0.00000000000E+00 0. -1.
         11    1    4    4    0    0  0.23583980011E+01  0.14176731812E+02  0.12593079585E+02  0.19108307609E+02  0.51100000000E-03 0. -1.
        -11    1    4    4    0    0 -0.20129816074E+02 -0.11566814272E+02  0.11095615039E+02  0.25731563515E+02  0.51100000000E-03 0.  1.
         12    1    4    4    0    0 -0.94740284995E+01 -0.26976277607E+00  0.96869667474E+00  0.95272431066E+01  0.00000000000E+00 0. -1.
</event>
<event>
 8    1  0.2521748E-006  0.9118800E+02  0.7816164E-02  0.1184000E+00
        -11   -1    0    0    0    0  0.00000000000E+00  0.00000000000E+00  0.45593999997E+02  0.45594000000E+02  0.51100000000E-03 0.  1.
         11   -1    0    0    0    0 -0.00000000000E+00 -0.00000000000E+00 -0.45593999997E+02  0.45594000000E+02  0.51100000000E-03 0. -1.
         23    2    1    2    0    0 -0.11102230246E-15  0.00000000000E+00  0.00000000000E+00  0.91188000000E+02  0.91188000000E+02 0.  0.
    9900012    2    3    3    0    0  0.91372308373E+00 -0.29553229826E+02 -0.21944332875E+02  0.54367054489E+02  0.39999932318E+02 0.  0.
         12    1    3    3    0    0 -0.91372308373E+00  0.29553229826E+02  0.21944332875E+02  0.36820945511E+02  0.00000000000E+00 0. -1.
         11    1    4    4    0    0  0.11802772842E+02  0.67727126523E+00 -0.12648375296E+02  0.17313160919E+02  0.51100000000E-03 0. -1.
        -11    1    4    4    0    0 -0.80643171836E+01 -0.25332128046E+02 -0.13680871749E+02  0.29898430979E+02  0.51100000000E-03 0.  1.
        -12    1    4    4    0    0 -0.28247325748E+01 -0.48983730449E+01  0.43849141694E+01  0.71554625902E+01  0.00000000000E+00 0.  1.
</event>
<event>
 8    1  0.2521748E-006  0.9118800E+02  0.7816164E-02  0.1184000E+00
        -11   -1    0    0    0    0  0.00000000000E+00  0.00000000000E+00  0.45593999997E+02  0.45594000000E+02  0.51100000000E-03 0.  1.
         11   -1    0    0    0    0 -0.00000000000E+00 -0.00000000000E+00 -0.45593999997E+02  0.45594000000E+02  0.51100000000E-03 0. -1.
         23    2    1    2    0    0  0.00000000000E+00  0.17763568394E-14  0.35527136788E-14  0.91188000000E+02  0.91188000000E+02 0.  0.
    9900012    2    3    3    0    0  0.14329836591E+02  0.11883807150E+02 -0.31768071284E+02  0.54367089607E+02  0.40000012377E+02 0.  0.
        -12    1    3    3    0    0 -0.14329836591E+02 -0.11883807150E+02  0.31768071284E+02  0.36820910393E+02  0.00000000000E+00 0.  1.
         11    1    4    4    0    0  0.46285199522E+01 -0.81237564742E+01 -0.19200641872E+02  0.21356106030E+02  0.51100000000E-03 0. -1.
        -11    1    4    4    0    0 -0.33999965627E+00  0.16189680516E+02 -0.14914343395E+02  0.22014972045E+02  0.51100000000E-03 0.  1.
        -12    1    4    4    0    0  0.10041316295E+02  0.38178831085E+01  0.23469139836E+01  0.10996011532E+02  0.00000000000E+00 0.  1.
</event>
<event>
 8    1  0.2521748E-006  0.9118800E+02  0.7816164E-02  0.1184000E+00
        -11   -1    0    0    0    0  0.00000000000E+00  0.00000000000E+00  0.45593999997E+02  0.45594000000E+02  0.51100000000E-03 0.  1.
         11   -1    0    0    0    0 -0.00000000000E+00 -0.00000000000E+00 -0.45593999997E+02  0.45594000000E+02  0.51100000000E-03 0. -1.
         23    2    1    2    0    0  0.00000000000E+00  0.88817841970E-15  0.00000000000E+00  0.91188000000E+02  0.91188000000E+02 0.  0.
    9900012    2    3    3    0    0 -0.12574344189E+02  0.67975171401E+01 -0.33932975981E+02  0.54367255439E+02  0.40000390423E+02 0.  0.
        -12    1    3    3    0    0  0.12574344189E+02 -0.67975171401E+01  0.33932975981E+02  0.36820744561E+02  0.00000000000E+00 0.  1.
         11    1    4    4    0    0  0.19528476329E+01  0.78302958464E+01 -0.50087322521E+01  0.94981338143E+01  0.51100000000E-03 0. -1.
        -11    1    4    4    0    0 -0.15498298083E+02 -0.66495089415E+01 -0.33535606347E+02  0.37537316179E+02  0.51100000000E-03 0.  1.
        -12    1    4    4    0    0  0.97110626082E+00  0.56167302353E+01  0.46113626175E+01  0.73318054458E+01  0.00000000000E+00 0.  1.
</event>
<event>
 8    1  0.2521748E-006  0.9118800E+02  0.7816164E-02  0.1184000E+00
        -11   -1    0    0    0    0  0.00000000000E+00  0.00000000000E+00  0.45593999997E+02  0.45594000000E+02  0.51100000000E-03 0. -1.
         11   -1    0    0    0    0 -0.00000000000E+00 -0.00000000000E+00 -0.45593999997E+02  0.45594000000E+02  0.51100000000E-03 0.  1.
         23    2    1    2    0    0  0.00000000000E+00  0.00000000000E+00  0.00000000000E+00  0.91188000000E+02  0.91188000000E+02 0.  0.
    9900012    2    3    3    0    0  0.17475242607E+02 -0.11341593862E+02 -0.30360590879E+02  0.54367063918E+02  0.39999953813E+02 0.  0.
         12    1    3    3    0    0 -0.17475242607E+02  0.11341593862E+02  0.30360590879E+02  0.36820936082E+02  0.00000000000E+00 0. -1.
         11    1    4    4    0    0  0.50658385470E+01  0.89974043878E+01  0.18013185837E+01  0.10481448125E+02  0.51100000000E-03 0. -1.
        -11    1    4    4    0    0  0.12632135320E+02 -0.99050285655E+01 -0.88178514417E+01  0.18314882963E+02  0.51100000000E-03 0.  1.
        -12    1    4    4    0    0 -0.22273126044E+00 -0.10433969684E+02 -0.23344058021E+02  0.25570732830E+02  0.00000000000E+00 0.  1.
</event>
<event>
 8    1  0.2521748E-006  0.9118800E+02  0.7816164E-02  0.1184000E+00
        -11   -1    0    0    0    0  0.00000000000E+00  0.00000000000E+00  0.45593999997E+02  0.45594000000E+02  0.51100000000E-03 0. -1.
         11   -1    0    0    0    0 -0.00000000000E+00 -0.00000000000E+00 -0.45593999997E+02  0.45594000000E+02  0.51100000000E-03 0.  1.
         23    2    1    2    0    0  0.88817841970E-15  0.00000000000E+00  0.00000000000E+00  0.91188000000E+02  0.91188000000E+02 0.  0.
    9900012    2    3    3    0    0  0.74504948312E+01  0.17739329057E+02 -0.31394045492E+02  0.54367085278E+02  0.40000002508E+02 0.  0.
         12    1    3    3    0    0 -0.74504948312E+01 -0.17739329057E+02  0.31394045492E+02  0.36820914722E+02  0.00000000000E+00 0. -1.
         11    1    4    4    0    0  0.38228578158E+01  0.48136411606E+01 -0.10892685259E+02  0.12507436809E+02  0.51100000000E-03 0. -1.
        -11    1    4    4    0    0  0.57659027900E+01  0.15150190510E+02 -0.28776382748E+02  0.33028080656E+02  0.51100000000E-03 0.  1.
         12    1    4    4    0    0 -0.21382657746E+01 -0.22245026132E+01  0.82750225162E+01  0.88315678134E+01  0.00000000000E+00 0. -1.
</event>
<event>
 8    1  0.2521748E-006  0.9118800E+02  0.7816164E-02  0.1184000E+00
        -11   -1    0    0    0    0  0.00000000000E+00  0.00000000000E+00  0.45593999997E+02  0.45594000000E+02  0.51100000000E-03 0. -1.
         11   -1    0    0    0    0 -0.00000000000E+00 -0.00000000000E+00 -0.45593999997E+02  0.45594000000E+02  0.51100000000E-03 0.  1.
         23    2    1    2    0    0 -0.35527136788E-14  0.00000000000E+00  0.35527136788E-14  0.91188000000E+02  0.91188000000E+02 0.  0.
    9900012    2    3    3    0    0 -0.26935607552E+02 -0.16342512382E+02  0.19057211893E+02  0.54367055005E+02  0.39999933495E+02 0.  0.
        -12    1    3    3    0    0  0.26935607552E+02  0.16342512382E+02 -0.19057211893E+02  0.36820944995E+02  0.00000000000E+00 0.  1.
         11    1    4    4    0    0 -0.14386574613E+02 -0.20521476207E+02  0.16795786675E+01  0.25118230423E+02  0.51100000000E-03 0. -1.
        -11    1    4    4    0    0  0.22469181057E+01 -0.38627566097E+01 -0.72196309580E+00  0.45266721300E+01  0.51100000000E-03 0.  1.
         12    1    4    4    0    0 -0.14795951045E+02  0.80417204341E+01  0.18099596322E+02  0.24722152452E+02  0.00000000000E+00 0. -1.
</event>
<event>
 8    1  0.2521748E-006  0.9118800E+02  0.7816164E-02  0.1184000E+00
        -11   -1    0    0    0    0  0.00000000000E+00  0.00000000000E+00  0.45593999997E+02  0.45594000000E+02  0.51100000000E-03 0. -1.
         11   -1    0    0    0    0 -0.00000000000E+00 -0.00000000000E+00 -0.45593999997E+02  0.45594000000E+02  0.51100000000E-03 0.  1.
         23    2    1    2    0    0  0.00000000000E+00  0.17763568394E-14  0.00000000000E+00  0.91188000000E+02  0.91188000000E+02 0.  0.
    9900012    2    3    3    0    0 -0.23769668004E+02 -0.96148364662E+01 -0.26426048489E+02  0.54367105985E+02  0.40000049715E+02 0.  0.
         12    1    3    3    0    0  0.23769668004E+02  0.96148364662E+01  0.26426048489E+02  0.36820894015E+02  0.00000000000E+00 0. -1.
         11    1    4    4    0    0 -0.10611655703E+02 -0.16444886436E+02  0.38060346709E+01  0.19938089849E+02  0.51100000000E-03 0. -1.
        -11    1    4    4    0    0 -0.58245400157E+01  0.18490468855E+01 -0.19888880976E+02  0.20806533289E+02  0.51100000000E-03 0.  1.
         12    1    4    4    0    0 -0.73334722854E+01  0.49810030848E+01 -0.10343202184E+02  0.13622482847E+02  0.00000000000E+00 0. -1.
</event>
<event>
 8    1  0.2521748E-006  0.9118800E+02  0.7816164E-02  0.1184000E+00
        -11   -1    0    0    0    0  0.00000000000E+00  0.00000000000E+00  0.45593999997E+02  0.45594000000E+02  0.51100000000E-03 0.  1.
         11   -1    0    0    0    0 -0.00000000000E+00 -0.00000000000E+00 -0.45593999997E+02  0.45594000000E+02  0.51100000000E-03 0. -1.
         23    2    1    2    0    0  0.00000000000E+00  0.00000000000E+00  0.35527136788E-14  0.91188000000E+02  0.91188000000E+02 0.  0.
    9900012    2    3    3    0    0  0.20896177034E+02 -0.20355152623E+02  0.22467710973E+02  0.54367075387E+02  0.39999979960E+02 0.  0.
         12    1    3    3    0    0 -0.20896177034E+02  0.20355152623E+02 -0.22467710973E+02  0.36820924613E+02  0.00000000000E+00 0. -1.
         11    1    4    4    0    0 -0.56000359086E+01 -0.12345216443E+02 -0.16363271169E+01  0.13654388961E+02  0.51100000000E-03 0. -1.
        -11    1    4    4    0    0  0.13165976213E+02 -0.12923277577E+02  0.11644628743E+02  0.21816310682E+02  0.51100000000E-03 0.  1.
         12    1    4    4    0    0  0.13330236730E+02  0.49133413971E+01  0.12459409347E+02  0.18896375744E+02  0.00000000000E+00 0. -1.
</event>
<event>
 8    1  0.2521748E-006  0.9118800E+02  0.7816164E-02  0.1184000E+00
        -11   -1    0    0    0    0  0.00000000000E+00  0.00000000000E+00  0.45593999997E+02  0.45594000000E+02  0.51100000000E-03 0. -1.
         11   -1    0    0    0    0 -0.00000000000E+00 -0.00000000000E+00 -0.45593999997E+02  0.45594000000E+02  0.51100000000E-03 0.  1.
         23    2    1    2    0    0  0.00000000000E+00  0.00000000000E+00  0.35527136788E-14  0.91188000000E+02  0.91188000000E+02 0.  0.
    9900012    2    3    3    0    0 -0.80477916273E+01  0.16936948460E+02 -0.31688377015E+02  0.54367076450E+02  0.39999982384E+02 0.  0.
         12    1    3    3    0    0  0.80477916273E+01 -0.16936948460E+02  0.31688377015E+02  0.36820923550E+02  0.00000000000E+00 0. -1.
         11    1    4    4    0    0  0.39379135552E+01 -0.51817546595E+01 -0.61281817802E-02  0.65082856680E+01  0.51100000000E-03 0. -1.
        -11    1    4    4    0    0  0.55127968014E+01  0.64647249250E+01 -0.88882965753E-01  0.84965579720E+01  0.51100000000E-03 0.  1.
         12    1    4    4    0    0 -0.17498501984E+02  0.15653978194E+02 -0.31593365867E+02  0.39362232810E+02  0.00000000000E+00 0. -1.
</event>
<event>
 8    1  0.2521748E-006  0.9118800E+02  0.7816164E-02  0.1184000E+00
        -11   -1    0    0    0    0  0.00000000000E+00  0.00000000000E+00  0.45593999997E+02  0.45594000000E+02  0.51100000000E-03 0.  1.
         11   -1    0    0    0    0 -0.00000000000E+00 -0.00000000000E+00 -0.45593999997E+02  0.45594000000E+02  0.51100000000E-03 0. -1.
         23    2    1    2    0    0 -0.17763568394E-14  0.00000000000E+00  0.00000000000E+00  0.91188000000E+02  0.91188000000E+02 0.  0.
    9900012    2    3    3    0    0 -0.11932382471E+02  0.27837899475E+02 -0.20939198420E+02  0.54367076206E+02  0.39999981826E+02 0.  0.
        -12    1    3    3    0    0  0.11932382471E+02 -0.27837899475E+02  0.20939198420E+02  0.36820923794E+02  0.00000000000E+00 0.  1.
         11    1    4    4    0    0 -0.46324644903E+01  0.32362083273E+02 -0.16893156284E+02  0.36798680554E+02  0.51100000000E-03 0. -1.
        -11    1    4    4    0    0 -0.29529843463E+01 -0.23862706078E+01 -0.95257373538E+01  0.10254466166E+02  0.51100000000E-03 0.  1.
        -12    1    4    4    0    0 -0.43469336343E+01 -0.21379131907E+01  0.54796952181E+01  0.73139294852E+01  0.00000000000E+00 0.  1.
</event>
<event>
 8    1  0.2521748E-006  0.9118800E+02  0.7816164E-02  0.1184000E+00
        -11   -1    0    0    0    0  0.00000000000E+00  0.00000000000E+00  0.45593999997E+02  0.45594000000E+02  0.51100000000E-03 0.  1.
         11   -1    0    0    0    0 -0.00000000000E+00 -0.00000000000E+00 -0.45593999997E+02  0.45594000000E+02  0.51100000000E-03 0. -1.
         23    2    1    2    0    0  0.35527136788E-14  0.00000000000E+00  0.00000000000E+00  0.91188000000E+02  0.91188000000E+02 0.  0.
    9900012    2    3    3    0    0  0.16418678166E+02 -0.26534592886E+02  0.19547945533E+02  0.54367084926E+02  0.40000001706E+02 0.  0.
         12    1    3    3    0    0 -0.16418678166E+02  0.26534592886E+02 -0.19547945533E+02  0.36820915074E+02  0.00000000000E+00 0. -1.
         11    1    4    4    0    0  0.15293385001E+02 -0.18000276862E+02  0.45916065861E+01  0.24062012451E+02  0.51100000000E-03 0. -1.
        -11    1    4    4    0    0 -0.67499283451E+01  0.54295974513E+01  0.10605286215E+02  0.13693580873E+02  0.51100000000E-03 0.  1.
        -12    1    4    4    0    0  0.78752215103E+01 -0.13963913475E+02  0.43510527312E+01  0.16611491602E+02  0.00000000000E+00 0.  1.
</event>
<event>
 8    1  0.2521748E-006  0.9118800E+02  0.7816164E-02  0.1184000E+00
        -11   -1    0    0    0    0  0.00000000000E+00  0.00000000000E+00  0.45593999997E+02  0.45594000000E+02  0.51100000000E-03 0.  1.
         11   -1    0    0    0    0 -0.00000000000E+00 -0.00000000000E+00 -0.45593999997E+02  0.45594000000E+02  0.51100000000E-03 0. -1.
         23    2    1    2    0    0  0.35527136788E-14  0.00000000000E+00  0.00000000000E+00  0.91188000000E+02  0.91188000000E+02 0.  0.
    9900012    2    3    3    0    0  0.31166148364E+02 -0.18784333297E+02  0.56216185825E+01  0.54367047042E+02  0.39999915341E+02 0.  0.
         12    1    3    3    0    0 -0.31166148364E+02  0.18784333297E+02 -0.56216185825E+01  0.36820952958E+02  0.00000000000E+00 0. -1.
         11    1    4    4    0    0  0.37579006062E+01 -0.13585658824E+01  0.43368405927E+01  0.58970929118E+01  0.51100000000E-03 0. -1.
        -11    1    4    4    0    0  0.27680117772E+02 -0.11701031532E+01  0.10680535324E+02  0.29692286815E+02  0.51100000000E-03 0.  1.
        -12    1    4    4    0    0 -0.27187001435E+00 -0.16255664262E+02 -0.93957573341E+01  0.18777667315E+02  0.00000000000E+00 0.  1.
</event>
<event>
 8    1  0.2521748E-006  0.9118800E+02  0.7816164E-02  0.1184000E+00
        -11   -1    0    0    0    0  0.00000000000E+00  0.00000000000E+00  0.45593999997E+02  0.45594000000E+02  0.51100000000E-03 0. -1.
         11   -1    0    0    0    0 -0.00000000000E+00 -0.00000000000E+00 -0.45593999997E+02  0.45594000000E+02  0.51100000000E-03 0.  1.
         23    2    1    2    0    0  0.00000000000E+00 -0.35527136788E-14  0.00000000000E+00  0.91188000000E+02  0.91188000000E+02 0.  0.
    9900012    2    3    3    0    0  0.23245054360E+02 -0.26033801350E+02  0.11734091383E+02  0.54367078427E+02  0.39999986889E+02 0.  0.
        -12    1    3    3    0    0 -0.23245054360E+02  0.26033801350E+02 -0.11734091383E+02  0.36820921573E+02  0.00000000000E+00 0.  1.
         11    1    4    4    0    0  0.90919703008E+01 -0.23925130922E+02 -0.44670987133E+00  0.25598346891E+02  0.51100000000E-03 0. -1.
        -11    1    4    4    0    0  0.30770151852E+01 -0.11219266115E+02  0.42878869414E+01  0.12398626105E+02  0.51100000000E-03 0.  1.
         12    1    4    4    0    0  0.11076068874E+02  0.91105956868E+01  0.78929143130E+01  0.16370105431E+02  0.00000000000E+00 0. -1.
</event>
<event>
 8    1  0.2521748E-006  0.9118800E+02  0.7816164E-02  0.1184000E+00
        -11   -1    0    0    0    0  0.00000000000E+00  0.00000000000E+00  0.45593999997E+02  0.45594000000E+02  0.51100000000E-03 0.  1.
         11   -1    0    0    0    0 -0.00000000000E+00 -0.00000000000E+00 -0.45593999997E+02  0.45594000000E+02  0.51100000000E-03 0. -1.
         23    2    1    2    0    0  0.88817841970E-15  0.00000000000E+00  0.00000000000E+00  0.91188000000E+02  0.91188000000E+02 0.  0.
    9900012    2    3    3    0    0 -0.58863617520E+01  0.94671779490E+01 -0.35092762678E+02  0.54367099612E+02  0.40000035186E+02 0.  0.
        -12    1    3    3    0    0  0.58863617520E+01 -0.94671779490E+01  0.35092762678E+02  0.36820900388E+02  0.00000000000E+00 0.  1.
         11    1    4    4    0    0 -0.20328323548E+02  0.13126383816E+02 -0.17981348153E+02  0.30147496944E+02  0.51100000000E-03 0. -1.
        -11    1    4    4    0    0  0.54322220852E+01  0.15896149842E+01 -0.23079875598E+01  0.61125051672E+01  0.51100000000E-03 0.  1.
         12    1    4    4    0    0  0.90097397108E+01 -0.52488208512E+01 -0.14803426965E+02  0.18107097501E+02  0.00000000000E+00 0. -1.
</event>
<event>
 8    1  0.2521748E-006  0.9118800E+02  0.7816164E-02  0.1184000E+00
        -11   -1    0    0    0    0  0.00000000000E+00  0.00000000000E+00  0.45593999997E+02  0.45594000000E+02  0.51100000000E-03 0.  1.
         11   -1    0    0    0    0 -0.00000000000E+00 -0.00000000000E+00 -0.45593999997E+02  0.45594000000E+02  0.51100000000E-03 0. -1.
         23    2    1    2    0    0  0.00000000000E+00 -0.17763568394E-14  0.00000000000E+00  0.91188000000E+02  0.91188000000E+02 0.  0.
    9900012    2    3    3    0    0 -0.31029880058E+02 -0.14036381427E+02  0.13996638996E+02  0.54367090680E+02  0.40000014823E+02 0.  0.
         12    1    3    3    0    0  0.31029880058E+02  0.14036381427E+02 -0.13996638996E+02  0.36820909320E+02  0.00000000000E+00 0. -1.
         11    1    4    4    0    0 -0.90914819536E+01  0.10658677062E+02  0.13389585785E+02  0.19378943433E+02  0.51100000000E-03 0. -1.
        -11    1    4    4    0    0 -0.10813150061E+02 -0.93277483671E+01 -0.51205141155E+01  0.15170720778E+02  0.51100000000E-03 0.  1.
         12    1    4    4    0    0 -0.11125248043E+02 -0.15367310122E+02  0.57275673260E+01  0.19817426469E+02  0.00000000000E+00 0. -1.
</event>
<event>
 8    1  0.2521748E-006  0.9118800E+02  0.7816164E-02  0.1184000E+00
        -11   -1    0    0    0    0  0.00000000000E+00  0.00000000000E+00  0.45593999997E+02  0.45594000000E+02  0.51100000000E-03 0.  1.
         11   -1    0    0    0    0 -0.00000000000E+00 -0.00000000000E+00 -0.45593999997E+02  0.45594000000E+02  0.51100000000E-03 0. -1.
         23    2    1    2    0    0  0.00000000000E+00  0.88817841970E-15  0.00000000000E+00  0.91188000000E+02  0.91188000000E+02 0.  0.
    9900012    2    3    3    0    0  0.27308412667E+02  0.44781226779E+01  0.24289447947E+02  0.54367078410E+02  0.39999986852E+02 0.  0.
         12    1    3    3    0    0 -0.27308412667E+02 -0.44781226779E+01 -0.24289447947E+02  0.36820921590E+02  0.00000000000E+00 0. -1.
         11    1    4    4    0    0 -0.33934286122E+01 -0.65471061215E+01  0.67031024232E+01  0.99655174813E+01  0.51100000000E-03 0. -1.
        -11    1    4    4    0    0  0.16589211733E+02  0.17935617519E+02  0.14428380958E+02  0.28373693785E+02  0.51100000000E-03 0.  1.
        -12    1    4    4    0    0  0.14112629547E+02 -0.69103887193E+01  0.31579645661E+01  0.16027867144E+02  0.00000000000E+00 0.  1.
</event>
<event>
 8    1  0.2521748E-006  0.9118800E+02  0.7816164E-02  0.1184000E+00
        -11   -1    0    0    0    0  0.00000000000E+00  0.00000000000E+00  0.45593999997E+02  0.45594000000E+02  0.51100000000E-03 0. -1.
         11   -1    0    0    0    0 -0.00000000000E+00 -0.00000000000E+00 -0.45593999997E+02  0.45594000000E+02  0.51100000000E-03 0.  1.
         23    2    1    2    0    0  0.00000000000E+00 -0.35527136788E-14  0.00000000000E+00  0.91188000000E+02  0.91188000000E+02 0.  0.
    9900012    2    3    3    0    0 -0.17850717408E+02  0.24336475573E+02 -0.21091860817E+02  0.54367099032E+02  0.40000033864E+02 0.  0.
         12    1    3    3    0    0  0.17850717408E+02 -0.24336475573E+02  0.21091860817E+02  0.36820900968E+02  0.00000000000E+00 0. -1.
         11    1    4    4    0    0 -0.10481611384E+02 -0.19035822961E+01  0.75593167523E+00  0.10679851858E+02  0.51100000000E-03 0. -1.
        -11    1    4    4    0    0 -0.15180264990E+02  0.23741792768E+02 -0.11383834291E+02  0.30392513098E+02  0.51100000000E-03 0.  1.
        -12    1    4    4    0    0  0.78111589651E+01  0.24982651012E+01 -0.10463958202E+02  0.13294734076E+02  0.00000000000E+00 0.  1.
</event>
<event>
 8    1  0.2521748E-006  0.9118800E+02  0.7816164E-02  0.1184000E+00
        -11   -1    0    0    0    0  0.00000000000E+00  0.00000000000E+00  0.45593999997E+02  0.45594000000E+02  0.51100000000E-03 0.  1.
         11   -1    0    0    0    0 -0.00000000000E+00 -0.00000000000E+00 -0.45593999997E+02  0.45594000000E+02  0.51100000000E-03 0. -1.
         23    2    1    2    0    0  0.00000000000E+00 -0.35527136788E-14  0.00000000000E+00  0.91188000000E+02  0.91188000000E+02 0.  0.
    9900012    2    3    3    0    0 -0.10506974690E+02 -0.18219336661E+02  0.30223153381E+02  0.54367085484E+02  0.40000002978E+02 0.  0.
         12    1    3    3    0    0  0.10506974690E+02  0.18219336661E+02 -0.30223153381E+02  0.36820914516E+02  0.00000000000E+00 0. -1.
         11    1    4    4    0    0  0.20846392025E+01 -0.11169164228E+02  0.25726604663E+01  0.11649658034E+02  0.51100000000E-03 0. -1.
        -11    1    4    4    0    0 -0.61918162353E+01 -0.90220669576E+00  0.32159960250E+02  0.32763021972E+02  0.51100000000E-03 0.  1.
        -12    1    4    4    0    0 -0.63997976576E+01 -0.61479657373E+01 -0.45094673357E+01  0.99544054778E+01  0.00000000000E+00 0.  1.
</event>
<event>
 8    1  0.2521748E-006  0.9118800E+02  0.7816164E-02  0.1184000E+00
        -11   -1    0    0    0    0  0.00000000000E+00  0.00000000000E+00  0.45593999997E+02  0.45594000000E+02  0.51100000000E-03 0.  1.
         11   -1    0    0    0    0 -0.00000000000E+00 -0.00000000000E+00 -0.45593999997E+02  0.45594000000E+02  0.51100000000E-03 0. -1.
         23    2    1    2    0    0  0.00000000000E+00  0.00000000000E+00  0.35527136788E-14  0.91188000000E+02  0.91188000000E+02 0.  0.
    9900012    2    3    3    0    0 -0.14410222583E+02  0.17900839861E+02  0.28769536942E+02  0.54367070646E+02  0.39999969152E+02 0.  0.
         12    1    3    3    0    0  0.14410222583E+02 -0.17900839861E+02 -0.28769536942E+02  0.36820929354E+02  0.00000000000E+00 0. -1.
         11    1    4    4    0    0  0.63936558717E+01 -0.32460114794E+01 -0.26668844102E+01  0.76503397734E+01  0.51100000000E-03 0. -1.
        -11    1    4    4    0    0 -0.15194392363E+02  0.21793402608E+02  0.31318207010E+02  0.41068869562E+02  0.51100000000E-03 0.  1.
        -12    1    4    4    0    0 -0.56094860916E+01 -0.64655126789E+00  0.11821434234E+00  0.56478613107E+01  0.00000000000E+00 0.  1.
</event>
<event>
 8    1  0.2521748E-006  0.9118800E+02  0.7816164E-02  0.1184000E+00
        -11   -1    0    0    0    0  0.00000000000E+00  0.00000000000E+00  0.45593999997E+02  0.45594000000E+02  0.51100000000E-03 0.  1.
         11   -1    0    0    0    0 -0.00000000000E+00 -0.00000000000E+00 -0.45593999997E+02  0.45594000000E+02  0.51100000000E-03 0. -1.
         23    2    1    2    0    0  0.88817841970E-15  0.00000000000E+00  0.35527136788E-14  0.91188000000E+02  0.91188000000E+02 0.  0.
    9900012    2    3    3    0    0 -0.50914289871E+01 -0.19027690640E+02 -0.31109552884E+02  0.54367082835E+02  0.39999996938E+02 0.  0.
        -12    1    3    3    0    0  0.50914289871E+01  0.19027690640E+02  0.31109552884E+02  0.36820917165E+02  0.00000000000E+00 0.  1.
         11    1    4    4    0    0 -0.11875260101E+02 -0.68647006613E+00 -0.18437865220E+02  0.21941921469E+02  0.51100000000E-03 0.  1.
        -11    1    4    4    0    0 -0.45171179777E+01 -0.17798092856E+02 -0.61433079914E+01  0.19362765750E+02  0.51100000000E-03 0. -1.
        -12    1    4    4    0    0  0.11300949091E+02 -0.54312771782E+00 -0.65283796725E+01  0.13062395616E+02  0.00000000000E+00 0.  1.
</event>
<event>
 8    1  0.2521748E-006  0.9118800E+02  0.7816164E-02  0.1184000E+00
        -11   -1    0    0    0    0  0.00000000000E+00  0.00000000000E+00  0.45593999997E+02  0.45594000000E+02  0.51100000000E-03 0. -1.
         11   -1    0    0    0    0 -0.00000000000E+00 -0.00000000000E+00 -0.45593999997E+02  0.45594000000E+02  0.51100000000E-03 0.  1.
         23    2    1    2    0    0 -0.35527136788E-14  0.00000000000E+00  0.00000000000E+00  0.91188000000E+02  0.91188000000E+02 0.  0.
    9900012    2    3    3    0    0 -0.28889821363E+02  0.71604887328E+01 -0.21676856218E+02  0.54367075612E+02  0.39999980472E+02 0.  0.
         12    1    3    3    0    0  0.28889821363E+02 -0.71604887328E+01  0.21676856218E+02  0.36820924388E+02  0.00000000000E+00 0. -1.
         11    1    4    4    0    0 -0.29361860659E+02  0.79321322514E+00 -0.16748256801E+02  0.33812011988E+02  0.51100000000E-03 0. -1.
        -11    1    4    4    0    0 -0.61055700190E+01  0.80883400782E+01 -0.81753502052E+01  0.13020583002E+02  0.51100000000E-03 0.  1.
         12    1    4    4    0    0  0.65776093147E+01 -0.17210645705E+01  0.32467507877E+01  0.75344806212E+01  0.00000000000E+00 0. -1.
</event>
<event>
 8    1  0.2521748E-006  0.9118800E+02  0.7816164E-02  0.1184000E+00
        -11   -1    0    0    0    0  0.00000000000E+00  0.00000000000E+00  0.45593999997E+02  0.45594000000E+02  0.51100000000E-03 0. -1.
         11   -1    0    0    0    0 -0.00000000000E+00 -0.00000000000E+00 -0.45593999997E+02  0.45594000000E+02  0.51100000000E-03 0.  1.
         23    2    1    2    0    0  0.00000000000E+00  0.71054273576E-14  0.00000000000E+00  0.91188000000E+02  0.91188000000E+02 0.  0.
    9900012    2    3    3    0    0 -0.23997127577E+01  0.32441890640E+02 -0.17249347296E+02  0.54367151670E+02  0.40000153861E+02 0.  0.
         12    1    3    3    0    0  0.23997127577E+01 -0.32441890640E+02  0.17249347296E+02  0.36820848330E+02  0.00000000000E+00 0. -1.
         11    1    4    4    0    0  0.12759329787E+01  0.29021560693E+02 -0.16367968108E+02  0.33343505668E+02  0.51100000000E-03 0. -1.
        -11    1    4    4    0    0  0.37654041281E+01 -0.53288638704E+01 -0.56078032937E+01  0.86036339089E+01  0.51100000000E-03 0.  1.
         12    1    4    4    0    0 -0.74410498645E+01  0.87491938179E+01  0.47264241059E+01  0.12420012092E+02  0.00000000000E+00 0. -1.
</event>
<event>
 8    1  0.2521748E-006  0.9118800E+02  0.7816164E-02  0.1184000E+00
        -11   -1    0    0    0    0  0.00000000000E+00  0.00000000000E+00  0.45593999997E+02  0.45594000000E+02  0.51100000000E-03 0.  1.
         11   -1    0    0    0    0 -0.00000000000E+00 -0.00000000000E+00 -0.45593999997E+02  0.45594000000E+02  0.51100000000E-03 0. -1.
         23    2    1    2    0    0  0.00000000000E+00  0.88817841970E-15 -0.35527136788E-14  0.91188000000E+02  0.91188000000E+02 0.  0.
    9900012    2    3    3    0    0 -0.23301745448E+02 -0.73891435960E+01  0.27535600381E+02  0.54367081049E+02  0.39999992868E+02 0.  0.
         12    1    3    3    0    0  0.23301745448E+02  0.73891435960E+01 -0.27535600381E+02  0.36820918951E+02  0.00000000000E+00 0. -1.
         11    1    4    4    0    0  0.27968036542E+00  0.20015072035E+01  0.93497835911E+00  0.22267548104E+01  0.51100000000E-03 0. -1.
        -11    1    4    4    0    0 -0.14825161912E+02  0.34705654094E+01 -0.57237476672E+01  0.16266269935E+02  0.51100000000E-03 0.  1.
        -12    1    4    4    0    0 -0.87562639012E+01 -0.12861216209E+02  0.32324369689E+02  0.35874056304E+02  0.00000000000E+00 0.  1.
</event>
<event>
 8    1  0.2521748E-006  0.9118800E+02  0.7816164E-02  0.1184000E+00
        -11   -1    0    0    0    0  0.00000000000E+00  0.00000000000E+00  0.45593999997E+02  0.45594000000E+02  0.51100000000E-03 0. -1.
         11   -1    0    0    0    0 -0.00000000000E+00 -0.00000000000E+00 -0.45593999997E+02  0.45594000000E+02  0.51100000000E-03 0.  1.
         23    2    1    2    0    0  0.35527136788E-14  0.00000000000E+00 -0.35527136788E-14  0.91188000000E+02  0.91188000000E+02 0.  0.
    9900012    2    3    3    0    0  0.17618595193E+02  0.85110259161E+01 -0.31191793945E+02  0.54367075674E+02  0.39999980615E+02 0.  0.
         12    1    3    3    0    0 -0.17618595193E+02 -0.85110259161E+01  0.31191793945E+02  0.36820924326E+02  0.00000000000E+00 0. -1.
         11    1    4    4    0    0  0.27277909436E+01  0.10004019103E+02  0.58413901715E+01  0.11901389879E+02  0.51100000000E-03 0. -1.
        -11    1    4    4    0    0  0.14029981313E+02  0.40560034074E+01 -0.30730593482E+02  0.34024416458E+02  0.51100000000E-03 0.  1.
         12    1    4    4    0    0  0.86082293602E+00 -0.55489965944E+01 -0.63025906342E+01  0.84412693379E+01  0.00000000000E+00 0. -1.
</event>
<event>
 8    1  0.2521748E-006  0.9118800E+02  0.7816164E-02  0.1184000E+00
        -11   -1    0    0    0    0  0.00000000000E+00  0.00000000000E+00  0.45593999997E+02  0.45594000000E+02  0.51100000000E-03 0.  1.
         11   -1    0    0    0    0 -0.00000000000E+00 -0.00000000000E+00 -0.45593999997E+02  0.45594000000E+02  0.51100000000E-03 0. -1.
         23    2    1    2    0    0  0.17763568394E-14  0.00000000000E+00 -0.35527136788E-14  0.91188000000E+02  0.91188000000E+02 0.  0.
    9900012    2    3    3    0    0 -0.11121183256E+02  0.19264186854E+02  0.29342667143E+02  0.54367058577E+02  0.39999941638E+02 0.  0.
         12    1    3    3    0    0  0.11121183256E+02 -0.19264186854E+02 -0.29342667143E+02  0.36820941423E+02  0.00000000000E+00 0. -1.
         11    1    4    4    0    0 -0.54696013257E+01  0.12770342644E+02 -0.30794859339E+01  0.14229596755E+02  0.51100000000E-03 0. -1.
        -11    1    4    4    0    0 -0.96902481857E+01  0.89549130426E+01  0.83711434097E+01  0.15625857408E+02  0.51100000000E-03 0.  1.
         12    1    4    4    0    0  0.40386662557E+01 -0.24610688327E+01  0.24051009668E+02  0.24511604414E+02  0.00000000000E+00 0. -1.
</event>
<event>
 8    1  0.2521748E-006  0.9118800E+02  0.7816164E-02  0.1184000E+00
        -11   -1    0    0    0    0  0.00000000000E+00  0.00000000000E+00  0.45593999997E+02  0.45594000000E+02  0.51100000000E-03 0.  1.
         11   -1    0    0    0    0 -0.00000000000E+00 -0.00000000000E+00 -0.45593999997E+02  0.45594000000E+02  0.51100000000E-03 0. -1.
         23    2    1    2    0    0  0.00000000000E+00  0.22204460493E-15  0.35527136788E-14  0.91188000000E+02  0.91188000000E+02 0.  0.
    9900012    2    3    3    0    0  0.31063800790E+02 -0.39786584013E+00  0.19765168133E+02  0.54367083552E+02  0.39999998573E+02 0.  0.
         12    1    3    3    0    0 -0.31063800790E+02  0.39786584013E+00 -0.19765168133E+02  0.36820916448E+02  0.00000000000E+00 0. -1.
         11    1    4    4    0    0 -0.79087448431E+01  0.77025456928E+00  0.99239165004E+01  0.12713207937E+02  0.51100000000E-03 0. -1.
        -11    1    4    4    0    0  0.22598385166E+02 -0.34798106967E+01  0.10375512730E+02  0.25108710825E+02  0.51100000000E-03 0.  1.
         12    1    4    4    0    0  0.16374160467E+02  0.23116902873E+01 -0.53426109752E+00  0.16545164789E+02  0.00000000000E+00 0. -1.
</event>
<event>
 8    1  0.2521748E-006  0.9118800E+02  0.7816164E-02  0.1184000E+00
        -11   -1    0    0    0    0  0.00000000000E+00  0.00000000000E+00  0.45593999997E+02  0.45594000000E+02  0.51100000000E-03 0.  1.
         11   -1    0    0    0    0 -0.00000000000E+00 -0.00000000000E+00 -0.45593999997E+02  0.45594000000E+02  0.51100000000E-03 0. -1.
         23    2    1    2    0    0  0.88817841970E-15  0.35527136788E-14  0.00000000000E+00  0.91188000000E+02  0.91188000000E+02 0.  0.
    9900012    2    3    3    0    0 -0.32030737485E+01 -0.29987877715E+02  0.21124540587E+02  0.54367099599E+02  0.40000035157E+02 0.  0.
         12    1    3    3    0    0  0.32030737485E+01  0.29987877715E+02 -0.21124540587E+02  0.36820900401E+02  0.00000000000E+00 0. -1.
         11    1    4    4    0    0  0.68349339729E+01 -0.16175846236E+02  0.53701794030E+01  0.18363364369E+02  0.51100000000E-03 0. -1.
        -11    1    4    4    0    0 -0.44844914789E+01  0.57406518440E+01 -0.34320083655E+01  0.80526038708E+01  0.51100000000E-03 0.  1.
        -12    1    4    4    0    0 -0.55535162424E+01 -0.19552683323E+02  0.19186369550E+02  0.27951131360E+02  0.00000000000E+00 0.  1.
</event>
<event>
 8    1  0.2521748E-006  0.9118800E+02  0.7816164E-02  0.1184000E+00
        -11   -1    0    0    0    0  0.00000000000E+00  0.00000000000E+00  0.45593999997E+02  0.45594000000E+02  0.51100000000E-03 0. -1.
         11   -1    0    0    0    0 -0.00000000000E+00 -0.00000000000E+00 -0.45593999997E+02  0.45594000000E+02  0.51100000000E-03 0.  1.
         23    2    1    2    0    0  0.71054273576E-14  0.00000000000E+00  0.88817841970E-15  0.91188000000E+02  0.91188000000E+02 0.  0.
    9900012    2    3    3    0    0  0.31603644885E+02  0.18514565479E+02  0.37684165210E+01  0.54367075677E+02  0.39999980621E+02 0.  0.
         12    1    3    3    0    0 -0.31603644885E+02 -0.18514565479E+02 -0.37684165210E+01  0.36820924323E+02  0.00000000000E+00 0. -1.
         11    1    4    4    0    0  0.10217564212E+01 -0.34599646225E+00  0.13220178149E+02  0.13264117396E+02  0.51100000000E-03 0. -1.
        -11    1    4    4    0    0  0.90585686663E+01 -0.16015409928E+01  0.17479277731E+01  0.93636452087E+01  0.51100000000E-03 0.  1.
         12    1    4    4    0    0  0.21523319798E+02  0.20462102934E+02 -0.11199689401E+02  0.31739313072E+02  0.00000000000E+00 0. -1.
</event>
<event>
 8    1  0.2521748E-006  0.9118800E+02  0.7816164E-02  0.1184000E+00
        -11   -1    0    0    0    0  0.00000000000E+00  0.00000000000E+00  0.45593999997E+02  0.45594000000E+02  0.51100000000E-03 0. -1.
         11   -1    0    0    0    0 -0.00000000000E+00 -0.00000000000E+00 -0.45593999997E+02  0.45594000000E+02  0.51100000000E-03 0.  1.
         23    2    1    2    0    0  0.88817841970E-15 -0.15543122345E-14 -0.71054273576E-14  0.91188000000E+02  0.91188000000E+02 0.  0.
    9900012    2    3    3    0    0  0.58547965690E+01 -0.17059070455E+01 -0.36312341095E+02  0.54367151592E+02  0.40000153684E+02 0.  0.
         12    1    3    3    0    0 -0.58547965690E+01  0.17059070455E+01  0.36312341095E+02  0.36820848408E+02  0.00000000000E+00 0. -1.
         11    1    4    4    0    0  0.46433176774E+01 -0.94836380157E+01 -0.72157872300E+01  0.12789346139E+02  0.51100000000E-03 0. -1.
        -11    1    4    4    0    0  0.71061190455E+01  0.11455264568E+01 -0.31558900363E+02  0.32369327319E+02  0.51100000000E-03 0.  1.
         12    1    4    4    0    0 -0.58946401539E+01  0.66322045134E+01  0.24623464982E+01  0.92084781331E+01  0.00000000000E+00 0. -1.
</event>
<event>
 8    1  0.2521748E-006  0.9118800E+02  0.7816164E-02  0.1184000E+00
        -11   -1    0    0    0    0  0.00000000000E+00  0.00000000000E+00  0.45593999997E+02  0.45594000000E+02  0.51100000000E-03 0. -1.
         11   -1    0    0    0    0 -0.00000000000E+00 -0.00000000000E+00 -0.45593999997E+02  0.45594000000E+02  0.51100000000E-03 0.  1.
         23    2    1    2    0    0 -0.71054273576E-14  0.19428902931E-14  0.00000000000E+00  0.91188000000E+02  0.91188000000E+02 0.  0.
    9900012    2    3    3    0    0 -0.36688258323E+02 -0.25287673401E+00 -0.31124878233E+01  0.54367084397E+02  0.40000000499E+02 0.  0.
         12    1    3    3    0    0  0.36688258323E+02  0.25287673401E+00  0.31124878233E+01  0.36820915603E+02  0.00000000000E+00 0. -1.
         11    1    4    4    0    0 -0.25228697154E+01 -0.41800732218E+01  0.54129609425E+01  0.72895836758E+01  0.51100000000E-03 0. -1.
        -11    1    4    4    0    0 -0.25508652278E+01  0.12338675128E+02  0.19000703859E+01  0.12742059686E+02  0.51100000000E-03 0.  1.
        -12    1    4    4    0    0 -0.31614523380E+02 -0.84114786399E+01 -0.10425519152E+02  0.34335441034E+02  0.00000000000E+00 0.  1.
</event>
<event>
 8    1  0.2521748E-006  0.9118800E+02  0.7816164E-02  0.1184000E+00
        -11   -1    0    0    0    0  0.00000000000E+00  0.00000000000E+00  0.45593999997E+02  0.45594000000E+02  0.51100000000E-03 0.  1.
         11   -1    0    0    0    0 -0.00000000000E+00 -0.00000000000E+00 -0.45593999997E+02  0.45594000000E+02  0.51100000000E-03 0. -1.
         23    2    1    2    0    0  0.71054273576E-14 -0.17763568394E-14 -0.77715611724E-15  0.91188000000E+02  0.91188000000E+02 0.  0.
    9900012    2    3    3    0    0 -0.35513135770E+02  0.96913809383E+01 -0.82097937740E+00  0.54367086325E+02  0.40000004896E+02 0.  0.
        -12    1    3    3    0    0  0.35513135770E+02 -0.96913809383E+01  0.82097937740E+00  0.36820913675E+02  0.00000000000E+00 0.  1.
         11    1    4    4    0    0 -0.80721413689E+01  0.19978117895E+02 -0.91137646822E+01  0.23395413394E+02  0.51100000000E-03 0. -1.
        -11    1    4    4    0    0 -0.17318335325E+02 -0.35618610636E+01  0.52467816956E+01  0.18442893241E+02  0.51100000000E-03 0.  1.
         12    1    4    4    0    0 -0.10122659076E+02 -0.67248758935E+01  0.30460036092E+01  0.12528779691E+02  0.00000000000E+00 0. -1.
</event>
<event>
 8    1  0.2521748E-006  0.9118800E+02  0.7816164E-02  0.1184000E+00
        -11   -1    0    0    0    0  0.00000000000E+00  0.00000000000E+00  0.45593999997E+02  0.45594000000E+02  0.51100000000E-03 0.  1.
         11   -1    0    0    0    0 -0.00000000000E+00 -0.00000000000E+00 -0.45593999997E+02  0.45594000000E+02  0.51100000000E-03 0. -1.
         23    2    1    2    0    0  0.00000000000E+00 -0.77715611724E-15  0.88817841970E-15  0.91188000000E+02  0.91188000000E+02 0.  0.
    9900012    2    3    3    0    0 -0.36792227031E+02  0.84068904400E+00  0.11852112734E+01  0.54367089450E+02  0.40000012019E+02 0.  0.
         12    1    3    3    0    0  0.36792227031E+02 -0.84068904400E+00 -0.11852112734E+01  0.36820910550E+02  0.00000000000E+00 0. -1.
         11    1    4    4    0    0 -0.20726404574E+02  0.40139899662E+01 -0.11776205914E+02  0.24173849259E+02  0.51100000000E-03 0. -1.
        -11    1    4    4    0    0 -0.17484345706E+02  0.21559706479E+01  0.17557663787E+01  0.17704046713E+02  0.51100000000E-03 0.  1.
        -12    1    4    4    0    0  0.14185232489E+01 -0.53292715701E+01  0.11205650809E+02  0.12489193478E+02  0.00000000000E+00 0.  1.
</event>
<event>
 8    1  0.2521748E-006  0.9118800E+02  0.7816164E-02  0.1184000E+00
        -11   -1    0    0    0    0  0.00000000000E+00  0.00000000000E+00  0.45593999997E+02  0.45594000000E+02  0.51100000000E-03 0.  1.
         11   -1    0    0    0    0 -0.00000000000E+00 -0.00000000000E+00 -0.45593999997E+02  0.45594000000E+02  0.51100000000E-03 0. -1.
         23    2    1    2    0    0  0.35527136788E-14 -0.71054273576E-14  0.88817841970E-15  0.91188000000E+02  0.91188000000E+02 0.  0.
    9900012    2    3    3    0    0 -0.17470338996E+02  0.32046437610E+02  0.48568872367E+01  0.54367132794E+02  0.40000110831E+02 0.  0.
         12    1    3    3    0    0  0.17470338996E+02 -0.32046437610E+02 -0.48568872367E+01  0.36820867206E+02  0.00000000000E+00 0. -1.
         11    1    4    4    0    0  0.60027322441E+01  0.37721504689E+01  0.43117769204E+01  0.82977909124E+01  0.51100000000E-03 0. -1.
        -11    1    4    4    0    0 -0.83742600484E+00  0.14619973673E+02  0.10287372701E+02  0.17896227253E+02  0.51100000000E-03 0.  1.
        -12    1    4    4    0    0 -0.22635645236E+02  0.13654313468E+02 -0.97422623850E+01  0.28173114629E+02  0.00000000000E+00 0.  1.
</event>
<event>
 8    1  0.2521748E-006  0.9118800E+02  0.7816164E-02  0.1184000E+00
        -11   -1    0    0    0    0  0.00000000000E+00  0.00000000000E+00  0.45593999997E+02  0.45594000000E+02  0.51100000000E-03 0. -1.
         11   -1    0    0    0    0 -0.00000000000E+00 -0.00000000000E+00 -0.45593999997E+02  0.45594000000E+02  0.51100000000E-03 0.  1.
         23    2    1    2    0    0  0.13322676296E-14  0.35527136788E-14  0.00000000000E+00  0.91188000000E+02  0.91188000000E+02 0.  0.
    9900012    2    3    3    0    0  0.34939713498E+01 -0.25600202938E+02 -0.26233596828E+02  0.54367084357E+02  0.40000000408E+02 0.  0.
         12    1    3    3    0    0 -0.34939713498E+01  0.25600202938E+02  0.26233596828E+02  0.36820915643E+02  0.00000000000E+00 0. -1.
         11    1    4    4    0    0  0.21055287299E+01  0.11748347584E+01  0.14636863109E+01  0.28206144401E+01  0.51100000000E-03 0. -1.
        -11    1    4    4    0    0 -0.11031094794E+02 -0.11377309896E+02 -0.27528084854E+02  0.31763559133E+02  0.51100000000E-03 0.  1.
        -12    1    4    4    0    0  0.12419537414E+02 -0.15397727801E+02 -0.16919828492E+00  0.19782910783E+02  0.00000000000E+00 0.  1.
</event>
<event>
 8    1  0.2521748E-006  0.9118800E+02  0.7816164E-02  0.1184000E+00
        -11   -1    0    0    0    0  0.00000000000E+00  0.00000000000E+00  0.45593999997E+02  0.45594000000E+02  0.51100000000E-03 0.  1.
         11   -1    0    0    0    0 -0.00000000000E+00 -0.00000000000E+00 -0.45593999997E+02  0.45594000000E+02  0.51100000000E-03 0. -1.
         23    2    1    2    0    0  0.00000000000E+00  0.00000000000E+00 -0.13322676296E-14  0.91188000000E+02  0.91188000000E+02 0.  0.
    9900012    2    3    3    0    0  0.86680305374E+01  0.35626408663E+02 -0.33768820960E+01  0.54367094521E+02  0.40000023579E+02 0.  0.
         12    1    3    3    0    0 -0.86680305374E+01 -0.35626408663E+02  0.33768820960E+01  0.36820905479E+02  0.00000000000E+00 0. -1.
         11    1    4    4    0    0 -0.23154803874E+01  0.12663191997E+01 -0.11190281456E+02  0.11497278507E+02  0.51100000000E-03 0. -1.
        -11    1    4    4    0    0  0.47605105446E+01 -0.29103751027E+00  0.59354938030E+01  0.76142793765E+01  0.51100000000E-03 0.  1.
        -12    1    4    4    0    0  0.62230003803E+01  0.34651126974E+02  0.18779055571E+01  0.35255536637E+02  0.00000000000E+00 0.  1.
</event>
<event>
 8    1  0.2521748E-006  0.9118800E+02  0.7816164E-02  0.1184000E+00
        -11   -1    0    0    0    0  0.00000000000E+00  0.00000000000E+00  0.45593999997E+02  0.45594000000E+02  0.51100000000E-03 0. -1.
         11   -1    0    0    0    0 -0.00000000000E+00 -0.00000000000E+00 -0.45593999997E+02  0.45594000000E+02  0.51100000000E-03 0.  1.
         23    2    1    2    0    0  0.71054273576E-14  0.88817841970E-15  0.17763568394E-14  0.91188000000E+02  0.91188000000E+02 0.  0.
    9900012    2    3    3    0    0  0.36344104762E+02  0.31504720348E+01  0.49961313544E+01  0.54367071800E+02  0.39999971782E+02 0.  0.
        -12    1    3    3    0    0 -0.36344104762E+02 -0.31504720348E+01 -0.49961313544E+01  0.36820928200E+02  0.00000000000E+00 0.  1.
         11    1    4    4    0    0  0.13213036172E+02  0.75357153851E+01 -0.73322146024E+01  0.16885872867E+02  0.51100000000E-03 0. -1.
        -11    1    4    4    0    0  0.22024397412E+02 -0.97723535838E+01  0.12450074978E+00  0.24095403641E+02  0.51100000000E-03 0.  1.
        -12    1    4    4    0    0  0.11066711793E+01  0.53871102335E+01  0.12203845207E+02  0.13385795292E+02  0.00000000000E+00 0.  1.
</event>
<event>
 8    1  0.2521748E-006  0.9118800E+02  0.7816164E-02  0.1184000E+00
        -11   -1    0    0    0    0  0.00000000000E+00  0.00000000000E+00  0.45593999997E+02  0.45594000000E+02  0.51100000000E-03 0. -1.
         11   -1    0    0    0    0 -0.00000000000E+00 -0.00000000000E+00 -0.45593999997E+02  0.45594000000E+02  0.51100000000E-03 0.  1.
         23    2    1    2    0    0  0.71054273576E-14  0.17763568394E-14  0.00000000000E+00  0.91188000000E+02  0.91188000000E+02 0.  0.
    9900012    2    3    3    0    0  0.26494479501E+02  0.86613723108E+01  0.24058066363E+02  0.54367253518E+02  0.40000386043E+02 0.  0.
        -12    1    3    3    0    0 -0.26494479501E+02 -0.86613723108E+01 -0.24058066363E+02  0.36820746482E+02  0.00000000000E+00 0.  1.
         11    1    4    4    0    0  0.32336500382E+02  0.62714171886E+01  0.18109315364E+02  0.37588924349E+02  0.51100000000E-03 0. -1.
        -11    1    4    4    0    0 -0.52317714260E+01 -0.52986632500E+01  0.50859187335E+01  0.90174183731E+01  0.51100000000E-03 0.  1.
        -12    1    4    4    0    0 -0.61024945451E+00  0.76886183722E+01  0.86283226627E+00  0.77609107964E+01  0.00000000000E+00 0.  1.
</event>
<event>
 8    1  0.2521748E-006  0.9118800E+02  0.7816164E-02  0.1184000E+00
        -11   -1    0    0    0    0  0.00000000000E+00  0.00000000000E+00  0.45593999997E+02  0.45594000000E+02  0.51100000000E-03 0. -1.
         11   -1    0    0    0    0 -0.00000000000E+00 -0.00000000000E+00 -0.45593999997E+02  0.45594000000E+02  0.51100000000E-03 0.  1.
         23    2    1    2    0    0  0.00000000000E+00  0.35527136788E-14  0.00000000000E+00  0.91188000000E+02  0.91188000000E+02 0.  0.
    9900012    2    3    3    0    0  0.20979033929E+02  0.23637148395E+02  0.18892577827E+02  0.54367297321E+02  0.40000485900E+02 0.  0.
        -12    1    3    3    0    0 -0.20979033929E+02 -0.23637148395E+02 -0.18892577827E+02  0.36820702679E+02  0.00000000000E+00 0.  1.
         11    1    4    4    0    0 -0.43018922929E+01  0.18448773377E+02  0.18155980756E+02  0.26239343626E+02  0.51100000000E-03 0. -1.
        -11    1    4    4    0    0  0.13311962756E+02  0.83218558575E+01  0.12178059575E+01  0.15746259522E+02  0.51100000000E-03 0.  1.
        -12    1    4    4    0    0  0.11968963465E+02 -0.31334808402E+01 -0.48120888657E+00  0.12381694173E+02  0.00000000000E+00 0.  1.
</event>
<event>
 8    1  0.2521748E-006  0.9118800E+02  0.7816164E-02  0.1184000E+00
        -11   -1    0    0    0    0  0.00000000000E+00  0.00000000000E+00  0.45593999997E+02  0.45594000000E+02  0.51100000000E-03 0.  1.
         11   -1    0    0    0    0 -0.00000000000E+00 -0.00000000000E+00 -0.45593999997E+02  0.45594000000E+02  0.51100000000E-03 0. -1.
         23    2    1    2    0    0  0.35527136788E-14  0.17763568394E-14 -0.71054273576E-14  0.91188000000E+02  0.91188000000E+02 0.  0.
    9900012    2    3    3    0    0 -0.11585689223E+02 -0.13384554795E+02  0.32286305536E+02  0.54367081665E+02  0.39999994272E+02 0.  0.
         12    1    3    3    0    0  0.11585689223E+02  0.13384554795E+02 -0.32286305536E+02  0.36820918335E+02  0.00000000000E+00 0. -1.
         11    1    4    4    0    0 -0.12207742317E+01 -0.13414567949E+02  0.53207643837E+01  0.14482798655E+02  0.51100000000E-03 0.  1.
        -11    1    4    4    0    0 -0.47282070414E+01  0.79429446193E+01  0.28578269681E+02  0.30036041837E+02  0.51100000000E-03 0. -1.
         12    1    4    4    0    0 -0.56367079503E+01 -0.79129314652E+01 -0.16127285283E+01  0.98482411728E+01  0.00000000000E+00 0. -1.
</event>
<event>
 8    1  0.2521748E-006  0.9118800E+02  0.7816164E-02  0.1184000E+00
        -11   -1    0    0    0    0  0.00000000000E+00  0.00000000000E+00  0.45593999997E+02  0.45594000000E+02  0.51100000000E-03 0. -1.
         11   -1    0    0    0    0 -0.00000000000E+00 -0.00000000000E+00 -0.45593999997E+02  0.45594000000E+02  0.51100000000E-03 0.  1.
         23    2    1    2    0    0  0.17763568394E-14  0.00000000000E+00  0.17763568394E-14  0.91188000000E+02  0.91188000000E+02 0.  0.
    9900012    2    3    3    0    0 -0.12353228509E+02 -0.31362191733E+02  0.14818625695E+02  0.54367068556E+02  0.39999964386E+02 0.  0.
         12    1    3    3    0    0  0.12353228509E+02  0.31362191733E+02 -0.14818625695E+02  0.36820931444E+02  0.00000000000E+00 0. -1.
         11    1    4    4    0    0  0.18968138591E+01  0.58446716415E+01  0.42595331320E+00  0.61595069526E+01  0.51100000000E-03 0.  1.
        -11    1    4    4    0    0 -0.53952655465E+01 -0.24543056902E+02  0.19634527507E+02  0.31890205442E+02  0.51100000000E-03 0. -1.
        -12    1    4    4    0    0 -0.88547768219E+01 -0.12663806472E+02 -0.52418551250E+01  0.16317356161E+02  0.00000000000E+00 0.  1.
</event>
<event>
 8    1  0.2521748E-006  0.9118800E+02  0.7816164E-02  0.1184000E+00
        -11   -1    0    0    0    0  0.00000000000E+00  0.00000000000E+00  0.45593999997E+02  0.45594000000E+02  0.51100000000E-03 0.  1.
         11   -1    0    0    0    0 -0.00000000000E+00 -0.00000000000E+00 -0.45593999997E+02  0.45594000000E+02  0.51100000000E-03 0. -1.
         23    2    1    2    0    0  0.00000000000E+00  0.00000000000E+00  0.00000000000E+00  0.91188000000E+02  0.91188000000E+02 0.  0.
    9900012    2    3    3    0    0  0.35907876813E+01 -0.22931076977E+02 -0.28584129888E+02  0.54367074849E+02  0.39999978734E+02 0.  0.
        -12    1    3    3    0    0 -0.35907876813E+01  0.22931076977E+02  0.28584129888E+02  0.36820925151E+02  0.00000000000E+00 0.  1.
         11    1    4    4    0    0 -0.28625150027E+01 -0.46826026925E+01 -0.31964068142E+02  0.32431811737E+02  0.51100000000E-03 0. -1.
        -11    1    4    4    0    0  0.38356858801E+01 -0.10932640395E+02 -0.29014988648E+01  0.11943776962E+02  0.51100000000E-03 0.  1.
         12    1    4    4    0    0  0.26176168039E+01 -0.73158338887E+01  0.62814371186E+01  0.99914861504E+01  0.00000000000E+00 0. -1.
</event>
<event>
 8    1  0.2521748E-006  0.9118800E+02  0.7816164E-02  0.1184000E+00
        -11   -1    0    0    0    0  0.00000000000E+00  0.00000000000E+00  0.45593999997E+02  0.45594000000E+02  0.51100000000E-03 0. -1.
         11   -1    0    0    0    0 -0.00000000000E+00 -0.00000000000E+00 -0.45593999997E+02  0.45594000000E+02  0.51100000000E-03 0.  1.
         23    2    1    2    0    0  0.00000000000E+00  0.71054273576E-14  0.00000000000E+00  0.91188000000E+02  0.91188000000E+02 0.  0.
    9900012    2    3    3    0    0 -0.87660943293E+01 -0.35322674564E+02 -0.55896125961E+01  0.54367088589E+02  0.40000010056E+02 0.  0.
        -12    1    3    3    0    0  0.87660943293E+01  0.35322674564E+02  0.55896125961E+01  0.36820911411E+02  0.00000000000E+00 0.  1.
         11    1    4    4    0    0 -0.23723486455E+01 -0.11974940408E+02  0.94702302222E+01  0.15450323511E+02  0.51100000000E-03 0. -1.
        -11    1    4    4    0    0  0.96846663299E+01 -0.47211221220E+01 -0.76681033461E+01  0.13224279383E+02  0.51100000000E-03 0.  1.
        -12    1    4    4    0    0 -0.16078412014E+02 -0.18626612034E+02 -0.73917394723E+01  0.25692485695E+02  0.00000000000E+00 0.  1.
</event>
<event>
 8    1  0.2521748E-006  0.9118800E+02  0.7816164E-02  0.1184000E+00
        -11   -1    0    0    0    0  0.00000000000E+00  0.00000000000E+00  0.45593999997E+02  0.45594000000E+02  0.51100000000E-03 0.  1.
         11   -1    0    0    0    0 -0.00000000000E+00 -0.00000000000E+00 -0.45593999997E+02  0.45594000000E+02  0.51100000000E-03 0. -1.
         23    2    1    2    0    0  0.00000000000E+00  0.00000000000E+00 -0.35527136788E-14  0.91188000000E+02  0.91188000000E+02 0.  0.
    9900012    2    3    3    0    0  0.22275813025E+02 -0.16711210404E+02  0.24089494122E+02  0.54367080319E+02  0.39999991204E+02 0.  0.
         12    1    3    3    0    0 -0.22275813025E+02  0.16711210404E+02 -0.24089494122E+02  0.36820919681E+02  0.00000000000E+00 0. -1.
         11    1    4    4    0    0  0.11656230416E+02  0.32466856169E+01  0.15894373556E+02  0.19975980226E+02  0.51100000000E-03 0.  1.
        -11    1    4    4    0    0 -0.50035184437E+01 -0.97499009882E+01 -0.44716503737E+01  0.11836022280E+02  0.51100000000E-03 0. -1.
        -12    1    4    4    0    0  0.15623101053E+02 -0.10207995032E+02  0.12666770939E+02  0.22555077813E+02  0.00000000000E+00 0.  1.
</event>
<event>
 8    1  0.2521748E-006  0.9118800E+02  0.7816164E-02  0.1184000E+00
        -11   -1    0    0    0    0  0.00000000000E+00  0.00000000000E+00  0.45593999997E+02  0.45594000000E+02  0.51100000000E-03 0.  1.
         11   -1    0    0    0    0 -0.00000000000E+00 -0.00000000000E+00 -0.45593999997E+02  0.45594000000E+02  0.51100000000E-03 0. -1.
         23    2    1    2    0    0  0.11102230246E-14 -0.66613381478E-15  0.00000000000E+00  0.91188000000E+02  0.91188000000E+02 0.  0.
    9900012    2    3    3    0    0 -0.54013234244E+00 -0.80453356153E+00  0.36808163609E+02  0.54367083044E+02  0.39999997416E+02 0.  0.
         12    1    3    3    0    0  0.54013234244E+00  0.80453356153E+00 -0.36808163609E+02  0.36820916956E+02  0.00000000000E+00 0. -1.
         11    1    4    4    0    0  0.25718468437E+01  0.88516464491E+01  0.20633247258E+02  0.22598604685E+02  0.51100000000E-03 0. -1.
        -11    1    4    4    0    0 -0.10026326019E+02 -0.10374036402E+02  0.19341525576E+02  0.24129700715E+02  0.51100000000E-03 0.  1.
         12    1    4    4    0    0  0.69143468327E+01  0.71785639184E+00 -0.31666092246E+01  0.76387776446E+01  0.00000000000E+00 0. -1.
</event>
<event>
 8    1  0.2521748E-006  0.9118800E+02  0.7816164E-02  0.1184000E+00
        -11   -1    0    0    0    0  0.00000000000E+00  0.00000000000E+00  0.45593999997E+02  0.45594000000E+02  0.51100000000E-03 0.  1.
         11   -1    0    0    0    0 -0.00000000000E+00 -0.00000000000E+00 -0.45593999997E+02  0.45594000000E+02  0.51100000000E-03 0. -1.
         23    2    1    2    0    0 -0.17763568394E-14  0.00000000000E+00  0.00000000000E+00  0.91188000000E+02  0.91188000000E+02 0.  0.
    9900012    2    3    3    0    0 -0.11808268650E+02 -0.30565772263E+02  0.16795168221E+02  0.54367091292E+02  0.40000016217E+02 0.  0.
         12    1    3    3    0    0  0.11808268650E+02  0.30565772263E+02 -0.16795168221E+02  0.36820908708E+02  0.00000000000E+00 0. -1.
         11    1    4    4    0    0 -0.75763572738E+00 -0.14081405955E+01 -0.17972384305E+01  0.24056055514E+01  0.51100000000E-03 0. -1.
        -11    1    4    4    0    0 -0.23858433490E+02 -0.25523925031E+02  0.15864595580E+02  0.38371616994E+02  0.51100000000E-03 0.  1.
         12    1    4    4    0    0  0.12807800567E+02 -0.36337066361E+01  0.27278110720E+01  0.13589868746E+02  0.00000000000E+00 0. -1.
</event>
<event>
 8    1  0.2521748E-006  0.9118800E+02  0.7816164E-02  0.1184000E+00
        -11   -1    0    0    0    0  0.00000000000E+00  0.00000000000E+00  0.45593999997E+02  0.45594000000E+02  0.51100000000E-03 0. -1.
         11   -1    0    0    0    0 -0.00000000000E+00 -0.00000000000E+00 -0.45593999997E+02  0.45594000000E+02  0.51100000000E-03 0.  1.
         23    2    1    2    0    0  0.00000000000E+00  0.88817841970E-15 -0.17763568394E-14  0.91188000000E+02  0.91188000000E+02 0.  0.
    9900012    2    3    3    0    0  0.35945900166E+02  0.62766209929E+01 -0.49270901156E+01  0.54367083025E+02  0.39999997373E+02 0.  0.
         12    1    3    3    0    0 -0.35945900166E+02 -0.62766209929E+01  0.49270901156E+01  0.36820916975E+02  0.00000000000E+00 0. -1.
         11    1    4    4    0    0  0.16301370590E+02  0.49861865926E+01 -0.35328127564E+01  0.17409121347E+02  0.51100000000E-03 0. -1.
        -11    1    4    4    0    0  0.14722100320E+02 -0.10646081888E+02 -0.10661053361E+02  0.21065074327E+02  0.51100000000E-03 0.  1.
         12    1    4    4    0    0  0.49224292562E+01  0.11936516289E+02  0.92667760013E+01  0.15892887351E+02  0.00000000000E+00 0. -1.
</event>
<event>
 8    1  0.2521748E-006  0.9118800E+02  0.7816164E-02  0.1184000E+00
        -11   -1    0    0    0    0  0.00000000000E+00  0.00000000000E+00  0.45593999997E+02  0.45594000000E+02  0.51100000000E-03 0.  1.
         11   -1    0    0    0    0 -0.00000000000E+00 -0.00000000000E+00 -0.45593999997E+02  0.45594000000E+02  0.51100000000E-03 0. -1.
         23    2    1    2    0    0 -0.88817841970E-15  0.35527136788E-14 -0.35527136788E-14  0.91188000000E+02  0.91188000000E+02 0.  0.
    9900012    2    3    3    0    0  0.20248213357E+01  0.21285706690E+02  0.29976647732E+02  0.54367073613E+02  0.39999975916E+02 0.  0.
         12    1    3    3    0    0 -0.20248213357E+01 -0.21285706690E+02 -0.29976647732E+02  0.36820926387E+02  0.00000000000E+00 0. -1.
         11    1    4    4    0    0 -0.22740502578E+01 -0.13781304724E+01 -0.67704505679E+01  0.72738950589E+01  0.51100000000E-03 0. -1.
        -11    1    4    4    0    0  0.71295867685E+01  0.60040418803E+00  0.10187910729E+02  0.12449297890E+02  0.51100000000E-03 0.  1.
         12    1    4    4    0    0 -0.28307151750E+01  0.22063432975E+02  0.26559187571E+02  0.34643880664E+02  0.00000000000E+00 0. -1.
</event>
<event>
 8    1  0.2521748E-006  0.9118800E+02  0.7816164E-02  0.1184000E+00
        -11   -1    0    0    0    0  0.00000000000E+00  0.00000000000E+00  0.45593999997E+02  0.45594000000E+02  0.51100000000E-03 0.  1.
         11   -1    0    0    0    0 -0.00000000000E+00 -0.00000000000E+00 -0.45593999997E+02  0.45594000000E+02  0.51100000000E-03 0. -1.
         23    2    1    2    0    0  0.00000000000E+00  0.00000000000E+00  0.00000000000E+00  0.91188000000E+02  0.91188000000E+02 0.  0.
    9900012    2    3    3    0    0  0.51295907625E+01  0.23793293009E+02  0.27628711585E+02  0.54367092930E+02  0.40000019952E+02 0.  0.
         12    1    3    3    0    0 -0.51295907625E+01 -0.23793293009E+02 -0.27628711585E+02  0.36820907070E+02  0.00000000000E+00 0. -1.
         11    1    4    4    0    0 -0.57654055158E+01  0.76671087769E+00 -0.56100033153E+01  0.80808343499E+01  0.51100000000E-03 0. -1.
        -11    1    4    4    0    0  0.93998868006E+01  0.64548596699E+01  0.30303863721E+01  0.11798573094E+02  0.51100000000E-03 0.  1.
        -12    1    4    4    0    0  0.14951094776E+01  0.16571722462E+02  0.30208328528E+02  0.34487685486E+02  0.00000000000E+00 0.  1.
</event>
<event>
 8    1  0.2521748E-006  0.9118800E+02  0.7816164E-02  0.1184000E+00
        -11   -1    0    0    0    0  0.00000000000E+00  0.00000000000E+00  0.45593999997E+02  0.45594000000E+02  0.51100000000E-03 0. -1.
         11   -1    0    0    0    0 -0.00000000000E+00 -0.00000000000E+00 -0.45593999997E+02  0.45594000000E+02  0.51100000000E-03 0.  1.
         23    2    1    2    0    0  0.00000000000E+00 -0.17763568394E-14  0.71054273576E-14  0.91188000000E+02  0.91188000000E+02 0.  0.
    9900012    2    3    3    0    0  0.10272959581E+02 -0.97113870243E+01 -0.33999046598E+02  0.54367083308E+02  0.39999998017E+02 0.  0.
         12    1    3    3    0    0 -0.10272959581E+02  0.97113870243E+01  0.33999046598E+02  0.36820916692E+02  0.00000000000E+00 0. -1.
         11    1    4    4    0    0 -0.52103765707E+01  0.36328955541E+01 -0.17554445710E+02  0.18668275725E+02  0.51100000000E-03 0. -1.
        -11    1    4    4    0    0 -0.63604548273E+01 -0.53846006441E+01 -0.30945103875E+01  0.88896177930E+01  0.51100000000E-03 0.  1.
         12    1    4    4    0    0  0.21843790979E+02 -0.79596819343E+01 -0.13350090500E+02  0.26809189790E+02  0.00000000000E+00 0. -1.
</event>
<event>
 8    1  0.2521748E-006  0.9118800E+02  0.7816164E-02  0.1184000E+00
        -11   -1    0    0    0    0  0.00000000000E+00  0.00000000000E+00  0.45593999997E+02  0.45594000000E+02  0.51100000000E-03 0.  1.
         11   -1    0    0    0    0 -0.00000000000E+00 -0.00000000000E+00 -0.45593999997E+02  0.45594000000E+02  0.51100000000E-03 0. -1.
         23    2    1    2    0    0 -0.35527136788E-14  0.00000000000E+00  0.00000000000E+00  0.91188000000E+02  0.91188000000E+02 0.  0.
    9900012    2    3    3    0    0 -0.25825574877E+02 -0.11746755841E+02  0.23470065276E+02  0.54366938709E+02  0.39999668374E+02 0.  0.
         12    1    3    3    0    0  0.25825574877E+02  0.11746755841E+02 -0.23470065276E+02  0.36821061291E+02  0.00000000000E+00 0. -1.
         11    1    4    4    0    0 -0.86005918219E+01 -0.30368164061E+01 -0.35583885324E+01  0.97905343460E+01  0.51100000000E-03 0. -1.
        -11    1    4    4    0    0 -0.43744565910E+01  0.10957705679E+02  0.71087505319E+01  0.13774669455E+02  0.51100000000E-03 0.  1.
        -12    1    4    4    0    0 -0.12850526464E+02 -0.19667645114E+02  0.19919703276E+02  0.30801734908E+02  0.00000000000E+00 0.  1.
</event>
<event>
 8    1  0.2521748E-006  0.9118800E+02  0.7816164E-02  0.1184000E+00
        -11   -1    0    0    0    0  0.00000000000E+00  0.00000000000E+00  0.45593999997E+02  0.45594000000E+02  0.51100000000E-03 0.  1.
         11   -1    0    0    0    0 -0.00000000000E+00 -0.00000000000E+00 -0.45593999997E+02  0.45594000000E+02  0.51100000000E-03 0. -1.
         23    2    1    2    0    0 -0.17763568394E-14 -0.17763568394E-14  0.00000000000E+00  0.91188000000E+02  0.91188000000E+02 0.  0.
    9900012    2    3    3    0    0  0.12717589529E+02  0.31123042237E+01  0.34414470997E+02  0.54367091062E+02  0.40000015694E+02 0.  0.
         12    1    3    3    0    0 -0.12717589529E+02 -0.31123042237E+01 -0.34414470997E+02  0.36820908938E+02  0.00000000000E+00 0. -1.
         11    1    4    4    0    0  0.40459438668E+01  0.29370075311E+01  0.90046694812E+01  0.10299502305E+02  0.51100000000E-03 0. -1.
        -11    1    4    4    0    0  0.77670120727E+01  0.16704853705E+02  0.18564705613E+02  0.26153908094E+02  0.51100000000E-03 0.  1.
         12    1    4    4    0    0  0.90463358920E+00 -0.16529557012E+02  0.68450959030E+01  0.17913680663E+02  0.00000000000E+00 0. -1.
</event>
<event>
 8    1  0.2521748E-006  0.9118800E+02  0.7816164E-02  0.1184000E+00
        -11   -1    0    0    0    0  0.00000000000E+00  0.00000000000E+00  0.45593999997E+02  0.45594000000E+02  0.51100000000E-03 0. -1.
         11   -1    0    0    0    0 -0.00000000000E+00 -0.00000000000E+00 -0.45593999997E+02  0.45594000000E+02  0.51100000000E-03 0.  1.
         23    2    1    2    0    0 -0.53290705182E-14 -0.35527136788E-14 -0.17763568394E-14  0.91188000000E+02  0.91188000000E+02 0.  0.
    9900012    2    3    3    0    0  0.10506693787E+02  0.31797828680E+02  0.15306425354E+02  0.54367093164E+02  0.40000020486E+02 0.  0.
        -12    1    3    3    0    0 -0.10506693787E+02 -0.31797828680E+02 -0.15306425354E+02  0.36820906836E+02  0.00000000000E+00 0.  1.
         11    1    4    4    0    0 -0.71611166118E+01  0.16286404565E+01  0.15116771710E+02  0.16806274068E+02  0.51100000000E-03 0. -1.
        -11    1    4    4    0    0  0.95622500762E+00  0.12589985706E+01 -0.36212439637E+01  0.39513101335E+01  0.51100000000E-03 0.  1.
         12    1    4    4    0    0  0.16711585392E+02  0.28910189653E+02  0.38108976075E+01  0.33609508962E+02  0.00000000000E+00 0. -1.
</event>
<event>
 8    1  0.2521748E-006  0.9118800E+02  0.7816164E-02  0.1184000E+00
        -11   -1    0    0    0    0  0.00000000000E+00  0.00000000000E+00  0.45593999997E+02  0.45594000000E+02  0.51100000000E-03 0. -1.
         11   -1    0    0    0    0 -0.00000000000E+00 -0.00000000000E+00 -0.45593999997E+02  0.45594000000E+02  0.51100000000E-03 0.  1.
         23    2    1    2    0    0  0.00000000000E+00  0.00000000000E+00 -0.17763568394E-14  0.91188000000E+02  0.91188000000E+02 0.  0.
    9900012    2    3    3    0    0  0.33331969373E+02  0.11263931634E+02  0.10857508265E+02  0.54367057266E+02  0.39999938649E+02 0.  0.
        -12    1    3    3    0    0 -0.33331969373E+02 -0.11263931634E+02 -0.10857508265E+02  0.36820942734E+02  0.00000000000E+00 0.  1.
         11    1    4    4    0    0  0.86866213729E+00  0.19782149401E+01  0.12604163074E+01  0.25013112136E+01  0.51100000000E-03 0. -1.
        -11    1    4    4    0    0  0.53216069032E+01  0.79723532972E+01  0.20465815223E+02  0.22599281186E+02  0.51100000000E-03 0.  1.
         12    1    4    4    0    0  0.27141700332E+02  0.13133633968E+01 -0.10868723266E+02  0.29266464866E+02  0.00000000000E+00 0. -1.
</event>
<event>
 8    1  0.2521748E-006  0.9118800E+02  0.7816164E-02  0.1184000E+00
        -11   -1    0    0    0    0  0.00000000000E+00  0.00000000000E+00  0.45593999997E+02  0.45594000000E+02  0.51100000000E-03 0. -1.
         11   -1    0    0    0    0 -0.00000000000E+00 -0.00000000000E+00 -0.45593999997E+02  0.45594000000E+02  0.51100000000E-03 0.  1.
         23    2    1    2    0    0  0.00000000000E+00  0.00000000000E+00  0.00000000000E+00  0.91188000000E+02  0.91188000000E+02 0.  0.
    9900012    2    3    3    0    0 -0.30863071323E+02 -0.19025077158E+02 -0.64262195747E+01  0.54367095199E+02  0.40000025125E+02 0.  0.
        -12    1    3    3    0    0  0.30863071323E+02  0.19025077158E+02  0.64262195747E+01  0.36820904801E+02  0.00000000000E+00 0.  1.
         11    1    4    4    0    0 -0.34106939810E+02 -0.51163704900E+01 -0.13664551342E+02  0.37096907605E+02  0.51100000000E-03 0. -1.
        -11    1    4    4    0    0  0.26471991528E+01 -0.54933346128E+01  0.63227294724E+01  0.87841503155E+01  0.51100000000E-03 0.  1.
         12    1    4    4    0    0  0.59666933457E+00 -0.84153720555E+01  0.91560229525E+00  0.84860372784E+01  0.00000000000E+00 0. -1.
</event>
<event>
 8    1  0.2521748E-006  0.9118800E+02  0.7816164E-02  0.1184000E+00
        -11   -1    0    0    0    0  0.00000000000E+00  0.00000000000E+00  0.45593999997E+02  0.45594000000E+02  0.51100000000E-03 0.  1.
         11   -1    0    0    0    0 -0.00000000000E+00 -0.00000000000E+00 -0.45593999997E+02  0.45594000000E+02  0.51100000000E-03 0. -1.
         23    2    1    2    0    0  0.35527136788E-14  0.00000000000E+00  0.00000000000E+00  0.91188000000E+02  0.91188000000E+02 0.  0.
    9900012    2    3    3    0    0 -0.24133732484E+02 -0.12899310583E+02  0.24636358575E+02  0.54367089895E+02  0.40000013034E+02 0.  0.
         12    1    3    3    0    0  0.24133732484E+02  0.12899310583E+02 -0.24636358575E+02  0.36820910105E+02  0.00000000000E+00 0. -1.
         11    1    4    4    0    0 -0.19746590298E+02  0.31922715181E+01 -0.23766287098E+01  0.20143653843E+02  0.51100000000E-03 0. -1.
        -11    1    4    4    0    0  0.72395011323E+00 -0.10984030726E+01  0.13024018416E+02  0.13090288348E+02  0.51100000000E-03 0.  1.
         12    1    4    4    0    0 -0.51110922988E+01 -0.14993179029E+02  0.13988968870E+02  0.21133147705E+02  0.00000000000E+00 0. -1.
</event>
<event>
 8    1  0.2521748E-006  0.9118800E+02  0.7816164E-02  0.1184000E+00
        -11   -1    0    0    0    0  0.00000000000E+00  0.00000000000E+00  0.45593999997E+02  0.45594000000E+02  0.51100000000E-03 0. -1.
         11   -1    0    0    0    0 -0.00000000000E+00 -0.00000000000E+00 -0.45593999997E+02  0.45594000000E+02  0.51100000000E-03 0.  1.
         23    2    1    2    0    0  0.00000000000E+00  0.26645352591E-14  0.88817841970E-15  0.91188000000E+02  0.91188000000E+02 0.  0.
    9900012    2    3    3    0    0  0.36179071961E+02  0.42002525303E+01 -0.54047799659E+01  0.54367095398E+02  0.40000025578E+02 0.  0.
         12    1    3    3    0    0 -0.36179071961E+02 -0.42002525303E+01  0.54047799659E+01  0.36820904602E+02  0.00000000000E+00 0. -1.
         11    1    4    4    0    0 -0.31628122598E+00 -0.39171437774E+01  0.41959807458E+01  0.57489393688E+01  0.51100000000E-03 0. -1.
        -11    1    4    4    0    0  0.26004219493E+02 -0.87380627422E+01 -0.85584561674E+01  0.28737090043E+02  0.51100000000E-03 0.  1.
        -12    1    4    4    0    0  0.10491133694E+02  0.16855459050E+02 -0.10423045443E+01  0.19881065986E+02  0.00000000000E+00 0.  1.
</event>
<event>
 8    1  0.2521748E-006  0.9118800E+02  0.7816164E-02  0.1184000E+00
        -11   -1    0    0    0    0  0.00000000000E+00  0.00000000000E+00  0.45593999997E+02  0.45594000000E+02  0.51100000000E-03 0.  1.
         11   -1    0    0    0    0 -0.00000000000E+00 -0.00000000000E+00 -0.45593999997E+02  0.45594000000E+02  0.51100000000E-03 0. -1.
         23    2    1    2    0    0  0.00000000000E+00 -0.17763568394E-14 -0.17763568394E-14  0.91188000000E+02  0.91188000000E+02 0.  0.
    9900012    2    3    3    0    0 -0.35100233662E+02 -0.79234536950E+01 -0.78085757503E+01  0.54367063335E+02  0.39999952486E+02 0.  0.
        -12    1    3    3    0    0  0.35100233662E+02  0.79234536950E+01  0.78085757503E+01  0.36820936665E+02  0.00000000000E+00 0.  1.
         11    1    4    4    0    0 -0.34758389863E+02  0.59953741814E+00 -0.37879547896E+01  0.34969325311E+02  0.51100000000E-03 0. -1.
        -11    1    4    4    0    0 -0.17525582257E+01  0.17738092924E+01  0.50313819643E+01  0.56153953086E+01  0.51100000000E-03 0.  1.
        -12    1    4    4    0    0  0.14107144258E+01 -0.10296800406E+02 -0.90520029250E+01  0.13782342716E+02  0.00000000000E+00 0.  1.
</event>
<event>
 8    1  0.2521748E-006  0.9118800E+02  0.7816164E-02  0.1184000E+00
        -11   -1    0    0    0    0  0.00000000000E+00  0.00000000000E+00  0.45593999997E+02  0.45594000000E+02  0.51100000000E-03 0. -1.
         11   -1    0    0    0    0 -0.00000000000E+00 -0.00000000000E+00 -0.45593999997E+02  0.45594000000E+02  0.51100000000E-03 0.  1.
         23    2    1    2    0    0  0.00000000000E+00  0.44408920985E-15  0.00000000000E+00  0.91188000000E+02  0.91188000000E+02 0.  0.
    9900012    2    3    3    0    0  0.32175628419E+02 -0.38028500728E+01 -0.17494196296E+02  0.54367086963E+02  0.40000006349E+02 0.  0.
         12    1    3    3    0    0 -0.32175628419E+02  0.38028500728E+01  0.17494196296E+02  0.36820913037E+02  0.00000000000E+00 0. -1.
         11    1    4    4    0    0 -0.21976901391E+01  0.58324961158E+01 -0.70896229763E+01  0.94398414762E+01  0.51100000000E-03 0. -1.
        -11    1    4    4    0    0  0.12889134242E+02  0.67299048100E+01  0.28905832390E+01  0.14824873422E+02  0.51100000000E-03 0.  1.
        -12    1    4    4    0    0  0.21484184317E+02 -0.16365250999E+02 -0.13295156559E+02  0.30102372065E+02  0.00000000000E+00 0.  1.
</event>
<event>
 8    1  0.2521748E-006  0.9118800E+02  0.7816164E-02  0.1184000E+00
        -11   -1    0    0    0    0  0.00000000000E+00  0.00000000000E+00  0.45593999997E+02  0.45594000000E+02  0.51100000000E-03 0.  1.
         11   -1    0    0    0    0 -0.00000000000E+00 -0.00000000000E+00 -0.45593999997E+02  0.45594000000E+02  0.51100000000E-03 0. -1.
         23    2    1    2    0    0  0.00000000000E+00  0.00000000000E+00  0.00000000000E+00  0.91188000000E+02  0.91188000000E+02 0.  0.
    9900012    2    3    3    0    0 -0.14358632076E+02  0.96634205500E+01 -0.32499708000E+02  0.54367040861E+02  0.39999901252E+02 0.  0.
        -12    1    3    3    0    0  0.14358632076E+02 -0.96634205500E+01  0.32499708000E+02  0.36820959139E+02  0.00000000000E+00 0.  1.
         11    1    4    4    0    0 -0.35768450188E+01  0.36538052843E+01 -0.55855510029E+01  0.75724826584E+01  0.51100000000E-03 0. -1.
        -11    1    4    4    0    0 -0.98497041069E+01 -0.10479946249E+02 -0.26642387043E+02  0.30276438562E+02  0.51100000000E-03 0.  1.
        -12    1    4    4    0    0 -0.93208295042E+00  0.16489561514E+02 -0.27176995335E+00  0.16518119641E+02  0.00000000000E+00 0.  1.
</event>
<event>
 8    1  0.2521748E-006  0.9118800E+02  0.7816164E-02  0.1184000E+00
        -11   -1    0    0    0    0  0.00000000000E+00  0.00000000000E+00  0.45593999997E+02  0.45594000000E+02  0.51100000000E-03 0. -1.
         11   -1    0    0    0    0 -0.00000000000E+00 -0.00000000000E+00 -0.45593999997E+02  0.45594000000E+02  0.51100000000E-03 0.  1.
         23    2    1    2    0    0  0.71054273576E-14  0.00000000000E+00 -0.17763568394E-14  0.91188000000E+02  0.91188000000E+02 0.  0.
    9900012    2    3    3    0    0  0.32016078366E+02  0.16037841440E+02 -0.85755835000E+01  0.54367051284E+02  0.39999925012E+02 0.  0.
         12    1    3    3    0    0 -0.32016078366E+02 -0.16037841440E+02  0.85755835000E+01  0.36820948716E+02  0.00000000000E+00 0. -1.
         11    1    4    4    0    0  0.14515240269E+01  0.54315449212E+01  0.39486804924E+01  0.68702751126E+01  0.51100000000E-03 0. -1.
        -11    1    4    4    0    0 -0.39567572441E+01  0.10518438418E+02 -0.20697466014E+01  0.11427043620E+02  0.51100000000E-03 0.  1.
        -12    1    4    4    0    0  0.34521311583E+02  0.87858101018E-01 -0.10454517391E+02  0.36069732551E+02  0.00000000000E+00 0.  1.
</event>
<event>
 8    1  0.2521748E-006  0.9118800E+02  0.7816164E-02  0.1184000E+00
        -11   -1    0    0    0    0  0.00000000000E+00  0.00000000000E+00  0.45593999997E+02  0.45594000000E+02  0.51100000000E-03 0.  1.
         11   -1    0    0    0    0 -0.00000000000E+00 -0.00000000000E+00 -0.45593999997E+02  0.45594000000E+02  0.51100000000E-03 0. -1.
         23    2    1    2    0    0 -0.88817841970E-15  0.00000000000E+00  0.00000000000E+00  0.91188000000E+02  0.91188000000E+02 0.  0.
    9900012    2    3    3    0    0 -0.68844803971E+01 -0.39175699477E+01 -0.35958808548E+02  0.54367091038E+02  0.40000015639E+02 0.  0.
        -12    1    3    3    0    0  0.68844803971E+01  0.39175699477E+01  0.35958808548E+02  0.36820908962E+02  0.00000000000E+00 0.  1.
         11    1    4    4    0    0 -0.11913358922E+02  0.30824337321E+01 -0.14072826707E+02  0.18694222913E+02  0.51100000000E-03 0. -1.
        -11    1    4    4    0    0 -0.81342541006E+01 -0.81803792345E+00 -0.19222103282E+02  0.20888382672E+02  0.51100000000E-03 0.  1.
        -12    1    4    4    0    0  0.13163132626E+02 -0.61819657563E+01 -0.26638785585E+01  0.14784485453E+02  0.00000000000E+00 0.  1.
</event>
<event>
 8    1  0.2521748E-006  0.9118800E+02  0.7816164E-02  0.1184000E+00
        -11   -1    0    0    0    0  0.00000000000E+00  0.00000000000E+00  0.45593999997E+02  0.45594000000E+02  0.51100000000E-03 0.  1.
         11   -1    0    0    0    0 -0.00000000000E+00 -0.00000000000E+00 -0.45593999997E+02  0.45594000000E+02  0.51100000000E-03 0. -1.
         23    2    1    2    0    0  0.35527136788E-14 -0.35527136788E-14  0.00000000000E+00  0.91188000000E+02  0.91188000000E+02 0.  0.
    9900012    2    3    3    0    0 -0.22517295533E+02  0.24279010268E+02 -0.16102339451E+02  0.54367024002E+02  0.39999862816E+02 0.  0.
        -12    1    3    3    0    0  0.22517295533E+02 -0.24279010268E+02  0.16102339451E+02  0.36820975998E+02  0.00000000000E+00 0.  1.
         11    1    4    4    0    0 -0.15062399079E+02  0.22837544547E+02 -0.13408400243E+02  0.30466612944E+02  0.51100000000E-03 0. -1.
        -11    1    4    4    0    0 -0.10742885346E+02 -0.77859625601E+01 -0.43565046934E+01  0.13964595660E+02  0.51100000000E-03 0.  1.
        -12    1    4    4    0    0  0.32879888916E+01  0.92274282806E+01  0.16625654858E+01  0.99358153978E+01  0.00000000000E+00 0.  1.
</event>
<event>
 8    1  0.2521748E-006  0.9118800E+02  0.7816164E-02  0.1184000E+00
        -11   -1    0    0    0    0  0.00000000000E+00  0.00000000000E+00  0.45593999997E+02  0.45594000000E+02  0.51100000000E-03 0.  1.
         11   -1    0    0    0    0 -0.00000000000E+00 -0.00000000000E+00 -0.45593999997E+02  0.45594000000E+02  0.51100000000E-03 0. -1.
         23    2    1    2    0    0  0.00000000000E+00 -0.88817841970E-15  0.35527136788E-14  0.91188000000E+02  0.91188000000E+02 0.  0.
    9900012    2    3    3    0    0  0.18469691510E+02 -0.72394886554E+01 -0.31020006296E+02  0.54367075363E+02  0.39999979906E+02 0.  0.
        -12    1    3    3    0    0 -0.18469691510E+02  0.72394886554E+01  0.31020006296E+02  0.36820924637E+02  0.00000000000E+00 0.  1.
         11    1    4    4    0    0  0.10838685551E+02 -0.67818132754E+01 -0.17907902572E+02  0.22003705837E+02  0.51100000000E-03 0. -1.
        -11    1    4    4    0    0 -0.81767856741E+01  0.77761172880E+01 -0.79633872108E+01  0.13810986937E+02  0.51100000000E-03 0.  1.
        -12    1    4    4    0    0  0.15807791633E+02 -0.82337926680E+01 -0.51487165139E+01  0.18552382590E+02  0.00000000000E+00 0.  1.
</event>
<event>
 8    1  0.2521748E-006  0.9118800E+02  0.7816164E-02  0.1184000E+00
        -11   -1    0    0    0    0  0.00000000000E+00  0.00000000000E+00  0.45593999997E+02  0.45594000000E+02  0.51100000000E-03 0.  1.
         11   -1    0    0    0    0 -0.00000000000E+00 -0.00000000000E+00 -0.45593999997E+02  0.45594000000E+02  0.51100000000E-03 0. -1.
         23    2    1    2    0    0  0.00000000000E+00  0.44408920985E-15  0.00000000000E+00  0.91188000000E+02  0.91188000000E+02 0.  0.
    9900012    2    3    3    0    0  0.35385371017E+02 -0.31170465883E+01 -0.96922667944E+01  0.54367075283E+02  0.39999979722E+02 0.  0.
        -12    1    3    3    0    0 -0.35385371017E+02  0.31170465883E+01  0.96922667944E+01  0.36820924717E+02  0.00000000000E+00 0.  1.
         11    1    4    4    0    0  0.15582959865E+02  0.11196538766E+02  0.58318083962E+01  0.20054952204E+02  0.51100000000E-03 0. -1.
        -11    1    4    4    0    0  0.13229367993E+02 -0.14362406677E+02 -0.18677899902E+02  0.27021451628E+02  0.51100000000E-03 0.  1.
        -12    1    4    4    0    0  0.65730431588E+01  0.48821323242E-01  0.31538247115E+01  0.72906714506E+01  0.00000000000E+00 0.  1.
</event>
<event>
 8    1  0.2521748E-006  0.9118800E+02  0.7816164E-02  0.1184000E+00
        -11   -1    0    0    0    0  0.00000000000E+00  0.00000000000E+00  0.45593999997E+02  0.45594000000E+02  0.51100000000E-03 0. -1.
         11   -1    0    0    0    0 -0.00000000000E+00 -0.00000000000E+00 -0.45593999997E+02  0.45594000000E+02  0.51100000000E-03 0.  1.
         23    2    1    2    0    0  0.00000000000E+00  0.35527136788E-14 -0.35527136788E-14  0.91188000000E+02  0.91188000000E+02 0.  0.
    9900012    2    3    3    0    0 -0.16498591172E+02 -0.23615584751E+02  0.22932212690E+02  0.54367004187E+02  0.39999817645E+02 0.  0.
        -12    1    3    3    0    0  0.16498591172E+02  0.23615584751E+02 -0.22932212690E+02  0.36820995813E+02  0.00000000000E+00 0.  1.
         11    1    4    4    0    0 -0.15596518019E+02 -0.12246161906E+02  0.10156765280E+02  0.22279581167E+02  0.51100000000E-03 0. -1.
        -11    1    4    4    0    0  0.51958451318E+01  0.77442193881E+01  0.48957106012E+01  0.10532697808E+02  0.51100000000E-03 0.  1.
        -12    1    4    4    0    0 -0.60979182848E+01 -0.19113642232E+02  0.78797368085E+01  0.21554725212E+02  0.00000000000E+00 0.  1.
</event>
<event>
 8    1  0.2521748E-006  0.9118800E+02  0.7816164E-02  0.1184000E+00
        -11   -1    0    0    0    0  0.00000000000E+00  0.00000000000E+00  0.45593999997E+02  0.45594000000E+02  0.51100000000E-03 0.  1.
         11   -1    0    0    0    0 -0.00000000000E+00 -0.00000000000E+00 -0.45593999997E+02  0.45594000000E+02  0.51100000000E-03 0. -1.
         23    2    1    2    0    0  0.00000000000E+00 -0.44408920985E-15 -0.35527136788E-14  0.91188000000E+02  0.91188000000E+02 0.  0.
    9900012    2    3    3    0    0 -0.31327386812E+02 -0.17818156169E+01 -0.19266552441E+02  0.54367081023E+02  0.39999992808E+02 0.  0.
        -12    1    3    3    0    0  0.31327386812E+02  0.17818156169E+01  0.19266552441E+02  0.36820918977E+02  0.00000000000E+00 0.  1.
         11    1    4    4    0    0 -0.12020648480E+02 -0.50846125573E+01 -0.19610128914E+02  0.23556452004E+02  0.51100000000E-03 0. -1.
        -11    1    4    4    0    0  0.36306312764E+01 -0.47923902455E+01  0.22324305639E+01  0.64134416824E+01  0.51100000000E-03 0.  1.
         12    1    4    4    0    0 -0.22937369609E+02  0.80951871859E+01 -0.18888540907E+01  0.24397187337E+02  0.00000000000E+00 0. -1.
</event>
<event>
 8    1  0.2521748E-006  0.9118800E+02  0.7816164E-02  0.1184000E+00
        -11   -1    0    0    0    0  0.00000000000E+00  0.00000000000E+00  0.45593999997E+02  0.45594000000E+02  0.51100000000E-03 0.  1.
         11   -1    0    0    0    0 -0.00000000000E+00 -0.00000000000E+00 -0.45593999997E+02  0.45594000000E+02  0.51100000000E-03 0. -1.
         23    2    1    2    0    0 -0.35527136788E-14  0.35527136788E-14  0.35527136788E-14  0.91188000000E+02  0.91188000000E+02 0.  0.
    9900012    2    3    3    0    0  0.21880357982E+02 -0.22990913224E+02 -0.18666747367E+02  0.54367087279E+02  0.40000007071E+02 0.  0.
        -12    1    3    3    0    0 -0.21880357982E+02  0.22990913224E+02  0.18666747367E+02  0.36820912721E+02  0.00000000000E+00 0.  1.
         11    1    4    4    0    0 -0.23357618081E+01 -0.12343967609E+00 -0.23451426919E+00  0.23507483449E+01  0.51100000000E-03 0. -1.
        -11    1    4    4    0    0  0.28607811041E+01  0.83065390470E+01  0.20693979700E+01  0.90258001133E+01  0.51100000000E-03 0.  1.
         12    1    4    4    0    0  0.21355338686E+02 -0.31174012595E+02 -0.20501631068E+02  0.42990538821E+02  0.00000000000E+00 0. -1.
</event>
<event>
 8    1  0.2521748E-006  0.9118800E+02  0.7816164E-02  0.1184000E+00
        -11   -1    0    0    0    0  0.00000000000E+00  0.00000000000E+00  0.45593999997E+02  0.45594000000E+02  0.51100000000E-03 0. -1.
         11   -1    0    0    0    0 -0.00000000000E+00 -0.00000000000E+00 -0.45593999997E+02  0.45594000000E+02  0.51100000000E-03 0.  1.
         23    2    1    2    0    0  0.00000000000E+00  0.00000000000E+00 -0.88817841970E-15  0.91188000000E+02  0.91188000000E+02 0.  0.
    9900012    2    3    3    0    0 -0.10893919871E+02  0.34907666186E+02 -0.43076926811E+01  0.54367097445E+02  0.40000030246E+02 0.  0.
        -12    1    3    3    0    0  0.10893919871E+02 -0.34907666186E+02  0.43076926811E+01  0.36820902555E+02  0.00000000000E+00 0.  1.
         11    1    4    4    0    0  0.73036671296E+01  0.90094417065E+01  0.65869512387E+01  0.13337972870E+02  0.51100000000E-03 0. -1.
        -11    1    4    4    0    0 -0.22029420904E+02  0.14544584619E+02 -0.27504237744E+01  0.26540632213E+02  0.51100000000E-03 0.  1.
        -12    1    4    4    0    0  0.38318339033E+01  0.11353639860E+02 -0.81442201454E+01  0.14488492362E+02  0.00000000000E+00 0.  1.
</event>
<event>
 8    1  0.2521748E-006  0.9118800E+02  0.7816164E-02  0.1184000E+00
        -11   -1    0    0    0    0  0.00000000000E+00  0.00000000000E+00  0.45593999997E+02  0.45594000000E+02  0.51100000000E-03 0.  1.
         11   -1    0    0    0    0 -0.00000000000E+00 -0.00000000000E+00 -0.45593999997E+02  0.45594000000E+02  0.51100000000E-03 0. -1.
         23    2    1    2    0    0  0.00000000000E+00  0.35527136788E-14  0.00000000000E+00  0.91188000000E+02  0.91188000000E+02 0.  0.
    9900012    2    3    3    0    0  0.95738963422E+01  0.27669711973E+02  0.22327297776E+02  0.54367072828E+02  0.39999974125E+02 0.  0.
         12    1    3    3    0    0 -0.95738963422E+01 -0.27669711973E+02 -0.22327297776E+02  0.36820927172E+02  0.00000000000E+00 0. -1.
         11    1    4    4    0    0  0.11464753442E+01  0.47022215275E+01  0.13985091856E+02  0.14798921835E+02  0.51100000000E-03 0. -1.
        -11    1    4    4    0    0  0.73110462760E+01 -0.22617073807E+01  0.11814629035E+02  0.14076653630E+02  0.51100000000E-03 0.  1.
         12    1    4    4    0    0  0.11163747220E+01  0.25229197827E+02 -0.34724231147E+01  0.25491497363E+02  0.00000000000E+00 0. -1.
</event>
<event>
 8    1  0.2521748E-006  0.9118800E+02  0.7816164E-02  0.1184000E+00
        -11   -1    0    0    0    0  0.00000000000E+00  0.00000000000E+00  0.45593999997E+02  0.45594000000E+02  0.51100000000E-03 0.  1.
         11   -1    0    0    0    0 -0.00000000000E+00 -0.00000000000E+00 -0.45593999997E+02  0.45594000000E+02  0.51100000000E-03 0. -1.
         23    2    1    2    0    0 -0.71054273576E-14  0.12212453271E-14  0.00000000000E+00  0.91188000000E+02  0.91188000000E+02 0.  0.
    9900012    2    3    3    0    0 -0.32014258076E+02  0.80812106883E+00  0.18171802291E+02  0.54367079611E+02  0.39999989589E+02 0.  0.
         12    1    3    3    0    0  0.32014258076E+02 -0.80812106883E+00 -0.18171802291E+02  0.36820920389E+02  0.00000000000E+00 0. -1.
         11    1    4    4    0    0  0.64762850691E+01  0.11675584962E+00  0.15313446025E+00  0.64791473705E+01  0.51100000000E-03 0. -1.
        -11    1    4    4    0    0 -0.19939354448E+02  0.85893090851E+01  0.17218254027E+02  0.27709607691E+02  0.51100000000E-03 0.  1.
         12    1    4    4    0    0 -0.18551188697E+02 -0.78979438659E+01  0.80041380313E+00  0.20178324550E+02  0.00000000000E+00 0. -1.
</event>
<event>
 8    1  0.2521748E-006  0.9118800E+02  0.7816164E-02  0.1184000E+00
        -11   -1    0    0    0    0  0.00000000000E+00  0.00000000000E+00  0.45593999997E+02  0.45594000000E+02  0.51100000000E-03 0. -1.
         11   -1    0    0    0    0 -0.00000000000E+00 -0.00000000000E+00 -0.45593999997E+02  0.45594000000E+02  0.51100000000E-03 0.  1.
         23    2    1    2    0    0 -0.13322676296E-14  0.17763568394E-14  0.00000000000E+00  0.91188000000E+02  0.91188000000E+02 0.  0.
    9900012    2    3    3    0    0 -0.45860750207E+00 -0.13308792389E+02  0.34328509171E+02  0.54367070929E+02  0.39999969798E+02 0.  0.
        -12    1    3    3    0    0  0.45860750207E+00  0.13308792389E+02 -0.34328509171E+02  0.36820929071E+02  0.00000000000E+00 0.  1.
         11    1    4    4    0    0 -0.75078219413E+01 -0.53527944682E+01  0.95959583042E+01  0.13307975615E+02  0.51100000000E-03 0. -1.
        -11    1    4    4    0    0 -0.11246209140E+02  0.21050165451E+01  0.12113272433E+02  0.16662523338E+02  0.51100000000E-03 0.  1.
         12    1    4    4    0    0  0.18295423579E+02 -0.10061014466E+02  0.12619278434E+02  0.24396571977E+02  0.00000000000E+00 0. -1.
</event>
<event>
 8    1  0.2521748E-006  0.9118800E+02  0.7816164E-02  0.1184000E+00
        -11   -1    0    0    0    0  0.00000000000E+00  0.00000000000E+00  0.45593999997E+02  0.45594000000E+02  0.51100000000E-03 0.  1.
         11   -1    0    0    0    0 -0.00000000000E+00 -0.00000000000E+00 -0.45593999997E+02  0.45594000000E+02  0.51100000000E-03 0. -1.
         23    2    1    2    0    0  0.00000000000E+00 -0.88817841970E-15  0.14210854715E-13  0.91188000000E+02  0.91188000000E+02 0.  0.
    9900012    2    3    3    0    0 -0.95017832122E+01 -0.72082860274E+01  0.34835844203E+02  0.54367091361E+02  0.40000016376E+02 0.  0.
         12    1    3    3    0    0  0.95017832122E+01  0.72082860274E+01 -0.34835844203E+02  0.36820908639E+02  0.00000000000E+00 0. -1.
         11    1    4    4    0    0  0.13384170494E+02  0.20136244257E+01  0.87965890222E+01  0.16142201889E+02  0.51100000000E-03 0. -1.
        -11    1    4    4    0    0 -0.28708607324E+01 -0.18467571141E+01 -0.12082531830E+01  0.36210812196E+01  0.51100000000E-03 0.  1.
        -12    1    4    4    0    0 -0.20015092974E+02 -0.73751533390E+01  0.27247508364E+02  0.34603808252E+02  0.00000000000E+00 0.  1.
</event>
<event>
 8    1  0.2521748E-006  0.9118800E+02  0.7816164E-02  0.1184000E+00
        -11   -1    0    0    0    0  0.00000000000E+00  0.00000000000E+00  0.45593999997E+02  0.45594000000E+02  0.51100000000E-03 0. -1.
         11   -1    0    0    0    0 -0.00000000000E+00 -0.00000000000E+00 -0.45593999997E+02  0.45594000000E+02  0.51100000000E-03 0.  1.
         23    2    1    2    0    0 -0.17763568394E-14 -0.35527136788E-14  0.00000000000E+00  0.91188000000E+02  0.91188000000E+02 0.  0.
    9900012    2    3    3    0    0 -0.15496689218E+02  0.17630909800E+02  0.28368832148E+02  0.54366987052E+02  0.39999778581E+02 0.  0.
        -12    1    3    3    0    0  0.15496689218E+02 -0.17630909800E+02 -0.28368832148E+02  0.36821012948E+02  0.00000000000E+00 0.  1.
         11    1    4    4    0    0 -0.84014325855E+01  0.87369238123E+01  0.29841862595E+02  0.32209543160E+02  0.51100000000E-03 0. -1.
        -11    1    4    4    0    0 -0.59527065097E+00  0.13639577307E+02 -0.29687871899E+01  0.13971618156E+02  0.51100000000E-03 0.  1.
        -12    1    4    4    0    0 -0.64999859816E+01 -0.47455913197E+01  0.14957567433E+01  0.81858257354E+01  0.00000000000E+00 0.  1.
</event>
<event>
 8    1  0.2521748E-006  0.9118800E+02  0.7816164E-02  0.1184000E+00
        -11   -1    0    0    0    0  0.00000000000E+00  0.00000000000E+00  0.45593999997E+02  0.45594000000E+02  0.51100000000E-03 0.  1.
         11   -1    0    0    0    0 -0.00000000000E+00 -0.00000000000E+00 -0.45593999997E+02  0.45594000000E+02  0.51100000000E-03 0. -1.
         23    2    1    2    0    0 -0.27755575616E-15  0.00000000000E+00  0.35527136788E-14  0.91188000000E+02  0.91188000000E+02 0.  0.
    9900012    2    3    3    0    0 -0.20219360616E+00 -0.24025791687E+02  0.27901615781E+02  0.54367085948E+02  0.40000004036E+02 0.  0.
         12    1    3    3    0    0  0.20219360616E+00  0.24025791687E+02 -0.27901615781E+02  0.36820914052E+02  0.00000000000E+00 0. -1.
         11    1    4    4    0    0  0.20467365695E+01 -0.16554822705E+02  0.45619183339E+01  0.17293420267E+02  0.51100000000E-03 0. -1.
        -11    1    4    4    0    0 -0.72064735654E+01 -0.15383621494E+02  0.21756218105E+02  0.27602936402E+02  0.51100000000E-03 0.  1.
         12    1    4    4    0    0  0.49575433897E+01  0.79126525127E+01  0.15834793426E+01  0.94707292790E+01  0.00000000000E+00 0. -1.
</event>
<event>
 8    1  0.2521748E-006  0.9118800E+02  0.7816164E-02  0.1184000E+00
        -11   -1    0    0    0    0  0.00000000000E+00  0.00000000000E+00  0.45593999997E+02  0.45594000000E+02  0.51100000000E-03 0. -1.
         11   -1    0    0    0    0 -0.00000000000E+00 -0.00000000000E+00 -0.45593999997E+02  0.45594000000E+02  0.51100000000E-03 0.  1.
         23    2    1    2    0    0  0.35527136788E-14  0.35527136788E-14  0.00000000000E+00  0.91188000000E+02  0.91188000000E+02 0.  0.
    9900012    2    3    3    0    0 -0.21975929869E+02 -0.23805512183E+02 -0.17496726770E+02  0.54367090838E+02  0.40000015182E+02 0.  0.
         12    1    3    3    0    0  0.21975929869E+02  0.23805512183E+02  0.17496726770E+02  0.36820909162E+02  0.00000000000E+00 0. -1.
         11    1    4    4    0    0  0.50561207442E+01 -0.71058424525E+01  0.15751660437E+01  0.88621951155E+01  0.51100000000E-03 0. -1.
        -11    1    4    4    0    0 -0.22082451590E+02 -0.23627327766E+02 -0.12204680692E+02  0.34566450739E+02  0.51100000000E-03 0.  1.
         12    1    4    4    0    0 -0.49495990226E+01  0.69276580353E+01 -0.68672121211E+01  0.10938444983E+02  0.00000000000E+00 0. -1.
</event>
<event>
 8    1  0.2521748E-006  0.9118800E+02  0.7816164E-02  0.1184000E+00
        -11   -1    0    0    0    0  0.00000000000E+00  0.00000000000E+00  0.45593999997E+02  0.45594000000E+02  0.51100000000E-03 0. -1.
         11   -1    0    0    0    0 -0.00000000000E+00 -0.00000000000E+00 -0.45593999997E+02  0.45594000000E+02  0.51100000000E-03 0.  1.
         23    2    1    2    0    0 -0.35527136788E-14  0.35527136788E-14 -0.88817841970E-15  0.91188000000E+02  0.91188000000E+02 0.  0.
    9900012    2    3    3    0    0 -0.18812109602E+02 -0.31314945405E+02  0.46107173509E+01  0.54367082197E+02  0.39999995484E+02 0.  0.
        -12    1    3    3    0    0  0.18812109602E+02  0.31314945405E+02 -0.46107173509E+01  0.36820917803E+02  0.00000000000E+00 0.  1.
         11    1    4    4    0    0 -0.78962170162E+01 -0.22518557218E+02  0.10590633203E+02  0.26107416077E+02  0.51100000000E-03 0. -1.
        -11    1    4    4    0    0  0.64525343559E+00  0.68277029300E+01  0.21562100902E+01  0.71890974059E+01  0.51100000000E-03 0.  1.
        -12    1    4    4    0    0 -0.11561146022E+02 -0.15624091117E+02 -0.81361259426E+01  0.21070568714E+02  0.00000000000E+00 0.  1.
</event>
<event>
 8    1  0.2521748E-006  0.9118800E+02  0.7816164E-02  0.1184000E+00
        -11   -1    0    0    0    0  0.00000000000E+00  0.00000000000E+00  0.45593999997E+02  0.45594000000E+02  0.51100000000E-03 0.  1.
         11   -1    0    0    0    0 -0.00000000000E+00 -0.00000000000E+00 -0.45593999997E+02  0.45594000000E+02  0.51100000000E-03 0. -1.
         23    2    1    2    0    0  0.44408920985E-15  0.00000000000E+00  0.35527136788E-14  0.91188000000E+02  0.91188000000E+02 0.  0.
    9900012    2    3    3    0    0  0.32347110244E+01 -0.33240492372E+02 -0.15504818743E+02  0.54366904242E+02  0.39999589799E+02 0.  0.
        -12    1    3    3    0    0 -0.32347110244E+01  0.33240492372E+02  0.15504818743E+02  0.36821095758E+02  0.00000000000E+00 0.  1.
         11    1    4    4    0    0 -0.22393609665E+01 -0.39865170334E+00 -0.16661075574E+02  0.16815620722E+02  0.51100000000E-03 0. -1.
        -11    1    4    4    0    0  0.54475399062E+01 -0.57054825750E+01  0.60954315774E+01  0.99690776313E+01  0.51100000000E-03 0.  1.
        -12    1    4    4    0    0  0.26532084817E-01 -0.27136358094E+02 -0.49391747470E+01  0.27582205889E+02  0.00000000000E+00 0.  1.
</event>
<event>
 8    1  0.2521748E-006  0.9118800E+02  0.7816164E-02  0.1184000E+00
        -11   -1    0    0    0    0  0.00000000000E+00  0.00000000000E+00  0.45593999997E+02  0.45594000000E+02  0.51100000000E-03 0.  1.
         11   -1    0    0    0    0 -0.00000000000E+00 -0.00000000000E+00 -0.45593999997E+02  0.45594000000E+02  0.51100000000E-03 0. -1.
         23    2    1    2    0    0  0.00000000000E+00  0.00000000000E+00 -0.17208456882E-14  0.91188000000E+02  0.91188000000E+02 0.  0.
    9900012    2    3    3    0    0  0.28394486884E+02 -0.23441342804E+02  0.18830740756E+00  0.54367097003E+02  0.40000029237E+02 0.  0.
         12    1    3    3    0    0 -0.28394486884E+02  0.23441342804E+02 -0.18830740756E+00  0.36820902997E+02  0.00000000000E+00 0. -1.
         11    1    4    4    0    0  0.24601310725E+02  0.19866387214E+01  0.84039008164E+01  0.26072912610E+02  0.51100000000E-03 0. -1.
        -11    1    4    4    0    0  0.54481749921E+01 -0.10762965715E+02 -0.17801295402E+01  0.12193969951E+02  0.51100000000E-03 0.  1.
         12    1    4    4    0    0 -0.16549988326E+01 -0.14665015811E+02 -0.64354638686E+01  0.16100214442E+02  0.00000000000E+00 0. -1.
</event>
<event>
 8    1  0.2521748E-006  0.9118800E+02  0.7816164E-02  0.1184000E+00
        -11   -1    0    0    0    0  0.00000000000E+00  0.00000000000E+00  0.45593999997E+02  0.45594000000E+02  0.51100000000E-03 0.  1.
         11   -1    0    0    0    0 -0.00000000000E+00 -0.00000000000E+00 -0.45593999997E+02  0.45594000000E+02  0.51100000000E-03 0. -1.
         23    2    1    2    0    0 -0.13322676296E-14  0.00000000000E+00  0.00000000000E+00  0.91188000000E+02  0.91188000000E+02 0.  0.
    9900012    2    3    3    0    0 -0.20893392689E+01  0.36523791468E+02  0.41745881650E+01  0.54367083823E+02  0.39999999191E+02 0.  0.
         12    1    3    3    0    0  0.20893392689E+01 -0.36523791468E+02 -0.41745881650E+01  0.36820916177E+02  0.00000000000E+00 0. -1.
         11    1    4    4    0    0  0.71622218613E+01  0.44252595337E+00  0.20007157881E+01  0.74495714733E+01  0.51100000000E-03 0. -1.
        -11    1    4    4    0    0 -0.17740906625E+02  0.24329282366E+02  0.82157096674E+01  0.31211402306E+02  0.51100000000E-03 0.  1.
        -12    1    4    4    0    0  0.84893454946E+01  0.11751983148E+02 -0.60418372905E+01  0.15706110043E+02  0.00000000000E+00 0.  1.
</event>
<event>
 8    1  0.2521748E-006  0.9118800E+02  0.7816164E-02  0.1184000E+00
        -11   -1    0    0    0    0  0.00000000000E+00  0.00000000000E+00  0.45593999997E+02  0.45594000000E+02  0.51100000000E-03 0. -1.
         11   -1    0    0    0    0 -0.00000000000E+00 -0.00000000000E+00 -0.45593999997E+02  0.45594000000E+02  0.51100000000E-03 0.  1.
         23    2    1    2    0    0  0.17763568394E-14 -0.17763568394E-14  0.00000000000E+00  0.91188000000E+02  0.91188000000E+02 0.  0.
    9900012    2    3    3    0    0  0.66587942552E+01 -0.95569293558E+01  0.34930008651E+02  0.54367082792E+02  0.39999996842E+02 0.  0.
        -12    1    3    3    0    0 -0.66587942552E+01  0.95569293558E+01 -0.34930008651E+02  0.36820917208E+02  0.00000000000E+00 0.  1.
         11    1    4    4    0    0  0.69734183786E+01  0.90905940462E+01  0.16183311349E+02  0.19828439940E+02  0.51100000000E-03 0. -1.
        -11    1    4    4    0    0 -0.62558470836E+01 -0.20903863541E+02  0.17703341667E+02  0.28098317389E+02  0.51100000000E-03 0.  1.
        -12    1    4    4    0    0  0.59412229602E+01  0.22563401389E+01  0.10433556353E+01  0.64403254628E+01  0.00000000000E+00 0.  1.
</event>
<event>
 8    1  0.2521748E-006  0.9118800E+02  0.7816164E-02  0.1184000E+00
        -11   -1    0    0    0    0  0.00000000000E+00  0.00000000000E+00  0.45593999997E+02  0.45594000000E+02  0.51100000000E-03 0.  1.
         11   -1    0    0    0    0 -0.00000000000E+00 -0.00000000000E+00 -0.45593999997E+02  0.45594000000E+02  0.51100000000E-03 0. -1.
         23    2    1    2    0    0 -0.17763568394E-14  0.00000000000E+00  0.35527136788E-14  0.91188000000E+02  0.91188000000E+02 0.  0.
    9900012    2    3    3    0    0 -0.10529094299E+02  0.27245177250E+02  0.22419143979E+02  0.54367088456E+02  0.40000009754E+02 0.  0.
         12    1    3    3    0    0  0.10529094299E+02 -0.27245177250E+02 -0.22419143979E+02  0.36820911544E+02  0.00000000000E+00 0. -1.
         11    1    4    4    0    0  0.52529326552E+01  0.53694998781E+01 -0.97640441818E+01  0.12319147270E+02  0.51100000000E-03 0. -1.
        -11    1    4    4    0    0 -0.10256720375E+02  0.15553452542E+02  0.21205924730E+02  0.28227671578E+02  0.51100000000E-03 0.  1.
         12    1    4    4    0    0 -0.55253065795E+01  0.63222248300E+01  0.10977263431E+02  0.13820269608E+02  0.00000000000E+00 0. -1.
</event>
<event>
 8    1  0.2521748E-006  0.9118800E+02  0.7816164E-02  0.1184000E+00
        -11   -1    0    0    0    0  0.00000000000E+00  0.00000000000E+00  0.45593999997E+02  0.45594000000E+02  0.51100000000E-03 0.  1.
         11   -1    0    0    0    0 -0.00000000000E+00 -0.00000000000E+00 -0.45593999997E+02  0.45594000000E+02  0.51100000000E-03 0. -1.
         23    2    1    2    0    0  0.35527136788E-14  0.00000000000E+00  0.00000000000E+00  0.91188000000E+02  0.91188000000E+02 0.  0.
    9900012    2    3    3    0    0 -0.31612541453E+02 -0.95832499370E+01  0.16266021011E+02  0.54367151341E+02  0.40000153111E+02 0.  0.
         12    1    3    3    0    0  0.31612541453E+02  0.95832499370E+01 -0.16266021011E+02  0.36820848659E+02  0.00000000000E+00 0. -1.
         11    1    4    4    0    0  0.90480838826E+00  0.30083235462E+00 -0.43857280955E+01  0.44881833200E+01  0.51100000000E-03 0. -1.
        -11    1    4    4    0    0 -0.34232345614E+01 -0.20955415160E+01  0.19318333098E+02  0.19730885004E+02  0.51100000000E-03 0.  1.
        -12    1    4    4    0    0 -0.29094115280E+02 -0.77885407756E+01  0.13334160092E+01  0.30148083017E+02  0.00000000000E+00 0.  1.
</event>
<event>
 8    1  0.2521748E-006  0.9118800E+02  0.7816164E-02  0.1184000E+00
        -11   -1    0    0    0    0  0.00000000000E+00  0.00000000000E+00  0.45593999997E+02  0.45594000000E+02  0.51100000000E-03 0. -1.
         11   -1    0    0    0    0 -0.00000000000E+00 -0.00000000000E+00 -0.45593999997E+02  0.45594000000E+02  0.51100000000E-03 0.  1.
         23    2    1    2    0    0  0.00000000000E+00  0.00000000000E+00  0.17763568394E-14  0.91188000000E+02  0.91188000000E+02 0.  0.
    9900012    2    3    3    0    0 -0.23131359956E+02 -0.25974922553E+02  0.12084025668E+02  0.54367080791E+02  0.39999992280E+02 0.  0.
        -12    1    3    3    0    0  0.23131359956E+02  0.25974922553E+02 -0.12084025668E+02  0.36820919209E+02  0.00000000000E+00 0.  1.
         11    1    4    4    0    0 -0.75170387043E+00 -0.18578094507E+01  0.58152087714E+00  0.20867873528E+01  0.51100000000E-03 0. -1.
        -11    1    4    4    0    0  0.26642700428E+01 -0.14392758997E+02  0.19377286956E+02  0.24284338501E+02  0.51100000000E-03 0.  1.
        -12    1    4    4    0    0 -0.25043926128E+02 -0.97243541055E+01 -0.78747821656E+01  0.27995954937E+02  0.00000000000E+00 0.  1.
</event>
<event>
 8    1  0.2521748E-006  0.9118800E+02  0.7816164E-02  0.1184000E+00
        -11   -1    0    0    0    0  0.00000000000E+00  0.00000000000E+00  0.45593999997E+02  0.45594000000E+02  0.51100000000E-03 0.  1.
         11   -1    0    0    0    0 -0.00000000000E+00 -0.00000000000E+00 -0.45593999997E+02  0.45594000000E+02  0.51100000000E-03 0. -1.
         23    2    1    2    0    0 -0.17763568394E-14  0.35527136788E-14  0.00000000000E+00  0.91188000000E+02  0.91188000000E+02 0.  0.
    9900012    2    3    3    0    0 -0.14413762925E+02 -0.25170275037E+02 -0.22682144024E+02  0.54367096092E+02  0.40000027161E+02 0.  0.
        -12    1    3    3    0    0  0.14413762925E+02  0.25170275037E+02  0.22682144024E+02  0.36820903908E+02  0.00000000000E+00 0.  1.
         11    1    4    4    0    0 -0.10534318432E+02 -0.21921482643E+02 -0.11290690416E+02  0.26814230483E+02  0.51100000000E-03 0. -1.
        -11    1    4    4    0    0 -0.13436612326E+02  0.28562601622E+01 -0.58480156347E+01  0.14929837911E+02  0.51100000000E-03 0.  1.
         12    1    4    4    0    0  0.95571678328E+01 -0.61050525563E+01 -0.55434379729E+01  0.12623027698E+02  0.00000000000E+00 0. -1.
</event>
<event>
 8    1  0.2521748E-006  0.9118800E+02  0.7816164E-02  0.1184000E+00
        -11   -1    0    0    0    0  0.00000000000E+00  0.00000000000E+00  0.45593999997E+02  0.45594000000E+02  0.51100000000E-03 0. -1.
         11   -1    0    0    0    0 -0.00000000000E+00 -0.00000000000E+00 -0.45593999997E+02  0.45594000000E+02  0.51100000000E-03 0.  1.
         23    2    1    2    0    0  0.00000000000E+00  0.00000000000E+00 -0.35527136788E-14  0.91188000000E+02  0.91188000000E+02 0.  0.
    9900012    2    3    3    0    0  0.22244008913E+02  0.15643441230E+02 -0.24824780596E+02  0.54367042412E+02  0.39999904787E+02 0.  0.
         12    1    3    3    0    0 -0.22244008913E+02 -0.15643441230E+02  0.24824780596E+02  0.36820957588E+02  0.00000000000E+00 0. -1.
         11    1    4    4    0    0  0.13471376262E+02  0.10509875409E+02 -0.44194828147E+00  0.17091833665E+02  0.51100000000E-03 0.  1.
        -11    1    4    4    0    0  0.25505635457E+01 -0.33888432615E+01  0.47038103594E+01  0.63336770687E+01  0.51100000000E-03 0. -1.
         12    1    4    4    0    0  0.62220691061E+01  0.85224090818E+01 -0.29086642674E+02  0.30941531678E+02  0.00000000000E+00 0. -1.
</event>
<event>
 8    1  0.2521748E-006  0.9118800E+02  0.7816164E-02  0.1184000E+00
        -11   -1    0    0    0    0  0.00000000000E+00  0.00000000000E+00  0.45593999997E+02  0.45594000000E+02  0.51100000000E-03 0.  1.
         11   -1    0    0    0    0 -0.00000000000E+00 -0.00000000000E+00 -0.45593999997E+02  0.45594000000E+02  0.51100000000E-03 0. -1.
         23    2    1    2    0    0  0.71054273576E-14 -0.35527136788E-14  0.00000000000E+00  0.91188000000E+02  0.91188000000E+02 0.  0.
    9900012    2    3    3    0    0  0.29428722293E+02 -0.11692355938E+02 -0.18788761830E+02  0.54367103021E+02  0.40000042958E+02 0.  0.
        -12    1    3    3    0    0 -0.29428722293E+02  0.11692355938E+02  0.18788761830E+02  0.36820896979E+02  0.00000000000E+00 0.  1.
         11    1    4    4    0    0 -0.55041205762E+01  0.57615561286E+01 -0.55573265794E+01  0.97146668143E+01  0.51100000000E-03 0. -1.
        -11    1    4    4    0    0  0.14477243206E+02 -0.86871177131E+01  0.29461741938E+01  0.17138743467E+02  0.51100000000E-03 0.  1.
         12    1    4    4    0    0  0.20455599664E+02 -0.87667943540E+01 -0.16177609444E+02  0.27513692740E+02  0.00000000000E+00 0. -1.
</event>
<event>
 8    1  0.2521748E-006  0.9118800E+02  0.7816164E-02  0.1184000E+00
        -11   -1    0    0    0    0  0.00000000000E+00  0.00000000000E+00  0.45593999997E+02  0.45594000000E+02  0.51100000000E-03 0. -1.
         11   -1    0    0    0    0 -0.00000000000E+00 -0.00000000000E+00 -0.45593999997E+02  0.45594000000E+02  0.51100000000E-03 0.  1.
         23    2    1    2    0    0  0.00000000000E+00  0.44408920985E-15  0.88817841970E-15  0.91188000000E+02  0.91188000000E+02 0.  0.
    9900012    2    3    3    0    0  0.36106154511E+02  0.30075136614E+01 -0.65634770463E+01  0.54367098831E+02  0.40000033405E+02 0.  0.
         12    1    3    3    0    0 -0.36106154511E+02 -0.30075136614E+01  0.65634770463E+01  0.36820901169E+02  0.00000000000E+00 0. -1.
         11    1    4    4    0    0  0.37261301736E+02  0.70705763992E+01 -0.42498780425E+01  0.38163583707E+02  0.51100000000E-03 0. -1.
        -11    1    4    4    0    0  0.51614972817E+01 -0.63819657795E+00  0.40606454847E+01  0.65982718248E+01  0.51100000000E-03 0.  1.
        -12    1    4    4    0    0 -0.63166445072E+01 -0.34248661598E+01 -0.63742444885E+01  0.96052432995E+01  0.00000000000E+00 0.  1.
</event>
<event>
 8    1  0.2521748E-006  0.9118800E+02  0.7816164E-02  0.1184000E+00
        -11   -1    0    0    0    0  0.00000000000E+00  0.00000000000E+00  0.45593999997E+02  0.45594000000E+02  0.51100000000E-03 0.  1.
         11   -1    0    0    0    0 -0.00000000000E+00 -0.00000000000E+00 -0.45593999997E+02  0.45594000000E+02  0.51100000000E-03 0. -1.
         23    2    1    2    0    0  0.00000000000E+00 -0.35527136788E-14  0.00000000000E+00  0.91188000000E+02  0.91188000000E+02 0.  0.
    9900012    2    3    3    0    0 -0.22372836489E+02 -0.22172275898E+02  0.19068952625E+02  0.54367101242E+02  0.40000038902E+02 0.  0.
         12    1    3    3    0    0  0.22372836489E+02  0.22172275898E+02 -0.19068952625E+02  0.36820898758E+02  0.00000000000E+00 0. -1.
         11    1    4    4    0    0 -0.68814912712E+01  0.62707387471E+01  0.70843814640E+01  0.11698954976E+02  0.51100000000E-03 0. -1.
        -11    1    4    4    0    0 -0.18257706452E+02 -0.13377259433E+02 -0.90041807757E+00  0.22651835860E+02  0.51100000000E-03 0.  1.
         12    1    4    4    0    0  0.27663612340E+01 -0.15065755213E+02  0.12884989239E+02  0.20016310407E+02  0.00000000000E+00 0. -1.
</event>
<event>
 8    1  0.2521748E-006  0.9118800E+02  0.7816164E-02  0.1184000E+00
        -11   -1    0    0    0    0  0.00000000000E+00  0.00000000000E+00  0.45593999997E+02  0.45594000000E+02  0.51100000000E-03 0.  1.
         11   -1    0    0    0    0 -0.00000000000E+00 -0.00000000000E+00 -0.45593999997E+02  0.45594000000E+02  0.51100000000E-03 0. -1.
         23    2    1    2    0    0 -0.35527136788E-14  0.66613381478E-15  0.00000000000E+00  0.91188000000E+02  0.91188000000E+02 0.  0.
    9900012    2    3    3    0    0  0.29051005643E+02 -0.15195251871E+01  0.22572331028E+02  0.54367081846E+02  0.39999994684E+02 0.  0.
         12    1    3    3    0    0 -0.29051005643E+02  0.15195251871E+01 -0.22572331028E+02  0.36820918154E+02  0.00000000000E+00 0. -1.
         11    1    4    4    0    0 -0.24779336194E+01  0.10910328686E+01 -0.62291477333E+00  0.27782244003E+01  0.51100000000E-03 0. -1.
        -11    1    4    4    0    0  0.97039972450E+01  0.90476921466E+01  0.23337112228E+02  0.26844908328E+02  0.51100000000E-03 0.  1.
         12    1    4    4    0    0  0.21824942018E+02 -0.11658250202E+02 -0.14186642658E+00  0.24743949118E+02  0.00000000000E+00 0. -1.
</event>
<event>
 8    1  0.2521748E-006  0.9118800E+02  0.7816164E-02  0.1184000E+00
        -11   -1    0    0    0    0  0.00000000000E+00  0.00000000000E+00  0.45593999997E+02  0.45594000000E+02  0.51100000000E-03 0. -1.
         11   -1    0    0    0    0 -0.00000000000E+00 -0.00000000000E+00 -0.45593999997E+02  0.45594000000E+02  0.51100000000E-03 0.  1.
         23    2    1    2    0    0 -0.17763568394E-14  0.17763568394E-14 -0.35527136788E-14  0.91188000000E+02  0.91188000000E+02 0.  0.
    9900012    2    3    3    0    0  0.15728156035E+02  0.12672845661E+02 -0.30786435526E+02  0.54367074947E+02  0.39999978956E+02 0.  0.
         12    1    3    3    0    0 -0.15728156035E+02 -0.12672845661E+02  0.30786435526E+02  0.36820925053E+02  0.00000000000E+00 0. -1.
         11    1    4    4    0    0  0.10128564773E+02 -0.24324444862E+01  0.50674932176E+01  0.11583786010E+02  0.51100000000E-03 0. -1.
        -11    1    4    4    0    0  0.28807091647E+01 -0.63550376784E+00  0.57547061369E+00  0.30055809786E+01  0.51100000000E-03 0.  1.
         12    1    4    4    0    0  0.27188820969E+01  0.15740793915E+02 -0.36429399357E+02  0.39777707958E+02  0.00000000000E+00 0. -1.
</event>
<event>
 8    1  0.2521748E-006  0.9118800E+02  0.7816164E-02  0.1184000E+00
        -11   -1    0    0    0    0  0.00000000000E+00  0.00000000000E+00  0.45593999997E+02  0.45594000000E+02  0.51100000000E-03 0.  1.
         11   -1    0    0    0    0 -0.00000000000E+00 -0.00000000000E+00 -0.45593999997E+02  0.45594000000E+02  0.51100000000E-03 0. -1.
         23    2    1    2    0    0  0.00000000000E+00  0.00000000000E+00  0.00000000000E+00  0.91188000000E+02  0.91188000000E+02 0.  0.
    9900012    2    3    3    0    0 -0.22240952552E+02 -0.25649953972E+02  0.14254801530E+02  0.54367089150E+02  0.40000011335E+02 0.  0.
        -12    1    3    3    0    0  0.22240952552E+02  0.25649953972E+02 -0.14254801530E+02  0.36820910850E+02  0.00000000000E+00 0.  1.
         11    1    4    4    0    0  0.21582069709E+00 -0.15300419847E+02  0.17753275852E+01  0.15404584199E+02  0.51100000000E-03 0. -1.
        -11    1    4    4    0    0 -0.84211257273E+00  0.77647714281E+01  0.64368372850E+01  0.10120953681E+02  0.51100000000E-03 0.  1.
        -12    1    4    4    0    0 -0.21614660676E+02 -0.18114305554E+02  0.60426366597E+01  0.28841551270E+02  0.00000000000E+00 0.  1.
</event>
<event>
 8    1  0.2521748E-006  0.9118800E+02  0.7816164E-02  0.1184000E+00
        -11   -1    0    0    0    0  0.00000000000E+00  0.00000000000E+00  0.45593999997E+02  0.45594000000E+02  0.51100000000E-03 0. -1.
         11   -1    0    0    0    0 -0.00000000000E+00 -0.00000000000E+00 -0.45593999997E+02  0.45594000000E+02  0.51100000000E-03 0.  1.
         23    2    1    2    0    0  0.35527136788E-14  0.00000000000E+00 -0.30531133177E-15  0.91188000000E+02  0.91188000000E+02 0.  0.
    9900012    2    3    3    0    0  0.26889871025E+02 -0.25153350482E+02 -0.15876286563E+00  0.54367062887E+02  0.39999951464E+02 0.  0.
        -12    1    3    3    0    0 -0.26889871025E+02  0.25153350482E+02  0.15876286563E+00  0.36820937113E+02  0.00000000000E+00 0.  1.
         11    1    4    4    0    0  0.55598921431E+01 -0.53112235734E+01 -0.15249004239E+02  0.17077869511E+02  0.51100000000E-03 0. -1.
        -11    1    4    4    0    0  0.44986949336E+01 -0.90416739068E+01  0.13998096022E+02  0.17260846319E+02  0.51100000000E-03 0.  1.
         12    1    4    4    0    0  0.16831283949E+02 -0.10800453002E+02  0.10921453513E+01  0.20028347058E+02  0.00000000000E+00 0. -1.
</event>
<event>
 8    1  0.2521748E-006  0.9118800E+02  0.7816164E-02  0.1184000E+00
        -11   -1    0    0    0    0  0.00000000000E+00  0.00000000000E+00  0.45593999997E+02  0.45594000000E+02  0.51100000000E-03 0. -1.
         11   -1    0    0    0    0 -0.00000000000E+00 -0.00000000000E+00 -0.45593999997E+02  0.45594000000E+02  0.51100000000E-03 0.  1.
         23    2    1    2    0    0 -0.71054273576E-14  0.17763568394E-14 -0.44408920985E-15  0.91188000000E+02  0.91188000000E+02 0.  0.
    9900012    2    3    3    0    0  0.34519478347E+02 -0.12366855083E+02  0.33534939488E+01  0.54367090021E+02  0.40000013322E+02 0.  0.
         12    1    3    3    0    0 -0.34519478347E+02  0.12366855083E+02 -0.33534939488E+01  0.36820909979E+02  0.00000000000E+00 0. -1.
         11    1    4    4    0    0  0.39145644809E+02 -0.24867744734E+01 -0.23766159552E+00  0.39225272951E+02  0.51100000000E-03 0.  1.
        -11    1    4    4    0    0 -0.99357363974E+00 -0.10369723673E+02  0.64152899249E+00  0.10436949619E+02  0.51100000000E-03 0. -1.
        -12    1    4    4    0    0 -0.36325928221E+01  0.48964306386E+00  0.29496265518E+01  0.47048674515E+01  0.00000000000E+00 0.  1.
</event>
<event>
 8    1  0.2521748E-006  0.9118800E+02  0.7816164E-02  0.1184000E+00
        -11   -1    0    0    0    0  0.00000000000E+00  0.00000000000E+00  0.45593999997E+02  0.45594000000E+02  0.51100000000E-03 0. -1.
         11   -1    0    0    0    0 -0.00000000000E+00 -0.00000000000E+00 -0.45593999997E+02  0.45594000000E+02  0.51100000000E-03 0.  1.
         23    2    1    2    0    0  0.17763568394E-14  0.00000000000E+00  0.00000000000E+00  0.91188000000E+02  0.91188000000E+02 0.  0.
    9900012    2    3    3    0    0 -0.85283190603E+01  0.83856610763E+01  0.34824247162E+02  0.54367085724E+02  0.40000003526E+02 0.  0.
        -12    1    3    3    0    0  0.85283190603E+01 -0.83856610763E+01 -0.34824247162E+02  0.36820914276E+02  0.00000000000E+00 0.  1.
         11    1    4    4    0    0  0.44285685869E+01 -0.60049456518E+01  0.28306966567E+02  0.29273809941E+02  0.51100000000E-03 0. -1.
        -11    1    4    4    0    0 -0.41897579383E+01 -0.27271068634E+01  0.12616342442E+01  0.51558611942E+01  0.51100000000E-03 0.  1.
        -12    1    4    4    0    0 -0.87671297088E+01  0.17117713591E+02  0.52556463512E+01  0.19937414589E+02  0.00000000000E+00 0.  1.
</event>
<event>
 8    1  0.2521748E-006  0.9118800E+02  0.7816164E-02  0.1184000E+00
        -11   -1    0    0    0    0  0.00000000000E+00  0.00000000000E+00  0.45593999997E+02  0.45594000000E+02  0.51100000000E-03 0.  1.
         11   -1    0    0    0    0 -0.00000000000E+00 -0.00000000000E+00 -0.45593999997E+02  0.45594000000E+02  0.51100000000E-03 0. -1.
         23    2    1    2    0    0 -0.44408920985E-15  0.35527136788E-14 -0.71054273576E-14  0.91188000000E+02  0.91188000000E+02 0.  0.
    9900012    2    3    3    0    0  0.10845667761E+01 -0.20289293731E+02  0.30707459675E+02  0.54367084681E+02  0.40000001148E+02 0.  0.
         12    1    3    3    0    0 -0.10845667761E+01  0.20289293731E+02 -0.30707459675E+02  0.36820915319E+02  0.00000000000E+00 0. -1.
         11    1    4    4    0    0  0.61113006110E+01 -0.14760274395E+01  0.21946209388E+02  0.22828989442E+02  0.51100000000E-03 0. -1.
        -11    1    4    4    0    0  0.69100073782E+01 -0.81279733801E+01 -0.36467414697E+01  0.11274345961E+02  0.51100000000E-03 0.  1.
         12    1    4    4    0    0 -0.11936741213E+02 -0.10685292911E+02  0.12407991757E+02  0.20263749279E+02  0.00000000000E+00 0. -1.
</event>
<event>
 8    1  0.2521748E-006  0.9118800E+02  0.7816164E-02  0.1184000E+00
        -11   -1    0    0    0    0  0.00000000000E+00  0.00000000000E+00  0.45593999997E+02  0.45594000000E+02  0.51100000000E-03 0.  1.
         11   -1    0    0    0    0 -0.00000000000E+00 -0.00000000000E+00 -0.45593999997E+02  0.45594000000E+02  0.51100000000E-03 0. -1.
         23    2    1    2    0    0  0.00000000000E+00  0.35527136788E-14  0.00000000000E+00  0.91188000000E+02  0.91188000000E+02 0.  0.
    9900012    2    3    3    0    0  0.44647505637E+01 -0.31538636415E+02  0.18470531201E+02  0.54367080574E+02  0.39999991785E+02 0.  0.
        -12    1    3    3    0    0 -0.44647505637E+01  0.31538636415E+02 -0.18470531201E+02  0.36820919426E+02  0.00000000000E+00 0.  1.
         11    1    4    4    0    0 -0.47782205531E+01 -0.23297804888E+02  0.61167704859E+01  0.24556750308E+02  0.51100000000E-03 0. -1.
        -11    1    4    4    0    0  0.16453197180E+02 -0.51061788338E+01  0.13471395330E+02  0.21869139264E+02  0.51100000000E-03 0.  1.
        -12    1    4    4    0    0 -0.72102260636E+01 -0.31346526931E+01 -0.11176346149E+01  0.79411910018E+01  0.00000000000E+00 0.  1.
</event>
<event>
 8    1  0.2521748E-006  0.9118800E+02  0.7816164E-02  0.1184000E+00
        -11   -1    0    0    0    0  0.00000000000E+00  0.00000000000E+00  0.45593999997E+02  0.45594000000E+02  0.51100000000E-03 0.  1.
         11   -1    0    0    0    0 -0.00000000000E+00 -0.00000000000E+00 -0.45593999997E+02  0.45594000000E+02  0.51100000000E-03 0. -1.
         23    2    1    2    0    0  0.00000000000E+00  0.00000000000E+00  0.00000000000E+00  0.91188000000E+02  0.91188000000E+02 0.  0.
    9900012    2    3    3    0    0 -0.23788426147E+02 -0.17929966821E+02 -0.21642770400E+02  0.54367048908E+02  0.39999919596E+02 0.  0.
        -12    1    3    3    0    0  0.23788426147E+02  0.17929966821E+02  0.21642770400E+02  0.36820951092E+02  0.00000000000E+00 0.  1.
         11    1    4    4    0    0 -0.33493332020E+01  0.63163822042E+01  0.17107570971E+01  0.73512860884E+01  0.51100000000E-03 0. -1.
        -11    1    4    4    0    0 -0.35371248870E+01  0.50846599406E+01 -0.59081068679E+00  0.62220637016E+01  0.51100000000E-03 0.  1.
         12    1    4    4    0    0 -0.16901968058E+02 -0.29331008966E+02 -0.22762716810E+02  0.40793699118E+02  0.00000000000E+00 0. -1.
</event>
<event>
 8    1  0.2521748E-006  0.9118800E+02  0.7816164E-02  0.1184000E+00
        -11   -1    0    0    0    0  0.00000000000E+00  0.00000000000E+00  0.45593999997E+02  0.45594000000E+02  0.51100000000E-03 0.  1.
         11   -1    0    0    0    0 -0.00000000000E+00 -0.00000000000E+00 -0.45593999997E+02  0.45594000000E+02  0.51100000000E-03 0. -1.
         23    2    1    2    0    0  0.35527136788E-14  0.00000000000E+00  0.00000000000E+00  0.91188000000E+02  0.91188000000E+02 0.  0.
    9900012    2    3    3    0    0 -0.19904509581E+02  0.26030879422E+02  0.16792384263E+02  0.54367077220E+02  0.39999984138E+02 0.  0.
        -12    1    3    3    0    0  0.19904509581E+02 -0.26030879422E+02 -0.16792384263E+02  0.36820922780E+02  0.00000000000E+00 0.  1.
         11    1    4    4    0    0 -0.41336305898E+01  0.12837012280E+02  0.49331101434E+01  0.14360061354E+02  0.51100000000E-03 0. -1.
        -11    1    4    4    0    0 -0.11560333524E+02  0.15866389358E+02  0.21523736517E+02  0.29131681317E+02  0.51100000000E-03 0.  1.
        -12    1    4    4    0    0 -0.42105454675E+01 -0.26725222160E+01 -0.96644623971E+01  0.10875334549E+02  0.00000000000E+00 0.  1.
</event>
<event>
 8    1  0.2521748E-006  0.9118800E+02  0.7816164E-02  0.1184000E+00
        -11   -1    0    0    0    0  0.00000000000E+00  0.00000000000E+00  0.45593999997E+02  0.45594000000E+02  0.51100000000E-03 0. -1.
         11   -1    0    0    0    0 -0.00000000000E+00 -0.00000000000E+00 -0.45593999997E+02  0.45594000000E+02  0.51100000000E-03 0.  1.
         23    2    1    2    0    0  0.88817841970E-15  0.00000000000E+00  0.00000000000E+00  0.91188000000E+02  0.91188000000E+02 0.  0.
    9900012    2    3    3    0    0 -0.63919551388E+01 -0.18183586250E+02  0.31373486872E+02  0.54366870496E+02  0.39999512867E+02 0.  0.
        -12    1    3    3    0    0  0.63919551388E+01  0.18183586250E+02 -0.31373486872E+02  0.36821129504E+02  0.00000000000E+00 0.  1.
         11    1    4    4    0    0 -0.68000799248E+01 -0.26851420846E+02  0.20683392533E+02  0.34569388415E+02  0.51100000000E-03 0. -1.
        -11    1    4    4    0    0  0.29847872786E+01  0.11639431531E+02  0.10333458799E+02  0.15848207863E+02  0.51100000000E-03 0.  1.
        -12    1    4    4    0    0 -0.25766624926E+01 -0.29715969347E+01  0.35663554012E+00  0.39492742183E+01  0.00000000000E+00 0.  1.
</event>
<event>
 8    1  0.2521748E-006  0.9118800E+02  0.7816164E-02  0.1184000E+00
        -11   -1    0    0    0    0  0.00000000000E+00  0.00000000000E+00  0.45593999997E+02  0.45594000000E+02  0.51100000000E-03 0.  1.
         11   -1    0    0    0    0 -0.00000000000E+00 -0.00000000000E+00 -0.45593999997E+02  0.45594000000E+02  0.51100000000E-03 0. -1.
         23    2    1    2    0    0  0.00000000000E+00  0.13322676296E-14  0.00000000000E+00  0.91188000000E+02  0.91188000000E+02 0.  0.
    9900012    2    3    3    0    0  0.35273712099E+02 -0.12406614774E+01  0.10488327782E+02  0.54367095261E+02  0.40000025266E+02 0.  0.
         12    1    3    3    0    0 -0.35273712099E+02  0.12406614774E+01 -0.10488327782E+02  0.36820904739E+02  0.00000000000E+00 0. -1.
         11    1    4    4    0    0  0.83777737857E+01 -0.12438846708E+02 -0.11296605500E+01  0.15039552329E+02  0.51100000000E-03 0. -1.
        -11    1    4    4    0    0  0.26887205811E+02  0.16603409999E+02  0.73592537922E+01  0.32446165822E+02  0.51100000000E-03 0.  1.
         12    1    4    4    0    0  0.87325026911E-02 -0.54052247676E+01  0.42587345402E+01  0.68813771099E+01  0.00000000000E+00 0. -1.
</event>
<event>
 8    1  0.2521748E-006  0.9118800E+02  0.7816164E-02  0.1184000E+00
        -11   -1    0    0    0    0  0.00000000000E+00  0.00000000000E+00  0.45593999997E+02  0.45594000000E+02  0.51100000000E-03 0. -1.
         11   -1    0    0    0    0 -0.00000000000E+00 -0.00000000000E+00 -0.45593999997E+02  0.45594000000E+02  0.51100000000E-03 0.  1.
         23    2    1    2    0    0  0.00000000000E+00 -0.35527136788E-14  0.00000000000E+00  0.91188000000E+02  0.91188000000E+02 0.  0.
    9900012    2    3    3    0    0  0.25021247791E+02  0.20672343362E+02 -0.17388820234E+02  0.54367086238E+02  0.40000004698E+02 0.  0.
         12    1    3    3    0    0 -0.25021247791E+02 -0.20672343362E+02  0.17388820234E+02  0.36820913762E+02  0.00000000000E+00 0. -1.
         11    1    4    4    0    0 -0.84240086301E+01  0.11288245273E+02 -0.11223883788E+02  0.18010107448E+02  0.51100000000E-03 0. -1.
        -11    1    4    4    0    0  0.66278126749E+01  0.36935746259E+01  0.18209502973E+01  0.78029644762E+01  0.51100000000E-03 0.  1.
         12    1    4    4    0    0  0.26817443747E+02  0.56905234636E+01 -0.79858867430E+01  0.28554014314E+02  0.00000000000E+00 0. -1.
</event>
<event>
 8    1  0.2521748E-006  0.9118800E+02  0.7816164E-02  0.1184000E+00
        -11   -1    0    0    0    0  0.00000000000E+00  0.00000000000E+00  0.45593999997E+02  0.45594000000E+02  0.51100000000E-03 0. -1.
         11   -1    0    0    0    0 -0.00000000000E+00 -0.00000000000E+00 -0.45593999997E+02  0.45594000000E+02  0.51100000000E-03 0.  1.
         23    2    1    2    0    0 -0.88817841970E-15  0.00000000000E+00  0.00000000000E+00  0.91188000000E+02  0.91188000000E+02 0.  0.
    9900012    2    3    3    0    0 -0.24184532790E+01  0.11162162297E+02  0.35004794410E+02  0.54367103554E+02  0.40000044172E+02 0.  0.
        -12    1    3    3    0    0  0.24184532790E+01 -0.11162162297E+02 -0.35004794410E+02  0.36820896446E+02  0.00000000000E+00 0.  1.
         11    1    4    4    0    0  0.32170003443E+01 -0.77274861518E+01  0.81103852658E+01  0.11655105442E+02  0.51100000000E-03 0. -1.
        -11    1    4    4    0    0 -0.66048986976E+01 -0.28538957185E+01 -0.10716010304E+01  0.72744578222E+01  0.51100000000E-03 0.  1.
         12    1    4    4    0    0  0.96944507427E+00  0.21743544167E+02  0.27966010175E+02  0.35437540290E+02  0.00000000000E+00 0. -1.
</event>
<event>
 8    1  0.2521748E-006  0.9118800E+02  0.7816164E-02  0.1184000E+00
        -11   -1    0    0    0    0  0.00000000000E+00  0.00000000000E+00  0.45593999997E+02  0.45594000000E+02  0.51100000000E-03 0.  1.
         11   -1    0    0    0    0 -0.00000000000E+00 -0.00000000000E+00 -0.45593999997E+02  0.45594000000E+02  0.51100000000E-03 0. -1.
         23    2    1    2    0    0  0.00000000000E+00  0.00000000000E+00  0.00000000000E+00  0.91188000000E+02  0.91188000000E+02 0.  0.
    9900012    2    3    3    0    0  0.29777328899E+02 -0.10273991605E+02  0.19066673470E+02  0.54367051383E+02  0.39999925238E+02 0.  0.
         12    1    3    3    0    0 -0.29777328899E+02  0.10273991605E+02 -0.19066673470E+02  0.36820948617E+02  0.00000000000E+00 0. -1.
         11    1    4    4    0    0  0.11886495110E+02 -0.91445687978E+01  0.54424210392E+01  0.15954054392E+02  0.51100000000E-03 0. -1.
        -11    1    4    4    0    0  0.29288587653E+01  0.12452168603E+02 -0.18985083988E+01  0.12932093837E+02  0.51100000000E-03 0.  1.
        -12    1    4    4    0    0  0.14961975023E+02 -0.13581591410E+02  0.15522760830E+02  0.25480903155E+02  0.00000000000E+00 0.  1.
</event>
<event>
 8    1  0.2521748E-006  0.9118800E+02  0.7816164E-02  0.1184000E+00
        -11   -1    0    0    0    0  0.00000000000E+00  0.00000000000E+00  0.45593999997E+02  0.45594000000E+02  0.51100000000E-03 0. -1.
         11   -1    0    0    0    0 -0.00000000000E+00 -0.00000000000E+00 -0.45593999997E+02  0.45594000000E+02  0.51100000000E-03 0.  1.
         23    2    1    2    0    0  0.88817841970E-15 -0.71054273576E-14  0.00000000000E+00  0.91188000000E+02  0.91188000000E+02 0.  0.
    9900012    2    3    3    0    0  0.49220323408E+01 -0.33843233077E+02 -0.13645054701E+02  0.54367104502E+02  0.40000046334E+02 0.  0.
         12    1    3    3    0    0 -0.49220323408E+01  0.33843233077E+02  0.13645054701E+02  0.36820895498E+02  0.00000000000E+00 0. -1.
         11    1    4    4    0    0  0.96494635789E+01 -0.25676729621E+02  0.50087316944E+01  0.27883579125E+02  0.51100000000E-03 0. -1.
        -11    1    4    4    0    0 -0.28014532193E+01 -0.13120752454E+02 -0.12321089233E+02  0.18215694476E+02  0.51100000000E-03 0.  1.
        -12    1    4    4    0    0 -0.19259780188E+01  0.49542489978E+01 -0.63326971622E+01  0.82678309011E+01  0.00000000000E+00 0.  1.
</event>
<event>
 8    1  0.2521748E-006  0.9118800E+02  0.7816164E-02  0.1184000E+00
        -11   -1    0    0    0    0  0.00000000000E+00  0.00000000000E+00  0.45593999997E+02  0.45594000000E+02  0.51100000000E-03 0.  1.
         11   -1    0    0    0    0 -0.00000000000E+00 -0.00000000000E+00 -0.45593999997E+02  0.45594000000E+02  0.51100000000E-03 0. -1.
         23    2    1    2    0    0 -0.44408920985E-15  0.00000000000E+00  0.00000000000E+00  0.91188000000E+02  0.91188000000E+02 0.  0.
    9900012    2    3    3    0    0 -0.16778358242E+01 -0.34985532546E+02 -0.11356823526E+02  0.54367081201E+02  0.39999993214E+02 0.  0.
        -12    1    3    3    0    0  0.16778358242E+01  0.34985532546E+02  0.11356823526E+02  0.36820918799E+02  0.00000000000E+00 0.  1.
         11    1    4    4    0    0 -0.33461067803E+01 -0.21623048868E+02 -0.18301435346E+02  0.28525343274E+02  0.51100000000E-03 0. -1.
        -11    1    4    4    0    0  0.68895169290E+01  0.31059988192E+01  0.29275163506E+01  0.81045064269E+01  0.51100000000E-03 0.  1.
         12    1    4    4    0    0 -0.52212459729E+01 -0.16468482497E+02  0.40170954687E+01  0.17737231500E+02  0.00000000000E+00 0. -1.
</event>
<event>
 8    1  0.2521748E-006  0.9118800E+02  0.7816164E-02  0.1184000E+00
        -11   -1    0    0    0    0  0.00000000000E+00  0.00000000000E+00  0.45593999997E+02  0.45594000000E+02  0.51100000000E-03 0.  1.
         11   -1    0    0    0    0 -0.00000000000E+00 -0.00000000000E+00 -0.45593999997E+02  0.45594000000E+02  0.51100000000E-03 0. -1.
         23    2    1    2    0    0 -0.88817841970E-15  0.00000000000E+00 -0.35527136788E-14  0.91188000000E+02  0.91188000000E+02 0.  0.
    9900012    2    3    3    0    0  0.76384179751E+01 -0.26840391124E+02  0.24021396731E+02  0.54367088472E+02  0.40000009790E+02 0.  0.
         12    1    3    3    0    0 -0.76384179751E+01  0.26840391124E+02 -0.24021396731E+02  0.36820911528E+02  0.00000000000E+00 0. -1.
         11    1    4    4    0    0 -0.54828793757E+01  0.77495954775E+01  0.23489755205E+01  0.97793600287E+01  0.51100000000E-03 0. -1.
        -11    1    4    4    0    0  0.93864940636E+01 -0.94588480558E+01  0.98128691870E+01  0.16548972152E+02  0.51100000000E-03 0.  1.
        -12    1    4    4    0    0  0.37348032872E+01 -0.25131138545E+02  0.11859552023E+02  0.28038756291E+02  0.00000000000E+00 0.  1.
</event>
<event>
 8    1  0.2521748E-006  0.9118800E+02  0.7816164E-02  0.1184000E+00
        -11   -1    0    0    0    0  0.00000000000E+00  0.00000000000E+00  0.45593999997E+02  0.45594000000E+02  0.51100000000E-03 0. -1.
         11   -1    0    0    0    0 -0.00000000000E+00 -0.00000000000E+00 -0.45593999997E+02  0.45594000000E+02  0.51100000000E-03 0.  1.
         23    2    1    2    0    0 -0.26645352591E-14  0.71054273576E-14 -0.35527136788E-14  0.91188000000E+02  0.91188000000E+02 0.  0.
    9900012    2    3    3    0    0 -0.12432402451E+01  0.32580057150E+02 -0.17110640963E+02  0.54367084689E+02  0.40000001165E+02 0.  0.
         12    1    3    3    0    0  0.12432402451E+01 -0.32580057150E+02  0.17110640963E+02  0.36820915311E+02  0.00000000000E+00 0. -1.
         11    1    4    4    0    0  0.13089677650E+02  0.49509145626E+01  0.85439876170E+00  0.14020742259E+02  0.51100000000E-03 0. -1.
        -11    1    4    4    0    0  0.33714284960E+01  0.10827875270E+02 -0.30545088544E+01  0.11744762133E+02  0.51100000000E-03 0.  1.
        -12    1    4    4    0    0 -0.17704346392E+02  0.16801267317E+02 -0.14910530870E+02  0.28601580297E+02  0.00000000000E+00 0.  1.
</event>
<event>
 8    1  0.2521748E-006  0.9118800E+02  0.7816164E-02  0.1184000E+00
        -11   -1    0    0    0    0  0.00000000000E+00  0.00000000000E+00  0.45593999997E+02  0.45594000000E+02  0.51100000000E-03 0. -1.
         11   -1    0    0    0    0 -0.00000000000E+00 -0.00000000000E+00 -0.45593999997E+02  0.45594000000E+02  0.51100000000E-03 0.  1.
         23    2    1    2    0    0 -0.16653345369E-15 -0.35527136788E-14  0.00000000000E+00  0.91188000000E+02  0.91188000000E+02 0.  0.
    9900012    2    3    3    0    0 -0.30675685565E+00 -0.31721071836E+02 -0.18693768438E+02  0.54367116298E+02  0.40000073224E+02 0.  0.
         12    1    3    3    0    0  0.30675685565E+00  0.31721071836E+02  0.18693768438E+02  0.36820883702E+02  0.00000000000E+00 0. -1.
         11    1    4    4    0    0 -0.72984963667E+01 -0.19372052193E+01 -0.28037898324E+01  0.80549395381E+01  0.51100000000E-03 0. -1.
        -11    1    4    4    0    0  0.53348992328E+01 -0.16663328234E+01 -0.17230185821E+02  0.18114003384E+02  0.51100000000E-03 0.  1.
        -12    1    4    4    0    0  0.16568402783E+01 -0.28117533794E+02  0.13402072156E+01  0.28198173376E+02  0.00000000000E+00 0.  1.
</event>
<event>
 8    1  0.2521748E-006  0.9118800E+02  0.7816164E-02  0.1184000E+00
        -11   -1    0    0    0    0  0.00000000000E+00  0.00000000000E+00  0.45593999997E+02  0.45594000000E+02  0.51100000000E-03 0.  1.
         11   -1    0    0    0    0 -0.00000000000E+00 -0.00000000000E+00 -0.45593999997E+02  0.45594000000E+02  0.51100000000E-03 0. -1.
         23    2    1    2    0    0  0.00000000000E+00  0.00000000000E+00 -0.88817841970E-15  0.91188000000E+02  0.91188000000E+02 0.  0.
    9900012    2    3    3    0    0  0.34917231997E+02  0.11094394745E+02  0.36716461016E+01  0.54367086511E+02  0.40000005319E+02 0.  0.
         12    1    3    3    0    0 -0.34917231997E+02 -0.11094394745E+02 -0.36716461016E+01  0.36820913489E+02  0.00000000000E+00 0. -1.
         11    1    4    4    0    0  0.11716756264E+02  0.30477065181E+01 -0.12665757843E+02  0.17521196145E+02  0.51100000000E-03 0. -1.
        -11    1    4    4    0    0  0.10582727192E+02 -0.71645011946E+00 -0.40193873263E+01  0.11342966558E+02  0.51100000000E-03 0.  1.
        -12    1    4    4    0    0  0.12617748541E+02  0.87631383461E+01  0.20356791271E+02  0.25502923808E+02  0.00000000000E+00 0.  1.
</event>
<event>
 8    1  0.2521748E-006  0.9118800E+02  0.7816164E-02  0.1184000E+00
        -11   -1    0    0    0    0  0.00000000000E+00  0.00000000000E+00  0.45593999997E+02  0.45594000000E+02  0.51100000000E-03 0.  1.
         11   -1    0    0    0    0 -0.00000000000E+00 -0.00000000000E+00 -0.45593999997E+02  0.45594000000E+02  0.51100000000E-03 0. -1.
         23    2    1    2    0    0 -0.35527136788E-14  0.00000000000E+00 -0.35527136788E-14  0.91188000000E+02  0.91188000000E+02 0.  0.
    9900012    2    3    3    0    0  0.17562143321E+02 -0.10406865186E+02  0.30643907682E+02  0.54367071182E+02  0.39999970373E+02 0.  0.
         12    1    3    3    0    0 -0.17562143321E+02  0.10406865186E+02 -0.30643907682E+02  0.36820928818E+02  0.00000000000E+00 0. -1.
         11    1    4    4    0    0 -0.50465243836E+01  0.61586238542E+01  0.79806654278E+01  0.11273290428E+02  0.51100000000E-03 0. -1.
        -11    1    4    4    0    0  0.33759198995E+01 -0.71574630227E+01  0.20011814567E+02  0.21519731286E+02  0.51100000000E-03 0.  1.
        -12    1    4    4    0    0  0.19232747805E+02 -0.94080260176E+01  0.26514276871E+01  0.21574049469E+02  0.00000000000E+00 0.  1.
</event>
<event>
 8    1  0.2521748E-006  0.9118800E+02  0.7816164E-02  0.1184000E+00
        -11   -1    0    0    0    0  0.00000000000E+00  0.00000000000E+00  0.45593999997E+02  0.45594000000E+02  0.51100000000E-03 0.  1.
         11   -1    0    0    0    0 -0.00000000000E+00 -0.00000000000E+00 -0.45593999997E+02  0.45594000000E+02  0.51100000000E-03 0. -1.
         23    2    1    2    0    0 -0.35527136788E-14  0.00000000000E+00  0.35527136788E-14  0.91188000000E+02  0.91188000000E+02 0.  0.
    9900012    2    3    3    0    0  0.27197290474E+02  0.10169920195E+02 -0.22642006009E+02  0.54367077660E+02  0.39999985141E+02 0.  0.
        -12    1    3    3    0    0 -0.27197290474E+02 -0.10169920195E+02  0.22642006009E+02  0.36820922340E+02  0.00000000000E+00 0.  1.
         11    1    4    4    0    0  0.24831965407E+02  0.34248275250E+01 -0.12334251753E+02  0.27937246037E+02  0.51100000000E-03 0. -1.
        -11    1    4    4    0    0  0.58415281012E+01  0.13416655426E+02 -0.12955412405E+01  0.14690422755E+02  0.51100000000E-03 0.  1.
         12    1    4    4    0    0 -0.34762030342E+01 -0.66715627558E+01 -0.90122130150E+01  0.11739408868E+02  0.00000000000E+00 0. -1.
</event>
<event>
 8    1  0.2521748E-006  0.9118800E+02  0.7816164E-02  0.1184000E+00
        -11   -1    0    0    0    0  0.00000000000E+00  0.00000000000E+00  0.45593999997E+02  0.45594000000E+02  0.51100000000E-03 0.  1.
         11   -1    0    0    0    0 -0.00000000000E+00 -0.00000000000E+00 -0.45593999997E+02  0.45594000000E+02  0.51100000000E-03 0. -1.
         23    2    1    2    0    0  0.00000000000E+00  0.35527136788E-14  0.00000000000E+00  0.91188000000E+02  0.91188000000E+02 0.  0.
    9900012    2    3    3    0    0 -0.98079242171E+01 -0.28471034805E+02  0.21189305771E+02  0.54367056512E+02  0.39999936929E+02 0.  0.
         12    1    3    3    0    0  0.98079242171E+01  0.28471034805E+02 -0.21189305771E+02  0.36820943488E+02  0.00000000000E+00 0. -1.
         11    1    4    4    0    0  0.85020504973E+01 -0.22467232768E+01  0.10205950572E+02  0.13471972962E+02  0.51100000000E-03 0. -1.
        -11    1    4    4    0    0 -0.23590127158E+01 -0.10293130098E+02  0.14645402490E+02  0.18055505603E+02  0.51100000000E-03 0.  1.
         12    1    4    4    0    0 -0.15950961999E+02 -0.15931181430E+02 -0.36620472913E+01  0.22839577947E+02  0.00000000000E+00 0. -1.
</event>
<event>
 8    1  0.2521748E-006  0.9118800E+02  0.7816164E-02  0.1184000E+00
        -11   -1    0    0    0    0  0.00000000000E+00  0.00000000000E+00  0.45593999997E+02  0.45594000000E+02  0.51100000000E-03 0.  1.
         11   -1    0    0    0    0 -0.00000000000E+00 -0.00000000000E+00 -0.45593999997E+02  0.45594000000E+02  0.51100000000E-03 0. -1.
         23    2    1    2    0    0  0.00000000000E+00 -0.17763568394E-14  0.88817841970E-15  0.91188000000E+02  0.91188000000E+02 0.  0.
    9900012    2    3    3    0    0  0.35013888331E+02 -0.92533971065E+01  0.66468750752E+01  0.54367099925E+02  0.40000035899E+02 0.  0.
         12    1    3    3    0    0 -0.35013888331E+02  0.92533971065E+01 -0.66468750752E+01  0.36820900075E+02  0.00000000000E+00 0. -1.
         11    1    4    4    0    0  0.13601512129E+02 -0.14413286985E+01 -0.52094505675E+01  0.14636151683E+02  0.51100000000E-03 0. -1.
        -11    1    4    4    0    0  0.26598622214E+02 -0.34013870813E+01  0.89839198819E+00  0.26830267352E+02  0.51100000000E-03 0.  1.
         12    1    4    4    0    0 -0.51862460117E+01 -0.44106813266E+01  0.10957933655E+02  0.12900680890E+02  0.00000000000E+00 0. -1.
</event>
<event>
 8    1  0.2521748E-006  0.9118800E+02  0.7816164E-02  0.1184000E+00
        -11   -1    0    0    0    0  0.00000000000E+00  0.00000000000E+00  0.45593999997E+02  0.45594000000E+02  0.51100000000E-03 0. -1.
         11   -1    0    0    0    0 -0.00000000000E+00 -0.00000000000E+00 -0.45593999997E+02  0.45594000000E+02  0.51100000000E-03 0.  1.
         23    2    1    2    0    0  0.00000000000E+00 -0.71054273576E-14  0.00000000000E+00  0.91188000000E+02  0.91188000000E+02 0.  0.
    9900012    2    3    3    0    0 -0.19636812895E+02  0.29380177573E+02  0.10343115565E+02  0.54367091613E+02  0.40000016949E+02 0.  0.
        -12    1    3    3    0    0  0.19636812895E+02 -0.29380177573E+02 -0.10343115565E+02  0.36820908387E+02  0.00000000000E+00 0.  1.
         11    1    4    4    0    0 -0.11913226590E+02  0.47952893672E+01  0.13264398686E+01  0.12910430314E+02  0.51100000000E-03 0. -1.
        -11    1    4    4    0    0  0.34906718957E+01 -0.62090072676E+01 -0.98826581177E+00  0.71911912162E+01  0.51100000000E-03 0.  1.
        -12    1    4    4    0    0 -0.11214258201E+02  0.30793895473E+02  0.10004941509E+02  0.34265470083E+02  0.00000000000E+00 0.  1.
</event>
<event>
 8    1  0.2521748E-006  0.9118800E+02  0.7816164E-02  0.1184000E+00
        -11   -1    0    0    0    0  0.00000000000E+00  0.00000000000E+00  0.45593999997E+02  0.45594000000E+02  0.51100000000E-03 0.  1.
         11   -1    0    0    0    0 -0.00000000000E+00 -0.00000000000E+00 -0.45593999997E+02  0.45594000000E+02  0.51100000000E-03 0. -1.
         23    2    1    2    0    0 -0.35527136788E-14  0.00000000000E+00 -0.44408920985E-15  0.91188000000E+02  0.91188000000E+02 0.  0.
    9900012    2    3    3    0    0 -0.22888375569E+02 -0.28692141537E+02 -0.29436311385E+01  0.54367059131E+02  0.39999942902E+02 0.  0.
        -12    1    3    3    0    0  0.22888375569E+02  0.28692141537E+02  0.29436311385E+01  0.36820940869E+02  0.00000000000E+00 0.  1.
         11    1    4    4    0    0 -0.13873389491E+02 -0.52340122374E+01  0.11981313917E+02  0.19063517606E+02  0.51100000000E-03 0. -1.
        -11    1    4    4    0    0 -0.59457687265E+00  0.89552866302E+00  0.34768371658E+01  0.36392155999E+01  0.51100000000E-03 0.  1.
         12    1    4    4    0    0 -0.84204092048E+01 -0.24353657963E+02 -0.18401782222E+02  0.31664325925E+02  0.00000000000E+00 0. -1.
</event>
<event>
 8    1  0.2521748E-006  0.9118800E+02  0.7816164E-02  0.1184000E+00
        -11   -1    0    0    0    0  0.00000000000E+00  0.00000000000E+00  0.45593999997E+02  0.45594000000E+02  0.51100000000E-03 0.  1.
         11   -1    0    0    0    0 -0.00000000000E+00 -0.00000000000E+00 -0.45593999997E+02  0.45594000000E+02  0.51100000000E-03 0. -1.
         23    2    1    2    0    0  0.35527136788E-14  0.00000000000E+00  0.00000000000E+00  0.91188000000E+02  0.91188000000E+02 0.  0.
    9900012    2    3    3    0    0 -0.31075918494E+02 -0.17314534694E+02  0.95013126550E+01  0.54367071656E+02  0.39999971455E+02 0.  0.
         12    1    3    3    0    0  0.31075918494E+02  0.17314534694E+02 -0.95013126550E+01  0.36820928344E+02  0.00000000000E+00 0. -1.
         11    1    4    4    0    0  0.59551696896E+01 -0.40806666884E+01  0.11881021977E+02  0.13902322473E+02  0.51100000000E-03 0. -1.
        -11    1    4    4    0    0 -0.99586600334E+01 -0.72027640859E+00 -0.36035689860E+01  0.10615056169E+02  0.51100000000E-03 0.  1.
         12    1    4    4    0    0 -0.27072428150E+02 -0.12513591598E+02  0.12238596636E+01  0.29849693015E+02  0.00000000000E+00 0. -1.
</event>
<event>
 8    1  0.2521748E-006  0.9118800E+02  0.7816164E-02  0.1184000E+00
        -11   -1    0    0    0    0  0.00000000000E+00  0.00000000000E+00  0.45593999997E+02  0.45594000000E+02  0.51100000000E-03 0.  1.
         11   -1    0    0    0    0 -0.00000000000E+00 -0.00000000000E+00 -0.45593999997E+02  0.45594000000E+02  0.51100000000E-03 0. -1.
         23    2    1    2    0    0 -0.35527136788E-14  0.00000000000E+00  0.00000000000E+00  0.91188000000E+02  0.91188000000E+02 0.  0.
    9900012    2    3    3    0    0 -0.21463006029E+02 -0.82394137417E+01 -0.28761543213E+02  0.54367150817E+02  0.40000151917E+02 0.  0.
        -12    1    3    3    0    0  0.21463006029E+02  0.82394137417E+01  0.28761543213E+02  0.36820849183E+02  0.00000000000E+00 0.  1.
         11    1    4    4    0    0 -0.22086271763E+02 -0.92179181266E+01 -0.62823711729E+01  0.24743516379E+02  0.51100000000E-03 0. -1.
        -11    1    4    4    0    0  0.68120710144E+01 -0.20269358409E+00 -0.22302622341E+02  0.23320642352E+02  0.51100000000E-03 0.  1.
        -12    1    4    4    0    0 -0.61888052795E+01  0.11811979691E+01 -0.17654969914E+00  0.63029920852E+01  0.00000000000E+00 0.  1.
</event>
<event>
 8    1  0.2521748E-006  0.9118800E+02  0.7816164E-02  0.1184000E+00
        -11   -1    0    0    0    0  0.00000000000E+00  0.00000000000E+00  0.45593999997E+02  0.45594000000E+02  0.51100000000E-03 0. -1.
         11   -1    0    0    0    0 -0.00000000000E+00 -0.00000000000E+00 -0.45593999997E+02  0.45594000000E+02  0.51100000000E-03 0.  1.
         23    2    1    2    0    0  0.51347814889E-15 -0.35527136788E-14  0.00000000000E+00  0.91188000000E+02  0.91188000000E+02 0.  0.
    9900012    2    3    3    0    0 -0.12226417409E+00 -0.93094699401E+01  0.35624412091E+02  0.54367083174E+02  0.39999997712E+02 0.  0.
        -12    1    3    3    0    0  0.12226417409E+00  0.93094699401E+01 -0.35624412091E+02  0.36820916826E+02  0.00000000000E+00 0.  1.
         11    1    4    4    0    0 -0.84557626554E+01  0.19505630467E+01  0.21409230428E+02  0.23101077163E+02  0.51100000000E-03 0. -1.
        -11    1    4    4    0    0 -0.22685967982E+01  0.11289604060E+01 -0.52762906742E+01  0.58532321474E+01  0.51100000000E-03 0.  1.
        -12    1    4    4    0    0  0.10602095280E+02 -0.12388993393E+02  0.19491472337E+02  0.25412773864E+02  0.00000000000E+00 0.  1.
</event>
<event>
 8    1  0.2521748E-006  0.9118800E+02  0.7816164E-02  0.1184000E+00
        -11   -1    0    0    0    0  0.00000000000E+00  0.00000000000E+00  0.45593999997E+02  0.45594000000E+02  0.51100000000E-03 0. -1.
         11   -1    0    0    0    0 -0.00000000000E+00 -0.00000000000E+00 -0.45593999997E+02  0.45594000000E+02  0.51100000000E-03 0.  1.
         23    2    1    2    0    0 -0.35527136788E-14  0.71054273576E-14 -0.71054273576E-14  0.91188000000E+02  0.91188000000E+02 0.  0.
    9900012    2    3    3    0    0  0.15240872915E+02 -0.22218998069E+02  0.25096013119E+02  0.54367109777E+02  0.40000058357E+02 0.  0.
        -12    1    3    3    0    0 -0.15240872915E+02  0.22218998069E+02 -0.25096013119E+02  0.36820890223E+02  0.00000000000E+00 0.  1.
         11    1    4    4    0    0 -0.81957491037E+01  0.11014089686E+01  0.94578717779E+01  0.12563229836E+02  0.51100000000E-03 0. -1.
        -11    1    4    4    0    0 -0.29007187257E+01 -0.12742945236E+01 -0.13996300453E+01  0.34636628276E+01  0.51100000000E-03 0.  1.
        -12    1    4    4    0    0  0.26337340744E+02 -0.22046112514E+02  0.17037771386E+02  0.38340217113E+02  0.00000000000E+00 0.  1.
</event>
<event>
 8    1  0.2521748E-006  0.9118800E+02  0.7816164E-02  0.1184000E+00
        -11   -1    0    0    0    0  0.00000000000E+00  0.00000000000E+00  0.45593999997E+02  0.45594000000E+02  0.51100000000E-03 0. -1.
         11   -1    0    0    0    0 -0.00000000000E+00 -0.00000000000E+00 -0.45593999997E+02  0.45594000000E+02  0.51100000000E-03 0.  1.
         23    2    1    2    0    0 -0.31086244690E-14 -0.17763568394E-14 -0.71054273576E-14  0.91188000000E+02  0.91188000000E+02 0.  0.
    9900012    2    3    3    0    0  0.27266536194E+01  0.15514625360E+02  0.33281257693E+02  0.54367077230E+02  0.39999984161E+02 0.  0.
        -12    1    3    3    0    0 -0.27266536194E+01 -0.15514625360E+02 -0.33281257693E+02  0.36820922770E+02  0.00000000000E+00 0.  1.
         11    1    4    4    0    0 -0.10272157461E+02  0.21957071353E+01  0.48912494268E+01  0.11587176962E+02  0.51100000000E-03 0.  1.
        -11    1    4    4    0    0  0.60100162652E+01  0.15908138356E+02  0.42683069345E+01  0.17533043256E+02  0.51100000000E-03 0. -1.
         12    1    4    4    0    0  0.69887948149E+01 -0.25892201316E+01  0.24121701332E+02  0.25246857012E+02  0.00000000000E+00 0. -1.
</event>
<event>
 8    1  0.2521748E-006  0.9118800E+02  0.7816164E-02  0.1184000E+00
        -11   -1    0    0    0    0  0.00000000000E+00  0.00000000000E+00  0.45593999997E+02  0.45594000000E+02  0.51100000000E-03 0.  1.
         11   -1    0    0    0    0 -0.00000000000E+00 -0.00000000000E+00 -0.45593999997E+02  0.45594000000E+02  0.51100000000E-03 0. -1.
         23    2    1    2    0    0 -0.13322676296E-14  0.00000000000E+00  0.00000000000E+00  0.91188000000E+02  0.91188000000E+02 0.  0.
    9900012    2    3    3    0    0  0.12496076347E+01  0.51357099806E+01  0.36439562185E+02  0.54367099298E+02  0.40000034470E+02 0.  0.
         12    1    3    3    0    0 -0.12496076347E+01 -0.51357099806E+01 -0.36439562185E+02  0.36820900702E+02  0.00000000000E+00 0. -1.
         11    1    4    4    0    0 -0.14907417293E+02  0.12220399054E+02  0.18036839896E+02  0.26398803706E+02  0.51100000000E-03 0.  1.
        -11    1    4    4    0    0  0.10689676402E+02 -0.13234453578E+01  0.16656900169E+02  0.19836154181E+02  0.51100000000E-03 0. -1.
        -12    1    4    4    0    0  0.54673485257E+01 -0.57612437157E+01  0.17458221200E+01  0.81321414109E+01  0.00000000000E+00 0.  1.
</event>
<event>
 8    1  0.2521748E-006  0.9118800E+02  0.7816164E-02  0.1184000E+00
        -11   -1    0    0    0    0  0.00000000000E+00  0.00000000000E+00  0.45593999997E+02  0.45594000000E+02  0.51100000000E-03 0.  1.
         11   -1    0    0    0    0 -0.00000000000E+00 -0.00000000000E+00 -0.45593999997E+02  0.45594000000E+02  0.51100000000E-03 0. -1.
         23    2    1    2    0    0 -0.13322676296E-14  0.10658141036E-13  0.35527136788E-14  0.91188000000E+02  0.91188000000E+02 0.  0.
    9900012    2    3    3    0    0  0.24169976661E+01 -0.30930126111E+02 -0.19830928496E+02  0.54367077904E+02  0.39999985698E+02 0.  0.
        -12    1    3    3    0    0 -0.24169976661E+01  0.30930126111E+02  0.19830928496E+02  0.36820922096E+02  0.00000000000E+00 0.  1.
         11    1    4    4    0    0 -0.37478435505E+01 -0.12235792356E+01 -0.15634534816E+02  0.16123962187E+02  0.51100000000E-03 0. -1.
        -11    1    4    4    0    0  0.25523184994E+00  0.27483613293E+01  0.34118769789E+01  0.43885690235E+01  0.51100000000E-03 0.  1.
        -12    1    4    4    0    0  0.59096093667E+01 -0.32454908204E+02 -0.76082706592E+01  0.33854546694E+02  0.00000000000E+00 0.  1.
</event>
<event>
 8    1  0.2521748E-006  0.9118800E+02  0.7816164E-02  0.1184000E+00
        -11   -1    0    0    0    0  0.00000000000E+00  0.00000000000E+00  0.45593999997E+02  0.45594000000E+02  0.51100000000E-03 0.  1.
         11   -1    0    0    0    0 -0.00000000000E+00 -0.00000000000E+00 -0.45593999997E+02  0.45594000000E+02  0.51100000000E-03 0. -1.
         23    2    1    2    0    0  0.00000000000E+00  0.35527136788E-14  0.35527136788E-14  0.91188000000E+02  0.91188000000E+02 0.  0.
    9900012    2    3    3    0    0 -0.85265282919E+01  0.29971282341E+02  0.19616321804E+02  0.54367088401E+02  0.40000009627E+02 0.  0.
         12    1    3    3    0    0  0.85265282919E+01 -0.29971282341E+02 -0.19616321804E+02  0.36820911599E+02  0.00000000000E+00 0. -1.
         11    1    4    4    0    0  0.58104932091E+01  0.49724476877E+01  0.98167213631E+01  0.12444078348E+02  0.51100000000E-03 0. -1.
        -11    1    4    4    0    0 -0.43480931846E+01  0.72420986083E+00  0.14588803305E+02  0.15240196075E+02  0.51100000000E-03 0.  1.
         12    1    4    4    0    0 -0.99889283164E+01  0.24274624792E+02 -0.47892028638E+01  0.26682813978E+02  0.00000000000E+00 0. -1.
</event>
<event>
 8    1  0.2521748E-006  0.9118800E+02  0.7816164E-02  0.1184000E+00
        -11   -1    0    0    0    0  0.00000000000E+00  0.00000000000E+00  0.45593999997E+02  0.45594000000E+02  0.51100000000E-03 0. -1.
         11   -1    0    0    0    0 -0.00000000000E+00 -0.00000000000E+00 -0.45593999997E+02  0.45594000000E+02  0.51100000000E-03 0.  1.
         23    2    1    2    0    0  0.35527136788E-14  0.00000000000E+00  0.00000000000E+00  0.91188000000E+02  0.91188000000E+02 0.  0.
    9900012    2    3    3    0    0  0.22849667524E+02 -0.21809627923E+02 -0.18921207703E+02  0.54367091850E+02  0.40000017490E+02 0.  0.
         12    1    3    3    0    0 -0.22849667524E+02  0.21809627923E+02  0.18921207703E+02  0.36820908150E+02  0.00000000000E+00 0. -1.
         11    1    4    4    0    0 -0.87206912514E+00  0.89406511579E+00 -0.27137566782E+00  0.12780852884E+01  0.51100000000E-03 0. -1.
        -11    1    4    4    0    0  0.93486603480E+01 -0.29289049029E+02 -0.20819688098E+02  0.37130920485E+02  0.51100000000E-03 0.  1.
        -12    1    4    4    0    0  0.14373076301E+02  0.65853559908E+01  0.21698560631E+01  0.15958086076E+02  0.00000000000E+00 0.  1.
</event>
<event>
 8    1  0.2521748E-006  0.9118800E+02  0.7816164E-02  0.1184000E+00
        -11   -1    0    0    0    0  0.00000000000E+00  0.00000000000E+00  0.45593999997E+02  0.45594000000E+02  0.51100000000E-03 0.  1.
         11   -1    0    0    0    0 -0.00000000000E+00 -0.00000000000E+00 -0.45593999997E+02  0.45594000000E+02  0.51100000000E-03 0. -1.
         23    2    1    2    0    0  0.00000000000E+00  0.00000000000E+00 -0.35527136788E-14  0.91188000000E+02  0.91188000000E+02 0.  0.
    9900012    2    3    3    0    0  0.92494344782E+01 -0.19381831683E+02 -0.29909411787E+02  0.54367077266E+02  0.39999984243E+02 0.  0.
        -12    1    3    3    0    0 -0.92494344782E+01  0.19381831683E+02  0.29909411787E+02  0.36820922734E+02  0.00000000000E+00 0.  1.
         11    1    4    4    0    0 -0.47057773063E+01 -0.21425485839E+02 -0.97805342603E+01  0.24017798279E+02  0.51100000000E-03 0. -1.
        -11    1    4    4    0    0  0.56009648891E+01  0.65570906581E+01 -0.61225847445E+00  0.86452938810E+01  0.51100000000E-03 0.  1.
         12    1    4    4    0    0  0.83542468955E+01 -0.45134365020E+01 -0.19516619052E+02  0.21703985106E+02  0.00000000000E+00 0. -1.
</event>
<event>
 8    1  0.2521748E-006  0.9118800E+02  0.7816164E-02  0.1184000E+00
        -11   -1    0    0    0    0  0.00000000000E+00  0.00000000000E+00  0.45593999997E+02  0.45594000000E+02  0.51100000000E-03 0.  1.
         11   -1    0    0    0    0 -0.00000000000E+00 -0.00000000000E+00 -0.45593999997E+02  0.45594000000E+02  0.51100000000E-03 0. -1.
         23    2    1    2    0    0  0.00000000000E+00 -0.17763568394E-14  0.00000000000E+00  0.91188000000E+02  0.91188000000E+02 0.  0.
    9900012    2    3    3    0    0 -0.32403594394E+02  0.14433539296E+02 -0.98721649630E+01  0.54367087093E+02  0.40000006646E+02 0.  0.
        -12    1    3    3    0    0  0.32403594394E+02 -0.14433539296E+02  0.98721649630E+01  0.36820912907E+02  0.00000000000E+00 0.  1.
         11    1    4    4    0    0 -0.92836709134E+01  0.19419658052E+02 -0.17546539340E+01  0.21596029153E+02  0.51100000000E-03 0. -1.
        -11    1    4    4    0    0 -0.16339270700E+02 -0.11922377207E+02 -0.16401368182E+00  0.20227252557E+02  0.51100000000E-03 0.  1.
        -12    1    4    4    0    0 -0.67806527803E+01  0.69362584510E+01 -0.79534973472E+01  0.12543805383E+02  0.00000000000E+00 0.  1.
</event>
<event>
 8    1  0.2521748E-006  0.9118800E+02  0.7816164E-02  0.1184000E+00
        -11   -1    0    0    0    0  0.00000000000E+00  0.00000000000E+00  0.45593999997E+02  0.45594000000E+02  0.51100000000E-03 0. -1.
         11   -1    0    0    0    0 -0.00000000000E+00 -0.00000000000E+00 -0.45593999997E+02  0.45594000000E+02  0.51100000000E-03 0.  1.
         23    2    1    2    0    0  0.00000000000E+00  0.00000000000E+00  0.17763568394E-14  0.91188000000E+02  0.91188000000E+02 0.  0.
    9900012    2    3    3    0    0  0.85487296809E+01 -0.34806586702E+02  0.84380875365E+01  0.54367074180E+02  0.39999977207E+02 0.  0.
        -12    1    3    3    0    0 -0.85487296809E+01  0.34806586702E+02 -0.84380875365E+01  0.36820925820E+02  0.00000000000E+00 0.  1.
         11    1    4    4    0    0 -0.45792341062E+01 -0.66607356440E+01  0.17253950203E+02  0.19053440166E+02  0.51100000000E-03 0. -1.
        -11    1    4    4    0    0  0.17266755840E+01 -0.31072621940E+01 -0.68669638846E+01  0.77325080128E+01  0.51100000000E-03 0.  1.
         12    1    4    4    0    0  0.11401288203E+02 -0.25038588864E+02 -0.19488987814E+01  0.27581126000E+02  0.00000000000E+00 0. -1.
</event>
<event>
 8    1  0.2521748E-006  0.9118800E+02  0.7816164E-02  0.1184000E+00
        -11   -1    0    0    0    0  0.00000000000E+00  0.00000000000E+00  0.45593999997E+02  0.45594000000E+02  0.51100000000E-03 0.  1.
         11   -1    0    0    0    0 -0.00000000000E+00 -0.00000000000E+00 -0.45593999997E+02  0.45594000000E+02  0.51100000000E-03 0. -1.
         23    2    1    2    0    0  0.35527136788E-14  0.00000000000E+00 -0.17763568394E-14  0.91188000000E+02  0.91188000000E+02 0.  0.
    9900012    2    3    3    0    0  0.28664422908E+02 -0.20523095150E+02 -0.10627028479E+02  0.54367077829E+02  0.39999985527E+02 0.  0.
        -12    1    3    3    0    0 -0.28664422908E+02  0.20523095150E+02  0.10627028479E+02  0.36820922171E+02  0.00000000000E+00 0.  1.
         11    1    4    4    0    0 -0.57502204580E+01 -0.21296514079E+01 -0.45795000858E+01  0.76532523630E+01  0.51100000000E-03 0. -1.
        -11    1    4    4    0    0  0.37039088476E+02 -0.12679953810E+02 -0.83284219014E+01  0.40025465836E+02  0.51100000000E-03 0.  1.
        -12    1    4    4    0    0 -0.26244451099E+01 -0.57134899329E+01  0.22808935081E+01  0.66883596302E+01  0.00000000000E+00 0.  1.
</event>
<event>
 8    1  0.2521748E-006  0.9118800E+02  0.7816164E-02  0.1184000E+00
        -11   -1    0    0    0    0  0.00000000000E+00  0.00000000000E+00  0.45593999997E+02  0.45594000000E+02  0.51100000000E-03 0.  1.
         11   -1    0    0    0    0 -0.00000000000E+00 -0.00000000000E+00 -0.45593999997E+02  0.45594000000E+02  0.51100000000E-03 0. -1.
         23    2    1    2    0    0  0.11102230246E-14  0.00000000000E+00  0.00000000000E+00  0.91188000000E+02  0.91188000000E+02 0.  0.
    9900012    2    3    3    0    0  0.15971124678E+01 -0.31512547644E+01 -0.36651042758E+02  0.54367080538E+02  0.39999991702E+02 0.  0.
        -12    1    3    3    0    0 -0.15971124678E+01  0.31512547644E+01  0.36651042758E+02  0.36820919462E+02  0.00000000000E+00 0.  1.
         11    1    4    4    0    0  0.13878897495E+02  0.10001734842E+02 -0.11439643155E+02  0.20579697066E+02  0.51100000000E-03 0. -1.
        -11    1    4    4    0    0 -0.12291312567E+02 -0.43757861542E+01 -0.10910266722E+02  0.17007580348E+02  0.51100000000E-03 0.  1.
         12    1    4    4    0    0  0.95275394770E-02 -0.87772034522E+01 -0.14301132880E+02  0.16779803124E+02  0.00000000000E+00 0. -1.
</event>
<event>
 8    1  0.2521748E-006  0.9118800E+02  0.7816164E-02  0.1184000E+00
        -11   -1    0    0    0    0  0.00000000000E+00  0.00000000000E+00  0.45593999997E+02  0.45594000000E+02  0.51100000000E-03 0.  1.
         11   -1    0    0    0    0 -0.00000000000E+00 -0.00000000000E+00 -0.45593999997E+02  0.45594000000E+02  0.51100000000E-03 0. -1.
         23    2    1    2    0    0  0.00000000000E+00 -0.88817841970E-15  0.00000000000E+00  0.91188000000E+02  0.91188000000E+02 0.  0.
    9900012    2    3    3    0    0 -0.17402584129E+02  0.53805005651E+01 -0.31999715639E+02  0.54367061369E+02  0.39999948002E+02 0.  0.
        -12    1    3    3    0    0  0.17402584129E+02 -0.53805005651E+01  0.31999715639E+02  0.36820938631E+02  0.00000000000E+00 0.  1.
         11    1    4    4    0    0 -0.16925722172E+02  0.13013448425E+01 -0.12440301708E+02  0.21046013311E+02  0.51100000000E-03 0. -1.
        -11    1    4    4    0    0  0.88681031876E+01  0.93069883953E+01 -0.18545281635E+02  0.22565255556E+02  0.51100000000E-03 0.  1.
        -12    1    4    4    0    0 -0.93449651451E+01 -0.52278326728E+01 -0.10141322963E+01  0.10755792501E+02  0.00000000000E+00 0.  1.
</event>
<event>
 8    1  0.2521748E-006  0.9118800E+02  0.7816164E-02  0.1184000E+00
        -11   -1    0    0    0    0  0.00000000000E+00  0.00000000000E+00  0.45593999997E+02  0.45594000000E+02  0.51100000000E-03 0. -1.
         11   -1    0    0    0    0 -0.00000000000E+00 -0.00000000000E+00 -0.45593999997E+02  0.45594000000E+02  0.51100000000E-03 0.  1.
         23    2    1    2    0    0  0.17763568394E-14 -0.71054273576E-14  0.35527136788E-14  0.91188000000E+02  0.91188000000E+02 0.  0.
    9900012    2    3    3    0    0 -0.13920939540E+02 -0.28064453216E+02  0.19348860170E+02  0.54367021172E+02  0.39999856365E+02 0.  0.
        -12    1    3    3    0    0  0.13920939540E+02  0.28064453216E+02 -0.19348860170E+02  0.36820978828E+02  0.00000000000E+00 0.  1.
         11    1    4    4    0    0 -0.43828555855E+01  0.68272889863E+01  0.63548231678E+01  0.10305584687E+02  0.51100000000E-03 0. -1.
        -11    1    4    4    0    0  0.45639629921E+01 -0.21107136157E+01 -0.19229302213E+01  0.53835426122E+01  0.51100000000E-03 0.  1.
         12    1    4    4    0    0 -0.14102046947E+02 -0.32781028586E+02  0.14916967224E+02  0.38677893873E+02  0.00000000000E+00 0. -1.
</event>
<event>
 8    1  0.2521748E-006  0.9118800E+02  0.7816164E-02  0.1184000E+00
        -11   -1    0    0    0    0  0.00000000000E+00  0.00000000000E+00  0.45593999997E+02  0.45594000000E+02  0.51100000000E-03 0. -1.
         11   -1    0    0    0    0 -0.00000000000E+00 -0.00000000000E+00 -0.45593999997E+02  0.45594000000E+02  0.51100000000E-03 0.  1.
         23    2    1    2    0    0 -0.88817841970E-15 -0.88817841970E-15  0.71054273576E-14  0.91188000000E+02  0.91188000000E+02 0.  0.
    9900012    2    3    3    0    0 -0.71431855361E+01 -0.42312866678E+01  0.35872594011E+02  0.54367192193E+02  0.40000246241E+02 0.  0.
        -12    1    3    3    0    0  0.71431855361E+01  0.42312866678E+01 -0.35872594011E+02  0.36820807807E+02  0.00000000000E+00 0.  1.
         11    1    4    4    0    0  0.22535080638E+01 -0.22983394953E+01  0.82477256404E+01  0.88535665994E+01  0.51100000000E-03 0. -1.
        -11    1    4    4    0    0  0.92253886520E+01  0.13377981338E+01  0.24675799833E+02  0.26377880834E+02  0.51100000000E-03 0.  1.
         12    1    4    4    0    0 -0.18622082252E+02 -0.32707453063E+01  0.29490685380E+01  0.19135744759E+02  0.00000000000E+00 0. -1.
</event>
<event>
 8    1  0.2521748E-006  0.9118800E+02  0.7816164E-02  0.1184000E+00
        -11   -1    0    0    0    0  0.00000000000E+00  0.00000000000E+00  0.45593999997E+02  0.45594000000E+02  0.51100000000E-03 0. -1.
         11   -1    0    0    0    0 -0.00000000000E+00 -0.00000000000E+00 -0.45593999997E+02  0.45594000000E+02  0.51100000000E-03 0.  1.
         23    2    1    2    0    0  0.35527136788E-14  0.00000000000E+00  0.00000000000E+00  0.91188000000E+02  0.91188000000E+02 0.  0.
    9900012    2    3    3    0    0 -0.15022064246E+02  0.23661305693E+02 -0.23879991477E+02  0.54367166301E+02  0.40000187217E+02 0.  0.
        -12    1    3    3    0    0  0.15022064246E+02 -0.23661305693E+02  0.23879991477E+02  0.36820833699E+02  0.00000000000E+00 0.  1.
         11    1    4    4    0    0  0.90036804394E+01  0.16720526299E+02 -0.59013590711E+01  0.19886384797E+02  0.51100000000E-03 0. -1.
        -11    1    4    4    0    0 -0.17158672885E+02  0.44314461784E+01 -0.20168958196E+02  0.26848550154E+02  0.51100000000E-03 0.  1.
         12    1    4    4    0    0 -0.68670718006E+01  0.25093332159E+01  0.21903257904E+01  0.76322313494E+01  0.00000000000E+00 0. -1.
</event>
<event>
 8    1  0.2521748E-006  0.9118800E+02  0.7816164E-02  0.1184000E+00
        -11   -1    0    0    0    0  0.00000000000E+00  0.00000000000E+00  0.45593999997E+02  0.45594000000E+02  0.51100000000E-03 0.  1.
         11   -1    0    0    0    0 -0.00000000000E+00 -0.00000000000E+00 -0.45593999997E+02  0.45594000000E+02  0.51100000000E-03 0. -1.
         23    2    1    2    0    0  0.00000000000E+00 -0.17763568394E-14 -0.71054273576E-14  0.91188000000E+02  0.91188000000E+02 0.  0.
    9900012    2    3    3    0    0  0.15603762929E+02 -0.14008489863E+02 -0.30266559616E+02  0.54367084248E+02  0.40000000161E+02 0.  0.
        -12    1    3    3    0    0 -0.15603762929E+02  0.14008489863E+02  0.30266559616E+02  0.36820915752E+02  0.00000000000E+00 0.  1.
         11    1    4    4    0    0  0.15956685267E+02 -0.10373559865E+02 -0.16083565936E+02  0.24918018430E+02  0.51100000000E-03 0. -1.
        -11    1    4    4    0    0 -0.87082859307E+01 -0.11299916100E+02 -0.97252318531E+01  0.17265644574E+02  0.51100000000E-03 0.  1.
        -12    1    4    4    0    0  0.83553635922E+01  0.76649861021E+01 -0.44577618272E+01  0.12183421244E+02  0.00000000000E+00 0.  1.
</event>
<event>
 8    1  0.2521748E-006  0.9118800E+02  0.7816164E-02  0.1184000E+00
        -11   -1    0    0    0    0  0.00000000000E+00  0.00000000000E+00  0.45593999997E+02  0.45594000000E+02  0.51100000000E-03 0. -1.
         11   -1    0    0    0    0 -0.00000000000E+00 -0.00000000000E+00 -0.45593999997E+02  0.45594000000E+02  0.51100000000E-03 0.  1.
         23    2    1    2    0    0  0.88817841970E-15 -0.35527136788E-14  0.71054273576E-14  0.91188000000E+02  0.91188000000E+02 0.  0.
    9900012    2    3    3    0    0 -0.47271803967E+01  0.12467347301E+02 -0.34322013028E+02  0.54367060828E+02  0.39999946769E+02 0.  0.
         12    1    3    3    0    0  0.47271803967E+01 -0.12467347301E+02  0.34322013028E+02  0.36820939172E+02  0.00000000000E+00 0. -1.
         11    1    4    4    0    0  0.54186869703E+00  0.62287880929E+00 -0.33942167171E+01  0.34931800812E+01  0.51100000000E-03 0. -1.
        -11    1    4    4    0    0 -0.42724455541E+01 -0.49633480372E+01 -0.33239578236E+02  0.33878579904E+02  0.51100000000E-03 0.  1.
         12    1    4    4    0    0 -0.99660353959E+00  0.16807816529E+02  0.23117819247E+01  0.16995300843E+02  0.00000000000E+00 0. -1.
</event>
<event>
 8    1  0.2521748E-006  0.9118800E+02  0.7816164E-02  0.1184000E+00
        -11   -1    0    0    0    0  0.00000000000E+00  0.00000000000E+00  0.45593999997E+02  0.45594000000E+02  0.51100000000E-03 0.  1.
         11   -1    0    0    0    0 -0.00000000000E+00 -0.00000000000E+00 -0.45593999997E+02  0.45594000000E+02  0.51100000000E-03 0. -1.
         23    2    1    2    0    0  0.00000000000E+00 -0.17763568394E-14 -0.35527136788E-14  0.91188000000E+02  0.91188000000E+02 0.  0.
    9900012    2    3    3    0    0 -0.31764692982E+02 -0.14404822481E+02 -0.11801884272E+02  0.54367094209E+02  0.40000022867E+02 0.  0.
        -12    1    3    3    0    0  0.31764692982E+02  0.14404822481E+02  0.11801884272E+02  0.36820905791E+02  0.00000000000E+00 0.  1.
         11    1    4    4    0    0 -0.12874848668E+02  0.68126053511E+01  0.11518167310E+01  0.14611639263E+02  0.51100000000E-03 0. -1.
        -11    1    4    4    0    0 -0.11183657412E+02 -0.22455952053E+02 -0.17625107953E+02  0.30659230361E+02  0.51100000000E-03 0.  1.
        -12    1    4    4    0    0 -0.77061869017E+01  0.12385242209E+01  0.46714069496E+01  0.90962245849E+01  0.00000000000E+00 0.  1.
</event>
<event>
 8    1  0.2521748E-006  0.9118800E+02  0.7816164E-02  0.1184000E+00
        -11   -1    0    0    0    0  0.00000000000E+00  0.00000000000E+00  0.45593999997E+02  0.45594000000E+02  0.51100000000E-03 0.  1.
         11   -1    0    0    0    0 -0.00000000000E+00 -0.00000000000E+00 -0.45593999997E+02  0.45594000000E+02  0.51100000000E-03 0. -1.
         23    2    1    2    0    0 -0.26645352591E-14  0.35527136788E-14 -0.35527136788E-14  0.91188000000E+02  0.91188000000E+02 0.  0.
    9900012    2    3    3    0    0  0.35320703393E+01 -0.26083077309E+02  0.25748361627E+02  0.54367074303E+02  0.39999977487E+02 0.  0.
         12    1    3    3    0    0 -0.35320703393E+01  0.26083077309E+02 -0.25748361627E+02  0.36820925697E+02  0.00000000000E+00 0. -1.
         11    1    4    4    0    0 -0.38656121634E+01  0.26303997104E+01 -0.24001368231E+01  0.52557223162E+01  0.51100000000E-03 0. -1.
        -11    1    4    4    0    0 -0.96371992878E+01 -0.74781267897E+01  0.43458267191E+01  0.12949293437E+02  0.51100000000E-03 0.  1.
        -12    1    4    4    0    0  0.17034881791E+02 -0.21235350229E+02  0.23802671731E+02  0.36162058549E+02  0.00000000000E+00 0.  1.
</event>
<event>
 8    1  0.2521748E-006  0.9118800E+02  0.7816164E-02  0.1184000E+00
        -11   -1    0    0    0    0  0.00000000000E+00  0.00000000000E+00  0.45593999997E+02  0.45594000000E+02  0.51100000000E-03 0.  1.
         11   -1    0    0    0    0 -0.00000000000E+00 -0.00000000000E+00 -0.45593999997E+02  0.45594000000E+02  0.51100000000E-03 0. -1.
         23    2    1    2    0    0  0.88817841970E-15  0.00000000000E+00  0.00000000000E+00  0.91188000000E+02  0.91188000000E+02 0.  0.
    9900012    2    3    3    0    0  0.45056176427E+01 -0.23970193854E+02  0.27584601044E+02  0.54367068474E+02  0.39999964199E+02 0.  0.
         12    1    3    3    0    0 -0.45056176427E+01  0.23970193854E+02 -0.27584601044E+02  0.36820931526E+02  0.00000000000E+00 0. -1.
         11    1    4    4    0    0  0.18012855419E+02 -0.15228204413E+02  0.43337190250E+01  0.23982124402E+02  0.51100000000E-03 0. -1.
        -11    1    4    4    0    0 -0.31159881188E+01 -0.38278655819E+01  0.58414086020E+00  0.49702271251E+01  0.51100000000E-03 0.  1.
        -12    1    4    4    0    0 -0.10391249657E+02 -0.49141238595E+01  0.22666741159E+02  0.25414716947E+02  0.00000000000E+00 0.  1.
</event>
<event>
 8    1  0.2521748E-006  0.9118800E+02  0.7816164E-02  0.1184000E+00
        -11   -1    0    0    0    0  0.00000000000E+00  0.00000000000E+00  0.45593999997E+02  0.45594000000E+02  0.51100000000E-03 0. -1.
         11   -1    0    0    0    0 -0.00000000000E+00 -0.00000000000E+00 -0.45593999997E+02  0.45594000000E+02  0.51100000000E-03 0.  1.
         23    2    1    2    0    0  0.00000000000E+00  0.88817841970E-15  0.17763568394E-14  0.91188000000E+02  0.91188000000E+02 0.  0.
    9900012    2    3    3    0    0  0.32857841080E+02 -0.62210591985E+01 -0.15409106420E+02  0.54367083951E+02  0.39999999484E+02 0.  0.
        -12    1    3    3    0    0 -0.32857841080E+02  0.62210591985E+01  0.15409106420E+02  0.36820916049E+02  0.00000000000E+00 0.  1.
         11    1    4    4    0    0  0.33161637871E+01 -0.63310796011E-01 -0.95346188786E+01  0.10095043732E+02  0.51100000000E-03 0. -1.
        -11    1    4    4    0    0 -0.46606907680E+01  0.13918977542E+01 -0.78012222665E+01  0.91933936555E+01  0.51100000000E-03 0.  1.
         12    1    4    4    0    0  0.34202368061E+02 -0.75496461567E+01  0.19267347248E+01  0.35078646564E+02  0.00000000000E+00 0. -1.
</event>
<event>
 8    1  0.2521748E-006  0.9118800E+02  0.7816164E-02  0.1184000E+00
        -11   -1    0    0    0    0  0.00000000000E+00  0.00000000000E+00  0.45593999997E+02  0.45594000000E+02  0.51100000000E-03 0. -1.
         11   -1    0    0    0    0 -0.00000000000E+00 -0.00000000000E+00 -0.45593999997E+02  0.45594000000E+02  0.51100000000E-03 0.  1.
         23    2    1    2    0    0 -0.35527136788E-14  0.00000000000E+00  0.35527136788E-14  0.91188000000E+02  0.91188000000E+02 0.  0.
    9900012    2    3    3    0    0  0.26818574170E+02 -0.86712702033E+01 -0.23692830146E+02  0.54367122120E+02  0.40000086498E+02 0.  0.
         12    1    3    3    0    0 -0.26818574170E+02  0.86712702033E+01  0.23692830146E+02  0.36820877880E+02  0.00000000000E+00 0. -1.
         11    1    4    4    0    0  0.39434604708E+01  0.28682994582E+00 -0.24609030853E+02  0.24924637444E+02  0.51100000000E-03 0. -1.
        -11    1    4    4    0    0  0.21209118513E+02 -0.26966519691E+01  0.47675321282E+01  0.21904976668E+02  0.51100000000E-03 0.  1.
        -12    1    4    4    0    0  0.16659951864E+01 -0.62614481800E+01 -0.38513314213E+01  0.75375080092E+01  0.00000000000E+00 0.  1.
</event>
<event>
 8    1  0.2521748E-006  0.9118800E+02  0.7816164E-02  0.1184000E+00
        -11   -1    0    0    0    0  0.00000000000E+00  0.00000000000E+00  0.45593999997E+02  0.45594000000E+02  0.51100000000E-03 0.  1.
         11   -1    0    0    0    0 -0.00000000000E+00 -0.00000000000E+00 -0.45593999997E+02  0.45594000000E+02  0.51100000000E-03 0. -1.
         23    2    1    2    0    0  0.00000000000E+00  0.00000000000E+00 -0.71054273576E-14  0.91188000000E+02  0.91188000000E+02 0.  0.
    9900012    2    3    3    0    0 -0.79160464335E+01  0.19759144154E+02  0.30044862726E+02  0.54367063767E+02  0.39999953469E+02 0.  0.
         12    1    3    3    0    0  0.79160464335E+01 -0.19759144154E+02 -0.30044862726E+02  0.36820936233E+02  0.00000000000E+00 0. -1.
         11    1    4    4    0    0  0.36540225355E+01  0.24563036057E+02  0.83561422042E+01  0.26201521594E+02  0.51100000000E-03 0. -1.
        -11    1    4    4    0    0 -0.26674837916E+01 -0.16567438034E+01 -0.12342364475E+01  0.33739605330E+01  0.51100000000E-03 0.  1.
        -12    1    4    4    0    0 -0.89025851774E+01 -0.31471480994E+01  0.22922956969E+02  0.24791581640E+02  0.00000000000E+00 0.  1.
</event>
<event>
 8    1  0.2521748E-006  0.9118800E+02  0.7816164E-02  0.1184000E+00
        -11   -1    0    0    0    0  0.00000000000E+00  0.00000000000E+00  0.45593999997E+02  0.45594000000E+02  0.51100000000E-03 0.  1.
         11   -1    0    0    0    0 -0.00000000000E+00 -0.00000000000E+00 -0.45593999997E+02  0.45594000000E+02  0.51100000000E-03 0. -1.
         23    2    1    2    0    0 -0.22204460493E-14  0.00000000000E+00  0.35527136788E-14  0.91188000000E+02  0.91188000000E+02 0.  0.
    9900012    2    3    3    0    0  0.25959466543E+01 -0.18845971315E+02 -0.31525705431E+02  0.54367086421E+02  0.40000005115E+02 0.  0.
        -12    1    3    3    0    0 -0.25959466543E+01  0.18845971315E+02  0.31525705431E+02  0.36820913579E+02  0.00000000000E+00 0.  1.
         11    1    4    4    0    0  0.33846849390E+01 -0.13363939778E+02 -0.17826607977E+02  0.22535281910E+02  0.51100000000E-03 0. -1.
        -11    1    4    4    0    0 -0.64041011706E+01  0.10075810883E+02 -0.78476310503E+01  0.14287049735E+02  0.51100000000E-03 0.  1.
        -12    1    4    4    0    0  0.56153628858E+01 -0.15557842420E+02 -0.58514664040E+01  0.17544754777E+02  0.00000000000E+00 0.  1.
</event>
<event>
 8    1  0.2521748E-006  0.9118800E+02  0.7816164E-02  0.1184000E+00
        -11   -1    0    0    0    0  0.00000000000E+00  0.00000000000E+00  0.45593999997E+02  0.45594000000E+02  0.51100000000E-03 0.  1.
         11   -1    0    0    0    0 -0.00000000000E+00 -0.00000000000E+00 -0.45593999997E+02  0.45594000000E+02  0.51100000000E-03 0. -1.
         23    2    1    2    0    0  0.00000000000E+00  0.17763568394E-14  0.00000000000E+00  0.91188000000E+02  0.91188000000E+02 0.  0.
    9900012    2    3    3    0    0 -0.15381168899E+02 -0.77680850037E+01  0.32540074273E+02  0.54367082914E+02  0.39999997119E+02 0.  0.
         12    1    3    3    0    0  0.15381168899E+02  0.77680850037E+01 -0.32540074273E+02  0.36820917086E+02  0.00000000000E+00 0. -1.
         11    1    4    4    0    0  0.26443199337E+01 -0.19280681090E+02  0.11252026282E+02  0.22479884050E+02  0.51100000000E-03 0. -1.
        -11    1    4    4    0    0 -0.60217998233E+01  0.62174537202E+01  0.15046530625E+02  0.17358481731E+02  0.51100000000E-03 0.  1.
         12    1    4    4    0    0 -0.12003689009E+02  0.52951423659E+01  0.62415173661E+01  0.14528717133E+02  0.00000000000E+00 0. -1.
</event>
<event>
 8    1  0.2521748E-006  0.9118800E+02  0.7816164E-02  0.1184000E+00
        -11   -1    0    0    0    0  0.00000000000E+00  0.00000000000E+00  0.45593999997E+02  0.45594000000E+02  0.51100000000E-03 0.  1.
         11   -1    0    0    0    0 -0.00000000000E+00 -0.00000000000E+00 -0.45593999997E+02  0.45594000000E+02  0.51100000000E-03 0. -1.
         23    2    1    2    0    0 -0.71054273576E-14 -0.44408920985E-15  0.00000000000E+00  0.91188000000E+02  0.91188000000E+02 0.  0.
    9900012    2    3    3    0    0  0.34182188674E+02 -0.26281865305E+01  0.13433201166E+02  0.54367078223E+02  0.39999986425E+02 0.  0.
         12    1    3    3    0    0 -0.34182188674E+02  0.26281865305E+01 -0.13433201166E+02  0.36820921777E+02  0.00000000000E+00 0. -1.
         11    1    4    4    0    0  0.18297196736E+02 -0.78053171139E+01  0.58292916867E+01  0.20728989977E+02  0.51100000000E-03 0. -1.
        -11    1    4    4    0    0  0.20847955191E+02  0.98842041268E+01 -0.44324520392E+00  0.23076637395E+02  0.51100000000E-03 0.  1.
         12    1    4    4    0    0 -0.49629632532E+01 -0.47070735433E+01  0.80471546829E+01  0.10561450851E+02  0.00000000000E+00 0. -1.
</event>
<event>
 8    1  0.2521748E-006  0.9118800E+02  0.7816164E-02  0.1184000E+00
        -11   -1    0    0    0    0  0.00000000000E+00  0.00000000000E+00  0.45593999997E+02  0.45594000000E+02  0.51100000000E-03 0.  1.
         11   -1    0    0    0    0 -0.00000000000E+00 -0.00000000000E+00 -0.45593999997E+02  0.45594000000E+02  0.51100000000E-03 0. -1.
         23    2    1    2    0    0  0.00000000000E+00  0.00000000000E+00 -0.17763568394E-14  0.91188000000E+02  0.91188000000E+02 0.  0.
    9900012    2    3    3    0    0  0.28070384533E+02  0.19252349071E+02  0.14042087426E+02  0.54367086760E+02  0.40000005887E+02 0.  0.
         12    1    3    3    0    0 -0.28070384533E+02 -0.19252349071E+02 -0.14042087426E+02  0.36820913240E+02  0.00000000000E+00 0. -1.
         11    1    4    4    0    0  0.11696270605E+02  0.15938309293E+02  0.92894582782E+01  0.21843225141E+02  0.51100000000E-03 0.  1.
        -11    1    4    4    0    0 -0.18449687021E+00  0.35969188950E+01 -0.98228384943E+01  0.10462314322E+02  0.51100000000E-03 0. -1.
         12    1    4    4    0    0  0.16558610798E+02 -0.28287911701E+00  0.14575467642E+02  0.22061547297E+02  0.00000000000E+00 0. -1.
</event>
<event>
 8    1  0.2521748E-006  0.9118800E+02  0.7816164E-02  0.1184000E+00
        -11   -1    0    0    0    0  0.00000000000E+00  0.00000000000E+00  0.45593999997E+02  0.45594000000E+02  0.51100000000E-03 0. -1.
         11   -1    0    0    0    0 -0.00000000000E+00 -0.00000000000E+00 -0.45593999997E+02  0.45594000000E+02  0.51100000000E-03 0.  1.
         23    2    1    2    0    0 -0.22204460493E-14  0.71054273576E-14 -0.88817841970E-15  0.91188000000E+02  0.91188000000E+02 0.  0.
    9900012    2    3    3    0    0  0.36065621171E+01 -0.36350330658E+02  0.46286759689E+01  0.54367102802E+02  0.40000042458E+02 0.  0.
        -12    1    3    3    0    0 -0.36065621171E+01  0.36350330658E+02 -0.46286759689E+01  0.36820897198E+02  0.00000000000E+00 0.  1.
         11    1    4    4    0    0 -0.43749738322E+01  0.74386102621E+01 -0.12213314146E+01  0.87157885099E+01  0.51100000000E-03 0. -1.
        -11    1    4    4    0    0  0.50175141623E+01 -0.20715671132E+02 -0.11861627649E+01  0.21347633620E+02  0.51100000000E-03 0.  1.
         12    1    4    4    0    0  0.29640217871E+01 -0.23073269788E+02  0.70361701484E+01  0.24303680672E+02  0.00000000000E+00 0. -1.
</event>
<event>
 8    1  0.2521748E-006  0.9118800E+02  0.7816164E-02  0.1184000E+00
        -11   -1    0    0    0    0  0.00000000000E+00  0.00000000000E+00  0.45593999997E+02  0.45594000000E+02  0.51100000000E-03 0. -1.
         11   -1    0    0    0    0 -0.00000000000E+00 -0.00000000000E+00 -0.45593999997E+02  0.45594000000E+02  0.51100000000E-03 0.  1.
         23    2    1    2    0    0  0.35527136788E-14  0.17763568394E-14  0.00000000000E+00  0.91188000000E+02  0.91188000000E+02 0.  0.
    9900012    2    3    3    0    0  0.21311138304E+02  0.54078122925E+01  0.29536026566E+02  0.54367001712E+02  0.39999812003E+02 0.  0.
        -12    1    3    3    0    0 -0.21311138304E+02 -0.54078122925E+01 -0.29536026566E+02  0.36820998288E+02  0.00000000000E+00 0.  1.
         11    1    4    4    0    0  0.18252187858E+02 -0.97855404647E+01  0.14179424879E+02  0.25098909418E+02  0.51100000000E-03 0. -1.
        -11    1    4    4    0    0  0.53093914574E+01  0.68995673859E+01  0.18233784064E+02  0.20205557387E+02  0.51100000000E-03 0.  1.
        -12    1    4    4    0    0 -0.22504410110E+01  0.82937853713E+01 -0.28771823773E+01  0.90625349082E+01  0.00000000000E+00 0.  1.
</event>
<event>
 8    1  0.2521748E-006  0.9118800E+02  0.7816164E-02  0.1184000E+00
        -11   -1    0    0    0    0  0.00000000000E+00  0.00000000000E+00  0.45593999997E+02  0.45594000000E+02  0.51100000000E-03 0. -1.
         11   -1    0    0    0    0 -0.00000000000E+00 -0.00000000000E+00 -0.45593999997E+02  0.45594000000E+02  0.51100000000E-03 0.  1.
         23    2    1    2    0    0  0.00000000000E+00  0.00000000000E+00  0.00000000000E+00  0.91188000000E+02  0.91188000000E+02 0.  0.
    9900012    2    3    3    0    0 -0.64122752657E+01  0.21484140577E+02 -0.29207701135E+02  0.54367144822E+02  0.40000138251E+02 0.  0.
         12    1    3    3    0    0  0.64122752657E+01 -0.21484140577E+02  0.29207701135E+02  0.36820855178E+02  0.00000000000E+00 0. -1.
         11    1    4    4    0    0  0.39659975077E+01 -0.17324911918E+01 -0.11777472722E+02  0.12547490823E+02  0.51100000000E-03 0. -1.
        -11    1    4    4    0    0 -0.25103363164E+01  0.15267548325E+02 -0.24216480148E+02  0.28737392563E+02  0.51100000000E-03 0.  1.
         12    1    4    4    0    0 -0.78679364570E+01  0.79490834437E+01  0.67862517350E+01  0.13082261437E+02  0.00000000000E+00 0. -1.
</event>
<event>
 8    1  0.2521748E-006  0.9118800E+02  0.7816164E-02  0.1184000E+00
        -11   -1    0    0    0    0  0.00000000000E+00  0.00000000000E+00  0.45593999997E+02  0.45594000000E+02  0.51100000000E-03 0.  1.
         11   -1    0    0    0    0 -0.00000000000E+00 -0.00000000000E+00 -0.45593999997E+02  0.45594000000E+02  0.51100000000E-03 0. -1.
         23    2    1    2    0    0  0.00000000000E+00  0.35527136788E-14  0.00000000000E+00  0.91188000000E+02  0.91188000000E+02 0.  0.
    9900012    2    3    3    0    0 -0.15458900238E+02 -0.31147828831E+02  0.12108496119E+02  0.54367075029E+02  0.39999979143E+02 0.  0.
         12    1    3    3    0    0  0.15458900238E+02  0.31147828831E+02 -0.12108496119E+02  0.36820924971E+02  0.00000000000E+00 0. -1.
         11    1    4    4    0    0  0.72205410112E+01 -0.10369229125E+02 -0.29548404644E+01  0.12976448188E+02  0.51100000000E-03 0. -1.
        -11    1    4    4    0    0 -0.13526556135E+02 -0.14619955855E+02  0.20932734070E+02  0.28894466356E+02  0.51100000000E-03 0.  1.
        -12    1    4    4    0    0 -0.91528851141E+01 -0.61586438513E+01 -0.58693974871E+01  0.12496160485E+02  0.00000000000E+00 0.  1.
</event>
<event>
 8    1  0.2521748E-006  0.9118800E+02  0.7816164E-02  0.1184000E+00
        -11   -1    0    0    0    0  0.00000000000E+00  0.00000000000E+00  0.45593999997E+02  0.45594000000E+02  0.51100000000E-03 0. -1.
         11   -1    0    0    0    0 -0.00000000000E+00 -0.00000000000E+00 -0.45593999997E+02  0.45594000000E+02  0.51100000000E-03 0.  1.
         23    2    1    2    0    0  0.35527136788E-14 -0.88817841970E-15  0.00000000000E+00  0.91188000000E+02  0.91188000000E+02 0.  0.
    9900012    2    3    3    0    0  0.10783678003E+02  0.65142904328E+01 -0.34598518633E+02  0.54367065972E+02  0.39999958496E+02 0.  0.
         12    1    3    3    0    0 -0.10783678003E+02 -0.65142904328E+01  0.34598518633E+02  0.36820934028E+02  0.00000000000E+00 0. -1.
         11    1    4    4    0    0 -0.61577277363E+01  0.13204991878E+02 -0.30712800407E+02  0.33993610142E+02  0.51100000000E-03 0. -1.
        -11    1    4    4    0    0  0.94531268937E+01 -0.59383094624E+01 -0.58386545500E+01  0.12598214737E+02  0.51100000000E-03 0.  1.
         12    1    4    4    0    0  0.74882788457E+01 -0.75239198242E+00  0.19529363248E+01  0.77752410931E+01  0.00000000000E+00 0. -1.
</event>
<event>
 8    1  0.2521748E-006  0.9118800E+02  0.7816164E-02  0.1184000E+00
        -11   -1    0    0    0    0  0.00000000000E+00  0.00000000000E+00  0.45593999997E+02  0.45594000000E+02  0.51100000000E-03 0.  1.
         11   -1    0    0    0    0 -0.00000000000E+00 -0.00000000000E+00 -0.45593999997E+02  0.45594000000E+02  0.51100000000E-03 0. -1.
         23    2    1    2    0    0  0.88817841970E-15  0.17763568394E-14 -0.71054273576E-14  0.91188000000E+02  0.91188000000E+02 0.  0.
    9900012    2    3    3    0    0  0.29242208087E+01  0.15083056271E+02  0.33462381355E+02  0.54367073616E+02  0.39999975923E+02 0.  0.
         12    1    3    3    0    0 -0.29242208087E+01 -0.15083056271E+02 -0.33462381355E+02  0.36820926384E+02  0.00000000000E+00 0. -1.
         11    1    4    4    0    0  0.85594802481E+01  0.82167445243E+01  0.12443953355E+02  0.17193939864E+02  0.51100000000E-03 0. -1.
        -11    1    4    4    0    0  0.66385285801E+01  0.11288024585E+02  0.81121196082E+00  0.13120504024E+02  0.51100000000E-03 0.  1.
        -12    1    4    4    0    0 -0.12273788019E+02 -0.44217128384E+01  0.20207216040E+02  0.24052629728E+02  0.00000000000E+00 0.  1.
</event>
<event>
 8    1  0.2521748E-006  0.9118800E+02  0.7816164E-02  0.1184000E+00
        -11   -1    0    0    0    0  0.00000000000E+00  0.00000000000E+00  0.45593999997E+02  0.45594000000E+02  0.51100000000E-03 0.  1.
         11   -1    0    0    0    0 -0.00000000000E+00 -0.00000000000E+00 -0.45593999997E+02  0.45594000000E+02  0.51100000000E-03 0. -1.
         23    2    1    2    0    0  0.00000000000E+00  0.71054273576E-14  0.17763568394E-14  0.91188000000E+02  0.91188000000E+02 0.  0.
    9900012    2    3    3    0    0  0.17651053745E+02  0.32231371390E+02  0.23149585760E+01  0.54367081581E+02  0.39999994080E+02 0.  0.
         12    1    3    3    0    0 -0.17651053745E+02 -0.32231371390E+02 -0.23149585760E+01  0.36820918419E+02  0.00000000000E+00 0. -1.
         11    1    4    4    0    0  0.11142234030E+02  0.22219586256E+02  0.14163632704E+02  0.28608877717E+02  0.51100000000E-03 0.  1.
        -11    1    4    4    0    0  0.62000296107E+00  0.13568042739E+02 -0.12979219629E+02  0.18786599742E+02  0.51100000000E-03 0. -1.
        -12    1    4    4    0    0  0.58888167533E+01 -0.35562576043E+01  0.11305455015E+01  0.69716041219E+01  0.00000000000E+00 0.  1.
</event>
<event>
 8    1  0.2521748E-006  0.9118800E+02  0.7816164E-02  0.1184000E+00
        -11   -1    0    0    0    0  0.00000000000E+00  0.00000000000E+00  0.45593999997E+02  0.45594000000E+02  0.51100000000E-03 0.  1.
         11   -1    0    0    0    0 -0.00000000000E+00 -0.00000000000E+00 -0.45593999997E+02  0.45594000000E+02  0.51100000000E-03 0. -1.
         23    2    1    2    0    0  0.44408920985E-15 -0.35527136788E-14  0.00000000000E+00  0.91188000000E+02  0.91188000000E+02 0.  0.
    9900012    2    3    3    0    0 -0.23932047902E+01 -0.25142223593E+02  0.26794047469E+02  0.54367084528E+02  0.40000000799E+02 0.  0.
         12    1    3    3    0    0  0.23932047902E+01  0.25142223593E+02 -0.26794047469E+02  0.36820915472E+02  0.00000000000E+00 0. -1.
         11    1    4    4    0    0  0.66989258810E+01  0.48267603758E+01  0.14026357216E+02  0.16276115037E+02  0.51100000000E-03 0. -1.
        -11    1    4    4    0    0 -0.61106732999E+01 -0.56638988694E+01  0.10636266555E+02  0.13511115612E+02  0.51100000000E-03 0.  1.
        -12    1    4    4    0    0 -0.29814573714E+01 -0.24305085100E+02  0.21314236981E+01  0.24579853880E+02  0.00000000000E+00 0.  1.
</event>
<event>
 8    1  0.2521748E-006  0.9118800E+02  0.7816164E-02  0.1184000E+00
        -11   -1    0    0    0    0  0.00000000000E+00  0.00000000000E+00  0.45593999997E+02  0.45594000000E+02  0.51100000000E-03 0. -1.
         11   -1    0    0    0    0 -0.00000000000E+00 -0.00000000000E+00 -0.45593999997E+02  0.45594000000E+02  0.51100000000E-03 0.  1.
         23    2    1    2    0    0  0.00000000000E+00  0.00000000000E+00 -0.35527136788E-14  0.91188000000E+02  0.91188000000E+02 0.  0.
    9900012    2    3    3    0    0  0.17088935861E+01 -0.32799068803E+02  0.16645796957E+02  0.54367057753E+02  0.39999939759E+02 0.  0.
        -12    1    3    3    0    0 -0.17088935861E+01  0.32799068803E+02 -0.16645796957E+02  0.36820942247E+02  0.00000000000E+00 0.  1.
         11    1    4    4    0    0  0.56078056779E+01 -0.18936981712E+02  0.87712357149E+01  0.21609982349E+02  0.51100000000E-03 0. -1.
        -11    1    4    4    0    0 -0.75327252964E+01 -0.16564090095E+02 -0.51964467753E+01  0.18923902621E+02  0.51100000000E-03 0.  1.
         12    1    4    4    0    0  0.36338132046E+01  0.27020030040E+01  0.13071008018E+02  0.13833172783E+02  0.00000000000E+00 0. -1.
</event>
<event>
 8    1  0.2521748E-006  0.9118800E+02  0.7816164E-02  0.1184000E+00
        -11   -1    0    0    0    0  0.00000000000E+00  0.00000000000E+00  0.45593999997E+02  0.45594000000E+02  0.51100000000E-03 0. -1.
         11   -1    0    0    0    0 -0.00000000000E+00 -0.00000000000E+00 -0.45593999997E+02  0.45594000000E+02  0.51100000000E-03 0.  1.
         23    2    1    2    0    0  0.00000000000E+00  0.00000000000E+00  0.00000000000E+00  0.91188000000E+02  0.91188000000E+02 0.  0.
    9900012    2    3    3    0    0 -0.31846735136E+02  0.25243760240E+01 -0.18308283740E+02  0.54367078411E+02  0.39999986853E+02 0.  0.
        -12    1    3    3    0    0  0.31846735136E+02 -0.25243760240E+01  0.18308283740E+02  0.36820921589E+02  0.00000000000E+00 0.  1.
         11    1    4    4    0    0 -0.19994340170E+02 -0.96664995075E+01  0.23219105956E+01  0.22329489932E+02  0.51100000000E-03 0. -1.
        -11    1    4    4    0    0 -0.70525692886E+01  0.14209257951E+02 -0.67992015201E+01  0.17258936429E+02  0.51100000000E-03 0.  1.
        -12    1    4    4    0    0 -0.47998256781E+01 -0.20183824199E+01 -0.13830992816E+02  0.14778652050E+02  0.00000000000E+00 0.  1.
</event>
<event>
 8    1  0.2521748E-006  0.9118800E+02  0.7816164E-02  0.1184000E+00
        -11   -1    0    0    0    0  0.00000000000E+00  0.00000000000E+00  0.45593999997E+02  0.45594000000E+02  0.51100000000E-03 0. -1.
         11   -1    0    0    0    0 -0.00000000000E+00 -0.00000000000E+00 -0.45593999997E+02  0.45594000000E+02  0.51100000000E-03 0.  1.
         23    2    1    2    0    0  0.00000000000E+00  0.17763568394E-14  0.00000000000E+00  0.91188000000E+02  0.91188000000E+02 0.  0.
    9900012    2    3    3    0    0 -0.23124342830E+02  0.99624480519E+01 -0.26866241165E+02  0.54367075014E+02  0.39999979110E+02 0.  0.
         12    1    3    3    0    0  0.23124342830E+02 -0.99624480519E+01  0.26866241165E+02  0.36820924986E+02  0.00000000000E+00 0. -1.
         11    1    4    4    0    0  0.12105086414E+01  0.99361796467E+01  0.29685686511E+01  0.10440564987E+02  0.51100000000E-03 0. -1.
        -11    1    4    4    0    0  0.91202867319E-01 -0.66080251294E+01 -0.88659341707E+01  0.11057988201E+02  0.51100000000E-03 0.  1.
        -12    1    4    4    0    0 -0.24426054338E+02  0.66342935347E+01 -0.20968875645E+02  0.32868521827E+02  0.00000000000E+00 0.  1.
</event>
<event>
 8    1  0.2521748E-006  0.9118800E+02  0.7816164E-02  0.1184000E+00
        -11   -1    0    0    0    0  0.00000000000E+00  0.00000000000E+00  0.45593999997E+02  0.45594000000E+02  0.51100000000E-03 0.  1.
         11   -1    0    0    0    0 -0.00000000000E+00 -0.00000000000E+00 -0.45593999997E+02  0.45594000000E+02  0.51100000000E-03 0. -1.
         23    2    1    2    0    0  0.17763568394E-14  0.71054273576E-14 -0.35527136788E-14  0.91188000000E+02  0.91188000000E+02 0.  0.
    9900012    2    3    3    0    0 -0.95457360946E+01 -0.25495819981E+02  0.24791562979E+02  0.54367088699E+02  0.40000010307E+02 0.  0.
         12    1    3    3    0    0  0.95457360946E+01  0.25495819981E+02 -0.24791562979E+02  0.36820911301E+02  0.00000000000E+00 0. -1.
         11    1    4    4    0    0  0.12887417627E+02 -0.27666718147E+01  0.10308026857E+02  0.16733063795E+02  0.51100000000E-03 0. -1.
        -11    1    4    4    0    0 -0.37197987668E+01 -0.23210746206E+01  0.81124899427E+01  0.92215391118E+01  0.51100000000E-03 0.  1.
        -12    1    4    4    0    0 -0.18713354954E+02 -0.20408073546E+02  0.63710461794E+01  0.28412485793E+02  0.00000000000E+00 0.  1.
</event>
<event>
 8    1  0.2521748E-006  0.9118800E+02  0.7816164E-02  0.1184000E+00
        -11   -1    0    0    0    0  0.00000000000E+00  0.00000000000E+00  0.45593999997E+02  0.45594000000E+02  0.51100000000E-03 0.  1.
         11   -1    0    0    0    0 -0.00000000000E+00 -0.00000000000E+00 -0.45593999997E+02  0.45594000000E+02  0.51100000000E-03 0. -1.
         23    2    1    2    0    0 -0.35527136788E-14  0.00000000000E+00  0.00000000000E+00  0.91188000000E+02  0.91188000000E+02 0.  0.
    9900012    2    3    3    0    0 -0.21462521041E+02 -0.24862177046E+02  0.16643660304E+02  0.54367094454E+02  0.40000023426E+02 0.  0.
         12    1    3    3    0    0  0.21462521041E+02  0.24862177046E+02 -0.16643660304E+02  0.36820905546E+02  0.00000000000E+00 0. -1.
         11    1    4    4    0    0  0.10420200502E+02 -0.71338954474E+01  0.68558994671E+01  0.14369286709E+02  0.51100000000E-03 0. -1.
        -11    1    4    4    0    0 -0.32877789367E+02 -0.17858529953E+02  0.85054886761E+01  0.38369512163E+02  0.51100000000E-03 0.  1.
        -12    1    4    4    0    0  0.99506782352E+00  0.13024835374E+00  0.12822721609E+01  0.16282955818E+01  0.00000000000E+00 0.  1.
</event>
<event>
 8    1  0.2521748E-006  0.9118800E+02  0.7816164E-02  0.1184000E+00
        -11   -1    0    0    0    0  0.00000000000E+00  0.00000000000E+00  0.45593999997E+02  0.45594000000E+02  0.51100000000E-03 0. -1.
         11   -1    0    0    0    0 -0.00000000000E+00 -0.00000000000E+00 -0.45593999997E+02  0.45594000000E+02  0.51100000000E-03 0.  1.
         23    2    1    2    0    0 -0.35527136788E-14 -0.35527136788E-14  0.17763568394E-14  0.91188000000E+02  0.91188000000E+02 0.  0.
    9900012    2    3    3    0    0 -0.25656448505E+02  0.25907917325E+02 -0.51296762554E+01  0.54366985504E+02  0.39999775053E+02 0.  0.
         12    1    3    3    0    0  0.25656448505E+02 -0.25907917325E+02  0.51296762554E+01  0.36821014496E+02  0.00000000000E+00 0. -1.
         11    1    4    4    0    0 -0.38057251512E+01 -0.53540127664E+01  0.52027673982E+01  0.83796053302E+01  0.51100000000E-03 0.  1.
        -11    1    4    4    0    0 -0.26755142310E+01  0.12763116825E+01  0.61019356410E+01  0.67838754956E+01  0.51100000000E-03 0. -1.
        -12    1    4    4    0    0 -0.19175209123E+02  0.29985618409E+02 -0.16434379295E+02  0.39203504678E+02  0.00000000000E+00 0.  1.
</event>
<event>
 8    1  0.2521748E-006  0.9118800E+02  0.7816164E-02  0.1184000E+00
        -11   -1    0    0    0    0  0.00000000000E+00  0.00000000000E+00  0.45593999997E+02  0.45594000000E+02  0.51100000000E-03 0.  1.
         11   -1    0    0    0    0 -0.00000000000E+00 -0.00000000000E+00 -0.45593999997E+02  0.45594000000E+02  0.51100000000E-03 0. -1.
         23    2    1    2    0    0 -0.26645352591E-14 -0.35527136788E-14  0.00000000000E+00  0.91188000000E+02  0.91188000000E+02 0.  0.
    9900012    2    3    3    0    0 -0.64642971756E+01 -0.20220753857E+02  0.30085081357E+02  0.54367107224E+02  0.40000052539E+02 0.  0.
         12    1    3    3    0    0  0.64642971756E+01  0.20220753857E+02 -0.30085081357E+02  0.36820892776E+02  0.00000000000E+00 0. -1.
         11    1    4    4    0    0  0.64715012732E+01 -0.97068677963E+01  0.89926610776E+01  0.14729954673E+02  0.51100000000E-03 0. -1.
        -11    1    4    4    0    0 -0.18589559777E+02 -0.13986578650E+02  0.73839469418E+01  0.24407351101E+02  0.51100000000E-03 0.  1.
         12    1    4    4    0    0  0.56537613288E+01  0.34726925892E+01  0.13708473338E+02  0.15229801451E+02  0.00000000000E+00 0. -1.
</event>
<event>
 8    1  0.2521748E-006  0.9118800E+02  0.7816164E-02  0.1184000E+00
        -11   -1    0    0    0    0  0.00000000000E+00  0.00000000000E+00  0.45593999997E+02  0.45594000000E+02  0.51100000000E-03 0.  1.
         11   -1    0    0    0    0 -0.00000000000E+00 -0.00000000000E+00 -0.45593999997E+02  0.45594000000E+02  0.51100000000E-03 0. -1.
         23    2    1    2    0    0  0.00000000000E+00 -0.88817841970E-15  0.35527136788E-14  0.91188000000E+02  0.91188000000E+02 0.  0.
    9900012    2    3    3    0    0  0.19113443890E+02  0.45319492882E+01 -0.31143498415E+02  0.54367084813E+02  0.40000001448E+02 0.  0.
        -12    1    3    3    0    0 -0.19113443890E+02 -0.45319492882E+01  0.31143498415E+02  0.36820915187E+02  0.00000000000E+00 0.  1.
         11    1    4    4    0    0  0.19670281277E+02  0.32559579460E+01 -0.18371913278E+02  0.27111776508E+02  0.51100000000E-03 0. -1.
        -11    1    4    4    0    0 -0.65443257043E+01 -0.95638006957E+01 -0.49010134228E+01  0.12582305651E+02  0.51100000000E-03 0.  1.
         12    1    4    4    0    0  0.59874883178E+01  0.10839792038E+02 -0.78705717136E+01  0.14673002654E+02  0.00000000000E+00 0. -1.
</event>
<event>
 8    1  0.2521748E-006  0.9118800E+02  0.7816164E-02  0.1184000E+00
        -11   -1    0    0    0    0  0.00000000000E+00  0.00000000000E+00  0.45593999997E+02  0.45594000000E+02  0.51100000000E-03 0. -1.
         11   -1    0    0    0    0 -0.00000000000E+00 -0.00000000000E+00 -0.45593999997E+02  0.45594000000E+02  0.51100000000E-03 0.  1.
         23    2    1    2    0    0  0.00000000000E+00  0.22204460493E-15  0.00000000000E+00  0.91188000000E+02  0.91188000000E+02 0.  0.
    9900012    2    3    3    0    0  0.31064567443E+02 -0.13215632878E+01  0.19723689242E+02  0.54367111944E+02  0.40000063298E+02 0.  0.
        -12    1    3    3    0    0 -0.31064567443E+02  0.13215632878E+01 -0.19723689242E+02  0.36820888056E+02  0.00000000000E+00 0.  1.
         11    1    4    4    0    0  0.25381819944E+02 -0.79384336984E+01  0.25995806028E+02  0.37189211400E+02  0.51100000000E-03 0. -1.
        -11    1    4    4    0    0 -0.35403682723E+01 -0.12081433322E+01 -0.25333208101E+01  0.45179123943E+01  0.51100000000E-03 0.  1.
         12    1    4    4    0    0  0.92231157707E+01  0.78250137428E+01 -0.37387959754E+01  0.12659988149E+02  0.00000000000E+00 0. -1.
</event>
<event>
 8    1  0.2521748E-006  0.9118800E+02  0.7816164E-02  0.1184000E+00
        -11   -1    0    0    0    0  0.00000000000E+00  0.00000000000E+00  0.45593999997E+02  0.45594000000E+02  0.51100000000E-03 0. -1.
         11   -1    0    0    0    0 -0.00000000000E+00 -0.00000000000E+00 -0.45593999997E+02  0.45594000000E+02  0.51100000000E-03 0.  1.
         23    2    1    2    0    0  0.17763568394E-14 -0.35527136788E-14  0.00000000000E+00  0.91188000000E+02  0.91188000000E+02 0.  0.
    9900012    2    3    3    0    0 -0.13610740865E+02  0.29244545264E+02  0.17756239645E+02  0.54367085550E+02  0.40000003129E+02 0.  0.
        -12    1    3    3    0    0  0.13610740865E+02 -0.29244545264E+02 -0.17756239645E+02  0.36820914450E+02  0.00000000000E+00 0.  1.
         11    1    4    4    0    0 -0.95046892068E+01 -0.17603112077E+01  0.63970812061E+00  0.96874681526E+01  0.51100000000E-03 0. -1.
        -11    1    4    4    0    0 -0.35543446520E+01  0.22235406072E+02 -0.30106180397E+01  0.22718064845E+02  0.51100000000E-03 0.  1.
         12    1    4    4    0    0 -0.55170700619E+00  0.87694503999E+01  0.20127149564E+02  0.21961552552E+02  0.00000000000E+00 0. -1.
</event>
<event>
 8    1  0.2521748E-006  0.9118800E+02  0.7816164E-02  0.1184000E+00
        -11   -1    0    0    0    0  0.00000000000E+00  0.00000000000E+00  0.45593999997E+02  0.45594000000E+02  0.51100000000E-03 0. -1.
         11   -1    0    0    0    0 -0.00000000000E+00 -0.00000000000E+00 -0.45593999997E+02  0.45594000000E+02  0.51100000000E-03 0.  1.
         23    2    1    2    0    0  0.00000000000E+00  0.17763568394E-14 -0.17763568394E-14  0.91188000000E+02  0.91188000000E+02 0.  0.
    9900012    2    3    3    0    0 -0.33131002614E+02 -0.90419508154E+01 -0.13280074763E+02  0.54367073960E+02  0.39999976706E+02 0.  0.
         12    1    3    3    0    0  0.33131002614E+02  0.90419508154E+01  0.13280074763E+02  0.36820926040E+02  0.00000000000E+00 0. -1.
         11    1    4    4    0    0 -0.80855592566E+01 -0.59480663849E+01  0.35140493379E+01  0.10635050786E+02  0.51100000000E-03 0. -1.
        -11    1    4    4    0    0 -0.17801703209E+02 -0.16336063154E+02 -0.15221705866E+02  0.28556399042E+02  0.51100000000E-03 0.  1.
         12    1    4    4    0    0 -0.72437401480E+01  0.13242178723E+02 -0.15724182347E+01  0.15175624131E+02  0.00000000000E+00 0. -1.
</event>
<event>
 8    1  0.2521748E-006  0.9118800E+02  0.7816164E-02  0.1184000E+00
        -11   -1    0    0    0    0  0.00000000000E+00  0.00000000000E+00  0.45593999997E+02  0.45594000000E+02  0.51100000000E-03 0.  1.
         11   -1    0    0    0    0 -0.00000000000E+00 -0.00000000000E+00 -0.45593999997E+02  0.45594000000E+02  0.51100000000E-03 0. -1.
         23    2    1    2    0    0  0.35527136788E-14  0.00000000000E+00  0.00000000000E+00  0.91188000000E+02  0.91188000000E+02 0.  0.
    9900012    2    3    3    0    0  0.30289863659E+02  0.80076787600E+01 -0.19343742693E+02  0.54367093697E+02  0.40000021701E+02 0.  0.
        -12    1    3    3    0    0 -0.30289863659E+02 -0.80076787600E+01  0.19343742693E+02  0.36820906303E+02  0.00000000000E+00 0.  1.
         11    1    4    4    0    0 -0.43520110088E+01  0.10470523738E+01 -0.93882098515E+01  0.10400711657E+02  0.51100000000E-03 0. -1.
        -11    1    4    4    0    0  0.63932223334E+00 -0.61624165793E+01 -0.29088250972E+01  0.68443681025E+01  0.51100000000E-03 0.  1.
        -12    1    4    4    0    0  0.34002552435E+02  0.13123042965E+02 -0.70467077442E+01  0.37122013937E+02  0.00000000000E+00 0.  1.
</event>
<event>
 8    1  0.2521748E-006  0.9118800E+02  0.7816164E-02  0.1184000E+00
        -11   -1    0    0    0    0  0.00000000000E+00  0.00000000000E+00  0.45593999997E+02  0.45594000000E+02  0.51100000000E-03 0.  1.
         11   -1    0    0    0    0 -0.00000000000E+00 -0.00000000000E+00 -0.45593999997E+02  0.45594000000E+02  0.51100000000E-03 0. -1.
         23    2    1    2    0    0  0.00000000000E+00 -0.35527136788E-14  0.00000000000E+00  0.91188000000E+02  0.91188000000E+02 0.  0.
    9900012    2    3    3    0    0  0.17830836994E+02  0.31048365394E+02  0.85930251735E+01  0.54367084433E+02  0.40000000582E+02 0.  0.
         12    1    3    3    0    0 -0.17830836994E+02 -0.31048365394E+02 -0.85930251735E+01  0.36820915567E+02  0.00000000000E+00 0. -1.
         11    1    4    4    0    0  0.18480429189E+01  0.81954540392E+01 -0.67711275432E+01  0.10790222333E+02  0.51100000000E-03 0. -1.
        -11    1    4    4    0    0  0.23600133085E+02  0.19333996516E+02  0.61640107746E+01  0.31124985655E+02  0.51100000000E-03 0.  1.
        -12    1    4    4    0    0 -0.76173390099E+01  0.35189148386E+01  0.92001419420E+01  0.12451876444E+02  0.00000000000E+00 0.  1.
</event>
<event>
 8    1  0.2521748E-006  0.9118800E+02  0.7816164E-02  0.1184000E+00
        -11   -1    0    0    0    0  0.00000000000E+00  0.00000000000E+00  0.45593999997E+02  0.45594000000E+02  0.51100000000E-03 0.  1.
         11   -1    0    0    0    0 -0.00000000000E+00 -0.00000000000E+00 -0.45593999997E+02  0.45594000000E+02  0.51100000000E-03 0. -1.
         23    2    1    2    0    0 -0.17763568394E-14  0.00000000000E+00  0.88817841970E-15  0.91188000000E+02  0.91188000000E+02 0.  0.
    9900012    2    3    3    0    0 -0.14952147865E+02  0.33485161548E+02  0.33103114413E+01  0.54367069383E+02  0.39999966272E+02 0.  0.
        -12    1    3    3    0    0  0.14952147865E+02 -0.33485161548E+02 -0.33103114413E+01  0.36820930617E+02  0.00000000000E+00 0.  1.
         11    1    4    4    0    0 -0.28002365040E+01  0.17851820982E+02 -0.64371283979E+01  0.19182425788E+02  0.51100000000E-03 0. -1.
        -11    1    4    4    0    0 -0.19004343411E+02  0.18233381952E+02  0.62718553764E+01  0.27073187032E+02  0.51100000000E-03 0.  1.
        -12    1    4    4    0    0  0.68524320505E+01 -0.26000413861E+01  0.34755844629E+01  0.81114565631E+01  0.00000000000E+00 0.  1.
</event>
<event>
 8    1  0.2521748E-006  0.9118800E+02  0.7816164E-02  0.1184000E+00
        -11   -1    0    0    0    0  0.00000000000E+00  0.00000000000E+00  0.45593999997E+02  0.45594000000E+02  0.51100000000E-03 0.  1.
         11   -1    0    0    0    0 -0.00000000000E+00 -0.00000000000E+00 -0.45593999997E+02  0.45594000000E+02  0.51100000000E-03 0. -1.
         23    2    1    2    0    0  0.00000000000E+00  0.71054273576E-14  0.88817841970E-15  0.91188000000E+02  0.91188000000E+02 0.  0.
    9900012    2    3    3    0    0  0.94736439147E+01 -0.34985995476E+02 -0.64813269402E+01  0.54367117238E+02  0.40000075367E+02 0.  0.
         12    1    3    3    0    0 -0.94736439147E+01  0.34985995476E+02  0.64813269402E+01  0.36820882762E+02  0.00000000000E+00 0. -1.
         11    1    4    4    0    0 -0.16685660117E+00 -0.23446547007E+02 -0.13391950389E+02  0.27002087756E+02  0.51100000000E-03 0. -1.
        -11    1    4    4    0    0  0.10748927534E+02 -0.33850177856E+01 -0.54480333480E+01  0.12517142492E+02  0.51100000000E-03 0.  1.
        -12    1    4    4    0    0 -0.11084270186E+01 -0.81544306832E+01  0.12358656797E+02  0.14847886989E+02  0.00000000000E+00 0.  1.
</event>
<event>
 8    1  0.2521748E-006  0.9118800E+02  0.7816164E-02  0.1184000E+00
        -11   -1    0    0    0    0  0.00000000000E+00  0.00000000000E+00  0.45593999997E+02  0.45594000000E+02  0.51100000000E-03 0.  1.
         11   -1    0    0    0    0 -0.00000000000E+00 -0.00000000000E+00 -0.45593999997E+02  0.45594000000E+02  0.51100000000E-03 0. -1.
         23    2    1    2    0    0 -0.71054273576E-14  0.00000000000E+00  0.00000000000E+00  0.91188000000E+02  0.91188000000E+02 0.  0.
    9900012    2    3    3    0    0 -0.33749996500E+02  0.14647493557E+02 -0.14726593613E+01  0.54367081260E+02  0.39999993348E+02 0.  0.
        -12    1    3    3    0    0  0.33749996500E+02 -0.14647493557E+02  0.14726593613E+01  0.36820918740E+02  0.00000000000E+00 0.  1.
         11    1    4    4    0    0 -0.36952326797E+01  0.13396627653E+02 -0.64279031653E+01  0.15311509278E+02  0.51100000000E-03 0.  1.
        -11    1    4    4    0    0 -0.19578547486E+01  0.39855021302E+01 -0.70882085742E+01  0.83642168491E+01  0.51100000000E-03 0. -1.
        -12    1    4    4    0    0 -0.28096909072E+02 -0.27346362256E+01  0.12043452378E+02  0.30691355132E+02  0.00000000000E+00 0.  1.
</event>
<event>
 8    1  0.2521748E-006  0.9118800E+02  0.7816164E-02  0.1184000E+00
        -11   -1    0    0    0    0  0.00000000000E+00  0.00000000000E+00  0.45593999997E+02  0.45594000000E+02  0.51100000000E-03 0.  1.
         11   -1    0    0    0    0 -0.00000000000E+00 -0.00000000000E+00 -0.45593999997E+02  0.45594000000E+02  0.51100000000E-03 0. -1.
         23    2    1    2    0    0  0.35527136788E-14  0.00000000000E+00  0.35527136788E-14  0.91188000000E+02  0.91188000000E+02 0.  0.
    9900012    2    3    3    0    0  0.18864125040E+02 -0.18563566869E+02  0.25599161514E+02  0.54367105135E+02  0.40000047776E+02 0.  0.
         12    1    3    3    0    0 -0.18864125040E+02  0.18563566869E+02 -0.25599161514E+02  0.36820894865E+02  0.00000000000E+00 0. -1.
         11    1    4    4    0    0  0.11875770075E+02 -0.77323828776E+01 -0.15005079071E+01  0.14250445049E+02  0.51100000000E-03 0. -1.
        -11    1    4    4    0    0 -0.10054566995E+02 -0.36224082092E+01  0.13137235054E+02  0.16935262142E+02  0.51100000000E-03 0.  1.
         12    1    4    4    0    0  0.17042921960E+02 -0.72087757818E+01  0.13962434367E+02  0.23181397944E+02  0.00000000000E+00 0. -1.
</event>
<event>
 8    1  0.2521748E-006  0.9118800E+02  0.7816164E-02  0.1184000E+00
        -11   -1    0    0    0    0  0.00000000000E+00  0.00000000000E+00  0.45593999997E+02  0.45594000000E+02  0.51100000000E-03 0.  1.
         11   -1    0    0    0    0 -0.00000000000E+00 -0.00000000000E+00 -0.45593999997E+02  0.45594000000E+02  0.51100000000E-03 0. -1.
         23    2    1    2    0    0  0.00000000000E+00  0.00000000000E+00  0.00000000000E+00  0.91188000000E+02  0.91188000000E+02 0.  0.
    9900012    2    3    3    0    0 -0.30284277524E+02  0.13417926970E+02 -0.16081094217E+02  0.54367084469E+02  0.40000000664E+02 0.  0.
        -12    1    3    3    0    0  0.30284277524E+02 -0.13417926970E+02  0.16081094217E+02  0.36820915531E+02  0.00000000000E+00 0.  1.
         11    1    4    4    0    0  0.17486382896E+01  0.32281936580E+01 -0.12138388217E+02  0.12681460442E+02  0.51100000000E-03 0. -1.
        -11    1    4    4    0    0 -0.55562475057E+01  0.13528839362E+02 -0.32920661893E+01  0.14991300173E+02  0.51100000000E-03 0.  1.
         12    1    4    4    0    0 -0.26476668307E+02 -0.33391060496E+01 -0.65063981092E+00  0.26694323854E+02  0.00000000000E+00 0. -1.
</event>
<event>
 8    1  0.2521748E-006  0.9118800E+02  0.7816164E-02  0.1184000E+00
        -11   -1    0    0    0    0  0.00000000000E+00  0.00000000000E+00  0.45593999997E+02  0.45594000000E+02  0.51100000000E-03 0.  1.
         11   -1    0    0    0    0 -0.00000000000E+00 -0.00000000000E+00 -0.45593999997E+02  0.45594000000E+02  0.51100000000E-03 0. -1.
         23    2    1    2    0    0  0.00000000000E+00  0.00000000000E+00  0.00000000000E+00  0.91188000000E+02  0.91188000000E+02 0.  0.
    9900012    2    3    3    0    0  0.57069193578E+01 -0.21160707023E+02  0.29587750856E+02  0.54367089487E+02  0.40000012104E+02 0.  0.
         12    1    3    3    0    0 -0.57069193578E+01  0.21160707023E+02 -0.29587750856E+02  0.36820910513E+02  0.00000000000E+00 0. -1.
         11    1    4    4    0    0  0.11723675336E+01 -0.57170256394E+01  0.25437799197E+02  0.26098667706E+02  0.51100000000E-03 0. -1.
        -11    1    4    4    0    0 -0.20350108338E+01 -0.25520885069E+01  0.11560222800E+02  0.12012209467E+02  0.51100000000E-03 0.  1.
         12    1    4    4    0    0  0.65695626580E+01 -0.12891592876E+02 -0.74102711405E+01  0.16256212313E+02  0.00000000000E+00 0. -1.
</event>
<event>
 8    1  0.2521748E-006  0.9118800E+02  0.7816164E-02  0.1184000E+00
        -11   -1    0    0    0    0  0.00000000000E+00  0.00000000000E+00  0.45593999997E+02  0.45594000000E+02  0.51100000000E-03 0.  1.
         11   -1    0    0    0    0 -0.00000000000E+00 -0.00000000000E+00 -0.45593999997E+02  0.45594000000E+02  0.51100000000E-03 0. -1.
         23    2    1    2    0    0  0.88817841970E-15 -0.71054273576E-14  0.17763568394E-14  0.91188000000E+02  0.91188000000E+02 0.  0.
    9900012    2    3    3    0    0 -0.16993108916E+01 -0.33320784925E+02  0.15576201219E+02  0.54367076465E+02  0.39999982417E+02 0.  0.
         12    1    3    3    0    0  0.16993108916E+01  0.33320784925E+02 -0.15576201219E+02  0.36820923535E+02  0.00000000000E+00 0. -1.
         11    1    4    4    0    0 -0.35312702224E+01 -0.85722865759E+01 -0.76495106464E+01  0.12019524945E+02  0.51100000000E-03 0. -1.
        -11    1    4    4    0    0  0.84008576677E+01 -0.11953602127E+02  0.23829917514E+02  0.27952244674E+02  0.51100000000E-03 0.  1.
        -12    1    4    4    0    0 -0.65688983370E+01 -0.12794896222E+02 -0.60420564812E+00  0.14395306845E+02  0.00000000000E+00 0.  1.
</event>
<event>
 8    1  0.2521748E-006  0.9118800E+02  0.7816164E-02  0.1184000E+00
        -11   -1    0    0    0    0  0.00000000000E+00  0.00000000000E+00  0.45593999997E+02  0.45594000000E+02  0.51100000000E-03 0.  1.
         11   -1    0    0    0    0 -0.00000000000E+00 -0.00000000000E+00 -0.45593999997E+02  0.45594000000E+02  0.51100000000E-03 0. -1.
         23    2    1    2    0    0 -0.71054273576E-14  0.00000000000E+00  0.00000000000E+00  0.91188000000E+02  0.91188000000E+02 0.  0.
    9900012    2    3    3    0    0  0.31707873391E+02  0.90592189183E+01  0.16380498804E+02  0.54367089861E+02  0.40000012957E+02 0.  0.
         12    1    3    3    0    0 -0.31707873391E+02 -0.90592189183E+01 -0.16380498804E+02  0.36820910139E+02  0.00000000000E+00 0. -1.
         11    1    4    4    0    0 -0.15635831762E+01  0.10876871179E+02  0.37080048791E+01  0.11597431588E+02  0.51100000000E-03 0. -1.
        -11    1    4    4    0    0  0.77633825635E+01  0.95394200486E+01  0.74009980823E+01  0.14354282168E+02  0.51100000000E-03 0.  1.
        -12    1    4    4    0    0  0.25508074003E+02 -0.11357072309E+02  0.52714958428E+01  0.28415376105E+02  0.00000000000E+00 0.  1.
</event>
<event>
 8    1  0.2521748E-006  0.9118800E+02  0.7816164E-02  0.1184000E+00
        -11   -1    0    0    0    0  0.00000000000E+00  0.00000000000E+00  0.45593999997E+02  0.45594000000E+02  0.51100000000E-03 0.  1.
         11   -1    0    0    0    0 -0.00000000000E+00 -0.00000000000E+00 -0.45593999997E+02  0.45594000000E+02  0.51100000000E-03 0. -1.
         23    2    1    2    0    0 -0.35527136788E-14  0.00000000000E+00 -0.35527136788E-14  0.91188000000E+02  0.91188000000E+02 0.  0.
    9900012    2    3    3    0    0 -0.21598646130E+02 -0.62032297003E+01 -0.29168423501E+02  0.54367102362E+02  0.40000041454E+02 0.  0.
        -12    1    3    3    0    0  0.21598646130E+02  0.62032297003E+01  0.29168423501E+02  0.36820897638E+02  0.00000000000E+00 0.  1.
         11    1    4    4    0    0  0.52526674453E+00 -0.77398882743E+01 -0.13063740229E+02  0.15193521142E+02  0.51100000000E-03 0. -1.
        -11    1    4    4    0    0  0.32879197253E+01 -0.23357996782E+01  0.46356236807E+01  0.61445409451E+01  0.51100000000E-03 0.  1.
         12    1    4    4    0    0 -0.25411832599E+02  0.38724582521E+01 -0.20740306953E+02  0.33029040275E+02  0.00000000000E+00 0. -1.
</event>
<event>
 8    1  0.2521748E-006  0.9118800E+02  0.7816164E-02  0.1184000E+00
        -11   -1    0    0    0    0  0.00000000000E+00  0.00000000000E+00  0.45593999997E+02  0.45594000000E+02  0.51100000000E-03 0.  1.
         11   -1    0    0    0    0 -0.00000000000E+00 -0.00000000000E+00 -0.45593999997E+02  0.45594000000E+02  0.51100000000E-03 0. -1.
         23    2    1    2    0    0  0.17763568394E-14  0.00000000000E+00  0.00000000000E+00  0.91188000000E+02  0.91188000000E+02 0.  0.
    9900012    2    3    3    0    0  0.76092583017E+01 -0.30788816381E+02 -0.18706305607E+02  0.54367110609E+02  0.40000060256E+02 0.  0.
         12    1    3    3    0    0 -0.76092583017E+01  0.30788816381E+02  0.18706305607E+02  0.36820889391E+02  0.00000000000E+00 0. -1.
         11    1    4    4    0    0  0.14282374051E+02 -0.13952581265E+02 -0.37478087102E+01  0.20315186509E+02  0.51100000000E-03 0.  1.
        -11    1    4    4    0    0 -0.12913859763E+02 -0.18977548713E+02 -0.76266367723E+01  0.24188441823E+02  0.51100000000E-03 0. -1.
        -12    1    4    4    0    0  0.62407440135E+01  0.21413135968E+01 -0.73318601245E+01  0.98634822779E+01  0.00000000000E+00 0.  1.
</event>
<event>
 8    1  0.2521748E-006  0.9118800E+02  0.7816164E-02  0.1184000E+00
        -11   -1    0    0    0    0  0.00000000000E+00  0.00000000000E+00  0.45593999997E+02  0.45594000000E+02  0.51100000000E-03 0.  1.
         11   -1    0    0    0    0 -0.00000000000E+00 -0.00000000000E+00 -0.45593999997E+02  0.45594000000E+02  0.51100000000E-03 0. -1.
         23    2    1    2    0    0  0.00000000000E+00  0.00000000000E+00  0.00000000000E+00  0.91188000000E+02  0.91188000000E+02 0.  0.
    9900012    2    3    3    0    0 -0.25068695152E+02 -0.26890999375E+02  0.20529986682E+01  0.54367080300E+02  0.39999991159E+02 0.  0.
         12    1    3    3    0    0  0.25068695152E+02  0.26890999375E+02 -0.20529986682E+01  0.36820919700E+02  0.00000000000E+00 0. -1.
         11    1    4    4    0    0  0.54878631652E+01 -0.49526165508E+01 -0.36674239391E+01  0.82519725781E+01  0.51100000000E-03 0. -1.
        -11    1    4    4    0    0 -0.21592666126E+00 -0.60797593476E+01  0.99060539191E+01  0.11624973228E+02  0.51100000000E-03 0.  1.
        -12    1    4    4    0    0 -0.30340631656E+02 -0.15858623477E+02 -0.41856313118E+01  0.34490134493E+02  0.00000000000E+00 0.  1.
</event>
<event>
 8    1  0.2521748E-006  0.9118800E+02  0.7816164E-02  0.1184000E+00
        -11   -1    0    0    0    0  0.00000000000E+00  0.00000000000E+00  0.45593999997E+02  0.45594000000E+02  0.51100000000E-03 0. -1.
         11   -1    0    0    0    0 -0.00000000000E+00 -0.00000000000E+00 -0.45593999997E+02  0.45594000000E+02  0.51100000000E-03 0.  1.
         23    2    1    2    0    0 -0.17763568394E-14  0.35527136788E-14  0.00000000000E+00  0.91188000000E+02  0.91188000000E+02 0.  0.
    9900012    2    3    3    0    0 -0.14780518189E+02  0.16979455463E+02  0.29137866741E+02  0.54367069757E+02  0.39999967125E+02 0.  0.
        -12    1    3    3    0    0  0.14780518189E+02 -0.16979455463E+02 -0.29137866741E+02  0.36820930243E+02  0.00000000000E+00 0.  1.
         11    1    4    4    0    0 -0.15682523124E+02  0.95670195013E+01  0.39539811738E+01  0.18791044704E+02  0.51100000000E-03 0. -1.
        -11    1    4    4    0    0 -0.47815232611E+01 -0.75971761003E+01  0.75263433426E+01  0.11714345640E+02  0.51100000000E-03 0.  1.
        -12    1    4    4    0    0  0.56835281964E+01  0.15009612062E+02  0.17657542224E+02  0.23861679413E+02  0.00000000000E+00 0.  1.
</event>
<event>
 8    1  0.2521748E-006  0.9118800E+02  0.7816164E-02  0.1184000E+00
        -11   -1    0    0    0    0  0.00000000000E+00  0.00000000000E+00  0.45593999997E+02  0.45594000000E+02  0.51100000000E-03 0. -1.
         11   -1    0    0    0    0 -0.00000000000E+00 -0.00000000000E+00 -0.45593999997E+02  0.45594000000E+02  0.51100000000E-03 0.  1.
         23    2    1    2    0    0  0.00000000000E+00 -0.88817841970E-15  0.00000000000E+00  0.91188000000E+02  0.91188000000E+02 0.  0.
    9900012    2    3    3    0    0  0.32606127824E+02  0.72747324569E+01 -0.15482204134E+02  0.54367082727E+02  0.39999996692E+02 0.  0.
         12    1    3    3    0    0 -0.32606127824E+02 -0.72747324569E+01  0.15482204134E+02  0.36820917273E+02  0.00000000000E+00 0. -1.
         11    1    4    4    0    0  0.11991054913E+02 -0.61908049262E+01  0.70497053641E+01  0.15225301624E+02  0.51100000000E-03 0. -1.
        -11    1    4    4    0    0  0.21335659989E+02  0.85359530804E+01 -0.89261140867E+01  0.24652553521E+02  0.51100000000E-03 0.  1.
         12    1    4    4    0    0 -0.72058707783E+00  0.49295843027E+01 -0.13605795411E+02  0.14489227581E+02  0.00000000000E+00 0. -1.
</event>
<event>
 8    1  0.2521748E-006  0.9118800E+02  0.7816164E-02  0.1184000E+00
        -11   -1    0    0    0    0  0.00000000000E+00  0.00000000000E+00  0.45593999997E+02  0.45594000000E+02  0.51100000000E-03 0. -1.
         11   -1    0    0    0    0 -0.00000000000E+00 -0.00000000000E+00 -0.45593999997E+02  0.45594000000E+02  0.51100000000E-03 0.  1.
         23    2    1    2    0    0  0.17763568394E-14  0.17763568394E-14  0.00000000000E+00  0.91188000000E+02  0.91188000000E+02 0.  0.
    9900012    2    3    3    0    0  0.11398636926E+02 -0.60194631355E+01 -0.34490817908E+02  0.54367090449E+02  0.40000014297E+02 0.  0.
         12    1    3    3    0    0 -0.11398636926E+02  0.60194631355E+01  0.34490817908E+02  0.36820909551E+02  0.00000000000E+00 0. -1.
         11    1    4    4    0    0  0.68048262498E+01  0.47939316836E+01 -0.24654115082E+01  0.86813417997E+01  0.51100000000E-03 0. -1.
        -11    1    4    4    0    0 -0.97979595033E+01  0.19538829977E+01 -0.22586090614E+01  0.10242996844E+02  0.51100000000E-03 0.  1.
        -12    1    4    4    0    0  0.14391770179E+02 -0.12767277817E+02 -0.29766797338E+02  0.35442751805E+02  0.00000000000E+00 0.  1.
</event>
<event>
 8    1  0.2521748E-006  0.9118800E+02  0.7816164E-02  0.1184000E+00
        -11   -1    0    0    0    0  0.00000000000E+00  0.00000000000E+00  0.45593999997E+02  0.45594000000E+02  0.51100000000E-03 0.  1.
         11   -1    0    0    0    0 -0.00000000000E+00 -0.00000000000E+00 -0.45593999997E+02  0.45594000000E+02  0.51100000000E-03 0. -1.
         23    2    1    2    0    0 -0.19984014443E-14  0.22204460493E-15  0.00000000000E+00  0.91188000000E+02  0.91188000000E+02 0.  0.
    9900012    2    3    3    0    0 -0.12246736279E+01  0.17762237222E+01  0.36757647875E+02  0.54367089181E+02  0.40000011406E+02 0.  0.
         12    1    3    3    0    0  0.12246736279E+01 -0.17762237222E+01 -0.36757647875E+02  0.36820910819E+02  0.00000000000E+00 0. -1.
         11    1    4    4    0    0 -0.92696810715E+01  0.11410601220E+02  0.13125610802E+02  0.19708131990E+02  0.51100000000E-03 0. -1.
        -11    1    4    4    0    0  0.41018139148E+01  0.39161636634E+01  0.18964856091E+02  0.19794620028E+02  0.51100000000E-03 0.  1.
         12    1    4    4    0    0  0.39431935288E+01 -0.13550541161E+02  0.46671809823E+01  0.14864337163E+02  0.00000000000E+00 0. -1.
</event>
<event>
 8    1  0.2521748E-006  0.9118800E+02  0.7816164E-02  0.1184000E+00
        -11   -1    0    0    0    0  0.00000000000E+00  0.00000000000E+00  0.45593999997E+02  0.45594000000E+02  0.51100000000E-03 0. -1.
         11   -1    0    0    0    0 -0.00000000000E+00 -0.00000000000E+00 -0.45593999997E+02  0.45594000000E+02  0.51100000000E-03 0.  1.
         23    2    1    2    0    0  0.00000000000E+00  0.00000000000E+00  0.35527136788E-14  0.91188000000E+02  0.91188000000E+02 0.  0.
    9900012    2    3    3    0    0  0.25203021240E+02 -0.19849139255E+02 -0.18072067635E+02  0.54367078809E+02  0.39999987761E+02 0.  0.
         12    1    3    3    0    0 -0.25203021240E+02  0.19849139255E+02  0.18072067635E+02  0.36820921191E+02  0.00000000000E+00 0. -1.
         11    1    4    4    0    0  0.11620077234E+02  0.26370357002E+01 -0.62921154740E+01  0.13474823546E+02  0.51100000000E-03 0. -1.
        -11    1    4    4    0    0  0.16397288045E+02 -0.13651443464E+02 -0.19440725933E+02  0.28864767259E+02  0.51100000000E-03 0.  1.
         12    1    4    4    0    0 -0.28143440387E+01 -0.88347314918E+01  0.76607737719E+01  0.12027488004E+02  0.00000000000E+00 0. -1.
</event>
<event>
 8    1  0.2521748E-006  0.9118800E+02  0.7816164E-02  0.1184000E+00
        -11   -1    0    0    0    0  0.00000000000E+00  0.00000000000E+00  0.45593999997E+02  0.45594000000E+02  0.51100000000E-03 0. -1.
         11   -1    0    0    0    0 -0.00000000000E+00 -0.00000000000E+00 -0.45593999997E+02  0.45594000000E+02  0.51100000000E-03 0.  1.
         23    2    1    2    0    0  0.88817841970E-15  0.00000000000E+00  0.17763568394E-14  0.91188000000E+02  0.91188000000E+02 0.  0.
    9900012    2    3    3    0    0 -0.59664896005E+01 -0.34697429158E+02 -0.10782858237E+02  0.54367073611E+02  0.39999975912E+02 0.  0.
         12    1    3    3    0    0  0.59664896005E+01  0.34697429158E+02  0.10782858237E+02  0.36820926389E+02  0.00000000000E+00 0. -1.
         11    1    4    4    0    0  0.44445574703E+01  0.30672557357E+01 -0.29442984771E+01  0.61506944842E+01  0.51100000000E-03 0. -1.
        -11    1    4    4    0    0 -0.80903923622E+01 -0.15570230665E+02 -0.16683367903E+02  0.24212007277E+02  0.51100000000E-03 0.  1.
        -12    1    4    4    0    0 -0.23206547086E+01 -0.22194454229E+02  0.88448081435E+01  0.24004371850E+02  0.00000000000E+00 0.  1.
</event>
<event>
 8    1  0.2521748E-006  0.9118800E+02  0.7816164E-02  0.1184000E+00
        -11   -1    0    0    0    0  0.00000000000E+00  0.00000000000E+00  0.45593999997E+02  0.45594000000E+02  0.51100000000E-03 0.  1.
         11   -1    0    0    0    0 -0.00000000000E+00 -0.00000000000E+00 -0.45593999997E+02  0.45594000000E+02  0.51100000000E-03 0. -1.
         23    2    1    2    0    0  0.00000000000E+00  0.00000000000E+00  0.00000000000E+00  0.91188000000E+02  0.91188000000E+02 0.  0.
    9900012    2    3    3    0    0  0.64674842469E+01 -0.36120119837E+02 -0.30476432473E+01  0.54367088293E+02  0.40000009382E+02 0.  0.
        -12    1    3    3    0    0 -0.64674842469E+01  0.36120119837E+02  0.30476432473E+01  0.36820911707E+02  0.00000000000E+00 0.  1.
         11    1    4    4    0    0  0.62355713753E+01 -0.20692846875E+02 -0.36619128358E+01  0.21919987866E+02  0.51100000000E-03 0. -1.
        -11    1    4    4    0    0  0.72064720223E+01  0.18983823790E+01  0.92432499449E+01  0.11873279432E+02  0.51100000000E-03 0.  1.
        -12    1    4    4    0    0 -0.69745591507E+01 -0.17325655342E+02 -0.86289803563E+01  0.20573820995E+02  0.00000000000E+00 0.  1.
</event>
<event>
 8    1  0.2521748E-006  0.9118800E+02  0.7816164E-02  0.1184000E+00
        -11   -1    0    0    0    0  0.00000000000E+00  0.00000000000E+00  0.45593999997E+02  0.45594000000E+02  0.51100000000E-03 0.  1.
         11   -1    0    0    0    0 -0.00000000000E+00 -0.00000000000E+00 -0.45593999997E+02  0.45594000000E+02  0.51100000000E-03 0. -1.
         23    2    1    2    0    0  0.00000000000E+00  0.00000000000E+00 -0.44408920985E-15  0.91188000000E+02  0.91188000000E+02 0.  0.
    9900012    2    3    3    0    0 -0.28259017713E+02  0.23322039945E+02 -0.36457527039E+01  0.54367066523E+02  0.39999959753E+02 0.  0.
        -12    1    3    3    0    0  0.28259017713E+02 -0.23322039945E+02  0.36457527039E+01  0.36820933477E+02  0.00000000000E+00 0.  1.
         11    1    4    4    0    0  0.70555885387E+01  0.83191130980E+01  0.18890395666E+01  0.11070566522E+02  0.51100000000E-03 0. -1.
        -11    1    4    4    0    0 -0.28518759215E+02  0.99534967817E+01  0.40859513993E+01  0.30480923944E+02  0.51100000000E-03 0.  1.
        -12    1    4    4    0    0 -0.67958470370E+01  0.50494300654E+01 -0.96207436698E+01  0.12815576058E+02  0.00000000000E+00 0.  1.
</event>
<event>
 8    1  0.2521748E-006  0.9118800E+02  0.7816164E-02  0.1184000E+00
        -11   -1    0    0    0    0  0.00000000000E+00  0.00000000000E+00  0.45593999997E+02  0.45594000000E+02  0.51100000000E-03 0. -1.
         11   -1    0    0    0    0 -0.00000000000E+00 -0.00000000000E+00 -0.45593999997E+02  0.45594000000E+02  0.51100000000E-03 0.  1.
         23    2    1    2    0    0  0.00000000000E+00 -0.17763568394E-14  0.00000000000E+00  0.91188000000E+02  0.91188000000E+02 0.  0.
    9900012    2    3    3    0    0 -0.41196766348E+01  0.23601536213E+01  0.36513508325E+02  0.54367104426E+02  0.40000046160E+02 0.  0.
        -12    1    3    3    0    0  0.41196766348E+01 -0.23601536213E+01 -0.36513508325E+02  0.36820895574E+02  0.00000000000E+00 0.  1.
         11    1    4    4    0    0 -0.37658344769E+01  0.12826728138E+02  0.21298618132E+02  0.25146323760E+02  0.51100000000E-03 0. -1.
        -11    1    4    4    0    0 -0.52397195387E+01  0.58169229890E+01  0.35061080945E+01  0.85781144861E+01  0.51100000000E-03 0.  1.
         12    1    4    4    0    0  0.48858773808E+01 -0.16283497506E+02  0.11708782098E+02  0.20642666180E+02  0.00000000000E+00 0. -1.
</event>
<event>
 8    1  0.2521748E-006  0.9118800E+02  0.7816164E-02  0.1184000E+00
        -11   -1    0    0    0    0  0.00000000000E+00  0.00000000000E+00  0.45593999997E+02  0.45594000000E+02  0.51100000000E-03 0.  1.
         11   -1    0    0    0    0 -0.00000000000E+00 -0.00000000000E+00 -0.45593999997E+02  0.45594000000E+02  0.51100000000E-03 0. -1.
         23    2    1    2    0    0 -0.35527136788E-14  0.35527136788E-14  0.00000000000E+00  0.91188000000E+02  0.91188000000E+02 0.  0.
    9900012    2    3    3    0    0 -0.19110487154E+02  0.26353894620E+02  0.17205863121E+02  0.54367079226E+02  0.39999988711E+02 0.  0.
         12    1    3    3    0    0  0.19110487154E+02 -0.26353894620E+02 -0.17205863121E+02  0.36820920774E+02  0.00000000000E+00 0. -1.
         11    1    4    4    0    0  0.10194122628E+02  0.17676287007E+01  0.28678686589E+01  0.10736354981E+02  0.51100000000E-03 0. -1.
        -11    1    4    4    0    0  0.17139659184E+01  0.27203090525E+01  0.16579220164E+01  0.36175221055E+01  0.51100000000E-03 0.  1.
         12    1    4    4    0    0 -0.31018575701E+02  0.21865956867E+02  0.12680072445E+02  0.40013202139E+02  0.00000000000E+00 0. -1.
</event>
<event>
 8    1  0.2521748E-006  0.9118800E+02  0.7816164E-02  0.1184000E+00
        -11   -1    0    0    0    0  0.00000000000E+00  0.00000000000E+00  0.45593999997E+02  0.45594000000E+02  0.51100000000E-03 0. -1.
         11   -1    0    0    0    0 -0.00000000000E+00 -0.00000000000E+00 -0.45593999997E+02  0.45594000000E+02  0.51100000000E-03 0.  1.
         23    2    1    2    0    0  0.35527136788E-14  0.35527136788E-14  0.00000000000E+00  0.91188000000E+02  0.91188000000E+02 0.  0.
    9900012    2    3    3    0    0 -0.24456015236E+02 -0.25849214738E+02  0.94603040553E+01  0.54367137210E+02  0.40000120898E+02 0.  0.
        -12    1    3    3    0    0  0.24456015236E+02  0.25849214738E+02 -0.94603040553E+01  0.36820862790E+02  0.00000000000E+00 0.  1.
         11    1    4    4    0    0 -0.10597817172E+02 -0.10626379446E+02 -0.57376546569E+01  0.16067182396E+02  0.51100000000E-03 0. -1.
        -11    1    4    4    0    0 -0.64413767670E+01 -0.22206508416E+02  0.15942809882E+02  0.28085468447E+02  0.51100000000E-03 0.  1.
        -12    1    4    4    0    0 -0.74168212971E+01  0.69836731249E+01 -0.74485116966E+00  0.10214486367E+02  0.00000000000E+00 0.  1.
</event>
<event>
 8    1  0.2521748E-006  0.9118800E+02  0.7816164E-02  0.1184000E+00
        -11   -1    0    0    0    0  0.00000000000E+00  0.00000000000E+00  0.45593999997E+02  0.45594000000E+02  0.51100000000E-03 0.  1.
         11   -1    0    0    0    0 -0.00000000000E+00 -0.00000000000E+00 -0.45593999997E+02  0.45594000000E+02  0.51100000000E-03 0. -1.
         23    2    1    2    0    0  0.00000000000E+00 -0.35527136788E-14  0.00000000000E+00  0.91188000000E+02  0.91188000000E+02 0.  0.
    9900012    2    3    3    0    0 -0.19255502048E+02  0.29739237556E+02 -0.10029082288E+02  0.54367094239E+02  0.40000022936E+02 0.  0.
        -12    1    3    3    0    0  0.19255502048E+02 -0.29739237556E+02  0.10029082288E+02  0.36820905761E+02  0.00000000000E+00 0.  1.
         11    1    4    4    0    0 -0.16489843451E+02 -0.29773976950E-01 -0.86754319298E+01  0.18632738472E+02  0.51100000000E-03 0. -1.
        -11    1    4    4    0    0  0.31554856946E+01  0.29158548336E+02 -0.31980303730E+01  0.29502634282E+02  0.51100000000E-03 0.  1.
        -12    1    4    4    0    0 -0.59211442914E+01  0.61046319685E+00  0.18443800146E+01  0.62317214855E+01  0.00000000000E+00 0.  1.
</event>
<event>
 8    1  0.2521748E-006  0.9118800E+02  0.7816164E-02  0.1184000E+00
        -11   -1    0    0    0    0  0.00000000000E+00  0.00000000000E+00  0.45593999997E+02  0.45594000000E+02  0.51100000000E-03 0. -1.
         11   -1    0    0    0    0 -0.00000000000E+00 -0.00000000000E+00 -0.45593999997E+02  0.45594000000E+02  0.51100000000E-03 0.  1.
         23    2    1    2    0    0  0.88817841970E-15  0.00000000000E+00 -0.22204460493E-15  0.91188000000E+02  0.91188000000E+02 0.  0.
    9900012    2    3    3    0    0 -0.72894125181E+01 -0.36079065310E+02 -0.97516143375E+00  0.54367008320E+02  0.39999827067E+02 0.  0.
        -12    1    3    3    0    0  0.72894125181E+01  0.36079065310E+02  0.97516143375E+00  0.36820991680E+02  0.00000000000E+00 0.  1.
         11    1    4    4    0    0  0.81352368550E+00 -0.45654083987E+01  0.21570430953E+01  0.51144510761E+01  0.51100000000E-03 0.  1.
        -11    1    4    4    0    0 -0.22169314941E+02 -0.15607246373E+02  0.26617009239E+01  0.27242417594E+02  0.51100000000E-03 0. -1.
        -12    1    4    4    0    0  0.14066378738E+02 -0.15906410538E+02 -0.57939054529E+01  0.22010139650E+02  0.00000000000E+00 0.  1.
</event>
<event>
 8    1  0.2521748E-006  0.9118800E+02  0.7816164E-02  0.1184000E+00
        -11   -1    0    0    0    0  0.00000000000E+00  0.00000000000E+00  0.45593999997E+02  0.45594000000E+02  0.51100000000E-03 0. -1.
         11   -1    0    0    0    0 -0.00000000000E+00 -0.00000000000E+00 -0.45593999997E+02  0.45594000000E+02  0.51100000000E-03 0.  1.
         23    2    1    2    0    0  0.00000000000E+00  0.35527136788E-14  0.88817841970E-15  0.91188000000E+02  0.91188000000E+02 0.  0.
    9900012    2    3    3    0    0  0.27233380170E+02 -0.24618103709E+02 -0.28409424711E+01  0.54367095885E+02  0.40000026690E+02 0.  0.
        -12    1    3    3    0    0 -0.27233380170E+02  0.24618103709E+02  0.28409424711E+01  0.36820904115E+02  0.00000000000E+00 0.  1.
         11    1    4    4    0    0  0.74611110436E+01 -0.28494384113E+01 -0.13316557779E+02  0.15527980828E+02  0.51100000000E-03 0. -1.
        -11    1    4    4    0    0 -0.27995378672E+00  0.14838577799E+01 -0.44498590693E+01  0.46990907665E+01  0.51100000000E-03 0.  1.
         12    1    4    4    0    0  0.20052222913E+02 -0.23252523078E+02  0.14925474377E+02  0.34140024291E+02  0.00000000000E+00 0. -1.
</event>
<event>
 8    1  0.2521748E-006  0.9118800E+02  0.7816164E-02  0.1184000E+00
        -11   -1    0    0    0    0  0.00000000000E+00  0.00000000000E+00  0.45593999997E+02  0.45594000000E+02  0.51100000000E-03 0.  1.
         11   -1    0    0    0    0 -0.00000000000E+00 -0.00000000000E+00 -0.45593999997E+02  0.45594000000E+02  0.51100000000E-03 0. -1.
         23    2    1    2    0    0  0.11102230246E-14  0.14210854715E-13  0.88817841970E-15  0.91188000000E+02  0.91188000000E+02 0.  0.
    9900012    2    3    3    0    0 -0.17774224500E+01 -0.36740300330E+02  0.16643368166E+01  0.54367096752E+02  0.40000028667E+02 0.  0.
        -12    1    3    3    0    0  0.17774224500E+01  0.36740300330E+02 -0.16643368166E+01  0.36820903248E+02  0.00000000000E+00 0.  1.
         11    1    4    4    0    0  0.49419676607E+01 -0.47855130257E+01  0.43345120726E+01  0.81309393336E+01  0.51100000000E-03 0. -1.
        -11    1    4    4    0    0 -0.12737842304E+02 -0.24061156173E+01  0.67873589936E+01  0.14632507007E+02  0.51100000000E-03 0.  1.
         12    1    4    4    0    0  0.60184521936E+01 -0.29548671687E+02 -0.94575342496E+01  0.31603650412E+02  0.00000000000E+00 0. -1.
</event>
<event>
 8    1  0.2521748E-006  0.9118800E+02  0.7816164E-02  0.1184000E+00
        -11   -1    0    0    0    0  0.00000000000E+00  0.00000000000E+00  0.45593999997E+02  0.45594000000E+02  0.51100000000E-03 0.  1.
         11   -1    0    0    0    0 -0.00000000000E+00 -0.00000000000E+00 -0.45593999997E+02  0.45594000000E+02  0.51100000000E-03 0. -1.
         23    2    1    2    0    0  0.00000000000E+00  0.00000000000E+00  0.35527136788E-14  0.91188000000E+02  0.91188000000E+02 0.  0.
    9900012    2    3    3    0    0  0.14001853282E+02  0.20897862494E+02 -0.26888801287E+02  0.54367079496E+02  0.39999989326E+02 0.  0.
        -12    1    3    3    0    0 -0.14001853282E+02 -0.20897862494E+02  0.26888801287E+02  0.36820920504E+02  0.00000000000E+00 0.  1.
         11    1    4    4    0    0  0.50149766785E+01  0.22001570531E+02 -0.20461878684E+02  0.30461575410E+02  0.51100000000E-03 0. -1.
        -11    1    4    4    0    0 -0.47499420720E+01 -0.10971992614E+01  0.42813003336E+01  0.64880912998E+01  0.51100000000E-03 0.  1.
        -12    1    4    4    0    0  0.13736818676E+02 -0.65087760088E-02 -0.10708222936E+02  0.17417412786E+02  0.00000000000E+00 0.  1.
</event>
<event>
 8    1  0.2521748E-006  0.9118800E+02  0.7816164E-02  0.1184000E+00
        -11   -1    0    0    0    0  0.00000000000E+00  0.00000000000E+00  0.45593999997E+02  0.45594000000E+02  0.51100000000E-03 0.  1.
         11   -1    0    0    0    0 -0.00000000000E+00 -0.00000000000E+00 -0.45593999997E+02  0.45594000000E+02  0.51100000000E-03 0. -1.
         23    2    1    2    0    0  0.00000000000E+00  0.00000000000E+00  0.00000000000E+00  0.91188000000E+02  0.91188000000E+02 0.  0.
    9900012    2    3    3    0    0  0.27754441939E+02 -0.99433473444E+01  0.22058996944E+02  0.54367101723E+02  0.40000039997E+02 0.  0.
         12    1    3    3    0    0 -0.27754441939E+02  0.99433473444E+01 -0.22058996944E+02  0.36820898277E+02  0.00000000000E+00 0. -1.
         11    1    4    4    0    0  0.14612653510E+02  0.44666537924E+01 -0.34369954366E+01  0.15661850995E+02  0.51100000000E-03 0. -1.
        -11    1    4    4    0    0  0.11237486927E+02  0.17305835868E+01  0.16762494946E+02  0.20254808542E+02  0.51100000000E-03 0.  1.
         12    1    4    4    0    0  0.19043015028E+01 -0.16140584724E+02  0.87334974346E+01  0.18450442186E+02  0.00000000000E+00 0. -1.
</event>
<event>
 8    1  0.2521748E-006  0.9118800E+02  0.7816164E-02  0.1184000E+00
        -11   -1    0    0    0    0  0.00000000000E+00  0.00000000000E+00  0.45593999997E+02  0.45594000000E+02  0.51100000000E-03 0. -1.
         11   -1    0    0    0    0 -0.00000000000E+00 -0.00000000000E+00 -0.45593999997E+02  0.45594000000E+02  0.51100000000E-03 0.  1.
         23    2    1    2    0    0 -0.35527136788E-14  0.00000000000E+00 -0.17763568394E-14  0.91188000000E+02  0.91188000000E+02 0.  0.
    9900012    2    3    3    0    0  0.26691639885E+02  0.20358722001E+02  0.15128107814E+02  0.54367070526E+02  0.39999968879E+02 0.  0.
        -12    1    3    3    0    0 -0.26691639885E+02 -0.20358722001E+02 -0.15128107814E+02  0.36820929474E+02  0.00000000000E+00 0.  1.
         11    1    4    4    0    0  0.18473609319E+02  0.25599405259E+02  0.60186281558E+01  0.32137636442E+02  0.51100000000E-03 0. -1.
        -11    1    4    4    0    0  0.23405796726E+01 -0.79472431320E+01  0.12444386735E+02  0.14949907962E+02  0.51100000000E-03 0.  1.
         12    1    4    4    0    0  0.58774508936E+01  0.27065598734E+01 -0.33349070772E+01  0.72795261225E+01  0.00000000000E+00 0. -1.
</event>
<event>
 8    1  0.2521748E-006  0.9118800E+02  0.7816164E-02  0.1184000E+00
        -11   -1    0    0    0    0  0.00000000000E+00  0.00000000000E+00  0.45593999997E+02  0.45594000000E+02  0.51100000000E-03 0. -1.
         11   -1    0    0    0    0 -0.00000000000E+00 -0.00000000000E+00 -0.45593999997E+02  0.45594000000E+02  0.51100000000E-03 0.  1.
         23    2    1    2    0    0 -0.35527136788E-14 -0.35527136788E-14  0.00000000000E+00  0.91188000000E+02  0.91188000000E+02 0.  0.
    9900012    2    3    3    0    0 -0.26806268542E+02  0.19236687541E+02 -0.16344860752E+02  0.54367073155E+02  0.39999974872E+02 0.  0.
         12    1    3    3    0    0  0.26806268542E+02 -0.19236687541E+02  0.16344860752E+02  0.36820926845E+02  0.00000000000E+00 0. -1.
         11    1    4    4    0    0 -0.94966074747E+01  0.76459400429E+00  0.17783110672E+01  0.96918805210E+01  0.51100000000E-03 0. -1.
        -11    1    4    4    0    0 -0.16847161921E+02 -0.47455201166E+01 -0.61799829268E+01  0.18561762179E+02  0.51100000000E-03 0.  1.
        -12    1    4    4    0    0 -0.46249914689E+00  0.23217613653E+02 -0.11943188892E+02  0.26113430455E+02  0.00000000000E+00 0.  1.
</event>
<event>
 8    1  0.2521748E-006  0.9118800E+02  0.7816164E-02  0.1184000E+00
        -11   -1    0    0    0    0  0.00000000000E+00  0.00000000000E+00  0.45593999997E+02  0.45594000000E+02  0.51100000000E-03 0. -1.
         11   -1    0    0    0    0 -0.00000000000E+00 -0.00000000000E+00 -0.45593999997E+02  0.45594000000E+02  0.51100000000E-03 0.  1.
         23    2    1    2    0    0 -0.35527136788E-14 -0.35527136788E-14 -0.45102810375E-16  0.91188000000E+02  0.91188000000E+02 0.  0.
    9900012    2    3    3    0    0  0.20565862264E+02  0.30542170745E+02 -0.19728292283E-01  0.54367091895E+02  0.40000017594E+02 0.  0.
        -12    1    3    3    0    0 -0.20565862264E+02 -0.30542170745E+02  0.19728292283E-01  0.36820908105E+02  0.00000000000E+00 0.  1.
         11    1    4    4    0    0  0.39103063362E+01  0.12293224113E+02  0.32337239293E+01  0.13299279133E+02  0.51100000000E-03 0. -1.
        -11    1    4    4    0    0 -0.78110543797E+01  0.12921847454E+02 -0.51573208955E+01  0.15955709675E+02  0.51100000000E-03 0.  1.
         12    1    4    4    0    0  0.24466610307E+02  0.53270991782E+01  0.19038686739E+01  0.25112103088E+02  0.00000000000E+00 0. -1.
</event>
<event>
 8    1  0.2521748E-006  0.9118800E+02  0.7816164E-02  0.1184000E+00
        -11   -1    0    0    0    0  0.00000000000E+00  0.00000000000E+00  0.45593999997E+02  0.45594000000E+02  0.51100000000E-03 0. -1.
         11   -1    0    0    0    0 -0.00000000000E+00 -0.00000000000E+00 -0.45593999997E+02  0.45594000000E+02  0.51100000000E-03 0.  1.
         23    2    1    2    0    0  0.00000000000E+00  0.71054273576E-14  0.17763568394E-14  0.91188000000E+02  0.91188000000E+02 0.  0.
    9900012    2    3    3    0    0 -0.94880150170E+01  0.33271735159E+02  0.12599528758E+02  0.54367096774E+02  0.40000028716E+02 0.  0.
        -12    1    3    3    0    0  0.94880150170E+01 -0.33271735159E+02 -0.12599528758E+02  0.36820903226E+02  0.00000000000E+00 0.  1.
         11    1    4    4    0    0 -0.10449701934E+02  0.26413999241E+02  0.15423303896E+02  0.32322962886E+02  0.51100000000E-03 0. -1.
        -11    1    4    4    0    0  0.59470860998E+01 -0.22776006205E+01  0.57347181876E+01  0.85698477593E+01  0.51100000000E-03 0.  1.
        -12    1    4    4    0    0 -0.49853991827E+01  0.91353365383E+01 -0.85584933254E+01  0.13474286129E+02  0.00000000000E+00 0.  1.
</event>
<event>
 8    1  0.2521748E-006  0.9118800E+02  0.7816164E-02  0.1184000E+00
        -11   -1    0    0    0    0  0.00000000000E+00  0.00000000000E+00  0.45593999997E+02  0.45594000000E+02  0.51100000000E-03 0.  1.
         11   -1    0    0    0    0 -0.00000000000E+00 -0.00000000000E+00 -0.45593999997E+02  0.45594000000E+02  0.51100000000E-03 0. -1.
         23    2    1    2    0    0 -0.35527136788E-14  0.13322676296E-14 -0.35527136788E-14  0.91188000000E+02  0.91188000000E+02 0.  0.
    9900012    2    3    3    0    0  0.26952572874E+02 -0.18238012241E+01 -0.25020218294E+02  0.54367098885E+02  0.40000033529E+02 0.  0.
         12    1    3    3    0    0 -0.26952572874E+02  0.18238012241E+01  0.25020218294E+02  0.36820901115E+02  0.00000000000E+00 0. -1.
         11    1    4    4    0    0  0.11731210567E+02  0.15433575481E+02 -0.56695324073E+00  0.19394277242E+02  0.51100000000E-03 0. -1.
        -11    1    4    4    0    0  0.12345867076E+02 -0.11085553249E+02 -0.11037931526E+02  0.19928518694E+02  0.51100000000E-03 0.  1.
         12    1    4    4    0    0  0.28754952310E+01 -0.61718234566E+01 -0.13415333527E+02  0.15044302950E+02  0.00000000000E+00 0. -1.
</event>
<event>
 8    1  0.2521748E-006  0.9118800E+02  0.7816164E-02  0.1184000E+00
        -11   -1    0    0    0    0  0.00000000000E+00  0.00000000000E+00  0.45593999997E+02  0.45594000000E+02  0.51100000000E-03 0. -1.
         11   -1    0    0    0    0 -0.00000000000E+00 -0.00000000000E+00 -0.45593999997E+02  0.45594000000E+02  0.51100000000E-03 0.  1.
         23    2    1    2    0    0  0.44408920985E-15  0.00000000000E+00  0.00000000000E+00  0.91188000000E+02  0.91188000000E+02 0.  0.
    9900012    2    3    3    0    0  0.22144568252E+01  0.74811547236E+01 -0.35984835991E+02  0.54367083168E+02  0.39999997698E+02 0.  0.
         12    1    3    3    0    0 -0.22144568252E+01 -0.74811547236E+01  0.35984835991E+02  0.36820916832E+02  0.00000000000E+00 0. -1.
         11    1    4    4    0    0 -0.17027435931E+01  0.78294015634E+00 -0.69729514149E+01  0.72204143045E+01  0.51100000000E-03 0.  1.
        -11    1    4    4    0    0  0.15695712974E+02 -0.40799690361E+01 -0.28030007673E+01  0.16457775265E+02  0.51100000000E-03 0. -1.
         12    1    4    4    0    0 -0.11778512556E+02  0.10778183603E+02 -0.26208883809E+02  0.30688893599E+02  0.00000000000E+00 0. -1.
</event>
<event>
 8    1  0.2521748E-006  0.9118800E+02  0.7816164E-02  0.1184000E+00
        -11   -1    0    0    0    0  0.00000000000E+00  0.00000000000E+00  0.45593999997E+02  0.45594000000E+02  0.51100000000E-03 0.  1.
         11   -1    0    0    0    0 -0.00000000000E+00 -0.00000000000E+00 -0.45593999997E+02  0.45594000000E+02  0.51100000000E-03 0. -1.
         23    2    1    2    0    0  0.00000000000E+00  0.44408920985E-15  0.00000000000E+00  0.91188000000E+02  0.91188000000E+02 0.  0.
    9900012    2    3    3    0    0  0.35143907657E+02  0.33487085916E+01  0.10462873403E+02  0.54367084551E+02  0.40000000851E+02 0.  0.
        -12    1    3    3    0    0 -0.35143907657E+02 -0.33487085916E+01 -0.10462873403E+02  0.36820915449E+02  0.00000000000E+00 0.  1.
         11    1    4    4    0    0  0.24230222087E+02  0.42997945981E+01 -0.39577118641E+01  0.24924995074E+02  0.51100000000E-03 0. -1.
        -11    1    4    4    0    0 -0.36008839535E+01 -0.81787197842E+01  0.80284438331E+01  0.12013065104E+02  0.51100000000E-03 0.  1.
         12    1    4    4    0    0  0.14514569524E+02  0.72276337777E+01  0.63921414343E+01  0.17429024373E+02  0.00000000000E+00 0. -1.
</event>
<event>
 8    1  0.2521748E-006  0.9118800E+02  0.7816164E-02  0.1184000E+00
        -11   -1    0    0    0    0  0.00000000000E+00  0.00000000000E+00  0.45593999997E+02  0.45594000000E+02  0.51100000000E-03 0. -1.
         11   -1    0    0    0    0 -0.00000000000E+00 -0.00000000000E+00 -0.45593999997E+02  0.45594000000E+02  0.51100000000E-03 0.  1.
         23    2    1    2    0    0  0.35527136788E-14  0.17763568394E-14  0.00000000000E+00  0.91188000000E+02  0.91188000000E+02 0.  0.
    9900012    2    3    3    0    0 -0.25369716460E+02  0.12295956213E+02  0.23684743580E+02  0.54367080254E+02  0.39999991055E+02 0.  0.
        -12    1    3    3    0    0  0.25369716460E+02 -0.12295956213E+02 -0.23684743580E+02  0.36820919746E+02  0.00000000000E+00 0.  1.
         11    1    4    4    0    0 -0.19761283895E+02 -0.11447263769E+01  0.68493389894E+01  0.20945934797E+02  0.51100000000E-03 0. -1.
        -11    1    4    4    0    0  0.46738907791E+01 -0.53348481363E+01  0.19766288486E+01  0.73629424498E+01  0.51100000000E-03 0.  1.
        -12    1    4    4    0    0 -0.10282323344E+02  0.18775530727E+02  0.14858775742E+02  0.26058203008E+02  0.00000000000E+00 0.  1.
</event>
<event>
 8    1  0.2521748E-006  0.9118800E+02  0.7816164E-02  0.1184000E+00
        -11   -1    0    0    0    0  0.00000000000E+00  0.00000000000E+00  0.45593999997E+02  0.45594000000E+02  0.51100000000E-03 0.  1.
         11   -1    0    0    0    0 -0.00000000000E+00 -0.00000000000E+00 -0.45593999997E+02  0.45594000000E+02  0.51100000000E-03 0. -1.
         23    2    1    2    0    0  0.00000000000E+00  0.00000000000E+00 -0.88817841970E-15  0.91188000000E+02  0.91188000000E+02 0.  0.
    9900012    2    3    3    0    0  0.10380762006E+02 -0.35029914571E+02 -0.45745893625E+01  0.54367054839E+02  0.39999933116E+02 0.  0.
        -12    1    3    3    0    0 -0.10380762006E+02  0.35029914571E+02  0.45745893625E+01  0.36820945161E+02  0.00000000000E+00 0.  1.
         11    1    4    4    0    0  0.10991681252E+02 -0.25829081394E+02 -0.43610582256E+01  0.28407346436E+02  0.51100000000E-03 0. -1.
        -11    1    4    4    0    0 -0.76250115734E+01 -0.41039652923E+00  0.87247368221E+01  0.11594406396E+02  0.51100000000E-03 0.  1.
         12    1    4    4    0    0  0.70140923275E+01 -0.87904366479E+01 -0.89382679590E+01  0.14365302007E+02  0.00000000000E+00 0. -1.
</event>
<event>
 8    1  0.2521748E-006  0.9118800E+02  0.7816164E-02  0.1184000E+00
        -11   -1    0    0    0    0  0.00000000000E+00  0.00000000000E+00  0.45593999997E+02  0.45594000000E+02  0.51100000000E-03 0. -1.
         11   -1    0    0    0    0 -0.00000000000E+00 -0.00000000000E+00 -0.45593999997E+02  0.45594000000E+02  0.51100000000E-03 0.  1.
         23    2    1    2    0    0  0.00000000000E+00  0.35527136788E-14  0.00000000000E+00  0.91188000000E+02  0.91188000000E+02 0.  0.
    9900012    2    3    3    0    0  0.20827090437E+02  0.22424877169E+02  0.20472768447E+02  0.54367121955E+02  0.40000086121E+02 0.  0.
        -12    1    3    3    0    0 -0.20827090437E+02 -0.22424877169E+02 -0.20472768447E+02  0.36820878045E+02  0.00000000000E+00 0.  1.
         11    1    4    4    0    0 -0.57372482714E+01  0.11462434924E+01 -0.20903260087E+01  0.62128379148E+01  0.51100000000E-03 0. -1.
        -11    1    4    4    0    0 -0.10533271917E+00  0.24896849500E+01  0.14279766223E+02  0.14495563106E+02  0.51100000000E-03 0.  1.
        -12    1    4    4    0    0  0.26669671428E+02  0.18788948727E+02  0.82833282329E+01  0.33658720934E+02  0.00000000000E+00 0.  1.
</event>
<event>
 8    1  0.2521748E-006  0.9118800E+02  0.7816164E-02  0.1184000E+00
        -11   -1    0    0    0    0  0.00000000000E+00  0.00000000000E+00  0.45593999997E+02  0.45594000000E+02  0.51100000000E-03 0.  1.
         11   -1    0    0    0    0 -0.00000000000E+00 -0.00000000000E+00 -0.45593999997E+02  0.45594000000E+02  0.51100000000E-03 0. -1.
         23    2    1    2    0    0  0.00000000000E+00 -0.88817841970E-15  0.00000000000E+00  0.91188000000E+02  0.91188000000E+02 0.  0.
    9900012    2    3    3    0    0  0.31418294232E+02 -0.32023869695E+01 -0.18931760032E+02  0.54367135905E+02  0.40000117923E+02 0.  0.
        -12    1    3    3    0    0 -0.31418294232E+02  0.32023869695E+01  0.18931760032E+02  0.36820864095E+02  0.00000000000E+00 0.  1.
         11    1    4    4    0    0  0.27791736426E+01  0.42339362651E+01  0.71738438372E+01  0.87814610455E+01  0.51100000000E-03 0. -1.
        -11    1    4    4    0    0  0.88749531327E+01 -0.52209429036E+01  0.26409785495E+01  0.10630042609E+02  0.51100000000E-03 0.  1.
         12    1    4    4    0    0  0.19764167457E+02 -0.22153803310E+01 -0.28746582419E+02  0.34955632251E+02  0.00000000000E+00 0. -1.
</event>
<event>
 8    1  0.2521748E-006  0.9118800E+02  0.7816164E-02  0.1184000E+00
        -11   -1    0    0    0    0  0.00000000000E+00  0.00000000000E+00  0.45593999997E+02  0.45594000000E+02  0.51100000000E-03 0.  1.
         11   -1    0    0    0    0 -0.00000000000E+00 -0.00000000000E+00 -0.45593999997E+02  0.45594000000E+02  0.51100000000E-03 0. -1.
         23    2    1    2    0    0  0.35527136788E-14  0.00000000000E+00  0.00000000000E+00  0.91188000000E+02  0.91188000000E+02 0.  0.
    9900012    2    3    3    0    0  0.23361167891E+02  0.15294468004E+02 -0.24002368098E+02  0.54367101164E+02  0.40000038724E+02 0.  0.
        -12    1    3    3    0    0 -0.23361167891E+02 -0.15294468004E+02  0.24002368098E+02  0.36820898836E+02  0.00000000000E+00 0.  1.
         11    1    4    4    0    0  0.66982526352E+01  0.14557198023E+02  0.37897296543E+01  0.16466349132E+02  0.51100000000E-03 0. -1.
        -11    1    4    4    0    0 -0.35805994145E+01 -0.34869124870E+01 -0.67396568540E+01  0.83906034128E+01  0.51100000000E-03 0.  1.
         12    1    4    4    0    0  0.20243514671E+02  0.42241824684E+01 -0.21052440898E+02  0.29510148619E+02  0.00000000000E+00 0. -1.
</event>
<event>
 8    1  0.2521748E-006  0.9118800E+02  0.7816164E-02  0.1184000E+00
        -11   -1    0    0    0    0  0.00000000000E+00  0.00000000000E+00  0.45593999997E+02  0.45594000000E+02  0.51100000000E-03 0. -1.
         11   -1    0    0    0    0 -0.00000000000E+00 -0.00000000000E+00 -0.45593999997E+02  0.45594000000E+02  0.51100000000E-03 0.  1.
         23    2    1    2    0    0  0.00000000000E+00  0.00000000000E+00 -0.17763568394E-14  0.91188000000E+02  0.91188000000E+02 0.  0.
    9900012    2    3    3    0    0  0.29551528100E+02 -0.18540737188E+02 -0.11778312842E+02  0.54367076574E+02  0.39999982666E+02 0.  0.
         12    1    3    3    0    0 -0.29551528100E+02  0.18540737188E+02  0.11778312842E+02  0.36820923426E+02  0.00000000000E+00 0. -1.
         11    1    4    4    0    0  0.32221765883E+01 -0.98207290223E+01 -0.12318958687E+02  0.16080605831E+02  0.51100000000E-03 0. -1.
        -11    1    4    4    0    0  0.17823745017E+02  0.77262168979E+01 -0.22715176234E+01  0.19558632533E+02  0.51100000000E-03 0.  1.
         12    1    4    4    0    0  0.85056064949E+01 -0.16446225064E+02  0.28121634677E+01  0.18727838211E+02  0.00000000000E+00 0. -1.
</event>
<event>
 8    1  0.2521748E-006  0.9118800E+02  0.7816164E-02  0.1184000E+00
        -11   -1    0    0    0    0  0.00000000000E+00  0.00000000000E+00  0.45593999997E+02  0.45594000000E+02  0.51100000000E-03 0. -1.
         11   -1    0    0    0    0 -0.00000000000E+00 -0.00000000000E+00 -0.45593999997E+02  0.45594000000E+02  0.51100000000E-03 0.  1.
         23    2    1    2    0    0  0.88817841970E-15 -0.35527136788E-14  0.00000000000E+00  0.91188000000E+02  0.91188000000E+02 0.  0.
    9900012    2    3    3    0    0 -0.68112156604E+01  0.28286990900E+02 -0.22566215722E+02  0.54367073817E+02  0.39999976381E+02 0.  0.
         12    1    3    3    0    0  0.68112156604E+01 -0.28286990900E+02  0.22566215722E+02  0.36820926183E+02  0.00000000000E+00 0. -1.
         11    1    4    4    0    0  0.29702362518E+01  0.25080136500E+01 -0.34207306078E+01  0.51782076061E+01  0.51100000000E-03 0. -1.
        -11    1    4    4    0    0 -0.17931923121E+01  0.12505626919E+02 -0.28442135982E+02  0.31121718184E+02  0.51100000000E-03 0.  1.
         12    1    4    4    0    0 -0.79882596001E+01  0.13273350331E+02  0.92966508672E+01  0.18067148026E+02  0.00000000000E+00 0. -1.
</event>
<event>
 8    1  0.2521748E-006  0.9118800E+02  0.7816164E-02  0.1184000E+00
        -11   -1    0    0    0    0  0.00000000000E+00  0.00000000000E+00  0.45593999997E+02  0.45594000000E+02  0.51100000000E-03 0. -1.
         11   -1    0    0    0    0 -0.00000000000E+00 -0.00000000000E+00 -0.45593999997E+02  0.45594000000E+02  0.51100000000E-03 0.  1.
         23    2    1    2    0    0  0.00000000000E+00  0.00000000000E+00  0.17763568394E-14  0.91188000000E+02  0.91188000000E+02 0.  0.
    9900012    2    3    3    0    0 -0.13287903965E+02 -0.33828378633E+02  0.59035964089E+01  0.54367081444E+02  0.39999993768E+02 0.  0.
        -12    1    3    3    0    0  0.13287903965E+02  0.33828378633E+02 -0.59035964089E+01  0.36820918556E+02  0.00000000000E+00 0.  1.
         11    1    4    4    0    0 -0.90718190768E+01  0.33985987184E+01 -0.35637742174E+01  0.10322250798E+02  0.51100000000E-03 0.  1.
        -11    1    4    4    0    0  0.67194421967E+01 -0.50053046100E+01  0.49174178268E+01  0.97151930510E+01  0.51100000000E-03 0. -1.
         12    1    4    4    0    0 -0.10935527085E+02 -0.32221672742E+02  0.45499527995E+01  0.34329637595E+02  0.00000000000E+00 0. -1.
</event>
<event>
 8    1  0.2521748E-006  0.9118800E+02  0.7816164E-02  0.1184000E+00
        -11   -1    0    0    0    0  0.00000000000E+00  0.00000000000E+00  0.45593999997E+02  0.45594000000E+02  0.51100000000E-03 0.  1.
         11   -1    0    0    0    0 -0.00000000000E+00 -0.00000000000E+00 -0.45593999997E+02  0.45594000000E+02  0.51100000000E-03 0. -1.
         23    2    1    2    0    0  0.00000000000E+00  0.17763568394E-14  0.00000000000E+00  0.91188000000E+02  0.91188000000E+02 0.  0.
    9900012    2    3    3    0    0  0.18507370722E+02  0.10914112303E+02 -0.29902167289E+02  0.54367078950E+02  0.39999988082E+02 0.  0.
        -12    1    3    3    0    0 -0.18507370722E+02 -0.10914112303E+02  0.29902167289E+02  0.36820921050E+02  0.00000000000E+00 0.  1.
         11    1    4    4    0    0  0.19794233097E+02  0.35211785474E+01 -0.18985597550E+02  0.27652545577E+02  0.51100000000E-03 0. -1.
        -11    1    4    4    0    0 -0.12063325486E+02  0.16651689681E+01 -0.53686155810E+01  0.13308592825E+02  0.51100000000E-03 0.  1.
        -12    1    4    4    0    0  0.10776463111E+02  0.57277647878E+01 -0.55479541579E+01  0.13405940548E+02  0.00000000000E+00 0.  1.
</event>
<event>
 8    1  0.2521748E-006  0.9118800E+02  0.7816164E-02  0.1184000E+00
        -11   -1    0    0    0    0  0.00000000000E+00  0.00000000000E+00  0.45593999997E+02  0.45594000000E+02  0.51100000000E-03 0.  1.
         11   -1    0    0    0    0 -0.00000000000E+00 -0.00000000000E+00 -0.45593999997E+02  0.45594000000E+02  0.51100000000E-03 0. -1.
         23    2    1    2    0    0  0.00000000000E+00  0.00000000000E+00  0.35527136788E-14  0.91188000000E+02  0.91188000000E+02 0.  0.
    9900012    2    3    3    0    0 -0.11097596621E+02  0.24643145774E+02 -0.25006773637E+02  0.54367081867E+02  0.39999994733E+02 0.  0.
        -12    1    3    3    0    0  0.11097596621E+02 -0.24643145774E+02  0.25006773637E+02  0.36820918133E+02  0.00000000000E+00 0.  1.
         11    1    4    4    0    0  0.81770450450E+01  0.20256393905E+02 -0.22690881311E+02  0.31497010249E+02  0.51100000000E-03 0. -1.
        -11    1    4    4    0    0 -0.86846561937E+01  0.76932281535E+01 -0.38048425429E+00  0.11608349631E+02  0.51100000000E-03 0.  1.
        -12    1    4    4    0    0 -0.10589985472E+02 -0.33064762842E+01 -0.19354080719E+01  0.11261721988E+02  0.00000000000E+00 0.  1.
</event>
<event>
 8    1  0.2521748E-006  0.9118800E+02  0.7816164E-02  0.1184000E+00
        -11   -1    0    0    0    0  0.00000000000E+00  0.00000000000E+00  0.45593999997E+02  0.45594000000E+02  0.51100000000E-03 0.  1.
         11   -1    0    0    0    0 -0.00000000000E+00 -0.00000000000E+00 -0.45593999997E+02  0.45594000000E+02  0.51100000000E-03 0. -1.
         23    2    1    2    0    0 -0.35527136788E-14 -0.35527136788E-14  0.00000000000E+00  0.91188000000E+02  0.91188000000E+02 0.  0.
    9900012    2    3    3    0    0  0.24938483859E+02  0.18628154955E+02  0.19668339950E+02  0.54367085690E+02  0.40000003447E+02 0.  0.
         12    1    3    3    0    0 -0.24938483859E+02 -0.18628154955E+02 -0.19668339950E+02  0.36820914310E+02  0.00000000000E+00 0. -1.
         11    1    4    4    0    0  0.72493975071E+01 -0.95496460429E+01 -0.17258227889E+01  0.12113132061E+02  0.51100000000E-03 0. -1.
        -11    1    4    4    0    0  0.17180022000E+02  0.13769275810E+02  0.13191506092E+02  0.25666358244E+02  0.51100000000E-03 0.  1.
        -12    1    4    4    0    0  0.50906435218E+00  0.14408525188E+02  0.82026566470E+01  0.16587595386E+02  0.00000000000E+00 0.  1.
</event>
<event>
 8    1  0.2521748E-006  0.9118800E+02  0.7816164E-02  0.1184000E+00
        -11   -1    0    0    0    0  0.00000000000E+00  0.00000000000E+00  0.45593999997E+02  0.45594000000E+02  0.51100000000E-03 0. -1.
         11   -1    0    0    0    0 -0.00000000000E+00 -0.00000000000E+00 -0.45593999997E+02  0.45594000000E+02  0.51100000000E-03 0.  1.
         23    2    1    2    0    0  0.00000000000E+00  0.00000000000E+00 -0.69388939039E-16  0.91188000000E+02  0.91188000000E+02 0.  0.
    9900012    2    3    3    0    0  0.36737912938E+02  0.24685460109E+01  0.10948133890E+00  0.54367082676E+02  0.39999996576E+02 0.  0.
         12    1    3    3    0    0 -0.36737912938E+02 -0.24685460109E+01 -0.10948133890E+00  0.36820917324E+02  0.00000000000E+00 0. -1.
         11    1    4    4    0    0  0.15389075485E+02  0.89113282283E+01  0.17805684207E+01  0.17871928806E+02  0.51100000000E-03 0. -1.
        -11    1    4    4    0    0  0.27679318279E+02 -0.92804211500E+01 -0.32689871423E+01  0.29376132392E+02  0.51100000000E-03 0.  1.
         12    1    4    4    0    0 -0.63304808262E+01  0.28376389327E+01  0.15979000605E+01  0.71190214782E+01  0.00000000000E+00 0. -1.
</event>
<event>
 8    1  0.2521748E-006  0.9118800E+02  0.7816164E-02  0.1184000E+00
        -11   -1    0    0    0    0  0.00000000000E+00  0.00000000000E+00  0.45593999997E+02  0.45594000000E+02  0.51100000000E-03 0.  1.
         11   -1    0    0    0    0 -0.00000000000E+00 -0.00000000000E+00 -0.45593999997E+02  0.45594000000E+02  0.51100000000E-03 0. -1.
         23    2    1    2    0    0  0.00000000000E+00 -0.35527136788E-14  0.00000000000E+00  0.91188000000E+02  0.91188000000E+02 0.  0.
    9900012    2    3    3    0    0 -0.21521508961E+02  0.22272763208E+02 -0.19913019660E+02  0.54367086366E+02  0.40000004989E+02 0.  0.
        -12    1    3    3    0    0  0.21521508961E+02 -0.22272763208E+02  0.19913019660E+02  0.36820913634E+02  0.00000000000E+00 0.  1.
         11    1    4    4    0    0 -0.26513145876E+02  0.31409275546E+01 -0.19222054215E+02  0.32898323645E+02  0.51100000000E-03 0. -1.
        -11    1    4    4    0    0  0.19214331310E+00  0.85917408471E+00  0.21877340396E+01  0.23582365551E+01  0.51100000000E-03 0.  1.
        -12    1    4    4    0    0  0.47994936013E+01  0.18272661568E+02 -0.28786994842E+01  0.19110526166E+02  0.00000000000E+00 0.  1.
</event>
<event>
 8    1  0.2521748E-006  0.9118800E+02  0.7816164E-02  0.1184000E+00
        -11   -1    0    0    0    0  0.00000000000E+00  0.00000000000E+00  0.45593999997E+02  0.45594000000E+02  0.51100000000E-03 0.  1.
         11   -1    0    0    0    0 -0.00000000000E+00 -0.00000000000E+00 -0.45593999997E+02  0.45594000000E+02  0.51100000000E-03 0. -1.
         23    2    1    2    0    0 -0.88817841970E-15 -0.35527136788E-14 -0.71054273576E-14  0.91188000000E+02  0.91188000000E+02 0.  0.
    9900012    2    3    3    0    0  0.54724788291E+01 -0.14246196131E+02 -0.33509350674E+02  0.54367099531E+02  0.40000035001E+02 0.  0.
        -12    1    3    3    0    0 -0.54724788291E+01  0.14246196131E+02  0.33509350674E+02  0.36820900469E+02  0.00000000000E+00 0.  1.
         11    1    4    4    0    0  0.11621020913E+02 -0.31775349887E+01 -0.20440965959E+02  0.23727156283E+02  0.51100000000E-03 0. -1.
        -11    1    4    4    0    0  0.64547796175E+01 -0.12699066791E+02 -0.33300507510E+01  0.14629412686E+02  0.51100000000E-03 0.  1.
         12    1    4    4    0    0 -0.12603321701E+02  0.16304056482E+01 -0.97383339644E+01  0.16010530562E+02  0.00000000000E+00 0. -1.
</event>
<event>
 8    1  0.2521748E-006  0.9118800E+02  0.7816164E-02  0.1184000E+00
        -11   -1    0    0    0    0  0.00000000000E+00  0.00000000000E+00  0.45593999997E+02  0.45594000000E+02  0.51100000000E-03 0.  1.
         11   -1    0    0    0    0 -0.00000000000E+00 -0.00000000000E+00 -0.45593999997E+02  0.45594000000E+02  0.51100000000E-03 0. -1.
         23    2    1    2    0    0  0.00000000000E+00  0.00000000000E+00  0.53290705182E-14  0.91188000000E+02  0.91188000000E+02 0.  0.
    9900012    2    3    3    0    0 -0.15093272575E+02 -0.30486809445E+02  0.14089993902E+02  0.54367077207E+02  0.39999984108E+02 0.  0.
         12    1    3    3    0    0  0.15093272575E+02  0.30486809445E+02 -0.14089993902E+02  0.36820922793E+02  0.00000000000E+00 0. -1.
         11    1    4    4    0    0 -0.69408643507E+01  0.11865958109E+01 -0.85327931390E+01  0.11063099320E+02  0.51100000000E-03 0. -1.
        -11    1    4    4    0    0 -0.10269929066E+02 -0.13903539004E+02  0.45585162885E+01  0.17876238723E+02  0.51100000000E-03 0.  1.
         12    1    4    4    0    0  0.21175208419E+01 -0.17769866252E+02  0.18064270753E+02  0.25427739163E+02  0.00000000000E+00 0. -1.
</event>
<event>
 8    1  0.2521748E-006  0.9118800E+02  0.7816164E-02  0.1184000E+00
        -11   -1    0    0    0    0  0.00000000000E+00  0.00000000000E+00  0.45593999997E+02  0.45594000000E+02  0.51100000000E-03 0.  1.
         11   -1    0    0    0    0 -0.00000000000E+00 -0.00000000000E+00 -0.45593999997E+02  0.45594000000E+02  0.51100000000E-03 0. -1.
         23    2    1    2    0    0 -0.11102230246E-14 -0.35527136788E-14  0.00000000000E+00  0.91188000000E+02  0.91188000000E+02 0.  0.
    9900012    2    3    3    0    0 -0.19153940948E+01 -0.21855527812E+02  0.29571008621E+02  0.54367117592E+02  0.40000076174E+02 0.  0.
         12    1    3    3    0    0  0.19153940948E+01  0.21855527812E+02 -0.29571008621E+02  0.36820882408E+02  0.00000000000E+00 0. -1.
         11    1    4    4    0    0  0.93583301941E+01 -0.14416214037E+02  0.49123447933E+01  0.17875589579E+02  0.51100000000E-03 0. -1.
        -11    1    4    4    0    0  0.25908468230E+00  0.31992260834E+01  0.19811203392E+02  0.20069527959E+02  0.51100000000E-03 0.  1.
        -12    1    4    4    0    0 -0.11532808971E+02 -0.10638539859E+02  0.48474604350E+01  0.16422000054E+02  0.00000000000E+00 0.  1.
</event>
<event>
 8    1  0.2521748E-006  0.9118800E+02  0.7816164E-02  0.1184000E+00
        -11   -1    0    0    0    0  0.00000000000E+00  0.00000000000E+00  0.45593999997E+02  0.45594000000E+02  0.51100000000E-03 0.  1.
         11   -1    0    0    0    0 -0.00000000000E+00 -0.00000000000E+00 -0.45593999997E+02  0.45594000000E+02  0.51100000000E-03 0. -1.
         23    2    1    2    0    0 -0.44408920985E-15 -0.17763568394E-14  0.00000000000E+00  0.91188000000E+02  0.91188000000E+02 0.  0.
    9900012    2    3    3    0    0 -0.35023086137E+01  0.13266499937E+02 -0.34168889487E+02  0.54367092963E+02  0.40000020029E+02 0.  0.
        -12    1    3    3    0    0  0.35023086137E+01 -0.13266499937E+02  0.34168889487E+02  0.36820907037E+02  0.00000000000E+00 0.  1.
         11    1    4    4    0    0  0.53501739344E+01  0.98015487813E+01 -0.87530748916E+00  0.11200932243E+02  0.51100000000E-03 0.  1.
        -11    1    4    4    0    0  0.43281728840E+01 -0.44365835896E+01 -0.24891611726E+02  0.25651680043E+02  0.51100000000E-03 0. -1.
        -12    1    4    4    0    0 -0.13180655432E+02  0.79015347457E+01 -0.84019702721E+01  0.17514480678E+02  0.00000000000E+00 0.  1.
</event>
<event>
 8    1  0.2521748E-006  0.9118800E+02  0.7816164E-02  0.1184000E+00
        -11   -1    0    0    0    0  0.00000000000E+00  0.00000000000E+00  0.45593999997E+02  0.45594000000E+02  0.51100000000E-03 0.  1.
         11   -1    0    0    0    0 -0.00000000000E+00 -0.00000000000E+00 -0.45593999997E+02  0.45594000000E+02  0.51100000000E-03 0. -1.
         23    2    1    2    0    0 -0.88817841970E-15 -0.35527136788E-14 -0.35527136788E-14  0.91188000000E+02  0.91188000000E+02 0.  0.
    9900012    2    3    3    0    0  0.24480126185E+01  0.20683185907E+02  0.30364344193E+02  0.54367077370E+02  0.39999984481E+02 0.  0.
         12    1    3    3    0    0 -0.24480126185E+01 -0.20683185907E+02 -0.30364344193E+02  0.36820922630E+02  0.00000000000E+00 0. -1.
         11    1    4    4    0    0  0.90504401383E+01  0.11224973198E+02 -0.10988711687E+01  0.14460913114E+02  0.51100000000E-03 0. -1.
        -11    1    4    4    0    0 -0.46686694489E+01  0.10533851636E+02  0.37678007670E+01  0.12122492631E+02  0.51100000000E-03 0.  1.
        -12    1    4    4    0    0 -0.19337580709E+01 -0.10756389271E+01  0.27695414595E+02  0.27783671625E+02  0.00000000000E+00 0.  1.
</event>
<event>
 8    1  0.2521748E-006  0.9118800E+02  0.7816164E-02  0.1184000E+00
        -11   -1    0    0    0    0  0.00000000000E+00  0.00000000000E+00  0.45593999997E+02  0.45594000000E+02  0.51100000000E-03 0.  1.
         11   -1    0    0    0    0 -0.00000000000E+00 -0.00000000000E+00 -0.45593999997E+02  0.45594000000E+02  0.51100000000E-03 0. -1.
         23    2    1    2    0    0  0.00000000000E+00  0.00000000000E+00  0.00000000000E+00  0.91188000000E+02  0.91188000000E+02 0.  0.
    9900012    2    3    3    0    0  0.31219637974E+02  0.10010311912E+02  0.16760305637E+02  0.54367082238E+02  0.39999995578E+02 0.  0.
         12    1    3    3    0    0 -0.31219637974E+02 -0.10010311912E+02 -0.16760305637E+02  0.36820917762E+02  0.00000000000E+00 0. -1.
         11    1    4    4    0    0  0.19455181073E+02  0.15736165634E+00  0.15772955878E+02  0.25046256620E+02  0.51100000000E-03 0. -1.
        -11    1    4    4    0    0  0.10589289516E+02 -0.34771485752E+01  0.84611606438E+01  0.13993386094E+02  0.51100000000E-03 0.  1.
         12    1    4    4    0    0  0.11751673849E+01  0.13330098831E+02 -0.74738108851E+01  0.15327439524E+02  0.00000000000E+00 0. -1.
</event>
<event>
 8    1  0.2521748E-006  0.9118800E+02  0.7816164E-02  0.1184000E+00
        -11   -1    0    0    0    0  0.00000000000E+00  0.00000000000E+00  0.45593999997E+02  0.45594000000E+02  0.51100000000E-03 0.  1.
         11   -1    0    0    0    0 -0.00000000000E+00 -0.00000000000E+00 -0.45593999997E+02  0.45594000000E+02  0.51100000000E-03 0. -1.
         23    2    1    2    0    0  0.00000000000E+00 -0.88817841970E-15  0.00000000000E+00  0.91188000000E+02  0.91188000000E+02 0.  0.
    9900012    2    3    3    0    0 -0.33221393732E+02  0.31554243602E+01 -0.15561648287E+02  0.54367046701E+02  0.39999914565E+02 0.  0.
        -12    1    3    3    0    0  0.33221393732E+02 -0.31554243602E+01  0.15561648287E+02  0.36820953299E+02  0.00000000000E+00 0.  1.
         11    1    4    4    0    0 -0.18070886665E+02 -0.19262534646E+01 -0.12576571363E+01  0.18216725803E+02  0.51100000000E-03 0. -1.
        -11    1    4    4    0    0  0.48121521199E+00  0.14747985490E+02 -0.52477767977E+01  0.15661219802E+02  0.51100000000E-03 0.  1.
         12    1    4    4    0    0 -0.15631722280E+02 -0.96663076655E+01 -0.90562143533E+01  0.20489101096E+02  0.00000000000E+00 0. -1.
</event>
<event>
 8    1  0.2521748E-006  0.9118800E+02  0.7816164E-02  0.1184000E+00
        -11   -1    0    0    0    0  0.00000000000E+00  0.00000000000E+00  0.45593999997E+02  0.45594000000E+02  0.51100000000E-03 0. -1.
         11   -1    0    0    0    0 -0.00000000000E+00 -0.00000000000E+00 -0.45593999997E+02  0.45594000000E+02  0.51100000000E-03 0.  1.
         23    2    1    2    0    0  0.00000000000E+00  0.00000000000E+00  0.00000000000E+00  0.91188000000E+02  0.91188000000E+02 0.  0.
    9900012    2    3    3    0    0 -0.28541901975E+02 -0.20416615339E+02  0.11149121958E+02  0.54367064777E+02  0.39999955771E+02 0.  0.
        -12    1    3    3    0    0  0.28541901975E+02  0.20416615339E+02 -0.11149121958E+02  0.36820935223E+02  0.00000000000E+00 0.  1.
         11    1    4    4    0    0 -0.23895015756E+01 -0.87111403098E+01  0.10536284346E+01  0.90941638657E+01  0.51100000000E-03 0. -1.
        -11    1    4    4    0    0 -0.33249136682E+02 -0.71323963355E+01  0.12909836930E+02  0.36373617602E+02  0.51100000000E-03 0.  1.
        -12    1    4    4    0    0  0.70967362826E+01 -0.45730786942E+01 -0.28143434068E+01  0.88992833094E+01  0.00000000000E+00 0.  1.
</event>
<event>
 8    1  0.2521748E-006  0.9118800E+02  0.7816164E-02  0.1184000E+00
        -11   -1    0    0    0    0  0.00000000000E+00  0.00000000000E+00  0.45593999997E+02  0.45594000000E+02  0.51100000000E-03 0.  1.
         11   -1    0    0    0    0 -0.00000000000E+00 -0.00000000000E+00 -0.45593999997E+02  0.45594000000E+02  0.51100000000E-03 0. -1.
         23    2    1    2    0    0  0.35527136788E-14  0.00000000000E+00 -0.35527136788E-14  0.91188000000E+02  0.91188000000E+02 0.  0.
    9900012    2    3    3    0    0  0.28461790599E+02  0.11620828231E+02 -0.20264801173E+02  0.54367091002E+02  0.40000015557E+02 0.  0.
        -12    1    3    3    0    0 -0.28461790599E+02 -0.11620828231E+02  0.20264801173E+02  0.36820908998E+02  0.00000000000E+00 0.  1.
         11    1    4    4    0    0  0.28611043904E+01  0.14886578941E+01  0.49046689485E+01  0.58700765254E+01  0.51100000000E-03 0. -1.
        -11    1    4    4    0    0 -0.57265104467E+01  0.79445216276E+01 -0.83679947506E+01  0.12881447209E+02  0.51100000000E-03 0.  1.
         12    1    4    4    0    0  0.31327196655E+02  0.21876487090E+01 -0.16801475371E+02  0.35615567268E+02  0.00000000000E+00 0. -1.
</event>
<event>
 8    1  0.2521748E-006  0.9118800E+02  0.7816164E-02  0.1184000E+00
        -11   -1    0    0    0    0  0.00000000000E+00  0.00000000000E+00  0.45593999997E+02  0.45594000000E+02  0.51100000000E-03 0. -1.
         11   -1    0    0    0    0 -0.00000000000E+00 -0.00000000000E+00 -0.45593999997E+02  0.45594000000E+02  0.51100000000E-03 0.  1.
         23    2    1    2    0    0  0.00000000000E+00  0.00000000000E+00  0.00000000000E+00  0.91188000000E+02  0.91188000000E+02 0.  0.
    9900012    2    3    3    0    0 -0.14907864112E+02  0.24978084484E+02 -0.22574988656E+02  0.54367092492E+02  0.40000018954E+02 0.  0.
         12    1    3    3    0    0  0.14907864112E+02 -0.24978084484E+02  0.22574988656E+02  0.36820907508E+02  0.00000000000E+00 0. -1.
         11    1    4    4    0    0  0.29953842183E+01  0.10469355429E+02  0.92748573923E+01  0.14303940353E+02  0.51100000000E-03 0. -1.
        -11    1    4    4    0    0 -0.50249689496E+01  0.33818965794E+01 -0.34958981740E+01  0.69934856632E+01  0.51100000000E-03 0.  1.
         12    1    4    4    0    0 -0.12878279380E+02  0.11126832475E+02 -0.28353947875E+02  0.33069666476E+02  0.00000000000E+00 0. -1.
</event>
<event>
 8    1  0.2521748E-006  0.9118800E+02  0.7816164E-02  0.1184000E+00
        -11   -1    0    0    0    0  0.00000000000E+00  0.00000000000E+00  0.45593999997E+02  0.45594000000E+02  0.51100000000E-03 0.  1.
         11   -1    0    0    0    0 -0.00000000000E+00 -0.00000000000E+00 -0.45593999997E+02  0.45594000000E+02  0.51100000000E-03 0. -1.
         23    2    1    2    0    0 -0.66613381478E-15 -0.71054273576E-14  0.00000000000E+00  0.91188000000E+02  0.91188000000E+02 0.  0.
    9900012    2    3    3    0    0  0.10567473117E+01  0.35988356781E+02  0.77137296742E+01  0.54367079803E+02  0.39999990027E+02 0.  0.
         12    1    3    3    0    0 -0.10567473117E+01 -0.35988356781E+02 -0.77137296742E+01  0.36820920197E+02  0.00000000000E+00 0. -1.
         11    1    4    4    0    0  0.15110633511E+02  0.18169114388E+01  0.32746119866E+01  0.15567771074E+02  0.51100000000E-03 0. -1.
        -11    1    4    4    0    0 -0.90021118343E+01  0.20900219543E+02  0.80652465733E+01  0.24143433827E+02  0.51100000000E-03 0.  1.
         12    1    4    4    0    0 -0.50517743649E+01  0.13271225799E+02 -0.36261288857E+01  0.14655874902E+02  0.00000000000E+00 0. -1.
</event>
<event>
 8    1  0.2521748E-006  0.9118800E+02  0.7816164E-02  0.1184000E+00
        -11   -1    0    0    0    0  0.00000000000E+00  0.00000000000E+00  0.45593999997E+02  0.45594000000E+02  0.51100000000E-03 0.  1.
         11   -1    0    0    0    0 -0.00000000000E+00 -0.00000000000E+00 -0.45593999997E+02  0.45594000000E+02  0.51100000000E-03 0. -1.
         23    2    1    2    0    0  0.35527136788E-14  0.35527136788E-14 -0.17763568394E-14  0.91188000000E+02  0.91188000000E+02 0.  0.
    9900012    2    3    3    0    0 -0.26369424455E+02  0.20699799032E+02  0.15229970714E+02  0.54367078854E+02  0.39999987864E+02 0.  0.
        -12    1    3    3    0    0  0.26369424455E+02 -0.20699799032E+02 -0.15229970714E+02  0.36820921146E+02  0.00000000000E+00 0.  1.
         11    1    4    4    0    0 -0.20757158819E+02 -0.47187564974E+00  0.11492960181E+02  0.23731212419E+02  0.51100000000E-03 0. -1.
        -11    1    4    4    0    0 -0.47857907285E+01 -0.24324914888E+01  0.44997909044E+01  0.70049215687E+01  0.51100000000E-03 0.  1.
         12    1    4    4    0    0 -0.82647490721E+00  0.23604166171E+02 -0.76278037204E+00  0.23630944867E+02  0.00000000000E+00 0. -1.
</event>
<event>
 8    1  0.2521748E-006  0.9118800E+02  0.7816164E-02  0.1184000E+00
        -11   -1    0    0    0    0  0.00000000000E+00  0.00000000000E+00  0.45593999997E+02  0.45594000000E+02  0.51100000000E-03 0. -1.
         11   -1    0    0    0    0 -0.00000000000E+00 -0.00000000000E+00 -0.45593999997E+02  0.45594000000E+02  0.51100000000E-03 0.  1.
         23    2    1    2    0    0 -0.44408920985E-15  0.00000000000E+00  0.00000000000E+00  0.91188000000E+02  0.91188000000E+02 0.  0.
    9900012    2    3    3    0    0 -0.29032225538E+01 -0.10131190789E+02 -0.35280421115E+02  0.54367111336E+02  0.40000061912E+02 0.  0.
         12    1    3    3    0    0  0.29032225538E+01  0.10131190789E+02  0.35280421115E+02  0.36820888664E+02  0.00000000000E+00 0. -1.
         11    1    4    4    0    0 -0.63989683997E+01 -0.40474374445E+01 -0.31855894906E+01  0.82144097239E+01  0.51100000000E-03 0. -1.
        -11    1    4    4    0    0 -0.11377947622E+02 -0.12093955307E+02 -0.20381978945E+02  0.26289665518E+02  0.51100000000E-03 0.  1.
         12    1    4    4    0    0  0.14873693468E+02  0.60102019620E+01 -0.11712852679E+02  0.19863036094E+02  0.00000000000E+00 0. -1.
</event>
<event>
 8    1  0.2521748E-006  0.9118800E+02  0.7816164E-02  0.1184000E+00
        -11   -1    0    0    0    0  0.00000000000E+00  0.00000000000E+00  0.45593999997E+02  0.45594000000E+02  0.51100000000E-03 0.  1.
         11   -1    0    0    0    0 -0.00000000000E+00 -0.00000000000E+00 -0.45593999997E+02  0.45594000000E+02  0.51100000000E-03 0. -1.
         23    2    1    2    0    0  0.88817841970E-15  0.17763568394E-14  0.00000000000E+00  0.91188000000E+02  0.91188000000E+02 0.  0.
    9900012    2    3    3    0    0  0.28999734209E+01  0.14493987141E+02  0.33723794470E+02  0.54367084442E+02  0.40000000602E+02 0.  0.
         12    1    3    3    0    0 -0.28999734209E+01 -0.14493987141E+02 -0.33723794470E+02  0.36820915558E+02  0.00000000000E+00 0. -1.
         11    1    4    4    0    0 -0.69824618061E+01 -0.10969410727E+02  0.87101317563E+01  0.15650851097E+02  0.51100000000E-03 0. -1.
        -11    1    4    4    0    0  0.13288938204E+01  0.17012066986E+02  0.17968343856E+02  0.24779785373E+02  0.51100000000E-03 0.  1.
         12    1    4    4    0    0  0.85535414067E+01  0.84513308824E+01  0.70453188574E+01  0.13936447972E+02  0.00000000000E+00 0. -1.
</event>
<event>
 8    1  0.2521748E-006  0.9118800E+02  0.7816164E-02  0.1184000E+00
        -11   -1    0    0    0    0  0.00000000000E+00  0.00000000000E+00  0.45593999997E+02  0.45594000000E+02  0.51100000000E-03 0. -1.
         11   -1    0    0    0    0 -0.00000000000E+00 -0.00000000000E+00 -0.45593999997E+02  0.45594000000E+02  0.51100000000E-03 0.  1.
         23    2    1    2    0    0  0.00000000000E+00 -0.63143934526E-15  0.00000000000E+00  0.91188000000E+02  0.91188000000E+02 0.  0.
    9900012    2    3    3    0    0 -0.32404753183E+00  0.52293260527E-01 -0.36819681547E+02  0.54366855387E+02  0.39999478422E+02 0.  0.
         12    1    3    3    0    0  0.32404753183E+00 -0.52293260527E-01  0.36819681547E+02  0.36821144613E+02  0.00000000000E+00 0. -1.
         11    1    4    4    0    0  0.11026712893E+00 -0.14457159811E+02 -0.22041751304E+02  0.26360205413E+02  0.51100000000E-03 0.  1.
        -11    1    4    4    0    0  0.58203549578E+00 -0.33289046259E+01 -0.83675630948E+01  0.90242165163E+01  0.51100000000E-03 0. -1.
        -12    1    4    4    0    0 -0.10163501565E+01  0.17838357697E+02 -0.64103671488E+01  0.18982433457E+02  0.00000000000E+00 0.  1.
</event>
<event>
 8    1  0.2521748E-006  0.9118800E+02  0.7816164E-02  0.1184000E+00
        -11   -1    0    0    0    0  0.00000000000E+00  0.00000000000E+00  0.45593999997E+02  0.45594000000E+02  0.51100000000E-03 0. -1.
         11   -1    0    0    0    0 -0.00000000000E+00 -0.00000000000E+00 -0.45593999997E+02  0.45594000000E+02  0.51100000000E-03 0.  1.
         23    2    1    2    0    0  0.35527136788E-14  0.35527136788E-14  0.17763568394E-14  0.91188000000E+02  0.91188000000E+02 0.  0.
    9900012    2    3    3    0    0 -0.17991231388E+02  0.30592374443E+02  0.98082306970E+01  0.54367093299E+02  0.40000020793E+02 0.  0.
        -12    1    3    3    0    0  0.17991231388E+02 -0.30592374443E+02 -0.98082306970E+01  0.36820906701E+02  0.00000000000E+00 0.  1.
         11    1    4    4    0    0  0.60338359059E+01  0.15354484057E+02 -0.71615279821E+01  0.17984850282E+02  0.51100000000E-03 0. -1.
        -11    1    4    4    0    0  0.20304771510E+01  0.21009378119E+01  0.83592140935E+00  0.30390034574E+01  0.51100000000E-03 0.  1.
        -12    1    4    4    0    0 -0.26055544445E+02  0.13136952574E+02  0.16133837270E+02  0.33343239559E+02  0.00000000000E+00 0.  1.
</event>
<event>
 8    1  0.2521748E-006  0.9118800E+02  0.7816164E-02  0.1184000E+00
        -11   -1    0    0    0    0  0.00000000000E+00  0.00000000000E+00  0.45593999997E+02  0.45594000000E+02  0.51100000000E-03 0.  1.
         11   -1    0    0    0    0 -0.00000000000E+00 -0.00000000000E+00 -0.45593999997E+02  0.45594000000E+02  0.51100000000E-03 0. -1.
         23    2    1    2    0    0 -0.35527136788E-14  0.44408920985E-15 -0.35527136788E-14  0.91188000000E+02  0.91188000000E+02 0.  0.
    9900012    2    3    3    0    0 -0.31801097651E+02  0.36620645743E+01 -0.18194992552E+02  0.54367105351E+02  0.40000048270E+02 0.  0.
        -12    1    3    3    0    0  0.31801097651E+02 -0.36620645743E+01  0.18194992552E+02  0.36820894649E+02  0.00000000000E+00 0.  1.
         11    1    4    4    0    0 -0.62515159649E-01 -0.20018788935E+01 -0.27218062487E+01  0.33792982653E+01  0.51100000000E-03 0. -1.
        -11    1    4    4    0    0  0.77710273203E+01  0.62315557523E+00 -0.65223902928E+01  0.10164583802E+02  0.51100000000E-03 0.  1.
         12    1    4    4    0    0 -0.39509609812E+02  0.50407878926E+01 -0.89507960101E+01  0.40823223284E+02  0.00000000000E+00 0. -1.
</event>
<event>
 8    1  0.2521748E-006  0.9118800E+02  0.7816164E-02  0.1184000E+00
        -11   -1    0    0    0    0  0.00000000000E+00  0.00000000000E+00  0.45593999997E+02  0.45594000000E+02  0.51100000000E-03 0.  1.
         11   -1    0    0    0    0 -0.00000000000E+00 -0.00000000000E+00 -0.45593999997E+02  0.45594000000E+02  0.51100000000E-03 0. -1.
         23    2    1    2    0    0  0.00000000000E+00  0.00000000000E+00  0.22204460493E-14  0.91188000000E+02  0.91188000000E+02 0.  0.
    9900012    2    3    3    0    0  0.35452368384E+02 -0.92649622693E+01 -0.36152107978E+01  0.54367086120E+02  0.40000004427E+02 0.  0.
        -12    1    3    3    0    0 -0.35452368384E+02  0.92649622693E+01  0.36152107978E+01  0.36820913880E+02  0.00000000000E+00 0.  1.
         11    1    4    4    0    0  0.36878901273E+01  0.71248030842E+01 -0.38220995533E+01  0.88866077800E+01  0.51100000000E-03 0. -1.
        -11    1    4    4    0    0  0.27685806017E+02 -0.15828463042E+02  0.11153463089E+02  0.33785260635E+02  0.51100000000E-03 0.  1.
        -12    1    4    4    0    0  0.40786722398E+01 -0.56130231114E+00 -0.10946574333E+02  0.11695217704E+02  0.00000000000E+00 0.  1.
</event>
<event>
 8    1  0.2521748E-006  0.9118800E+02  0.7816164E-02  0.1184000E+00
        -11   -1    0    0    0    0  0.00000000000E+00  0.00000000000E+00  0.45593999997E+02  0.45594000000E+02  0.51100000000E-03 0. -1.
         11   -1    0    0    0    0 -0.00000000000E+00 -0.00000000000E+00 -0.45593999997E+02  0.45594000000E+02  0.51100000000E-03 0.  1.
         23    2    1    2    0    0  0.00000000000E+00  0.00000000000E+00  0.00000000000E+00  0.91188000000E+02  0.91188000000E+02 0.  0.
    9900012    2    3    3    0    0  0.11958212436E+02  0.35924135507E+01  0.34639225023E+02  0.54367079453E+02  0.39999989228E+02 0.  0.
        -12    1    3    3    0    0 -0.11958212436E+02 -0.35924135507E+01 -0.34639225023E+02  0.36820920547E+02  0.00000000000E+00 0.  1.
         11    1    4    4    0    0  0.10826145143E+02  0.19145945613E+01  0.28653726080E+02  0.30690505202E+02  0.51100000000E-03 0. -1.
        -11    1    4    4    0    0  0.11402001796E+02  0.26254775844E+01  0.64350325007E+01  0.13353217629E+02  0.51100000000E-03 0.  1.
        -12    1    4    4    0    0 -0.10269934504E+02 -0.94765859502E+00 -0.44953355816E+00  0.10323356622E+02  0.00000000000E+00 0.  1.
</event>
<event>
 8    1  0.2521748E-006  0.9118800E+02  0.7816164E-02  0.1184000E+00
        -11   -1    0    0    0    0  0.00000000000E+00  0.00000000000E+00  0.45593999997E+02  0.45594000000E+02  0.51100000000E-03 0. -1.
         11   -1    0    0    0    0 -0.00000000000E+00 -0.00000000000E+00 -0.45593999997E+02  0.45594000000E+02  0.51100000000E-03 0.  1.
         23    2    1    2    0    0  0.00000000000E+00  0.71054273576E-14  0.00000000000E+00  0.91188000000E+02  0.91188000000E+02 0.  0.
    9900012    2    3    3    0    0 -0.24259969150E+02 -0.27489027752E+02 -0.34040487791E+01  0.54367077986E+02  0.39999985884E+02 0.  0.
        -12    1    3    3    0    0  0.24259969150E+02  0.27489027752E+02  0.34040487791E+01  0.36820922014E+02  0.00000000000E+00 0.  1.
         11    1    4    4    0    0 -0.50326825435E+01  0.11622792209E+01 -0.57558323077E+01  0.77335885840E+01  0.51100000000E-03 0.  1.
        -11    1    4    4    0    0 -0.12967304947E+02 -0.17163375538E+02  0.16687758365E+02  0.27225240806E+02  0.51100000000E-03 0. -1.
         12    1    4    4    0    0 -0.62599816589E+01 -0.11487931435E+02 -0.14335974836E+02  0.19408248595E+02  0.00000000000E+00 0. -1.
</event>
<event>
 8    1  0.2521748E-006  0.9118800E+02  0.7816164E-02  0.1184000E+00
        -11   -1    0    0    0    0  0.00000000000E+00  0.00000000000E+00  0.45593999997E+02  0.45594000000E+02  0.51100000000E-03 0.  1.
         11   -1    0    0    0    0 -0.00000000000E+00 -0.00000000000E+00 -0.45593999997E+02  0.45594000000E+02  0.51100000000E-03 0. -1.
         23    2    1    2    0    0  0.88817841970E-15 -0.88817841970E-15  0.00000000000E+00  0.91188000000E+02  0.91188000000E+02 0.  0.
    9900012    2    3    3    0    0  0.13254222103E+01  0.10705778215E+01  0.36781462211E+02  0.54367097739E+02  0.40000030917E+02 0.  0.
         12    1    3    3    0    0 -0.13254222103E+01 -0.10705778215E+01 -0.36781462211E+02  0.36820902261E+02  0.00000000000E+00 0. -1.
         11    1    4    4    0    0 -0.32434461391E+01  0.41820554184E+00 -0.18438231074E+01  0.37542672581E+01  0.51100000000E-03 0. -1.
        -11    1    4    4    0    0 -0.85286159786E+01 -0.10063498091E+02  0.27094875453E+02  0.30135420362E+02  0.51100000000E-03 0.  1.
         12    1    4    4    0    0  0.13097484328E+02  0.10715870371E+02  0.11530409866E+02  0.20477410119E+02  0.00000000000E+00 0. -1.
</event>
<event>
 8    1  0.2521748E-006  0.9118800E+02  0.7816164E-02  0.1184000E+00
        -11   -1    0    0    0    0  0.00000000000E+00  0.00000000000E+00  0.45593999997E+02  0.45594000000E+02  0.51100000000E-03 0.  1.
         11   -1    0    0    0    0 -0.00000000000E+00 -0.00000000000E+00 -0.45593999997E+02  0.45594000000E+02  0.51100000000E-03 0. -1.
         23    2    1    2    0    0  0.00000000000E+00  0.88817841970E-15  0.35527136788E-14  0.91188000000E+02  0.91188000000E+02 0.  0.
    9900012    2    3    3    0    0  0.33259267554E+02  0.79652185309E+01  0.13643941169E+02  0.54367072322E+02  0.39999972973E+02 0.  0.
        -12    1    3    3    0    0 -0.33259267554E+02 -0.79652185309E+01 -0.13643941169E+02  0.36820927678E+02  0.00000000000E+00 0.  1.
         11    1    4    4    0    0  0.19031252716E+01 -0.44647131334E+01 -0.98753902726E+01  0.11003584982E+02  0.51100000000E-03 0. -1.
        -11    1    4    4    0    0  0.28191280632E+02  0.64705959934E+01  0.15275264853E+02  0.32710099859E+02  0.51100000000E-03 0.  1.
         12    1    4    4    0    0  0.31648616497E+01  0.59593356710E+01  0.82440665885E+01  0.10653387481E+02  0.00000000000E+00 0. -1.
</event>
<event>
 8    1  0.2521748E-006  0.9118800E+02  0.7816164E-02  0.1184000E+00
        -11   -1    0    0    0    0  0.00000000000E+00  0.00000000000E+00  0.45593999997E+02  0.45594000000E+02  0.51100000000E-03 0. -1.
         11   -1    0    0    0    0 -0.00000000000E+00 -0.00000000000E+00 -0.45593999997E+02  0.45594000000E+02  0.51100000000E-03 0.  1.
         23    2    1    2    0    0  0.00000000000E+00  0.00000000000E+00 -0.35527136788E-14  0.91188000000E+02  0.91188000000E+02 0.  0.
    9900012    2    3    3    0    0 -0.24587872743E+02 -0.19623977846E+02  0.19134566406E+02  0.54366869870E+02  0.39999511439E+02 0.  0.
         12    1    3    3    0    0  0.24587872743E+02  0.19623977846E+02 -0.19134566406E+02  0.36821130130E+02  0.00000000000E+00 0. -1.
         11    1    4    4    0    0  0.33276287955E+01 -0.21638105090E+00  0.95103805743E+00  0.34676227891E+01  0.51100000000E-03 0. -1.
        -11    1    4    4    0    0 -0.32596941982E+02 -0.23050109098E+02  0.10666207572E+02  0.41323554303E+02  0.51100000000E-03 0.  1.
        -12    1    4    4    0    0  0.46814404440E+01  0.36425123029E+01  0.75173207767E+01  0.95756927774E+01  0.00000000000E+00 0.  1.
</event>
<event>
 8    1  0.2521748E-006  0.9118800E+02  0.7816164E-02  0.1184000E+00
        -11   -1    0    0    0    0  0.00000000000E+00  0.00000000000E+00  0.45593999997E+02  0.45594000000E+02  0.51100000000E-03 0.  1.
         11   -1    0    0    0    0 -0.00000000000E+00 -0.00000000000E+00 -0.45593999997E+02  0.45594000000E+02  0.51100000000E-03 0. -1.
         23    2    1    2    0    0  0.00000000000E+00  0.00000000000E+00 -0.35527136788E-14  0.91188000000E+02  0.91188000000E+02 0.  0.
    9900012    2    3    3    0    0 -0.18787048506E+02 -0.25500643778E+02  0.18776145196E+02  0.54367086743E+02  0.40000005848E+02 0.  0.
         12    1    3    3    0    0  0.18787048506E+02  0.25500643778E+02 -0.18776145196E+02  0.36820913257E+02  0.00000000000E+00 0. -1.
         11    1    4    4    0    0 -0.27018112990E-01 -0.19846426356E+02  0.90531417388E+01  0.21813774196E+02  0.51100000000E-03 0. -1.
        -11    1    4    4    0    0 -0.68805360916E+01  0.87771964809E+01  0.81146177724E+01  0.13792315862E+02  0.51100000000E-03 0.  1.
         12    1    4    4    0    0 -0.11879494301E+02 -0.14431413903E+02  0.16083856845E+01  0.18760996685E+02  0.00000000000E+00 0. -1.
</event>
<event>
 8    1  0.2521748E-006  0.9118800E+02  0.7816164E-02  0.1184000E+00
        -11   -1    0    0    0    0  0.00000000000E+00  0.00000000000E+00  0.45593999997E+02  0.45594000000E+02  0.51100000000E-03 0.  1.
         11   -1    0    0    0    0 -0.00000000000E+00 -0.00000000000E+00 -0.45593999997E+02  0.45594000000E+02  0.51100000000E-03 0. -1.
         23    2    1    2    0    0  0.17763568394E-14 -0.26645352591E-14  0.00000000000E+00  0.91188000000E+02  0.91188000000E+02 0.  0.
    9900012    2    3    3    0    0 -0.13399816620E+02  0.70482558658E+01  0.33564077438E+02  0.54367078088E+02  0.39999986117E+02 0.  0.
        -12    1    3    3    0    0  0.13399816620E+02 -0.70482558658E+01 -0.33564077438E+02  0.36820921912E+02  0.00000000000E+00 0.  1.
         11    1    4    4    0    0  0.18398263595E+01 -0.12191568759E+02  0.12205905967E+02  0.17349451016E+02  0.51100000000E-03 0. -1.
        -11    1    4    4    0    0 -0.98632919758E+01  0.11763676345E+02  0.23011098903E+02  0.27661874173E+02  0.51100000000E-03 0.  1.
         12    1    4    4    0    0 -0.53763510040E+01  0.74761482792E+01 -0.16529274324E+01  0.93557528990E+01  0.00000000000E+00 0. -1.
</event>
<event>
 8    1  0.2521748E-006  0.9118800E+02  0.7816164E-02  0.1184000E+00
        -11   -1    0    0    0    0  0.00000000000E+00  0.00000000000E+00  0.45593999997E+02  0.45594000000E+02  0.51100000000E-03 0.  1.
         11   -1    0    0    0    0 -0.00000000000E+00 -0.00000000000E+00 -0.45593999997E+02  0.45594000000E+02  0.51100000000E-03 0. -1.
         23    2    1    2    0    0 -0.35527136788E-14  0.35527136788E-14 -0.35527136788E-14  0.91188000000E+02  0.91188000000E+02 0.  0.
    9900012    2    3    3    0    0 -0.25654738783E+02  0.20347544085E+02 -0.16840236698E+02  0.54367058345E+02  0.39999941109E+02 0.  0.
        -12    1    3    3    0    0  0.25654738783E+02 -0.20347544085E+02  0.16840236698E+02  0.36820941655E+02  0.00000000000E+00 0.  1.
         11    1    4    4    0    0 -0.12283698199E+02  0.24721892747E+02 -0.11013568509E+02  0.29721371335E+02  0.51100000000E-03 0. -1.
        -11    1    4    4    0    0 -0.86792137752E+01 -0.98168273598E+01 -0.98661517139E+01  0.16402432779E+02  0.51100000000E-03 0.  1.
        -12    1    4    4    0    0 -0.46918268087E+01  0.54424786975E+01  0.40394835246E+01  0.82432542313E+01  0.00000000000E+00 0.  1.
</event>
<event>
 8    1  0.2521748E-006  0.9118800E+02  0.7816164E-02  0.1184000E+00
        -11   -1    0    0    0    0  0.00000000000E+00  0.00000000000E+00  0.45593999997E+02  0.45594000000E+02  0.51100000000E-03 0. -1.
         11   -1    0    0    0    0 -0.00000000000E+00 -0.00000000000E+00 -0.45593999997E+02  0.45594000000E+02  0.51100000000E-03 0.  1.
         23    2    1    2    0    0  0.00000000000E+00  0.00000000000E+00 -0.88817841970E-15  0.91188000000E+02  0.91188000000E+02 0.  0.
    9900012    2    3    3    0    0 -0.29970255721E+02  0.20234673865E+02  0.69369769113E+01  0.54367083348E+02  0.39999998109E+02 0.  0.
        -12    1    3    3    0    0  0.29970255721E+02 -0.20234673865E+02 -0.69369769113E+01  0.36820916652E+02  0.00000000000E+00 0.  1.
         11    1    4    4    0    0 -0.52060749100E+01  0.18635902609E+02  0.37823729592E+01  0.19715639160E+02  0.51100000000E-03 0. -1.
        -11    1    4    4    0    0 -0.62436684794E+01  0.88061960640E+01 -0.64537494968E+01  0.12577096963E+02  0.51100000000E-03 0.  1.
         12    1    4    4    0    0 -0.18520512332E+02 -0.72074248086E+01  0.96083534489E+01  0.22074347225E+02  0.00000000000E+00 0. -1.
</event>
<event>
 8    1  0.2521748E-006  0.9118800E+02  0.7816164E-02  0.1184000E+00
        -11   -1    0    0    0    0  0.00000000000E+00  0.00000000000E+00  0.45593999997E+02  0.45594000000E+02  0.51100000000E-03 0.  1.
         11   -1    0    0    0    0 -0.00000000000E+00 -0.00000000000E+00 -0.45593999997E+02  0.45594000000E+02  0.51100000000E-03 0. -1.
         23    2    1    2    0    0  0.00000000000E+00  0.00000000000E+00  0.00000000000E+00  0.91188000000E+02  0.91188000000E+02 0.  0.
    9900012    2    3    3    0    0  0.10760633651E+02 -0.53954033623E+01 -0.34797675763E+02  0.54367084034E+02  0.39999999673E+02 0.  0.
        -12    1    3    3    0    0 -0.10760633651E+02  0.53954033623E+01  0.34797675763E+02  0.36820915966E+02  0.00000000000E+00 0.  1.
         11    1    4    4    0    0 -0.90191151636E+01  0.65326131290E+00 -0.25194441346E+02  0.26768097872E+02  0.51100000000E-03 0. -1.
        -11    1    4    4    0    0  0.53696656440E+01  0.52595844534E+01 -0.35020062313E+01  0.82922002904E+01  0.51100000000E-03 0.  1.
        -12    1    4    4    0    0  0.14410083170E+02 -0.11308249129E+02 -0.61012281857E+01  0.19306785872E+02  0.00000000000E+00 0.  1.
</event>
<event>
 8    1  0.2521748E-006  0.9118800E+02  0.7816164E-02  0.1184000E+00
        -11   -1    0    0    0    0  0.00000000000E+00  0.00000000000E+00  0.45593999997E+02  0.45594000000E+02  0.51100000000E-03 0.  1.
         11   -1    0    0    0    0 -0.00000000000E+00 -0.00000000000E+00 -0.45593999997E+02  0.45594000000E+02  0.51100000000E-03 0. -1.
         23    2    1    2    0    0 -0.35527136788E-14  0.44408920985E-15  0.35527136788E-14  0.91188000000E+02  0.91188000000E+02 0.  0.
    9900012    2    3    3    0    0  0.31574319961E+02  0.23920415591E+01 -0.18791538769E+02  0.54367062028E+02  0.39999949506E+02 0.  0.
        -12    1    3    3    0    0 -0.31574319961E+02 -0.23920415591E+01  0.18791538769E+02  0.36820937972E+02  0.00000000000E+00 0.  1.
         11    1    4    4    0    0  0.30311119805E+01 -0.73356390584E+01 -0.75027497158E+01  0.10922018760E+02  0.51100000000E-03 0. -1.
        -11    1    4    4    0    0  0.13146897967E+02 -0.16042184441E+01  0.86527295098E+01  0.15820372031E+02  0.51100000000E-03 0.  1.
         12    1    4    4    0    0  0.15396310013E+02  0.11331899062E+02 -0.19941518563E+02  0.27624671237E+02  0.00000000000E+00 0. -1.
</event>
<event>
 8    1  0.2521748E-006  0.9118800E+02  0.7816164E-02  0.1184000E+00
        -11   -1    0    0    0    0  0.00000000000E+00  0.00000000000E+00  0.45593999997E+02  0.45594000000E+02  0.51100000000E-03 0.  1.
         11   -1    0    0    0    0 -0.00000000000E+00 -0.00000000000E+00 -0.45593999997E+02  0.45594000000E+02  0.51100000000E-03 0. -1.
         23    2    1    2    0    0  0.00000000000E+00  0.00000000000E+00  0.44408920985E-15  0.91188000000E+02  0.91188000000E+02 0.  0.
    9900012    2    3    3    0    0 -0.34190984517E+02  0.13561786832E+02  0.16835456487E+01  0.54367084608E+02  0.40000000981E+02 0.  0.
         12    1    3    3    0    0  0.34190984517E+02 -0.13561786832E+02 -0.16835456487E+01  0.36820915392E+02  0.00000000000E+00 0. -1.
         11    1    4    4    0    0 -0.16340273811E+02 -0.23888104399E+01  0.65574366711E+01  0.17768256513E+02  0.51100000000E-03 0.  1.
        -11    1    4    4    0    0 -0.19028756091E+02  0.16158396444E+02  0.59875292543E+01  0.25671732331E+02  0.51100000000E-03 0. -1.
         12    1    4    4    0    0  0.11780453848E+01 -0.20779917188E+00 -0.10861420277E+02  0.10927095765E+02  0.00000000000E+00 0. -1.
</event>
<event>
 8    1  0.2521748E-006  0.9118800E+02  0.7816164E-02  0.1184000E+00
        -11   -1    0    0    0    0  0.00000000000E+00  0.00000000000E+00  0.45593999997E+02  0.45594000000E+02  0.51100000000E-03 0.  1.
         11   -1    0    0    0    0 -0.00000000000E+00 -0.00000000000E+00 -0.45593999997E+02  0.45594000000E+02  0.51100000000E-03 0. -1.
         23    2    1    2    0    0 -0.17763568394E-14 -0.88817841970E-15  0.00000000000E+00  0.91188000000E+02  0.91188000000E+02 0.  0.
    9900012    2    3    3    0    0 -0.84918792052E+01 -0.76437776161E+01 -0.35003432767E+02  0.54367086728E+02  0.40000005814E+02 0.  0.
        -12    1    3    3    0    0  0.84918792052E+01  0.76437776161E+01  0.35003432767E+02  0.36820913272E+02  0.00000000000E+00 0.  1.
         11    1    4    4    0    0 -0.33983931337E+01 -0.51119789095E+01 -0.86025636387E+01  0.10568136339E+02  0.51100000000E-03 0. -1.
        -11    1    4    4    0    0 -0.16551238830E+02 -0.94065385926E+01 -0.23287989278E+02  0.30079177514E+02  0.51100000000E-03 0.  1.
        -12    1    4    4    0    0  0.11457752758E+02  0.68747398860E+01 -0.31128798509E+01  0.13719772875E+02  0.00000000000E+00 0.  1.
</event>
<event>
 8    1  0.2521748E-006  0.9118800E+02  0.7816164E-02  0.1184000E+00
        -11   -1    0    0    0    0  0.00000000000E+00  0.00000000000E+00  0.45593999997E+02  0.45594000000E+02  0.51100000000E-03 0. -1.
         11   -1    0    0    0    0 -0.00000000000E+00 -0.00000000000E+00 -0.45593999997E+02  0.45594000000E+02  0.51100000000E-03 0.  1.
         23    2    1    2    0    0  0.00000000000E+00 -0.17763568394E-14  0.00000000000E+00  0.91188000000E+02  0.91188000000E+02 0.  0.
    9900012    2    3    3    0    0 -0.18448347444E+02 -0.85863774732E+01 -0.30687341175E+02  0.54367077823E+02  0.39999985514E+02 0.  0.
         12    1    3    3    0    0  0.18448347444E+02  0.85863774732E+01  0.30687341175E+02  0.36820922177E+02  0.00000000000E+00 0. -1.
         11    1    4    4    0    0  0.60810494145E+01 -0.92160432675E+01 -0.36830554601E+01  0.11639566713E+02  0.51100000000E-03 0. -1.
        -11    1    4    4    0    0 -0.86901795805E+01  0.44976273624E+01  0.14902783272E+01  0.98979191139E+01  0.51100000000E-03 0.  1.
         12    1    4    4    0    0 -0.15839217278E+02 -0.38679615681E+01 -0.28494564042E+02  0.32829591996E+02  0.00000000000E+00 0. -1.
</event>
<event>
 8    1  0.2521748E-006  0.9118800E+02  0.7816164E-02  0.1184000E+00
        -11   -1    0    0    0    0  0.00000000000E+00  0.00000000000E+00  0.45593999997E+02  0.45594000000E+02  0.51100000000E-03 0.  1.
         11   -1    0    0    0    0 -0.00000000000E+00 -0.00000000000E+00 -0.45593999997E+02  0.45594000000E+02  0.51100000000E-03 0. -1.
         23    2    1    2    0    0  0.00000000000E+00  0.00000000000E+00  0.17763568394E-14  0.91188000000E+02  0.91188000000E+02 0.  0.
    9900012    2    3    3    0    0 -0.99727482753E+01  0.32706059812E+02 -0.13661608027E+02  0.54367060435E+02  0.39999945873E+02 0.  0.
        -12    1    3    3    0    0  0.99727482753E+01 -0.32706059812E+02  0.13661608027E+02  0.36820939565E+02  0.00000000000E+00 0.  1.
         11    1    4    4    0    0  0.56157143688E+01  0.16574131661E+02 -0.22755532957E+02  0.28706312348E+02  0.51100000000E-03 0. -1.
        -11    1    4    4    0    0 -0.13936064646E+02  0.12864879508E+02  0.39931517380E+01  0.19382060872E+02  0.51100000000E-03 0.  1.
        -12    1    4    4    0    0 -0.16523979982E+01  0.32670486422E+01  0.51007731926E+01  0.62786872145E+01  0.00000000000E+00 0.  1.
</event>
<event>
 8    1  0.2521748E-006  0.9118800E+02  0.7816164E-02  0.1184000E+00
        -11   -1    0    0    0    0  0.00000000000E+00  0.00000000000E+00  0.45593999997E+02  0.45594000000E+02  0.51100000000E-03 0.  1.
         11   -1    0    0    0    0 -0.00000000000E+00 -0.00000000000E+00 -0.45593999997E+02  0.45594000000E+02  0.51100000000E-03 0. -1.
         23    2    1    2    0    0 -0.44408920985E-15  0.00000000000E+00  0.00000000000E+00  0.91188000000E+02  0.91188000000E+02 0.  0.
    9900012    2    3    3    0    0 -0.19805018531E+01 -0.25467208514E+02 -0.26519394716E+02  0.54367090272E+02  0.40000013892E+02 0.  0.
        -12    1    3    3    0    0  0.19805018531E+01  0.25467208514E+02  0.26519394716E+02  0.36820909728E+02  0.00000000000E+00 0.  1.
         11    1    4    4    0    0 -0.76738058238E+01 -0.11079925611E+02 -0.15020672885E+02  0.20180997535E+02  0.51100000000E-03 0. -1.
        -11    1    4    4    0    0  0.11427730577E+02 -0.19808482934E+02 -0.38387898555E+01  0.23188474078E+02  0.51100000000E-03 0.  1.
         12    1    4    4    0    0 -0.57344266062E+01  0.54212000299E+01 -0.76599319761E+01  0.10997618658E+02  0.00000000000E+00 0. -1.
</event>
<event>
 8    1  0.2521748E-006  0.9118800E+02  0.7816164E-02  0.1184000E+00
        -11   -1    0    0    0    0  0.00000000000E+00  0.00000000000E+00  0.45593999997E+02  0.45594000000E+02  0.51100000000E-03 0.  1.
         11   -1    0    0    0    0 -0.00000000000E+00 -0.00000000000E+00 -0.45593999997E+02  0.45594000000E+02  0.51100000000E-03 0. -1.
         23    2    1    2    0    0  0.00000000000E+00  0.22204460493E-15  0.00000000000E+00  0.91188000000E+02  0.91188000000E+02 0.  0.
    9900012    2    3    3    0    0  0.28879051403E+02  0.83317459537E+00 -0.22827292033E+02  0.54367094914E+02  0.40000024475E+02 0.  0.
        -12    1    3    3    0    0 -0.28879051403E+02 -0.83317459537E+00  0.22827292033E+02  0.36820905086E+02  0.00000000000E+00 0.  1.
         11    1    4    4    0    0  0.30194422747E+02 -0.93617898640E+01 -0.15518307022E+02  0.35215964101E+02  0.51100000000E-03 0. -1.
        -11    1    4    4    0    0  0.40730020071E-01  0.42190838167E+01  0.42998735701E+01  0.60242211254E+01  0.51100000000E-03 0.  1.
         12    1    4    4    0    0 -0.13561013648E+01  0.59758806426E+01 -0.11608858581E+02  0.13126909687E+02  0.00000000000E+00 0. -1.
</event>
<event>
 8    1  0.2521748E-006  0.9118800E+02  0.7816164E-02  0.1184000E+00
        -11   -1    0    0    0    0  0.00000000000E+00  0.00000000000E+00  0.45593999997E+02  0.45594000000E+02  0.51100000000E-03 0. -1.
         11   -1    0    0    0    0 -0.00000000000E+00 -0.00000000000E+00 -0.45593999997E+02  0.45594000000E+02  0.51100000000E-03 0.  1.
         23    2    1    2    0    0  0.66613381478E-15  0.00000000000E+00  0.00000000000E+00  0.91188000000E+02  0.91188000000E+02 0.  0.
    9900012    2    3    3    0    0 -0.12838463701E+01 -0.36486566617E+02 -0.47814068516E+01  0.54367086697E+02  0.40000005743E+02 0.  0.
         12    1    3    3    0    0  0.12838463701E+01  0.36486566617E+02  0.47814068516E+01  0.36820913303E+02  0.00000000000E+00 0. -1.
         11    1    4    4    0    0 -0.24069931470E+01 -0.89851641990E+01 -0.76802854708E+01  0.12062900848E+02  0.51100000000E-03 0. -1.
        -11    1    4    4    0    0  0.12890488837E+02 -0.12770557671E+02 -0.87469998415E+01  0.20143531273E+02  0.51100000000E-03 0.  1.
         12    1    4    4    0    0 -0.11767342060E+02 -0.14730844747E+02  0.11645878461E+02  0.22160654576E+02  0.00000000000E+00 0. -1.
</event>
<event>
 8    1  0.2521748E-006  0.9118800E+02  0.7816164E-02  0.1184000E+00
        -11   -1    0    0    0    0  0.00000000000E+00  0.00000000000E+00  0.45593999997E+02  0.45594000000E+02  0.51100000000E-03 0. -1.
         11   -1    0    0    0    0 -0.00000000000E+00 -0.00000000000E+00 -0.45593999997E+02  0.45594000000E+02  0.51100000000E-03 0.  1.
         23    2    1    2    0    0 -0.53290705182E-14 -0.35527136788E-14  0.00000000000E+00  0.91188000000E+02  0.91188000000E+02 0.  0.
    9900012    2    3    3    0    0  0.14297978687E+02  0.26855613729E+02 -0.20739486894E+02  0.54367048085E+02  0.39999917720E+02 0.  0.
         12    1    3    3    0    0 -0.14297978687E+02 -0.26855613729E+02  0.20739486894E+02  0.36820951915E+02  0.00000000000E+00 0. -1.
         11    1    4    4    0    0 -0.87183272233E+01  0.17931263306E+01  0.33502980932E+01  0.95104694513E+01  0.51100000000E-03 0. -1.
        -11    1    4    4    0    0  0.17335816407E+02  0.25365259782E+02 -0.24288583662E+02  0.39164553245E+02  0.51100000000E-03 0.  1.
         12    1    4    4    0    0  0.56804895036E+01 -0.30277238358E+00  0.19879867549E+00  0.56920253891E+01  0.00000000000E+00 0. -1.
</event>
<event>
 8    1  0.2521748E-006  0.9118800E+02  0.7816164E-02  0.1184000E+00
        -11   -1    0    0    0    0  0.00000000000E+00  0.00000000000E+00  0.45593999997E+02  0.45594000000E+02  0.51100000000E-03 0.  1.
         11   -1    0    0    0    0 -0.00000000000E+00 -0.00000000000E+00 -0.45593999997E+02  0.45594000000E+02  0.51100000000E-03 0. -1.
         23    2    1    2    0    0 -0.44408920985E-15  0.35527136788E-14  0.00000000000E+00  0.91188000000E+02  0.91188000000E+02 0.  0.
    9900012    2    3    3    0    0  0.34261359016E+01 -0.16557777214E+02 -0.32708949296E+02  0.54367166800E+02  0.40000188353E+02 0.  0.
        -12    1    3    3    0    0 -0.34261359016E+01  0.16557777214E+02  0.32708949296E+02  0.36820833200E+02  0.00000000000E+00 0.  1.
         11    1    4    4    0    0 -0.40112833977E+01  0.13956579157E+01 -0.45142899185E+00  0.42710705813E+01  0.51100000000E-03 0. -1.
        -11    1    4    4    0    0 -0.68366042983E+01  0.67993379572E+01 -0.65159847855E+01  0.11637362801E+02  0.51100000000E-03 0.  1.
         12    1    4    4    0    0  0.14274023598E+02 -0.24752773087E+02 -0.25741535519E+02  0.38458733417E+02  0.00000000000E+00 0. -1.
</event>
<event>
 8    1  0.2521748E-006  0.9118800E+02  0.7816164E-02  0.1184000E+00
        -11   -1    0    0    0    0  0.00000000000E+00  0.00000000000E+00  0.45593999997E+02  0.45594000000E+02  0.51100000000E-03 0.  1.
         11   -1    0    0    0    0 -0.00000000000E+00 -0.00000000000E+00 -0.45593999997E+02  0.45594000000E+02  0.51100000000E-03 0. -1.
         23    2    1    2    0    0 -0.71054273576E-14  0.00000000000E+00 -0.35527136788E-14  0.91188000000E+02  0.91188000000E+02 0.  0.
    9900012    2    3    3    0    0 -0.26290982036E+02 -0.23644513751E+02 -0.10271302564E+02  0.54367103443E+02  0.40000043919E+02 0.  0.
        -12    1    3    3    0    0  0.26290982036E+02  0.23644513751E+02  0.10271302564E+02  0.36820896557E+02  0.00000000000E+00 0.  1.
         11    1    4    4    0    0 -0.19297122951E+02 -0.59917762808E+01 -0.13691129283E+02  0.24407526677E+02  0.51100000000E-03 0. -1.
        -11    1    4    4    0    0  0.67537531675E-01 -0.20584697360E+02 -0.18587460432E+01  0.20668557372E+02  0.51100000000E-03 0.  1.
        -12    1    4    4    0    0 -0.70613966164E+01  0.29319598904E+01  0.52785727622E+01  0.92910193940E+01  0.00000000000E+00 0.  1.
</event>
<event>
 8    1  0.2521748E-006  0.9118800E+02  0.7816164E-02  0.1184000E+00
        -11   -1    0    0    0    0  0.00000000000E+00  0.00000000000E+00  0.45593999997E+02  0.45594000000E+02  0.51100000000E-03 0.  1.
         11   -1    0    0    0    0 -0.00000000000E+00 -0.00000000000E+00 -0.45593999997E+02  0.45594000000E+02  0.51100000000E-03 0. -1.
         23    2    1    2    0    0  0.00000000000E+00  0.71054273576E-14  0.00000000000E+00  0.91188000000E+02  0.91188000000E+02 0.  0.
    9900012    2    3    3    0    0  0.46903308577E+01  0.27426196865E+02  0.24116086024E+02  0.54367067324E+02  0.39999961579E+02 0.  0.
        -12    1    3    3    0    0 -0.46903308577E+01 -0.27426196865E+02 -0.24116086024E+02  0.36820932676E+02  0.00000000000E+00 0.  1.
         11    1    4    4    0    0  0.44914107844E+01  0.52903802160E+01  0.33123356888E+01  0.76897634320E+01  0.51100000000E-03 0. -1.
        -11    1    4    4    0    0  0.13790145365E+02  0.20982329371E+02  0.21448224288E+02  0.33022001460E+02  0.51100000000E-03 0.  1.
         12    1    4    4    0    0 -0.13591225292E+02  0.11534872775E+01 -0.64447395310E+00  0.13655302432E+02  0.00000000000E+00 0. -1.
</event>
<event>
 8    1  0.2521748E-006  0.9118800E+02  0.7816164E-02  0.1184000E+00
        -11   -1    0    0    0    0  0.00000000000E+00  0.00000000000E+00  0.45593999997E+02  0.45594000000E+02  0.51100000000E-03 0.  1.
         11   -1    0    0    0    0 -0.00000000000E+00 -0.00000000000E+00 -0.45593999997E+02  0.45594000000E+02  0.51100000000E-03 0. -1.
         23    2    1    2    0    0  0.00000000000E+00  0.00000000000E+00 -0.17763568394E-14  0.91188000000E+02  0.91188000000E+02 0.  0.
    9900012    2    3    3    0    0 -0.21928051034E+02  0.27447621913E+02  0.11025824025E+02  0.54367079774E+02  0.39999989961E+02 0.  0.
         12    1    3    3    0    0  0.21928051034E+02 -0.27447621913E+02 -0.11025824025E+02  0.36820920226E+02  0.00000000000E+00 0. -1.
         11    1    4    4    0    0  0.14071562966E+01 -0.85444171329E+01 -0.11339536083E+01  0.87334417059E+01  0.51100000000E-03 0. -1.
        -11    1    4    4    0    0 -0.93998751325E+01  0.10385903267E+02  0.81507797054E+01  0.16206784050E+02  0.51100000000E-03 0.  1.
         12    1    4    4    0    0 -0.13935332198E+02  0.25606135780E+02  0.40089979276E+01  0.29426854018E+02  0.00000000000E+00 0. -1.
</event>
<event>
 8    1  0.2521748E-006  0.9118800E+02  0.7816164E-02  0.1184000E+00
        -11   -1    0    0    0    0  0.00000000000E+00  0.00000000000E+00  0.45593999997E+02  0.45594000000E+02  0.51100000000E-03 0. -1.
         11   -1    0    0    0    0 -0.00000000000E+00 -0.00000000000E+00 -0.45593999997E+02  0.45594000000E+02  0.51100000000E-03 0.  1.
         23    2    1    2    0    0  0.00000000000E+00 -0.88817841970E-15 -0.35527136788E-14  0.91188000000E+02  0.91188000000E+02 0.  0.
    9900012    2    3    3    0    0  0.22139991355E+02  0.62418080768E+01  0.28751341392E+02  0.54367095379E+02  0.40000025536E+02 0.  0.
        -12    1    3    3    0    0 -0.22139991355E+02 -0.62418080768E+01 -0.28751341392E+02  0.36820904621E+02  0.00000000000E+00 0.  1.
         11    1    4    4    0    0  0.19022419679E+02  0.38290284070E+01  0.12756825747E+02  0.23221768072E+02  0.51100000000E-03 0. -1.
        -11    1    4    4    0    0  0.63956722910E+01 -0.85624078991E+01 -0.90958907970E+00  0.10725987397E+02  0.51100000000E-03 0.  1.
         12    1    4    4    0    0 -0.32781006153E+01  0.10975187569E+02  0.16904104724E+02  0.20419339910E+02  0.00000000000E+00 0. -1.
</event>
<event>
 8    1  0.2521748E-006  0.9118800E+02  0.7816164E-02  0.1184000E+00
        -11   -1    0    0    0    0  0.00000000000E+00  0.00000000000E+00  0.45593999997E+02  0.45594000000E+02  0.51100000000E-03 0.  1.
         11   -1    0    0    0    0 -0.00000000000E+00 -0.00000000000E+00 -0.45593999997E+02  0.45594000000E+02  0.51100000000E-03 0. -1.
         23    2    1    2    0    0  0.66613381478E-15  0.00000000000E+00  0.71054273576E-14  0.91188000000E+02  0.91188000000E+02 0.  0.
    9900012    2    3    3    0    0 -0.86268484411E+00 -0.17912028488E+02 -0.32158908281E+02  0.54367076987E+02  0.39999983607E+02 0.  0.
        -12    1    3    3    0    0  0.86268484411E+00  0.17912028488E+02  0.32158908281E+02  0.36820923013E+02  0.00000000000E+00 0.  1.
         11    1    4    4    0    0  0.82608476163E+01 -0.33625244023E+01 -0.10600332996E+02  0.13853347378E+02  0.51100000000E-03 0. -1.
        -11    1    4    4    0    0  0.38526913147E+01 -0.19186490963E+02 -0.78765512899E+01  0.21095135134E+02  0.51100000000E-03 0.  1.
        -12    1    4    4    0    0 -0.12976223775E+02  0.46369868775E+01 -0.13682023995E+02  0.19418594475E+02  0.00000000000E+00 0.  1.
</event>
<event>
 8    1  0.2521748E-006  0.9118800E+02  0.7816164E-02  0.1184000E+00
        -11   -1    0    0    0    0  0.00000000000E+00  0.00000000000E+00  0.45593999997E+02  0.45594000000E+02  0.51100000000E-03 0. -1.
         11   -1    0    0    0    0 -0.00000000000E+00 -0.00000000000E+00 -0.45593999997E+02  0.45594000000E+02  0.51100000000E-03 0.  1.
         23    2    1    2    0    0  0.00000000000E+00  0.00000000000E+00 -0.44408920985E-15  0.91188000000E+02  0.91188000000E+02 0.  0.
    9900012    2    3    3    0    0  0.49427276013E+01 -0.36370943536E+02 -0.29159873728E+01  0.54367094631E+02  0.40000023830E+02 0.  0.
        -12    1    3    3    0    0 -0.49427276013E+01  0.36370943536E+02  0.29159873728E+01  0.36820905369E+02  0.00000000000E+00 0.  1.
         11    1    4    4    0    0  0.13197421260E+02 -0.26825327555E+02 -0.64134886057E+01  0.30576182932E+02  0.51100000000E-03 0. -1.
        -11    1    4    4    0    0  0.50853970784E+01 -0.24663507433E+01  0.62646041069E+01  0.84373819584E+01  0.51100000000E-03 0.  1.
        -12    1    4    4    0    0 -0.13340090737E+02 -0.70792652377E+01 -0.27671028741E+01  0.15353529740E+02  0.00000000000E+00 0.  1.
</event>
<event>
 8    1  0.2521748E-006  0.9118800E+02  0.7816164E-02  0.1184000E+00
        -11   -1    0    0    0    0  0.00000000000E+00  0.00000000000E+00  0.45593999997E+02  0.45594000000E+02  0.51100000000E-03 0. -1.
         11   -1    0    0    0    0 -0.00000000000E+00 -0.00000000000E+00 -0.45593999997E+02  0.45594000000E+02  0.51100000000E-03 0.  1.
         23    2    1    2    0    0  0.00000000000E+00  0.00000000000E+00 -0.17763568394E-14  0.91188000000E+02  0.91188000000E+02 0.  0.
    9900012    2    3    3    0    0 -0.33123452507E+02  0.41762352840E+01 -0.15529845660E+02  0.54367079950E+02  0.39999990363E+02 0.  0.
         12    1    3    3    0    0  0.33123452507E+02 -0.41762352840E+01  0.15529845660E+02  0.36820920050E+02  0.00000000000E+00 0. -1.
         11    1    4    4    0    0 -0.66518114120E+01 -0.51816249269E+01 -0.86188147375E+01  0.12057354589E+02  0.51100000000E-03 0.  1.
        -11    1    4    4    0    0 -0.11161708640E+02  0.13354326711E+01  0.12167794506E+02  0.16565697799E+02  0.51100000000E-03 0. -1.
         12    1    4    4    0    0 -0.15309932455E+02  0.80224275399E+01 -0.19078825428E+02  0.25744027562E+02  0.00000000000E+00 0. -1.
</event>
<event>
 8    1  0.2521748E-006  0.9118800E+02  0.7816164E-02  0.1184000E+00
        -11   -1    0    0    0    0  0.00000000000E+00  0.00000000000E+00  0.45593999997E+02  0.45594000000E+02  0.51100000000E-03 0. -1.
         11   -1    0    0    0    0 -0.00000000000E+00 -0.00000000000E+00 -0.45593999997E+02  0.45594000000E+02  0.51100000000E-03 0.  1.
         23    2    1    2    0    0  0.22204460493E-15  0.00000000000E+00  0.00000000000E+00  0.91188000000E+02  0.91188000000E+02 0.  0.
    9900012    2    3    3    0    0  0.19717430161E+01 -0.28685715418E+02  0.23000512988E+02  0.54367059800E+02  0.39999944425E+02 0.  0.
        -12    1    3    3    0    0 -0.19717430161E+01  0.28685715418E+02 -0.23000512988E+02  0.36820940200E+02  0.00000000000E+00 0.  1.
         11    1    4    4    0    0  0.66996425272E+00 -0.18858474661E+02 -0.27271461605E+01  0.19066416681E+02  0.51100000000E-03 0. -1.
        -11    1    4    4    0    0 -0.15622246668E+00 -0.97878850780E+01  0.29592584312E+02  0.31169667086E+02  0.51100000000E-03 0.  1.
        -12    1    4    4    0    0  0.14580012301E+01 -0.39355679157E-01 -0.38649251637E+01  0.41309760320E+01  0.00000000000E+00 0.  1.
</event>
<event>
 8    1  0.2521748E-006  0.9118800E+02  0.7816164E-02  0.1184000E+00
        -11   -1    0    0    0    0  0.00000000000E+00  0.00000000000E+00  0.45593999997E+02  0.45594000000E+02  0.51100000000E-03 0. -1.
         11   -1    0    0    0    0 -0.00000000000E+00 -0.00000000000E+00 -0.45593999997E+02  0.45594000000E+02  0.51100000000E-03 0.  1.
         23    2    1    2    0    0  0.00000000000E+00 -0.17763568394E-14 -0.71054273576E-14  0.91188000000E+02  0.91188000000E+02 0.  0.
    9900012    2    3    3    0    0 -0.46589590916E+01  0.10454409311E+02  0.34996856357E+02  0.54367074852E+02  0.39999978741E+02 0.  0.
        -12    1    3    3    0    0  0.46589590916E+01 -0.10454409311E+02 -0.34996856357E+02  0.36820925148E+02  0.00000000000E+00 0.  1.
         11    1    4    4    0    0  0.49791593879E+01  0.80086254813E+01  0.24148097333E+02  0.25924133840E+02  0.51100000000E-03 0. -1.
        -11    1    4    4    0    0 -0.16367013511E+02  0.53302242576E+01  0.25907467482E+01  0.17406963861E+02  0.51100000000E-03 0.  1.
        -12    1    4    4    0    0  0.67288950313E+01 -0.28844404274E+01  0.82580122758E+01  0.11035977151E+02  0.00000000000E+00 0.  1.
</event>
<event>
 8    1  0.2521748E-006  0.9118800E+02  0.7816164E-02  0.1184000E+00
        -11   -1    0    0    0    0  0.00000000000E+00  0.00000000000E+00  0.45593999997E+02  0.45594000000E+02  0.51100000000E-03 0.  1.
         11   -1    0    0    0    0 -0.00000000000E+00 -0.00000000000E+00 -0.45593999997E+02  0.45594000000E+02  0.51100000000E-03 0. -1.
         23    2    1    2    0    0  0.00000000000E+00  0.00000000000E+00  0.00000000000E+00  0.91188000000E+02  0.91188000000E+02 0.  0.
    9900012    2    3    3    0    0  0.30348654341E+02 -0.13970613051E+02  0.15477766498E+02  0.54367080605E+02  0.39999991855E+02 0.  0.
         12    1    3    3    0    0 -0.30348654341E+02  0.13970613051E+02 -0.15477766498E+02  0.36820919395E+02  0.00000000000E+00 0. -1.
         11    1    4    4    0    0  0.46116153726E+01  0.44780094637E+01  0.14208093137E+02  0.15594533527E+02  0.51100000000E-03 0. -1.
        -11    1    4    4    0    0  0.21695695876E+02 -0.43089421838E+01  0.66750889619E+01  0.23104696821E+02  0.51100000000E-03 0.  1.
         12    1    4    4    0    0  0.40413430920E+01 -0.14139680331E+02 -0.54054156004E+01  0.15667850256E+02  0.00000000000E+00 0. -1.
</event>
<event>
 8    1  0.2521748E-006  0.9118800E+02  0.7816164E-02  0.1184000E+00
        -11   -1    0    0    0    0  0.00000000000E+00  0.00000000000E+00  0.45593999997E+02  0.45594000000E+02  0.51100000000E-03 0.  1.
         11   -1    0    0    0    0 -0.00000000000E+00 -0.00000000000E+00 -0.45593999997E+02  0.45594000000E+02  0.51100000000E-03 0. -1.
         23    2    1    2    0    0  0.00000000000E+00  0.00000000000E+00  0.00000000000E+00  0.91188000000E+02  0.91188000000E+02 0.  0.
    9900012    2    3    3    0    0  0.21994707497E+02 -0.18157971984E+02 -0.23287443312E+02  0.54367026080E+02  0.39999867554E+02 0.  0.
        -12    1    3    3    0    0 -0.21994707497E+02  0.18157971984E+02  0.23287443312E+02  0.36820973920E+02  0.00000000000E+00 0.  1.
         11    1    4    4    0    0 -0.15951723265E+01 -0.13606783733E+02 -0.11734097873E+02  0.18038242471E+02  0.51100000000E-03 0. -1.
        -11    1    4    4    0    0  0.37203914238E+01 -0.14819161279E+01  0.75810285248E+01  0.85737612231E+01  0.51100000000E-03 0.  1.
         12    1    4    4    0    0  0.19869488400E+02 -0.30692721231E+01 -0.19134373964E+02  0.27755022385E+02  0.00000000000E+00 0. -1.
</event>
<event>
 8    1  0.2521748E-006  0.9118800E+02  0.7816164E-02  0.1184000E+00
        -11   -1    0    0    0    0  0.00000000000E+00  0.00000000000E+00  0.45593999997E+02  0.45594000000E+02  0.51100000000E-03 0. -1.
         11   -1    0    0    0    0 -0.00000000000E+00 -0.00000000000E+00 -0.45593999997E+02  0.45594000000E+02  0.51100000000E-03 0.  1.
         23    2    1    2    0    0 -0.17763568394E-14  0.00000000000E+00 -0.35527136788E-14  0.91188000000E+02  0.91188000000E+02 0.  0.
    9900012    2    3    3    0    0 -0.53334686950E+01  0.27819291057E+02  0.23524965033E+02  0.54367043697E+02  0.39999907716E+02 0.  0.
        -12    1    3    3    0    0  0.53334686950E+01 -0.27819291057E+02 -0.23524965033E+02  0.36820956303E+02  0.00000000000E+00 0.  1.
         11    1    4    4    0    0  0.60693494572E+01  0.18562723429E+02  0.22551804133E+02  0.29832793598E+02  0.51100000000E-03 0. -1.
        -11    1    4    4    0    0  0.46878006996E+01 -0.14414906780E+01 -0.13127386782E+01  0.50770713874E+01  0.51100000000E-03 0.  1.
        -12    1    4    4    0    0 -0.16090618852E+02  0.10698058306E+02  0.22858995784E+01  0.19457178712E+02  0.00000000000E+00 0.  1.
</event>
<event>
 8    1  0.2521748E-006  0.9118800E+02  0.7816164E-02  0.1184000E+00
        -11   -1    0    0    0    0  0.00000000000E+00  0.00000000000E+00  0.45593999997E+02  0.45594000000E+02  0.51100000000E-03 0.  1.
         11   -1    0    0    0    0 -0.00000000000E+00 -0.00000000000E+00 -0.45593999997E+02  0.45594000000E+02  0.51100000000E-03 0. -1.
         23    2    1    2    0    0  0.00000000000E+00  0.00000000000E+00  0.00000000000E+00  0.91188000000E+02  0.91188000000E+02 0.  0.
    9900012    2    3    3    0    0  0.18225489983E+02 -0.30576407642E+02 -0.94179190789E+01  0.54367049589E+02  0.39999921149E+02 0.  0.
        -12    1    3    3    0    0 -0.18225489983E+02  0.30576407642E+02  0.94179190789E+01  0.36820950411E+02  0.00000000000E+00 0.  1.
         11    1    4    4    0    0  0.87043936466E+01 -0.10261241573E+02 -0.19583731877E+02  0.23760936468E+02  0.51100000000E-03 0. -1.
        -11    1    4    4    0    0  0.10186781449E+02 -0.13620014026E+02 -0.15679698883E+01  0.17080217451E+02  0.51100000000E-03 0.  1.
        -12    1    4    4    0    0 -0.66568511262E+00 -0.66951520423E+01  0.11733782686E+02  0.13525895670E+02  0.00000000000E+00 0.  1.
</event>
<event>
 8    1  0.2521748E-006  0.9118800E+02  0.7816164E-02  0.1184000E+00
        -11   -1    0    0    0    0  0.00000000000E+00  0.00000000000E+00  0.45593999997E+02  0.45594000000E+02  0.51100000000E-03 0. -1.
         11   -1    0    0    0    0 -0.00000000000E+00 -0.00000000000E+00 -0.45593999997E+02  0.45594000000E+02  0.51100000000E-03 0.  1.
         23    2    1    2    0    0  0.00000000000E+00 -0.35527136788E-14  0.00000000000E+00  0.91188000000E+02  0.91188000000E+02 0.  0.
    9900012    2    3    3    0    0 -0.37619381697E+01 -0.27939144382E+02  0.23686098056E+02  0.54367092777E+02  0.40000019604E+02 0.  0.
        -12    1    3    3    0    0  0.37619381697E+01  0.27939144382E+02 -0.23686098056E+02  0.36820907223E+02  0.00000000000E+00 0.  1.
         11    1    4    4    0    0  0.37907973864E+00 -0.63524585105E+01  0.95306868180E+01  0.11459992236E+02  0.51100000000E-03 0. -1.
        -11    1    4    4    0    0  0.73974818034E+01 -0.57877500810E+01  0.20327644267E+02  0.22392720017E+02  0.51100000000E-03 0.  1.
         12    1    4    4    0    0 -0.11538499712E+02 -0.15798935790E+02 -0.61722330292E+01  0.20514380524E+02  0.00000000000E+00 0. -1.
</event>
<event>
 8    1  0.2521748E-006  0.9118800E+02  0.7816164E-02  0.1184000E+00
        -11   -1    0    0    0    0  0.00000000000E+00  0.00000000000E+00  0.45593999997E+02  0.45594000000E+02  0.51100000000E-03 0. -1.
         11   -1    0    0    0    0 -0.00000000000E+00 -0.00000000000E+00 -0.45593999997E+02  0.45594000000E+02  0.51100000000E-03 0.  1.
         23    2    1    2    0    0  0.00000000000E+00  0.22204460493E-14  0.83266726847E-15  0.91188000000E+02  0.91188000000E+02 0.  0.
    9900012    2    3    3    0    0 -0.36734109109E+02  0.25017863070E+01  0.35840132789E+00  0.54367052724E+02  0.39999928295E+02 0.  0.
         12    1    3    3    0    0  0.36734109109E+02 -0.25017863070E+01 -0.35840132789E+00  0.36820947276E+02  0.00000000000E+00 0. -1.
         11    1    4    4    0    0 -0.33506342779E+02  0.71789857333E+01  0.20253476087E+01  0.34326591380E+02  0.51100000000E-03 0. -1.
        -11    1    4    4    0    0 -0.47558023662E+00 -0.10851968239E+02 -0.55982497421E+01  0.12220138774E+02  0.51100000000E-03 0.  1.
        -12    1    4    4    0    0 -0.27521860940E+01  0.61747688130E+01  0.39313034613E+01  0.78203225697E+01  0.00000000000E+00 0.  1.
</event>
<event>
 8    1  0.2521748E-006  0.9118800E+02  0.7816164E-02  0.1184000E+00
        -11   -1    0    0    0    0  0.00000000000E+00  0.00000000000E+00  0.45593999997E+02  0.45594000000E+02  0.51100000000E-03 0.  1.
         11   -1    0    0    0    0 -0.00000000000E+00 -0.00000000000E+00 -0.45593999997E+02  0.45594000000E+02  0.51100000000E-03 0. -1.
         23    2    1    2    0    0  0.00000000000E+00  0.35527136788E-14 -0.66613381478E-15  0.91188000000E+02  0.91188000000E+02 0.  0.
    9900012    2    3    3    0    0 -0.18825690267E+02 -0.31600816331E+02  0.16625143802E+01  0.54367052689E+02  0.39999928215E+02 0.  0.
         12    1    3    3    0    0  0.18825690267E+02  0.31600816331E+02 -0.16625143802E+01  0.36820947311E+02  0.00000000000E+00 0. -1.
         11    1    4    4    0    0 -0.15044316638E+02 -0.25873197550E+01 -0.66350207281E+01  0.16644794590E+02  0.51100000000E-03 0. -1.
        -11    1    4    4    0    0 -0.10398089023E+02 -0.28142354036E+02  0.79601740667E+01  0.31039921350E+02  0.51100000000E-03 0.  1.
         12    1    4    4    0    0  0.66167153950E+01 -0.87114254053E+00  0.33736104171E+00  0.66823367482E+01  0.00000000000E+00 0. -1.
</event>
<event>
 8    1  0.2521748E-006  0.9118800E+02  0.7816164E-02  0.1184000E+00
        -11   -1    0    0    0    0  0.00000000000E+00  0.00000000000E+00  0.45593999997E+02  0.45594000000E+02  0.51100000000E-03 0. -1.
         11   -1    0    0    0    0 -0.00000000000E+00 -0.00000000000E+00 -0.45593999997E+02  0.45594000000E+02  0.51100000000E-03 0.  1.
         23    2    1    2    0    0  0.35527136788E-14  0.00000000000E+00  0.00000000000E+00  0.91188000000E+02  0.91188000000E+02 0.  0.
    9900012    2    3    3    0    0  0.30532430526E+02 -0.13509339923E+02 -0.15525694668E+02  0.54367098681E+02  0.40000033064E+02 0.  0.
         12    1    3    3    0    0 -0.30532430526E+02  0.13509339923E+02  0.15525694668E+02  0.36820901319E+02  0.00000000000E+00 0. -1.
         11    1    4    4    0    0 -0.24946721389E+01 -0.17767137850E+02 -0.66484758631E+01  0.19133656421E+02  0.51100000000E-03 0. -1.
        -11    1    4    4    0    0  0.19616932282E+02  0.43343378525E+00 -0.21146099742E+01  0.19735335634E+02  0.51100000000E-03 0.  1.
         12    1    4    4    0    0  0.13410170384E+02  0.38243641419E+01 -0.67626088304E+01  0.15498106626E+02  0.00000000000E+00 0. -1.
</event>
<event>
 8    1  0.2521748E-006  0.9118800E+02  0.7816164E-02  0.1184000E+00
        -11   -1    0    0    0    0  0.00000000000E+00  0.00000000000E+00  0.45593999997E+02  0.45594000000E+02  0.51100000000E-03 0.  1.
         11   -1    0    0    0    0 -0.00000000000E+00 -0.00000000000E+00 -0.45593999997E+02  0.45594000000E+02  0.51100000000E-03 0. -1.
         23    2    1    2    0    0  0.00000000000E+00  0.00000000000E+00  0.35527136788E-14  0.91188000000E+02  0.91188000000E+02 0.  0.
    9900012    2    3    3    0    0 -0.70465270385E+01  0.29777920447E+02  0.20479311288E+02  0.54367078226E+02  0.39999986431E+02 0.  0.
        -12    1    3    3    0    0  0.70465270385E+01 -0.29777920447E+02 -0.20479311288E+02  0.36820921774E+02  0.00000000000E+00 0.  1.
         11    1    4    4    0    0 -0.12192536028E+02  0.24541392749E+02  0.27340053574E+02  0.38709384166E+02  0.51100000000E-03 0. -1.
        -11    1    4    4    0    0 -0.30359803262E+01 -0.15681011264E+01 -0.13538145387E+01  0.36754498704E+01  0.51100000000E-03 0.  1.
         12    1    4    4    0    0  0.81819893155E+01  0.68046288251E+01 -0.55069277464E+01  0.11982244189E+02  0.00000000000E+00 0. -1.
</event>
<event>
 8    1  0.2521748E-006  0.9118800E+02  0.7816164E-02  0.1184000E+00
        -11   -1    0    0    0    0  0.00000000000E+00  0.00000000000E+00  0.45593999997E+02  0.45594000000E+02  0.51100000000E-03 0.  1.
         11   -1    0    0    0    0 -0.00000000000E+00 -0.00000000000E+00 -0.45593999997E+02  0.45594000000E+02  0.51100000000E-03 0. -1.
         23    2    1    2    0    0  0.17763568394E-14  0.00000000000E+00  0.00000000000E+00  0.91188000000E+02  0.91188000000E+02 0.  0.
    9900012    2    3    3    0    0 -0.13256257714E+02 -0.37084391288E+01  0.34151109205E+02  0.54367093585E+02  0.40000021445E+02 0.  0.
         12    1    3    3    0    0  0.13256257714E+02  0.37084391288E+01 -0.34151109205E+02  0.36820906415E+02  0.00000000000E+00 0. -1.
         11    1    4    4    0    0 -0.97793922609E+01 -0.66924263301E+01  0.28822518762E+02  0.31163482976E+02  0.51100000000E-03 0. -1.
        -11    1    4    4    0    0  0.23686662968E+01  0.46963455278E+01  0.12638010013E+02  0.13688883764E+02  0.51100000000E-03 0.  1.
         12    1    4    4    0    0 -0.58455317495E+01 -0.17123583265E+01 -0.73094195704E+01  0.95147268447E+01  0.00000000000E+00 0. -1.
</event>
<event>
 8    1  0.2521748E-006  0.9118800E+02  0.7816164E-02  0.1184000E+00
        -11   -1    0    0    0    0  0.00000000000E+00  0.00000000000E+00  0.45593999997E+02  0.45594000000E+02  0.51100000000E-03 0. -1.
         11   -1    0    0    0    0 -0.00000000000E+00 -0.00000000000E+00 -0.45593999997E+02  0.45594000000E+02  0.51100000000E-03 0.  1.
         23    2    1    2    0    0  0.00000000000E+00  0.00000000000E+00  0.35527136788E-14  0.91188000000E+02  0.91188000000E+02 0.  0.
    9900012    2    3    3    0    0 -0.57304182906E+01  0.28226651189E+02 -0.22939018019E+02  0.54367080962E+02  0.39999992668E+02 0.  0.
         12    1    3    3    0    0  0.57304182906E+01 -0.28226651189E+02  0.22939018019E+02  0.36820919038E+02  0.00000000000E+00 0. -1.
         11    1    4    4    0    0 -0.17812929699E+01  0.87803545493E+00 -0.13305216980E+02  0.13452611273E+02  0.51100000000E-03 0. -1.
        -11    1    4    4    0    0 -0.11247658690E+02  0.13308773521E+02 -0.16190893561E+02  0.23786094954E+02  0.51100000000E-03 0.  1.
         12    1    4    4    0    0  0.72985333688E+01  0.14039842213E+02  0.65570925216E+01  0.17128374735E+02  0.00000000000E+00 0. -1.
</event>
<event>
 8    1  0.2521748E-006  0.9118800E+02  0.7816164E-02  0.1184000E+00
        -11   -1    0    0    0    0  0.00000000000E+00  0.00000000000E+00  0.45593999997E+02  0.45594000000E+02  0.51100000000E-03 0. -1.
         11   -1    0    0    0    0 -0.00000000000E+00 -0.00000000000E+00 -0.45593999997E+02  0.45594000000E+02  0.51100000000E-03 0.  1.
         23    2    1    2    0    0  0.00000000000E+00  0.00000000000E+00  0.00000000000E+00  0.91188000000E+02  0.91188000000E+02 0.  0.
    9900012    2    3    3    0    0 -0.43512896806E+01  0.32597635799E+02 -0.16560213505E+02  0.54367078598E+02  0.39999987280E+02 0.  0.
         12    1    3    3    0    0  0.43512896806E+01 -0.32597635799E+02  0.16560213505E+02  0.36820921402E+02  0.00000000000E+00 0. -1.
         11    1    4    4    0    0 -0.52608336944E+01  0.21174357106E+02 -0.11180116799E+02  0.24515806777E+02  0.51100000000E-03 0. -1.
        -11    1    4    4    0    0 -0.10195620871E+02 -0.20506257592E+01 -0.66507274944E+01  0.12344550515E+02  0.51100000000E-03 0.  1.
         12    1    4    4    0    0  0.11105164885E+02  0.13473904452E+02  0.12706307882E+01  0.17506721306E+02  0.00000000000E+00 0. -1.
</event>
<event>
 8    1  0.2521748E-006  0.9118800E+02  0.7816164E-02  0.1184000E+00
        -11   -1    0    0    0    0  0.00000000000E+00  0.00000000000E+00  0.45593999997E+02  0.45594000000E+02  0.51100000000E-03 0.  1.
         11   -1    0    0    0    0 -0.00000000000E+00 -0.00000000000E+00 -0.45593999997E+02  0.45594000000E+02  0.51100000000E-03 0. -1.
         23    2    1    2    0    0  0.00000000000E+00  0.00000000000E+00  0.00000000000E+00  0.91188000000E+02  0.91188000000E+02 0.  0.
    9900012    2    3    3    0    0 -0.27684980918E+02 -0.13553448139E+02  0.20140184244E+02  0.54367066466E+02  0.39999959624E+02 0.  0.
         12    1    3    3    0    0  0.27684980918E+02  0.13553448139E+02 -0.20140184244E+02  0.36820933534E+02  0.00000000000E+00 0. -1.
         11    1    4    4    0    0 -0.58334000050E+01  0.65133832359E+01 -0.65765076141E+01  0.10940894363E+02  0.51100000000E-03 0. -1.
        -11    1    4    4    0    0 -0.16955107638E+02 -0.13778296657E+02  0.83216697263E+01  0.23378779289E+02  0.51100000000E-03 0.  1.
         12    1    4    4    0    0 -0.48964732756E+01 -0.62885347187E+01  0.18395022131E+02  0.20047392814E+02  0.00000000000E+00 0. -1.
</event>
<event>
 8    1  0.2521748E-006  0.9118800E+02  0.7816164E-02  0.1184000E+00
        -11   -1    0    0    0    0  0.00000000000E+00  0.00000000000E+00  0.45593999997E+02  0.45594000000E+02  0.51100000000E-03 0. -1.
         11   -1    0    0    0    0 -0.00000000000E+00 -0.00000000000E+00 -0.45593999997E+02  0.45594000000E+02  0.51100000000E-03 0.  1.
         23    2    1    2    0    0  0.00000000000E+00  0.00000000000E+00  0.00000000000E+00  0.91188000000E+02  0.91188000000E+02 0.  0.
    9900012    2    3    3    0    0 -0.24709211517E+02 -0.26041471277E+02  0.81900477545E+01  0.54367078742E+02  0.39999987608E+02 0.  0.
         12    1    3    3    0    0  0.24709211517E+02  0.26041471277E+02 -0.81900477545E+01  0.36820921258E+02  0.00000000000E+00 0. -1.
         11    1    4    4    0    0 -0.13506517494E+02 -0.18893327431E+02  0.43754908371E+01  0.23633212997E+02  0.51100000000E-03 0. -1.
        -11    1    4    4    0    0 -0.20265451359E+02 -0.69685152364E+01  0.25368364756E+01  0.21579718788E+02  0.51100000000E-03 0.  1.
         12    1    4    4    0    0  0.90627573365E+01 -0.17962860964E+00  0.12777204418E+01  0.91541469567E+01  0.00000000000E+00 0. -1.
</event>
<event>
 8    1  0.2521748E-006  0.9118800E+02  0.7816164E-02  0.1184000E+00
        -11   -1    0    0    0    0  0.00000000000E+00  0.00000000000E+00  0.45593999997E+02  0.45594000000E+02  0.51100000000E-03 0.  1.
         11   -1    0    0    0    0 -0.00000000000E+00 -0.00000000000E+00 -0.45593999997E+02  0.45594000000E+02  0.51100000000E-03 0. -1.
         23    2    1    2    0    0 -0.17763568394E-14 -0.17763568394E-14 -0.35527136788E-14  0.91188000000E+02  0.91188000000E+02 0.  0.
    9900012    2    3    3    0    0  0.12615545178E+02  0.13611964179E+02  0.31801612520E+02  0.54367080567E+02  0.39999991770E+02 0.  0.
         12    1    3    3    0    0 -0.12615545178E+02 -0.13611964179E+02 -0.31801612520E+02  0.36820919433E+02  0.00000000000E+00 0. -1.
         11    1    4    4    0    0  0.25759738473E+00  0.83973756099E+01  0.38459502380E+02  0.39366427285E+02  0.51100000000E-03 0. -1.
        -11    1    4    4    0    0  0.19631370666E+01  0.98603726175E+00 -0.77031895879E+00  0.23279966029E+01  0.51100000000E-03 0.  1.
         12    1    4    4    0    0  0.10394810727E+02  0.42285513076E+01 -0.58875709013E+01  0.12672656680E+02  0.00000000000E+00 0. -1.
</event>
<event>
 8    1  0.2521748E-006  0.9118800E+02  0.7816164E-02  0.1184000E+00
        -11   -1    0    0    0    0  0.00000000000E+00  0.00000000000E+00  0.45593999997E+02  0.45594000000E+02  0.51100000000E-03 0.  1.
         11   -1    0    0    0    0 -0.00000000000E+00 -0.00000000000E+00 -0.45593999997E+02  0.45594000000E+02  0.51100000000E-03 0. -1.
         23    2    1    2    0    0  0.35527136788E-14  0.00000000000E+00  0.22204460493E-14  0.91188000000E+02  0.91188000000E+02 0.  0.
    9900012    2    3    3    0    0 -0.13316621480E+02 -0.34212149016E+02 -0.28236670747E+01  0.54367127608E+02  0.40000099009E+02 0.  0.
         12    1    3    3    0    0  0.13316621480E+02  0.34212149016E+02  0.28236670747E+01  0.36820872392E+02  0.00000000000E+00 0. -1.
         11    1    4    4    0    0 -0.51061106039E+01 -0.62098839694E+01  0.92496807103E+01  0.12255268986E+02  0.51100000000E-03 0. -1.
        -11    1    4    4    0    0 -0.16878732038E+02 -0.24111344235E+02 -0.41161340488E+01  0.29718530848E+02  0.51100000000E-03 0.  1.
         12    1    4    4    0    0  0.86682211621E+01 -0.38909208122E+01 -0.79572137362E+01  0.12393327774E+02  0.00000000000E+00 0. -1.
</event>
<event>
 8    1  0.2521748E-006  0.9118800E+02  0.7816164E-02  0.1184000E+00
        -11   -1    0    0    0    0  0.00000000000E+00  0.00000000000E+00  0.45593999997E+02  0.45594000000E+02  0.51100000000E-03 0. -1.
         11   -1    0    0    0    0 -0.00000000000E+00 -0.00000000000E+00 -0.45593999997E+02  0.45594000000E+02  0.51100000000E-03 0.  1.
         23    2    1    2    0    0  0.00000000000E+00  0.22204460493E-15  0.00000000000E+00  0.91188000000E+02  0.91188000000E+02 0.  0.
    9900012    2    3    3    0    0 -0.28517659565E+02 -0.14186393995E+01  0.23249115686E+02  0.54366935037E+02  0.39999660002E+02 0.  0.
        -12    1    3    3    0    0  0.28517659565E+02  0.14186393995E+01 -0.23249115686E+02  0.36821064963E+02  0.00000000000E+00 0.  1.
         11    1    4    4    0    0 -0.31287561856E+02 -0.65349627648E+01  0.26734648879E+02  0.41669637821E+02  0.51100000000E-03 0. -1.
        -11    1    4    4    0    0  0.66192726947E+01  0.45555585145E+01 -0.36014141986E+01  0.88055703323E+01  0.51100000000E-03 0.  1.
        -12    1    4    4    0    0 -0.38493704041E+01  0.56076485075E+00  0.11588100654E+00  0.38917268832E+01  0.00000000000E+00 0.  1.
</event>
<event>
 8    1  0.2521748E-006  0.9118800E+02  0.7816164E-02  0.1184000E+00
        -11   -1    0    0    0    0  0.00000000000E+00  0.00000000000E+00  0.45593999997E+02  0.45594000000E+02  0.51100000000E-03 0.  1.
         11   -1    0    0    0    0 -0.00000000000E+00 -0.00000000000E+00 -0.45593999997E+02  0.45594000000E+02  0.51100000000E-03 0. -1.
         23    2    1    2    0    0  0.00000000000E+00  0.00000000000E+00  0.00000000000E+00  0.91188000000E+02  0.91188000000E+02 0.  0.
    9900012    2    3    3    0    0  0.14697183553E+02  0.33673365956E+02  0.24243981909E+01  0.54367075435E+02  0.39999980070E+02 0.  0.
         12    1    3    3    0    0 -0.14697183553E+02 -0.33673365956E+02 -0.24243981909E+01  0.36820924565E+02  0.00000000000E+00 0. -1.
         11    1    4    4    0    0 -0.43344551242E+01  0.79548451541E+01  0.16735299977E+01  0.92123702468E+01  0.51100000000E-03 0. -1.
        -11    1    4    4    0    0 -0.55989888660E+00  0.67693801428E+01 -0.12969088090E+02  0.14640192637E+02  0.51100000000E-03 0.  1.
        -12    1    4    4    0    0  0.19591537564E+02  0.18949140659E+02  0.13719956284E+02  0.30514512552E+02  0.00000000000E+00 0.  1.
</event>
<event>
 8    1  0.2521748E-006  0.9118800E+02  0.7816164E-02  0.1184000E+00
        -11   -1    0    0    0    0  0.00000000000E+00  0.00000000000E+00  0.45593999997E+02  0.45594000000E+02  0.51100000000E-03 0. -1.
         11   -1    0    0    0    0 -0.00000000000E+00 -0.00000000000E+00 -0.45593999997E+02  0.45594000000E+02  0.51100000000E-03 0.  1.
         23    2    1    2    0    0  0.00000000000E+00  0.00000000000E+00  0.00000000000E+00  0.91188000000E+02  0.91188000000E+02 0.  0.
    9900012    2    3    3    0    0  0.27953214724E+02 -0.83021520351E+01  0.22482698714E+02  0.54367086332E+02  0.40000004912E+02 0.  0.
        -12    1    3    3    0    0 -0.27953214724E+02  0.83021520351E+01 -0.22482698714E+02  0.36820913668E+02  0.00000000000E+00 0.  1.
         11    1    4    4    0    0  0.91380517196E+01 -0.94629918708E+01  0.15130450514E+02  0.20049507161E+02  0.51100000000E-03 0. -1.
        -11    1    4    4    0    0  0.11421365384E+02 -0.11128102411E+02  0.11178577471E+02  0.19474158391E+02  0.51100000000E-03 0.  1.
        -12    1    4    4    0    0  0.73937976208E+01  0.12288942246E+02 -0.38263292700E+01  0.14843420781E+02  0.00000000000E+00 0.  1.
</event>
<event>
 8    1  0.2521748E-006  0.9118800E+02  0.7816164E-02  0.1184000E+00
        -11   -1    0    0    0    0  0.00000000000E+00  0.00000000000E+00  0.45593999997E+02  0.45594000000E+02  0.51100000000E-03 0.  1.
         11   -1    0    0    0    0 -0.00000000000E+00 -0.00000000000E+00 -0.45593999997E+02  0.45594000000E+02  0.51100000000E-03 0. -1.
         23    2    1    2    0    0  0.00000000000E+00 -0.13322676296E-14  0.17763568394E-14  0.91188000000E+02  0.91188000000E+02 0.  0.
    9900012    2    3    3    0    0 -0.34664082502E+02 -0.37303600842E+01  0.11843365330E+02  0.54367088762E+02  0.40000010450E+02 0.  0.
         12    1    3    3    0    0  0.34664082502E+02  0.37303600842E+01 -0.11843365330E+02  0.36820911238E+02  0.00000000000E+00 0. -1.
         11    1    4    4    0    0 -0.26677896509E+02  0.51548435113E+01  0.10585690871E+01  0.27191968346E+02  0.51100000000E-03 0. -1.
        -11    1    4    4    0    0 -0.61801709580E+01  0.42993112430E+01 -0.29176111100E+01  0.80740971684E+01  0.51100000000E-03 0.  1.
        -12    1    4    4    0    0 -0.18060150358E+01 -0.13184514839E+02  0.13702407353E+02  0.19101023247E+02  0.00000000000E+00 0.  1.
</event>
<event>
 8    1  0.2521748E-006  0.9118800E+02  0.7816164E-02  0.1184000E+00
        -11   -1    0    0    0    0  0.00000000000E+00  0.00000000000E+00  0.45593999997E+02  0.45594000000E+02  0.51100000000E-03 0.  1.
         11   -1    0    0    0    0 -0.00000000000E+00 -0.00000000000E+00 -0.45593999997E+02  0.45594000000E+02  0.51100000000E-03 0. -1.
         23    2    1    2    0    0 -0.35527136788E-14  0.00000000000E+00 -0.13322676296E-14  0.91188000000E+02  0.91188000000E+02 0.  0.
    9900012    2    3    3    0    0  0.21730164102E+02 -0.29457759706E+02 -0.39774722105E+01  0.54367083064E+02  0.39999997462E+02 0.  0.
        -12    1    3    3    0    0 -0.21730164102E+02  0.29457759706E+02  0.39774722105E+01  0.36820916936E+02  0.00000000000E+00 0.  1.
         11    1    4    4    0    0 -0.50104636813E+01 -0.47066342739E+01  0.55270977207E+01  0.88207687854E+01  0.51100000000E-03 0. -1.
        -11    1    4    4    0    0  0.16176903252E+02 -0.80810273898E+01  0.74215586566E+01  0.19546732096E+02  0.51100000000E-03 0.  1.
        -12    1    4    4    0    0  0.10563724532E+02 -0.16670098042E+02 -0.16926128588E+02  0.25999582183E+02  0.00000000000E+00 0.  1.
</event>
<event>
 8    1  0.2521748E-006  0.9118800E+02  0.7816164E-02  0.1184000E+00
        -11   -1    0    0    0    0  0.00000000000E+00  0.00000000000E+00  0.45593999997E+02  0.45594000000E+02  0.51100000000E-03 0.  1.
         11   -1    0    0    0    0 -0.00000000000E+00 -0.00000000000E+00 -0.45593999997E+02  0.45594000000E+02  0.51100000000E-03 0. -1.
         23    2    1    2    0    0  0.00000000000E+00  0.35527136788E-14  0.00000000000E+00  0.91188000000E+02  0.91188000000E+02 0.  0.
    9900012    2    3    3    0    0  0.78158773793E+01  0.31797930335E+02 -0.16839812658E+02  0.54367141737E+02  0.40000131219E+02 0.  0.
        -12    1    3    3    0    0 -0.78158773793E+01 -0.31797930335E+02  0.16839812658E+02  0.36820858263E+02  0.00000000000E+00 0.  1.
         11    1    4    4    0    0  0.12742067258E+02  0.24137903652E+02 -0.71333748340E+00  0.27303983616E+02  0.51100000000E-03 0. -1.
        -11    1    4    4    0    0  0.67628895782E+01 -0.12538387213E+01 -0.66893326421E+01  0.95945796387E+01  0.51100000000E-03 0.  1.
        -12    1    4    4    0    0 -0.11689079457E+02  0.89138654051E+01 -0.94371425329E+01  0.17468578482E+02  0.00000000000E+00 0.  1.
</event>
<event>
 8    1  0.2521748E-006  0.9118800E+02  0.7816164E-02  0.1184000E+00
        -11   -1    0    0    0    0  0.00000000000E+00  0.00000000000E+00  0.45593999997E+02  0.45594000000E+02  0.51100000000E-03 0.  1.
         11   -1    0    0    0    0 -0.00000000000E+00 -0.00000000000E+00 -0.45593999997E+02  0.45594000000E+02  0.51100000000E-03 0. -1.
         23    2    1    2    0    0  0.00000000000E+00 -0.71054273576E-14 -0.26645352591E-14  0.91188000000E+02  0.91188000000E+02 0.  0.
    9900012    2    3    3    0    0 -0.13788489522E+02  0.33361274115E+02  0.72583082737E+01  0.54367080770E+02  0.39999992232E+02 0.  0.
        -12    1    3    3    0    0  0.13788489522E+02 -0.33361274115E+02 -0.72583082737E+01  0.36820919230E+02  0.00000000000E+00 0.  1.
         11    1    4    4    0    0  0.55938240630E+01  0.84620744447E+01 -0.81285339612E+00  0.10176359981E+02  0.51100000000E-03 0. -1.
        -11    1    4    4    0    0 -0.13124742882E+02 -0.17662166841E+01 -0.45902423245E+01  0.14016016622E+02  0.51100000000E-03 0.  1.
         12    1    4    4    0    0 -0.62575707031E+01  0.26665416355E+02  0.12661403994E+02  0.30174704167E+02  0.00000000000E+00 0. -1.
</event>
<event>
 8    1  0.2521748E-006  0.9118800E+02  0.7816164E-02  0.1184000E+00
        -11   -1    0    0    0    0  0.00000000000E+00  0.00000000000E+00  0.45593999997E+02  0.45594000000E+02  0.51100000000E-03 0. -1.
         11   -1    0    0    0    0 -0.00000000000E+00 -0.00000000000E+00 -0.45593999997E+02  0.45594000000E+02  0.51100000000E-03 0.  1.
         23    2    1    2    0    0  0.00000000000E+00  0.00000000000E+00  0.00000000000E+00  0.91188000000E+02  0.91188000000E+02 0.  0.
    9900012    2    3    3    0    0 -0.10096446948E+02 -0.33240114822E+02 -0.12203935631E+02  0.54367088560E+02  0.40000009990E+02 0.  0.
         12    1    3    3    0    0  0.10096446948E+02  0.33240114822E+02  0.12203935631E+02  0.36820911440E+02  0.00000000000E+00 0. -1.
         11    1    4    4    0    0 -0.15647377140E+02  0.19632452301E+01 -0.62130766437E+01  0.16949839670E+02  0.51100000000E-03 0. -1.
        -11    1    4    4    0    0 -0.27135178857E+01 -0.62948138759E+01 -0.72617187969E+00  0.68931260621E+01  0.51100000000E-03 0.  1.
         12    1    4    4    0    0  0.82644480777E+01 -0.28908546177E+02 -0.52646871074E+01  0.30524122828E+02  0.00000000000E+00 0. -1.
</event>
<event>
 8    1  0.2521748E-006  0.9118800E+02  0.7816164E-02  0.1184000E+00
        -11   -1    0    0    0    0  0.00000000000E+00  0.00000000000E+00  0.45593999997E+02  0.45594000000E+02  0.51100000000E-03 0.  1.
         11   -1    0    0    0    0 -0.00000000000E+00 -0.00000000000E+00 -0.45593999997E+02  0.45594000000E+02  0.51100000000E-03 0. -1.
         23    2    1    2    0    0  0.22204460493E-15 -0.17763568394E-14  0.00000000000E+00  0.91188000000E+02  0.91188000000E+02 0.  0.
    9900012    2    3    3    0    0  0.70267353679E+00  0.11203498630E+02  0.35068033817E+02  0.54367093880E+02  0.40000022119E+02 0.  0.
         12    1    3    3    0    0 -0.70267353679E+00 -0.11203498630E+02 -0.35068033817E+02  0.36820906120E+02  0.00000000000E+00 0. -1.
         11    1    4    4    0    0  0.49086912900E+01  0.54941999871E+01  0.18322429547E+01  0.75920088373E+01  0.51100000000E-03 0. -1.
        -11    1    4    4    0    0 -0.94234718245E+01  0.16517781699E+02  0.12314899471E+02  0.22656029721E+02  0.51100000000E-03 0.  1.
        -12    1    4    4    0    0  0.52174540713E+01 -0.10808483057E+02  0.20920891392E+02  0.24119055322E+02  0.00000000000E+00 0.  1.
</event>
<event>
 8    1  0.2521748E-006  0.9118800E+02  0.7816164E-02  0.1184000E+00
        -11   -1    0    0    0    0  0.00000000000E+00  0.00000000000E+00  0.45593999997E+02  0.45594000000E+02  0.51100000000E-03 0. -1.
         11   -1    0    0    0    0 -0.00000000000E+00 -0.00000000000E+00 -0.45593999997E+02  0.45594000000E+02  0.51100000000E-03 0.  1.
         23    2    1    2    0    0  0.71054273576E-14  0.00000000000E+00  0.00000000000E+00  0.91188000000E+02  0.91188000000E+02 0.  0.
    9900012    2    3    3    0    0 -0.31927493224E+02 -0.11243505100E+02  0.14491281084E+02  0.54367102972E+02  0.40000042845E+02 0.  0.
         12    1    3    3    0    0  0.31927493224E+02  0.11243505100E+02 -0.14491281084E+02  0.36820897028E+02  0.00000000000E+00 0. -1.
         11    1    4    4    0    0  0.60020955233E+01  0.39005299941E+01  0.51545455163E+01  0.88209197166E+01  0.51100000000E-03 0. -1.
        -11    1    4    4    0    0 -0.23577550731E+02 -0.15388537110E+02 -0.47502694693E+00  0.28159077110E+02  0.51100000000E-03 0.  1.
         12    1    4    4    0    0 -0.14352038016E+02  0.24450201591E+00  0.98117625147E+01  0.17387106145E+02  0.00000000000E+00 0. -1.
</event>
<event>
 8    1  0.2521748E-006  0.9118800E+02  0.7816164E-02  0.1184000E+00
        -11   -1    0    0    0    0  0.00000000000E+00  0.00000000000E+00  0.45593999997E+02  0.45594000000E+02  0.51100000000E-03 0.  1.
         11   -1    0    0    0    0 -0.00000000000E+00 -0.00000000000E+00 -0.45593999997E+02  0.45594000000E+02  0.51100000000E-03 0. -1.
         23    2    1    2    0    0  0.00000000000E+00 -0.35527136788E-14  0.00000000000E+00  0.91188000000E+02  0.91188000000E+02 0.  0.
    9900012    2    3    3    0    0  0.11585475479E+02 -0.31246989589E+02  0.15658279326E+02  0.54367091376E+02  0.40000016411E+02 0.  0.
         12    1    3    3    0    0 -0.11585475479E+02  0.31246989589E+02 -0.15658279326E+02  0.36820908624E+02  0.00000000000E+00 0. -1.
         11    1    4    4    0    0  0.15595402102E+02 -0.22831212835E+02  0.33391577437E+01  0.27850149388E+02  0.51100000000E-03 0. -1.
        -11    1    4    4    0    0  0.71617249552E+01 -0.75716206111E+01  0.11134279193E+02  0.15250964442E+02  0.51100000000E-03 0.  1.
         12    1    4    4    0    0 -0.11171651578E+02 -0.84415614301E+00  0.11848423887E+01  0.11265977546E+02  0.00000000000E+00 0. -1.
</event>
<event>
 8    1  0.2521748E-006  0.9118800E+02  0.7816164E-02  0.1184000E+00
        -11   -1    0    0    0    0  0.00000000000E+00  0.00000000000E+00  0.45593999997E+02  0.45594000000E+02  0.51100000000E-03 0. -1.
         11   -1    0    0    0    0 -0.00000000000E+00 -0.00000000000E+00 -0.45593999997E+02  0.45594000000E+02  0.51100000000E-03 0.  1.
         23    2    1    2    0    0  0.00000000000E+00  0.17763568394E-14  0.00000000000E+00  0.91188000000E+02  0.91188000000E+02 0.  0.
    9900012    2    3    3    0    0  0.12243340496E+01 -0.87395964101E+01 -0.35747705042E+02  0.54367109801E+02  0.40000058413E+02 0.  0.
         12    1    3    3    0    0 -0.12243340496E+01  0.87395964101E+01  0.35747705042E+02  0.36820890199E+02  0.00000000000E+00 0. -1.
         11    1    4    4    0    0 -0.39081385347E+01 -0.33698663967E+01  0.35734398592E+01  0.62768637891E+01  0.51100000000E-03 0. -1.
        -11    1    4    4    0    0  0.11874899260E+02 -0.72271848421E+01 -0.80864342339E+01  0.16082159434E+02  0.51100000000E-03 0.  1.
        -12    1    4    4    0    0 -0.67424266758E+01  0.18574548287E+01 -0.31234710667E+02  0.32008086578E+02  0.00000000000E+00 0.  1.
</event>
<event>
 8    1  0.2521748E-006  0.9118800E+02  0.7816164E-02  0.1184000E+00
        -11   -1    0    0    0    0  0.00000000000E+00  0.00000000000E+00  0.45593999997E+02  0.45594000000E+02  0.51100000000E-03 0.  1.
         11   -1    0    0    0    0 -0.00000000000E+00 -0.00000000000E+00 -0.45593999997E+02  0.45594000000E+02  0.51100000000E-03 0. -1.
         23    2    1    2    0    0  0.35527136788E-14  0.00000000000E+00  0.17763568394E-14  0.91188000000E+02  0.91188000000E+02 0.  0.
    9900012    2    3    3    0    0  0.24536590352E+02  0.27055975520E+02  0.46594866315E+01  0.54367069904E+02  0.39999967459E+02 0.  0.
         12    1    3    3    0    0 -0.24536590352E+02 -0.27055975520E+02 -0.46594866315E+01  0.36820930096E+02  0.00000000000E+00 0. -1.
         11    1    4    4    0    0  0.14182864913E+02  0.51117072783E+01 -0.96035656747E+01  0.17874889716E+02  0.51100000000E-03 0. -1.
        -11    1    4    4    0    0  0.31985990520E+01 -0.47925823474E+01  0.11951360243E+01  0.58845757562E+01  0.51100000000E-03 0.  1.
        -12    1    4    4    0    0  0.71551263873E+01  0.26736850590E+02  0.13067916282E+02  0.30607604431E+02  0.00000000000E+00 0.  1.
</event>
<event>
 8    1  0.2521748E-006  0.9118800E+02  0.7816164E-02  0.1184000E+00
        -11   -1    0    0    0    0  0.00000000000E+00  0.00000000000E+00  0.45593999997E+02  0.45594000000E+02  0.51100000000E-03 0.  1.
         11   -1    0    0    0    0 -0.00000000000E+00 -0.00000000000E+00 -0.45593999997E+02  0.45594000000E+02  0.51100000000E-03 0. -1.
         23    2    1    2    0    0  0.00000000000E+00 -0.71054273576E-14  0.00000000000E+00  0.91188000000E+02  0.91188000000E+02 0.  0.
    9900012    2    3    3    0    0  0.62465669293E+01  0.29608298286E+02  0.20978786497E+02  0.54367076483E+02  0.39999982458E+02 0.  0.
        -12    1    3    3    0    0 -0.62465669293E+01 -0.29608298286E+02 -0.20978786497E+02  0.36820923517E+02  0.00000000000E+00 0.  1.
         11    1    4    4    0    0  0.12640084702E+02  0.61099120185E+01  0.69825648673E+01  0.15679890897E+02  0.51100000000E-03 0. -1.
        -11    1    4    4    0    0 -0.43047987297E+01 -0.16632513342E+01  0.12579472680E+02  0.13399284692E+02  0.51100000000E-03 0.  1.
         12    1    4    4    0    0 -0.20887190431E+01  0.25161637601E+02  0.14167489504E+01  0.25287900894E+02  0.00000000000E+00 0. -1.
</event>
<event>
 8    1  0.2521748E-006  0.9118800E+02  0.7816164E-02  0.1184000E+00
        -11   -1    0    0    0    0  0.00000000000E+00  0.00000000000E+00  0.45593999997E+02  0.45594000000E+02  0.51100000000E-03 0. -1.
         11   -1    0    0    0    0 -0.00000000000E+00 -0.00000000000E+00 -0.45593999997E+02  0.45594000000E+02  0.51100000000E-03 0.  1.
         23    2    1    2    0    0  0.00000000000E+00  0.00000000000E+00  0.00000000000E+00  0.91188000000E+02  0.91188000000E+02 0.  0.
    9900012    2    3    3    0    0 -0.32336495086E+02  0.89110286335E+01  0.15189592580E+02  0.54367094681E+02  0.40000023944E+02 0.  0.
        -12    1    3    3    0    0  0.32336495086E+02 -0.89110286335E+01 -0.15189592580E+02  0.36820905319E+02  0.00000000000E+00 0.  1.
         11    1    4    4    0    0 -0.22323183113E+02  0.13358973558E+02  0.23667770105E+02  0.35170300266E+02  0.51100000000E-03 0. -1.
        -11    1    4    4    0    0 -0.70095258028E+01  0.97664114333E+00 -0.10510829956E+02  0.12671417700E+02  0.51100000000E-03 0.  1.
        -12    1    4    4    0    0 -0.30037861705E+01 -0.54245860676E+01  0.20326524317E+01  0.65253767149E+01  0.00000000000E+00 0.  1.
</event>
<event>
 8    1  0.2521748E-006  0.9118800E+02  0.7816164E-02  0.1184000E+00
        -11   -1    0    0    0    0  0.00000000000E+00  0.00000000000E+00  0.45593999997E+02  0.45594000000E+02  0.51100000000E-03 0.  1.
         11   -1    0    0    0    0 -0.00000000000E+00 -0.00000000000E+00 -0.45593999997E+02  0.45594000000E+02  0.51100000000E-03 0. -1.
         23    2    1    2    0    0  0.66613381478E-15  0.00000000000E+00  0.00000000000E+00  0.91188000000E+02  0.91188000000E+02 0.  0.
    9900012    2    3    3    0    0  0.35135957764E+00 -0.15865202654E+02  0.33225890772E+02  0.54366974398E+02  0.39999749734E+02 0.  0.
         12    1    3    3    0    0 -0.35135957764E+00  0.15865202654E+02 -0.33225890772E+02  0.36821025602E+02  0.00000000000E+00 0. -1.
         11    1    4    4    0    0 -0.12635996453E+02 -0.11580096360E+02  0.12495364604E+02  0.21210873978E+02  0.51100000000E-03 0. -1.
        -11    1    4    4    0    0  0.65037266237E+01 -0.84747246390E+01  0.22787528131E+02  0.25167257623E+02  0.51100000000E-03 0.  1.
         12    1    4    4    0    0  0.64836294070E+01  0.41896183444E+01 -0.20570019625E+01  0.79888427968E+01  0.00000000000E+00 0. -1.
</event>
<event>
 8    1  0.2521748E-006  0.9118800E+02  0.7816164E-02  0.1184000E+00
        -11   -1    0    0    0    0  0.00000000000E+00  0.00000000000E+00  0.45593999997E+02  0.45594000000E+02  0.51100000000E-03 0. -1.
         11   -1    0    0    0    0 -0.00000000000E+00 -0.00000000000E+00 -0.45593999997E+02  0.45594000000E+02  0.51100000000E-03 0.  1.
         23    2    1    2    0    0 -0.71054273576E-14  0.00000000000E+00  0.44408920985E-15  0.91188000000E+02  0.91188000000E+02 0.  0.
    9900012    2    3    3    0    0  0.36367500481E+02  0.50005786211E+01 -0.28600271256E+01  0.54367073438E+02  0.39999975516E+02 0.  0.
         12    1    3    3    0    0 -0.36367500481E+02 -0.50005786211E+01  0.28600271256E+01  0.36820926562E+02  0.00000000000E+00 0. -1.
         11    1    4    4    0    0  0.17705747019E+02 -0.40724505337E+00 -0.34044968851E+01  0.18034686727E+02  0.51100000000E-03 0. -1.
        -11    1    4    4    0    0  0.72293501232E+01  0.84165678775E+01 -0.13823975662E+02  0.17725812292E+02  0.51100000000E-03 0.  1.
         12    1    4    4    0    0  0.11432403338E+02 -0.30087442030E+01  0.14368445422E+02  0.18606574419E+02  0.00000000000E+00 0. -1.
</event>
<event>
 8    1  0.2521748E-006  0.9118800E+02  0.7816164E-02  0.1184000E+00
        -11   -1    0    0    0    0  0.00000000000E+00  0.00000000000E+00  0.45593999997E+02  0.45594000000E+02  0.51100000000E-03 0. -1.
         11   -1    0    0    0    0 -0.00000000000E+00 -0.00000000000E+00 -0.45593999997E+02  0.45594000000E+02  0.51100000000E-03 0.  1.
         23    2    1    2    0    0  0.00000000000E+00 -0.88817841970E-15  0.00000000000E+00  0.91188000000E+02  0.91188000000E+02 0.  0.
    9900012    2    3    3    0    0 -0.17740935630E+02 -0.42427489837E+01  0.31984942465E+02  0.54367105654E+02  0.40000048960E+02 0.  0.
        -12    1    3    3    0    0  0.17740935630E+02  0.42427489837E+01 -0.31984942465E+02  0.36820894346E+02  0.00000000000E+00 0.  1.
         11    1    4    4    0    0 -0.25205365680E+01 -0.19373468154E+02  0.18733182157E+02  0.27066889124E+02  0.51100000000E-03 0. -1.
        -11    1    4    4    0    0 -0.80920586507E+01  0.21790873540E+01  0.17301204902E+01  0.85570527680E+01  0.51100000000E-03 0.  1.
         12    1    4    4    0    0 -0.71283404114E+01  0.12951631816E+02  0.11521639818E+02  0.18743163762E+02  0.00000000000E+00 0. -1.
</event>
<event>
 8    1  0.2521748E-006  0.9118800E+02  0.7816164E-02  0.1184000E+00
        -11   -1    0    0    0    0  0.00000000000E+00  0.00000000000E+00  0.45593999997E+02  0.45594000000E+02  0.51100000000E-03 0.  1.
         11   -1    0    0    0    0 -0.00000000000E+00 -0.00000000000E+00 -0.45593999997E+02  0.45594000000E+02  0.51100000000E-03 0. -1.
         23    2    1    2    0    0  0.00000000000E+00  0.00000000000E+00 -0.35527136788E-14  0.91188000000E+02  0.91188000000E+02 0.  0.
    9900012    2    3    3    0    0  0.12449733211E+02 -0.14462137670E+02 -0.31490143314E+02  0.54367103637E+02  0.40000044361E+02 0.  0.
        -12    1    3    3    0    0 -0.12449733211E+02  0.14462137670E+02  0.31490143314E+02  0.36820896363E+02  0.00000000000E+00 0.  1.
         11    1    4    4    0    0 -0.76149621776E+01 -0.56212411389E+01 -0.92932433032E+01  0.13264628614E+02  0.51100000000E-03 0.  1.
        -11    1    4    4    0    0  0.11534954408E+02  0.88531533864E+01 -0.12601416672E+02  0.19241340922E+02  0.51100000000E-03 0. -1.
        -12    1    4    4    0    0  0.85297409809E+01 -0.17694049918E+02 -0.95954833392E+01  0.21861134102E+02  0.00000000000E+00 0.  1.
</event>
<event>
 8    1  0.2521748E-006  0.9118800E+02  0.7816164E-02  0.1184000E+00
        -11   -1    0    0    0    0  0.00000000000E+00  0.00000000000E+00  0.45593999997E+02  0.45594000000E+02  0.51100000000E-03 0. -1.
         11   -1    0    0    0    0 -0.00000000000E+00 -0.00000000000E+00 -0.45593999997E+02  0.45594000000E+02  0.51100000000E-03 0.  1.
         23    2    1    2    0    0 -0.35527136788E-14  0.35527136788E-14  0.00000000000E+00  0.91188000000E+02  0.91188000000E+02 0.  0.
    9900012    2    3    3    0    0 -0.18862524987E+02  0.29556515243E+02  0.11243291416E+02  0.54366891325E+02  0.39999560352E+02 0.  0.
        -12    1    3    3    0    0  0.18862524987E+02 -0.29556515243E+02 -0.11243291416E+02  0.36821108675E+02  0.00000000000E+00 0.  1.
         11    1    4    4    0    0 -0.90288837158E+01  0.18229565261E+02  0.67785426632E+00  0.20354293833E+02  0.51100000000E-03 0. -1.
        -11    1    4    4    0    0  0.15725415784E+01  0.13770579397E+02 -0.48472672414E+01  0.14683247049E+02  0.51100000000E-03 0.  1.
         12    1    4    4    0    0 -0.11406182850E+02 -0.24436294152E+01  0.15412704391E+02  0.19329350443E+02  0.00000000000E+00 0. -1.
</event>
<event>
 8    1  0.2521748E-006  0.9118800E+02  0.7816164E-02  0.1184000E+00
        -11   -1    0    0    0    0  0.00000000000E+00  0.00000000000E+00  0.45593999997E+02  0.45594000000E+02  0.51100000000E-03 0.  1.
         11   -1    0    0    0    0 -0.00000000000E+00 -0.00000000000E+00 -0.45593999997E+02  0.45594000000E+02  0.51100000000E-03 0. -1.
         23    2    1    2    0    0  0.00000000000E+00 -0.35527136788E-14  0.00000000000E+00  0.91188000000E+02  0.91188000000E+02 0.  0.
    9900012    2    3    3    0    0  0.24857827078E+02  0.24932702644E+02  0.10780928781E+02  0.54367086736E+02  0.40000005833E+02 0.  0.
        -12    1    3    3    0    0 -0.24857827078E+02 -0.24932702644E+02 -0.10780928781E+02  0.36820913264E+02  0.00000000000E+00 0.  1.
         11    1    4    4    0    0  0.11794449517E+02  0.39773445209E+01  0.59499307309E+01  0.13796013367E+02  0.51100000000E-03 0. -1.
        -11    1    4    4    0    0  0.22011015771E+02  0.21918981004E+02  0.19608548756E+01  0.31125094307E+02  0.51100000000E-03 0.  1.
        -12    1    4    4    0    0 -0.89476382102E+01 -0.96362288126E+00  0.28701431749E+01  0.94459790621E+01  0.00000000000E+00 0.  1.
</event>
<event>
 8    1  0.2521748E-006  0.9118800E+02  0.7816164E-02  0.1184000E+00
        -11   -1    0    0    0    0  0.00000000000E+00  0.00000000000E+00  0.45593999997E+02  0.45594000000E+02  0.51100000000E-03 0.  1.
         11   -1    0    0    0    0 -0.00000000000E+00 -0.00000000000E+00 -0.45593999997E+02  0.45594000000E+02  0.51100000000E-03 0. -1.
         23    2    1    2    0    0  0.17763568394E-14  0.35527136788E-14 -0.71054273576E-14  0.91188000000E+02  0.91188000000E+02 0.  0.
    9900012    2    3    3    0    0 -0.47537252070E+01 -0.23382073244E+02  0.28043919518E+02  0.54367072873E+02  0.39999974230E+02 0.  0.
         12    1    3    3    0    0  0.47537252070E+01  0.23382073244E+02 -0.28043919518E+02  0.36820927127E+02  0.00000000000E+00 0. -1.
         11    1    4    4    0    0 -0.18102627743E+02 -0.21236132471E+02  0.27208713843E+02  0.38974255127E+02  0.51100000000E-03 0. -1.
        -11    1    4    4    0    0  0.80845881005E+01 -0.90464234988E+00 -0.30982643895E+01  0.87050666295E+01  0.51100000000E-03 0.  1.
        -12    1    4    4    0    0  0.52643144351E+01 -0.12412984235E+01  0.39334700646E+01  0.66877511166E+01  0.00000000000E+00 0.  1.
</event>
<event>
 8    1  0.2521748E-006  0.9118800E+02  0.7816164E-02  0.1184000E+00
        -11   -1    0    0    0    0  0.00000000000E+00  0.00000000000E+00  0.45593999997E+02  0.45594000000E+02  0.51100000000E-03 0. -1.
         11   -1    0    0    0    0 -0.00000000000E+00 -0.00000000000E+00 -0.45593999997E+02  0.45594000000E+02  0.51100000000E-03 0.  1.
         23    2    1    2    0    0  0.88817841970E-15  0.17763568394E-14  0.00000000000E+00  0.91188000000E+02  0.91188000000E+02 0.  0.
    9900012    2    3    3    0    0 -0.55143835842E+01  0.13634952205E+02  0.33755887997E+02  0.54367077654E+02  0.39999985128E+02 0.  0.
        -12    1    3    3    0    0  0.55143835842E+01 -0.13634952205E+02 -0.33755887997E+02  0.36820922346E+02  0.00000000000E+00 0.  1.
         11    1    4    4    0    0  0.10759388012E+02  0.10450670346E+02  0.24339786831E+02  0.28590315919E+02  0.51100000000E-03 0. -1.
        -11    1    4    4    0    0 -0.18354711720E+02  0.41707966640E+01  0.31287022720E+01  0.19080874333E+02  0.51100000000E-03 0.  1.
        -12    1    4    4    0    0  0.20809401236E+01 -0.98651480520E+00  0.62873988938E+01  0.66958874027E+01  0.00000000000E+00 0.  1.
</event>
<event>
 8    1  0.2521748E-006  0.9118800E+02  0.7816164E-02  0.1184000E+00
        -11   -1    0    0    0    0  0.00000000000E+00  0.00000000000E+00  0.45593999997E+02  0.45594000000E+02  0.51100000000E-03 0. -1.
         11   -1    0    0    0    0 -0.00000000000E+00 -0.00000000000E+00 -0.45593999997E+02  0.45594000000E+02  0.51100000000E-03 0.  1.
         23    2    1    2    0    0  0.29143354396E-15  0.00000000000E+00  0.00000000000E+00  0.91188000000E+02  0.91188000000E+02 0.  0.
    9900012    2    3    3    0    0  0.50019413306E-01 -0.34628793513E+02 -0.12514984158E+02  0.54367072926E+02  0.39999974349E+02 0.  0.
         12    1    3    3    0    0 -0.50019413306E-01  0.34628793513E+02  0.12514984158E+02  0.36820927074E+02  0.00000000000E+00 0. -1.
         11    1    4    4    0    0 -0.13295732395E+02 -0.12241121892E+02  0.87304137017E+01  0.20070916490E+02  0.51100000000E-03 0. -1.
        -11    1    4    4    0    0  0.10364324735E+02 -0.18778148899E+02 -0.13810770432E+02  0.25510301517E+02  0.51100000000E-03 0.  1.
         12    1    4    4    0    0  0.29814270725E+01 -0.36095227226E+01 -0.74346274276E+01  0.87858549192E+01  0.00000000000E+00 0. -1.
</event>
<event>
 8    1  0.2521748E-006  0.9118800E+02  0.7816164E-02  0.1184000E+00
        -11   -1    0    0    0    0  0.00000000000E+00  0.00000000000E+00  0.45593999997E+02  0.45594000000E+02  0.51100000000E-03 0. -1.
         11   -1    0    0    0    0 -0.00000000000E+00 -0.00000000000E+00 -0.45593999997E+02  0.45594000000E+02  0.51100000000E-03 0.  1.
         23    2    1    2    0    0  0.00000000000E+00  0.17763568394E-14 -0.35527136788E-14  0.91188000000E+02  0.91188000000E+02 0.  0.
    9900012    2    3    3    0    0  0.32917770335E+02 -0.11945746639E+02  0.11379843770E+02  0.54367064232E+02  0.39999954530E+02 0.  0.
        -12    1    3    3    0    0 -0.32917770335E+02  0.11945746639E+02 -0.11379843770E+02  0.36820935768E+02  0.00000000000E+00 0.  1.
         11    1    4    4    0    0  0.17768292642E+02 -0.12643584152E+01  0.17892424526E+02  0.25247765867E+02  0.51100000000E-03 0. -1.
        -11    1    4    4    0    0  0.10094952586E+02 -0.37274799981E+01  0.71907836024E+01  0.12942547814E+02  0.51100000000E-03 0.  1.
        -12    1    4    4    0    0  0.50545251065E+01 -0.69539082260E+01 -0.13703364358E+02  0.16176750551E+02  0.00000000000E+00 0.  1.
</event>
<event>
 8    1  0.2521748E-006  0.9118800E+02  0.7816164E-02  0.1184000E+00
        -11   -1    0    0    0    0  0.00000000000E+00  0.00000000000E+00  0.45593999997E+02  0.45594000000E+02  0.51100000000E-03 0. -1.
         11   -1    0    0    0    0 -0.00000000000E+00 -0.00000000000E+00 -0.45593999997E+02  0.45594000000E+02  0.51100000000E-03 0.  1.
         23    2    1    2    0    0  0.00000000000E+00  0.35527136788E-14  0.35527136788E-14  0.91188000000E+02  0.91188000000E+02 0.  0.
    9900012    2    3    3    0    0 -0.23892372206E+02 -0.20958541484E+02 -0.18592316924E+02  0.54367079868E+02  0.39999990175E+02 0.  0.
         12    1    3    3    0    0  0.23892372206E+02  0.20958541484E+02  0.18592316924E+02  0.36820920132E+02  0.00000000000E+00 0. -1.
         11    1    4    4    0    0 -0.14691078971E+02 -0.23766825371E+02 -0.48252566867E+01  0.28354415739E+02  0.51100000000E-03 0. -1.
        -11    1    4    4    0    0 -0.12886257563E+02  0.10952751226E+01 -0.14156796573E+01  0.13009973509E+02  0.51100000000E-03 0.  1.
         12    1    4    4    0    0  0.36849643269E+01  0.17130087645E+01 -0.12351380580E+02  0.13002690619E+02  0.00000000000E+00 0. -1.
</event>
<event>
 8    1  0.2521748E-006  0.9118800E+02  0.7816164E-02  0.1184000E+00
        -11   -1    0    0    0    0  0.00000000000E+00  0.00000000000E+00  0.45593999997E+02  0.45594000000E+02  0.51100000000E-03 0. -1.
         11   -1    0    0    0    0 -0.00000000000E+00 -0.00000000000E+00 -0.45593999997E+02  0.45594000000E+02  0.51100000000E-03 0.  1.
         23    2    1    2    0    0  0.00000000000E+00  0.00000000000E+00  0.00000000000E+00  0.91188000000E+02  0.91188000000E+02 0.  0.
    9900012    2    3    3    0    0 -0.27018969540E+02  0.20661313362E+02  0.14101868102E+02  0.54367119120E+02  0.40000079657E+02 0.  0.
         12    1    3    3    0    0  0.27018969540E+02 -0.20661313362E+02 -0.14101868102E+02  0.36820880880E+02  0.00000000000E+00 0. -1.
         11    1    4    4    0    0 -0.10842001396E+01  0.12743486882E+02  0.98236373515E+01  0.16126865750E+02  0.51100000000E-03 0. -1.
        -11    1    4    4    0    0 -0.26503259711E+02  0.15277351361E+02  0.40211046857E+01  0.30854327461E+02  0.51100000000E-03 0.  1.
         12    1    4    4    0    0  0.56849031086E+00 -0.73595248810E+01  0.25712606526E+00  0.73859259082E+01  0.00000000000E+00 0. -1.
</event>
<event>
 8    1  0.2521748E-006  0.9118800E+02  0.7816164E-02  0.1184000E+00
        -11   -1    0    0    0    0  0.00000000000E+00  0.00000000000E+00  0.45593999997E+02  0.45594000000E+02  0.51100000000E-03 0. -1.
         11   -1    0    0    0    0 -0.00000000000E+00 -0.00000000000E+00 -0.45593999997E+02  0.45594000000E+02  0.51100000000E-03 0.  1.
         23    2    1    2    0    0 -0.17763568394E-14 -0.71054273576E-14  0.00000000000E+00  0.91188000000E+02  0.91188000000E+02 0.  0.
    9900012    2    3    3    0    0  0.90074494438E+01  0.31646093859E+02 -0.16527850796E+02  0.54367092163E+02  0.40000018205E+02 0.  0.
         12    1    3    3    0    0 -0.90074494438E+01 -0.31646093859E+02  0.16527850796E+02  0.36820907837E+02  0.00000000000E+00 0. -1.
         11    1    4    4    0    0  0.61981361196E+01  0.18682459942E+02 -0.57346599212E+00  0.19692132042E+02  0.51100000000E-03 0. -1.
        -11    1    4    4    0    0 -0.40124581301E+00  0.11195448684E+02 -0.23640022651E+02  0.26160079141E+02  0.51100000000E-03 0.  1.
        -12    1    4    4    0    0  0.32105591372E+01  0.17681852327E+01  0.76856378476E+01  0.85148809807E+01  0.00000000000E+00 0.  1.
</event>
<event>
 8    1  0.2521748E-006  0.9118800E+02  0.7816164E-02  0.1184000E+00
        -11   -1    0    0    0    0  0.00000000000E+00  0.00000000000E+00  0.45593999997E+02  0.45594000000E+02  0.51100000000E-03 0. -1.
         11   -1    0    0    0    0 -0.00000000000E+00 -0.00000000000E+00 -0.45593999997E+02  0.45594000000E+02  0.51100000000E-03 0.  1.
         23    2    1    2    0    0  0.00000000000E+00  0.00000000000E+00  0.17763568394E-14  0.91188000000E+02  0.91188000000E+02 0.  0.
    9900012    2    3    3    0    0  0.17973534000E+02  0.28565873863E+02  0.14721529615E+02  0.54367075131E+02  0.39999979376E+02 0.  0.
        -12    1    3    3    0    0 -0.17973534000E+02 -0.28565873863E+02 -0.14721529615E+02  0.36820924869E+02  0.00000000000E+00 0.  1.
         11    1    4    4    0    0  0.50648441040E+01  0.69065106317E+01  0.10525451594E+02  0.13569733469E+02  0.51100000000E-03 0. -1.
        -11    1    4    4    0    0  0.50186956708E+01  0.44899446634E+01  0.16789582698E+02  0.18089693108E+02  0.51100000000E-03 0.  1.
         12    1    4    4    0    0  0.78899942249E+01  0.17169418568E+02 -0.12593504676E+02  0.22707648554E+02  0.00000000000E+00 0. -1.
</event>
<event>
 8    1  0.2521748E-006  0.9118800E+02  0.7816164E-02  0.1184000E+00
        -11   -1    0    0    0    0  0.00000000000E+00  0.00000000000E+00  0.45593999997E+02  0.45594000000E+02  0.51100000000E-03 0.  1.
         11   -1    0    0    0    0 -0.00000000000E+00 -0.00000000000E+00 -0.45593999997E+02  0.45594000000E+02  0.51100000000E-03 0. -1.
         23    2    1    2    0    0 -0.35527136788E-14  0.35527136788E-14 -0.35527136788E-14  0.91188000000E+02  0.91188000000E+02 0.  0.
    9900012    2    3    3    0    0  0.28223709171E+02 -0.15614598935E+02  0.17759048386E+02  0.54367119255E+02  0.40000079966E+02 0.  0.
        -12    1    3    3    0    0 -0.28223709171E+02  0.15614598935E+02 -0.17759048386E+02  0.36820880745E+02  0.00000000000E+00 0.  1.
         11    1    4    4    0    0  0.70956074517E+01  0.44609359311E+00 -0.47264219864E+01  0.85373127890E+01  0.51100000000E-03 0. -1.
        -11    1    4    4    0    0  0.62123840400E+01  0.51698896492E+01 -0.37688098482E+01  0.89177016309E+01  0.51100000000E-03 0.  1.
         12    1    4    4    0    0  0.14915717679E+02 -0.21230582177E+02  0.26254280221E+02  0.36912104835E+02  0.00000000000E+00 0. -1.
</event>
<event>
 8    1  0.2521748E-006  0.9118800E+02  0.7816164E-02  0.1184000E+00
        -11   -1    0    0    0    0  0.00000000000E+00  0.00000000000E+00  0.45593999997E+02  0.45594000000E+02  0.51100000000E-03 0. -1.
         11   -1    0    0    0    0 -0.00000000000E+00 -0.00000000000E+00 -0.45593999997E+02  0.45594000000E+02  0.51100000000E-03 0.  1.
         23    2    1    2    0    0  0.00000000000E+00  0.00000000000E+00 -0.17763568394E-14  0.91188000000E+02  0.91188000000E+02 0.  0.
    9900012    2    3    3    0    0  0.29290873300E+02  0.21933210211E+02  0.40945413090E+01  0.54366997333E+02  0.39999802020E+02 0.  0.
        -12    1    3    3    0    0 -0.29290873300E+02 -0.21933210211E+02 -0.40945413090E+01  0.36821002667E+02  0.00000000000E+00 0.  1.
         11    1    4    4    0    0  0.18404704974E+02  0.19645764819E+02 -0.27118426873E+00  0.26921418642E+02  0.51100000000E-03 0. -1.
        -11    1    4    4    0    0  0.12453045405E+02 -0.45186720470E+00 -0.79172730598E+01  0.14763662716E+02  0.51100000000E-03 0.  1.
        -12    1    4    4    0    0 -0.15668770788E+01  0.27393125969E+01  0.12282998638E+02  0.12681915976E+02  0.00000000000E+00 0.  1.
</event>
<event>
 8    1  0.2521748E-006  0.9118800E+02  0.7816164E-02  0.1184000E+00
        -11   -1    0    0    0    0  0.00000000000E+00  0.00000000000E+00  0.45593999997E+02  0.45594000000E+02  0.51100000000E-03 0.  1.
         11   -1    0    0    0    0 -0.00000000000E+00 -0.00000000000E+00 -0.45593999997E+02  0.45594000000E+02  0.51100000000E-03 0. -1.
         23    2    1    2    0    0 -0.35527136788E-14  0.00000000000E+00  0.00000000000E+00  0.91188000000E+02  0.91188000000E+02 0.  0.
    9900012    2    3    3    0    0 -0.22570290463E+02 -0.22841050112E+02 -0.18017985932E+02  0.54367090196E+02  0.40000013719E+02 0.  0.
        -12    1    3    3    0    0  0.22570290463E+02  0.22841050112E+02  0.18017985932E+02  0.36820909804E+02  0.00000000000E+00 0.  1.
         11    1    4    4    0    0 -0.64853832204E+00 -0.64456842764E+00 -0.61530733370E+01  0.62206416200E+01  0.51100000000E-03 0. -1.
        -11    1    4    4    0    0  0.30683379432E+01 -0.20619758236E+02 -0.10565926126E+01  0.20873560205E+02  0.51100000000E-03 0.  1.
        -12    1    4    4    0    0 -0.24990090084E+02 -0.15767234484E+01 -0.10808319983E+02  0.27272888370E+02  0.00000000000E+00 0.  1.
</event>
<event>
 8    1  0.2521748E-006  0.9118800E+02  0.7816164E-02  0.1184000E+00
        -11   -1    0    0    0    0  0.00000000000E+00  0.00000000000E+00  0.45593999997E+02  0.45594000000E+02  0.51100000000E-03 0.  1.
         11   -1    0    0    0    0 -0.00000000000E+00 -0.00000000000E+00 -0.45593999997E+02  0.45594000000E+02  0.51100000000E-03 0. -1.
         23    2    1    2    0    0  0.00000000000E+00 -0.71054273576E-14  0.88817841970E-15  0.91188000000E+02  0.91188000000E+02 0.  0.
    9900012    2    3    3    0    0  0.85456453575E+01  0.35542896581E+02  0.44107442718E+01  0.54367079086E+02  0.39999988392E+02 0.  0.
        -12    1    3    3    0    0 -0.85456453575E+01 -0.35542896581E+02 -0.44107442718E+01  0.36820920914E+02  0.00000000000E+00 0.  1.
         11    1    4    4    0    0  0.23594086854E+02  0.19160758913E+02  0.70232229345E+01  0.31195212409E+02  0.51100000000E-03 0. -1.
        -11    1    4    4    0    0 -0.11988904011E+02  0.10899233950E+02  0.40041235091E+00  0.16207635558E+02  0.51100000000E-03 0.  1.
         12    1    4    4    0    0 -0.30595374857E+01  0.54829037185E+01 -0.30128910137E+01  0.69642311186E+01  0.00000000000E+00 0. -1.
</event>
<event>
 8    1  0.2521748E-006  0.9118800E+02  0.7816164E-02  0.1184000E+00
        -11   -1    0    0    0    0  0.00000000000E+00  0.00000000000E+00  0.45593999997E+02  0.45594000000E+02  0.51100000000E-03 0. -1.
         11   -1    0    0    0    0 -0.00000000000E+00 -0.00000000000E+00 -0.45593999997E+02  0.45594000000E+02  0.51100000000E-03 0.  1.
         23    2    1    2    0    0  0.00000000000E+00  0.00000000000E+00  0.35527136788E-14  0.91188000000E+02  0.91188000000E+02 0.  0.
    9900012    2    3    3    0    0  0.94645516103E+01 -0.31479258983E+02 -0.16590910147E+02  0.54367084981E+02  0.40000001832E+02 0.  0.
         12    1    3    3    0    0 -0.94645516103E+01  0.31479258983E+02  0.16590910147E+02  0.36820915019E+02  0.00000000000E+00 0. -1.
         11    1    4    4    0    0 -0.39516828458E+01 -0.25751592279E+02 -0.94032652072E+01  0.27698045040E+02  0.51100000000E-03 0. -1.
        -11    1    4    4    0    0  0.91639538983E+01 -0.12243965327E+02 -0.10136727213E+02  0.18347914781E+02  0.51100000000E-03 0.  1.
        -12    1    4    4    0    0  0.42522805578E+01  0.65162986226E+01  0.29490822725E+01  0.83211251602E+01  0.00000000000E+00 0.  1.
</event>
<event>
 8    1  0.2521748E-006  0.9118800E+02  0.7816164E-02  0.1184000E+00
        -11   -1    0    0    0    0  0.00000000000E+00  0.00000000000E+00  0.45593999997E+02  0.45594000000E+02  0.51100000000E-03 0.  1.
         11   -1    0    0    0    0 -0.00000000000E+00 -0.00000000000E+00 -0.45593999997E+02  0.45594000000E+02  0.51100000000E-03 0. -1.
         23    2    1    2    0    0 -0.17763568394E-14  0.71054273576E-14 -0.17763568394E-14  0.91188000000E+02  0.91188000000E+02 0.  0.
    9900012    2    3    3    0    0 -0.10574540496E+02  0.34553559548E+02  0.70717944642E+01  0.54367086635E+02  0.40000005601E+02 0.  0.
         12    1    3    3    0    0  0.10574540496E+02 -0.34553559548E+02 -0.70717944642E+01  0.36820913365E+02  0.00000000000E+00 0. -1.
         11    1    4    4    0    0  0.38510307669E+00  0.42932062658E+01 -0.11996927943E+02  0.12747792152E+02  0.51100000000E-03 0. -1.
        -11    1    4    4    0    0 -0.32418219897E+01 -0.14629777893E+01  0.48364140791E+01  0.60033836485E+01  0.51100000000E-03 0.  1.
         12    1    4    4    0    0 -0.77178215826E+01  0.31723331071E+02  0.14232308328E+02  0.35615910835E+02  0.00000000000E+00 0. -1.
</event>
<event>
 8    1  0.2521748E-006  0.9118800E+02  0.7816164E-02  0.1184000E+00
        -11   -1    0    0    0    0  0.00000000000E+00  0.00000000000E+00  0.45593999997E+02  0.45594000000E+02  0.51100000000E-03 0.  1.
         11   -1    0    0    0    0 -0.00000000000E+00 -0.00000000000E+00 -0.45593999997E+02  0.45594000000E+02  0.51100000000E-03 0. -1.
         23    2    1    2    0    0  0.00000000000E+00  0.00000000000E+00  0.00000000000E+00  0.91188000000E+02  0.91188000000E+02 0.  0.
    9900012    2    3    3    0    0  0.23321904227E+02  0.11412404980E+02  0.26107825996E+02  0.54367180041E+02  0.40000218539E+02 0.  0.
         12    1    3    3    0    0 -0.23321904227E+02 -0.11412404980E+02 -0.26107825996E+02  0.36820819959E+02  0.00000000000E+00 0. -1.
         11    1    4    4    0    0  0.56750523054E+01 -0.16527381879E+01 -0.62244787028E+01  0.85838160260E+01  0.51100000000E-03 0. -1.
        -11    1    4    4    0    0  0.45347406108E-01  0.11234360819E+02  0.31724190797E+01  0.11673780984E+02  0.51100000000E-03 0.  1.
        -12    1    4    4    0    0  0.17601504516E+02  0.18307823495E+01  0.29159885619E+02  0.34109583031E+02  0.00000000000E+00 0.  1.
</event>
<event>
 8    1  0.2521748E-006  0.9118800E+02  0.7816164E-02  0.1184000E+00
        -11   -1    0    0    0    0  0.00000000000E+00  0.00000000000E+00  0.45593999997E+02  0.45594000000E+02  0.51100000000E-03 0.  1.
         11   -1    0    0    0    0 -0.00000000000E+00 -0.00000000000E+00 -0.45593999997E+02  0.45594000000E+02  0.51100000000E-03 0. -1.
         23    2    1    2    0    0  0.33306690739E-15  0.00000000000E+00  0.00000000000E+00  0.91188000000E+02  0.91188000000E+02 0.  0.
    9900012    2    3    3    0    0 -0.72417218299E+00 -0.32365154141E+02  0.17542666170E+02  0.54367180288E+02  0.40000219102E+02 0.  0.
         12    1    3    3    0    0  0.72417218299E+00  0.32365154141E+02 -0.17542666170E+02  0.36820819712E+02  0.00000000000E+00 0. -1.
         11    1    4    4    0    0  0.74044342173E+01 -0.16502949591E+01  0.79332301488E+01  0.10976577808E+02  0.51100000000E-03 0. -1.
        -11    1    4    4    0    0 -0.74467744524E+01 -0.32453979722E+02  0.15849369158E+02  0.36877062688E+02  0.51100000000E-03 0.  1.
        -12    1    4    4    0    0 -0.68183194788E+00  0.17391205402E+01 -0.62399331369E+01  0.65135397912E+01  0.00000000000E+00 0.  1.
</event>
<event>
 8    1  0.2521748E-006  0.9118800E+02  0.7816164E-02  0.1184000E+00
        -11   -1    0    0    0    0  0.00000000000E+00  0.00000000000E+00  0.45593999997E+02  0.45594000000E+02  0.51100000000E-03 0. -1.
         11   -1    0    0    0    0 -0.00000000000E+00 -0.00000000000E+00 -0.45593999997E+02  0.45594000000E+02  0.51100000000E-03 0.  1.
         23    2    1    2    0    0  0.00000000000E+00  0.00000000000E+00  0.00000000000E+00  0.91188000000E+02  0.91188000000E+02 0.  0.
    9900012    2    3    3    0    0  0.14575624943E+02  0.32271068546E+02 -0.10094930374E+02  0.54367104753E+02  0.40000046905E+02 0.  0.
        -12    1    3    3    0    0 -0.14575624943E+02 -0.32271068546E+02  0.10094930374E+02  0.36820895247E+02  0.00000000000E+00 0.  1.
         11    1    4    4    0    0  0.72530798818E+01  0.17538622974E+02 -0.28447230980E+01  0.19191219694E+02  0.51100000000E-03 0. -1.
        -11    1    4    4    0    0 -0.11854915354E+02  0.61209454507E+01 -0.18352545367E+01  0.13467484945E+02  0.51100000000E-03 0.  1.
        -12    1    4    4    0    0  0.19177460415E+02  0.86115001215E+01 -0.54149527389E+01  0.21708400114E+02  0.00000000000E+00 0.  1.
</event>
<event>
 8    1  0.2521748E-006  0.9118800E+02  0.7816164E-02  0.1184000E+00
        -11   -1    0    0    0    0  0.00000000000E+00  0.00000000000E+00  0.45593999997E+02  0.45594000000E+02  0.51100000000E-03 0. -1.
         11   -1    0    0    0    0 -0.00000000000E+00 -0.00000000000E+00 -0.45593999997E+02  0.45594000000E+02  0.51100000000E-03 0.  1.
         23    2    1    2    0    0  0.00000000000E+00  0.00000000000E+00  0.00000000000E+00  0.91188000000E+02  0.91188000000E+02 0.  0.
    9900012    2    3    3    0    0  0.16410665203E+02  0.13850587399E+02  0.29910391092E+02  0.54367079330E+02  0.39999988948E+02 0.  0.
        -12    1    3    3    0    0 -0.16410665203E+02 -0.13850587399E+02 -0.29910391092E+02  0.36820920670E+02  0.00000000000E+00 0.  1.
         11    1    4    4    0    0  0.22001017453E+01  0.94489177038E+01  0.13799833497E+02  0.16868844011E+02  0.51100000000E-03 0. -1.
        -11    1    4    4    0    0  0.39184194629E+01  0.11158604878E+02 -0.51743279649E+01  0.12908994696E+02  0.51100000000E-03 0.  1.
         12    1    4    4    0    0  0.10292143995E+02 -0.67569351831E+01  0.21284885560E+02  0.24589240623E+02  0.00000000000E+00 0. -1.
</event>
<event>
 8    1  0.2521748E-006  0.9118800E+02  0.7816164E-02  0.1184000E+00
        -11   -1    0    0    0    0  0.00000000000E+00  0.00000000000E+00  0.45593999997E+02  0.45594000000E+02  0.51100000000E-03 0. -1.
         11   -1    0    0    0    0 -0.00000000000E+00 -0.00000000000E+00 -0.45593999997E+02  0.45594000000E+02  0.51100000000E-03 0.  1.
         23    2    1    2    0    0  0.17763568394E-14  0.00000000000E+00  0.00000000000E+00  0.91188000000E+02  0.91188000000E+02 0.  0.
    9900012    2    3    3    0    0  0.11427593522E+02  0.20266509962E+02  0.28538750820E+02  0.54367060059E+02  0.39999945017E+02 0.  0.
        -12    1    3    3    0    0 -0.11427593522E+02 -0.20266509962E+02 -0.28538750820E+02  0.36820939941E+02  0.00000000000E+00 0.  1.
         11    1    4    4    0    0  0.81343574184E+01  0.23163345375E+02  0.23912246833E+02  0.34271035707E+02  0.51100000000E-03 0. -1.
        -11    1    4    4    0    0  0.86802517195E+01  0.49326299473E+01  0.32107346710E+01  0.10487441323E+02  0.51100000000E-03 0.  1.
        -12    1    4    4    0    0 -0.53870156160E+01 -0.78294653602E+01  0.14157693159E+01  0.96085830292E+01  0.00000000000E+00 0.  1.
</event>
<event>
 8    1  0.2521748E-006  0.9118800E+02  0.7816164E-02  0.1184000E+00
        -11   -1    0    0    0    0  0.00000000000E+00  0.00000000000E+00  0.45593999997E+02  0.45594000000E+02  0.51100000000E-03 0. -1.
         11   -1    0    0    0    0 -0.00000000000E+00 -0.00000000000E+00 -0.45593999997E+02  0.45594000000E+02  0.51100000000E-03 0.  1.
         23    2    1    2    0    0  0.00000000000E+00  0.00000000000E+00  0.44408920985E-15  0.91188000000E+02  0.91188000000E+02 0.  0.
    9900012    2    3    3    0    0  0.17705510276E+02 -0.32258083864E+02  0.13075736603E+01  0.54367098088E+02  0.40000031712E+02 0.  0.
        -12    1    3    3    0    0 -0.17705510276E+02  0.32258083864E+02 -0.13075736603E+01  0.36820901912E+02  0.00000000000E+00 0.  1.
         11    1    4    4    0    0  0.66981813535E+01 -0.31227388518E+02  0.12905623330E+01  0.31963744751E+02  0.51100000000E-03 0. -1.
        -11    1    4    4    0    0 -0.33680781013E+01 -0.43239635821E+01 -0.43777620855E+01  0.70146569620E+01  0.51100000000E-03 0.  1.
         12    1    4    4    0    0  0.14375407024E+02  0.32932682365E+01  0.43947734128E+01  0.15388696375E+02  0.00000000000E+00 0. -1.
</event>
<event>
 8    1  0.2521748E-006  0.9118800E+02  0.7816164E-02  0.1184000E+00
        -11   -1    0    0    0    0  0.00000000000E+00  0.00000000000E+00  0.45593999997E+02  0.45594000000E+02  0.51100000000E-03 0.  1.
         11   -1    0    0    0    0 -0.00000000000E+00 -0.00000000000E+00 -0.45593999997E+02  0.45594000000E+02  0.51100000000E-03 0. -1.
         23    2    1    2    0    0  0.00000000000E+00  0.71054273576E-14  0.17763568394E-14  0.91188000000E+02  0.91188000000E+02 0.  0.
    9900012    2    3    3    0    0  0.14332591448E+02 -0.32319577314E+02 -0.10285988669E+02  0.54367084500E+02  0.40000000735E+02 0.  0.
        -12    1    3    3    0    0 -0.14332591448E+02  0.32319577314E+02  0.10285988669E+02  0.36820915500E+02  0.00000000000E+00 0.  1.
         11    1    4    4    0    0 -0.49331293687E+01 -0.18481177785E+02 -0.13401665488E+02  0.23355820170E+02  0.51100000000E-03 0. -1.
        -11    1    4    4    0    0  0.48019423462E+01 -0.75896939460E+01  0.10324813631E+02  0.13684439385E+02  0.51100000000E-03 0.  1.
         12    1    4    4    0    0  0.14463778471E+02 -0.62487055829E+01 -0.72091368121E+01  0.17326824945E+02  0.00000000000E+00 0. -1.
</event>
<event>
 8    1  0.2521748E-006  0.9118800E+02  0.7816164E-02  0.1184000E+00
        -11   -1    0    0    0    0  0.00000000000E+00  0.00000000000E+00  0.45593999997E+02  0.45594000000E+02  0.51100000000E-03 0. -1.
         11   -1    0    0    0    0 -0.00000000000E+00 -0.00000000000E+00 -0.45593999997E+02  0.45594000000E+02  0.51100000000E-03 0.  1.
         23    2    1    2    0    0  0.35527136788E-14  0.00000000000E+00  0.35527136788E-14  0.91188000000E+02  0.91188000000E+02 0.  0.
    9900012    2    3    3    0    0  0.29952982896E+02  0.43352647446E+01  0.20971538184E+02  0.54367066843E+02  0.39999960482E+02 0.  0.
        -12    1    3    3    0    0 -0.29952982896E+02 -0.43352647446E+01 -0.20971538184E+02  0.36820933157E+02  0.00000000000E+00 0.  1.
         11    1    4    4    0    0  0.23755877278E+02  0.25694863442E+01  0.70200861197E-01  0.23894536901E+02  0.51100000000E-03 0. -1.
        -11    1    4    4    0    0 -0.49921990747E+01  0.69962403647E+01  0.38498791412E+01  0.94175899521E+01  0.51100000000E-03 0.  1.
         12    1    4    4    0    0  0.11189304692E+02 -0.52304619644E+01  0.17051458181E+02  0.21054939990E+02  0.00000000000E+00 0. -1.
</event>
<event>
 8    1  0.2521748E-006  0.9118800E+02  0.7816164E-02  0.1184000E+00
        -11   -1    0    0    0    0  0.00000000000E+00  0.00000000000E+00  0.45593999997E+02  0.45594000000E+02  0.51100000000E-03 0. -1.
         11   -1    0    0    0    0 -0.00000000000E+00 -0.00000000000E+00 -0.45593999997E+02  0.45594000000E+02  0.51100000000E-03 0.  1.
         23    2    1    2    0    0  0.00000000000E+00  0.00000000000E+00 -0.35527136788E-14  0.91188000000E+02  0.91188000000E+02 0.  0.
    9900012    2    3    3    0    0 -0.20164265396E+02 -0.20033013721E+02  0.23406347913E+02  0.54367131456E+02  0.40000107780E+02 0.  0.
        -12    1    3    3    0    0  0.20164265396E+02  0.20033013721E+02 -0.23406347913E+02  0.36820868544E+02  0.00000000000E+00 0.  1.
         11    1    4    4    0    0 -0.43261657413E+01  0.17796238192E+01 -0.54930433096E+01  0.72150049218E+01  0.51100000000E-03 0. -1.
        -11    1    4    4    0    0 -0.43257016029E+01 -0.12312367769E+01 -0.44369823250E+01  0.63177884400E+01  0.51100000000E-03 0.  1.
        -12    1    4    4    0    0 -0.11512398052E+02 -0.20581400763E+02  0.33336373548E+02  0.40834338094E+02  0.00000000000E+00 0.  1.
</event>
<event>
 8    1  0.2521748E-006  0.9118800E+02  0.7816164E-02  0.1184000E+00
        -11   -1    0    0    0    0  0.00000000000E+00  0.00000000000E+00  0.45593999997E+02  0.45594000000E+02  0.51100000000E-03 0.  1.
         11   -1    0    0    0    0 -0.00000000000E+00 -0.00000000000E+00 -0.45593999997E+02  0.45594000000E+02  0.51100000000E-03 0. -1.
         23    2    1    2    0    0 -0.71054273576E-14  0.00000000000E+00  0.17763568394E-14  0.91188000000E+02  0.91188000000E+02 0.  0.
    9900012    2    3    3    0    0  0.33494340940E+02  0.52301410894E+01 -0.14371997904E+02  0.54367087809E+02  0.40000008278E+02 0.  0.
        -12    1    3    3    0    0 -0.33494340940E+02 -0.52301410894E+01  0.14371997904E+02  0.36820912191E+02  0.00000000000E+00 0.  1.
         11    1    4    4    0    0  0.10150349395E+02  0.78635093432E+00 -0.60504838659E+01  0.11842985092E+02  0.51100000000E-03 0. -1.
        -11    1    4    4    0    0  0.29051331344E+02  0.12543417496E+02 -0.78586111058E+01  0.32604830074E+02  0.51100000000E-03 0.  1.
        -12    1    4    4    0    0 -0.57073397987E+01 -0.80996273408E+01 -0.46290293231E+00  0.99192726428E+01  0.00000000000E+00 0.  1.
</event>
<event>
 8    1  0.2521748E-006  0.9118800E+02  0.7816164E-02  0.1184000E+00
        -11   -1    0    0    0    0  0.00000000000E+00  0.00000000000E+00  0.45593999997E+02  0.45594000000E+02  0.51100000000E-03 0. -1.
         11   -1    0    0    0    0 -0.00000000000E+00 -0.00000000000E+00 -0.45593999997E+02  0.45594000000E+02  0.51100000000E-03 0.  1.
         23    2    1    2    0    0  0.00000000000E+00  0.00000000000E+00 -0.83266726847E-16  0.91188000000E+02  0.91188000000E+02 0.  0.
    9900012    2    3    3    0    0 -0.53452342683E+01 -0.36430481009E+02 -0.16490159190E+00  0.54367100113E+02  0.40000036328E+02 0.  0.
         12    1    3    3    0    0  0.53452342683E+01  0.36430481009E+02  0.16490159190E+00  0.36820899887E+02  0.00000000000E+00 0. -1.
         11    1    4    4    0    0 -0.11138354615E+02 -0.10866336446E+02 -0.56509206112E+00  0.15571112375E+02  0.51100000000E-03 0. -1.
        -11    1    4    4    0    0 -0.10485582862E+02 -0.18006866732E+02  0.63624992323E+00  0.20847050432E+02  0.51100000000E-03 0.  1.
         12    1    4    4    0    0  0.16278703209E+02 -0.75572778310E+01 -0.23605945401E+00  0.17948937307E+02  0.00000000000E+00 0. -1.
</event>
<event>
 8    1  0.2521748E-006  0.9118800E+02  0.7816164E-02  0.1184000E+00
        -11   -1    0    0    0    0  0.00000000000E+00  0.00000000000E+00  0.45593999997E+02  0.45594000000E+02  0.51100000000E-03 0. -1.
         11   -1    0    0    0    0 -0.00000000000E+00 -0.00000000000E+00 -0.45593999997E+02  0.45594000000E+02  0.51100000000E-03 0.  1.
         23    2    1    2    0    0 -0.17763568394E-14  0.00000000000E+00  0.00000000000E+00  0.91188000000E+02  0.91188000000E+02 0.  0.
    9900012    2    3    3    0    0 -0.91818634480E+01 -0.30562247734E+02  0.18369092227E+02  0.54367066387E+02  0.39999959442E+02 0.  0.
        -12    1    3    3    0    0  0.91818634480E+01  0.30562247734E+02 -0.18369092227E+02  0.36820933613E+02  0.00000000000E+00 0.  1.
         11    1    4    4    0    0 -0.86823751421E+01 -0.19488028040E+02  0.51124160297E+01  0.21938634253E+02  0.51100000000E-03 0. -1.
        -11    1    4    4    0    0 -0.91470778449E+01 -0.32480728657E+01 -0.48807656379E+01  0.10864662163E+02  0.51100000000E-03 0.  1.
         12    1    4    4    0    0  0.86475895391E+01 -0.78261468282E+01  0.18137441835E+02  0.21563769970E+02  0.00000000000E+00 0. -1.
</event>
<event>
 8    1  0.2521748E-006  0.9118800E+02  0.7816164E-02  0.1184000E+00
        -11   -1    0    0    0    0  0.00000000000E+00  0.00000000000E+00  0.45593999997E+02  0.45594000000E+02  0.51100000000E-03 0. -1.
         11   -1    0    0    0    0 -0.00000000000E+00 -0.00000000000E+00 -0.45593999997E+02  0.45594000000E+02  0.51100000000E-03 0.  1.
         23    2    1    2    0    0  0.88817841970E-15  0.00000000000E+00  0.35527136788E-14  0.91188000000E+02  0.91188000000E+02 0.  0.
    9900012    2    3    3    0    0  0.67560445103E+01 -0.31679457009E+02  0.17508533623E+02  0.54367070035E+02  0.39999967759E+02 0.  0.
        -12    1    3    3    0    0 -0.67560445103E+01  0.31679457009E+02 -0.17508533623E+02  0.36820929965E+02  0.00000000000E+00 0.  1.
         11    1    4    4    0    0  0.21370011956E+01 -0.61651478160E+01  0.34408233165E+01  0.73766582583E+01  0.51100000000E-03 0. -1.
        -11    1    4    4    0    0  0.14541626774E+02 -0.14059064545E+02 -0.66763691349E+01  0.21300002587E+02  0.51100000000E-03 0.  1.
         12    1    4    4    0    0 -0.99225834594E+01 -0.11455244648E+02  0.20744079442E+02  0.25690409190E+02  0.00000000000E+00 0. -1.
</event>
<event>
 8    1  0.2521748E-006  0.9118800E+02  0.7816164E-02  0.1184000E+00
        -11   -1    0    0    0    0  0.00000000000E+00  0.00000000000E+00  0.45593999997E+02  0.45594000000E+02  0.51100000000E-03 0.  1.
         11   -1    0    0    0    0 -0.00000000000E+00 -0.00000000000E+00 -0.45593999997E+02  0.45594000000E+02  0.51100000000E-03 0. -1.
         23    2    1    2    0    0  0.35527136788E-14  0.00000000000E+00 -0.35527136788E-14  0.91188000000E+02  0.91188000000E+02 0.  0.
    9900012    2    3    3    0    0 -0.25611438721E+02 -0.16934260954E+02  0.20323990202E+02  0.54367087937E+02  0.40000008569E+02 0.  0.
         12    1    3    3    0    0  0.25611438721E+02  0.16934260954E+02 -0.20323990202E+02  0.36820912063E+02  0.00000000000E+00 0. -1.
         11    1    4    4    0    0 -0.39741831246E+01  0.45806836014E+01 -0.86235673649E+01  0.10542424205E+02  0.51100000000E-03 0. -1.
        -11    1    4    4    0    0  0.73750352531E+00  0.49796886916E-01  0.37363186565E+01  0.38087358196E+01  0.51100000000E-03 0.  1.
        -12    1    4    4    0    0 -0.22374759122E+02 -0.21564741443E+02  0.25211238911E+02  0.40015927912E+02  0.00000000000E+00 0.  1.
</event>
<event>
 8    1  0.2521748E-006  0.9118800E+02  0.7816164E-02  0.1184000E+00
        -11   -1    0    0    0    0  0.00000000000E+00  0.00000000000E+00  0.45593999997E+02  0.45594000000E+02  0.51100000000E-03 0.  1.
         11   -1    0    0    0    0 -0.00000000000E+00 -0.00000000000E+00 -0.45593999997E+02  0.45594000000E+02  0.51100000000E-03 0. -1.
         23    2    1    2    0    0  0.17763568394E-14  0.35527136788E-14  0.35527136788E-14  0.91188000000E+02  0.91188000000E+02 0.  0.
    9900012    2    3    3    0    0  0.10851430587E+02 -0.21207092585E+02 -0.28076430018E+02  0.54367078715E+02  0.39999987547E+02 0.  0.
        -12    1    3    3    0    0 -0.10851430587E+02  0.21207092585E+02  0.28076430018E+02  0.36820921285E+02  0.00000000000E+00 0.  1.
         11    1    4    4    0    0  0.95699196008E+01 -0.11667297255E+02 -0.27988608216E+02  0.31797348577E+02  0.51100000000E-03 0. -1.
        -11    1    4    4    0    0 -0.60443766602E+01  0.30243503587E+01  0.34691841504E+01  0.75971325665E+01  0.51100000000E-03 0.  1.
        -12    1    4    4    0    0  0.73258876464E+01 -0.12564145689E+02 -0.35570059526E+01  0.14972597572E+02  0.00000000000E+00 0.  1.
</event>
<event>
 8    1  0.2521748E-006  0.9118800E+02  0.7816164E-02  0.1184000E+00
        -11   -1    0    0    0    0  0.00000000000E+00  0.00000000000E+00  0.45593999997E+02  0.45594000000E+02  0.51100000000E-03 0.  1.
         11   -1    0    0    0    0 -0.00000000000E+00 -0.00000000000E+00 -0.45593999997E+02  0.45594000000E+02  0.51100000000E-03 0. -1.
         23    2    1    2    0    0  0.00000000000E+00  0.00000000000E+00  0.35527136788E-14  0.91188000000E+02  0.91188000000E+02 0.  0.
    9900012    2    3    3    0    0  0.32356374898E+02 -0.43218496886E+01  0.17034237183E+02  0.54367100803E+02  0.40000037900E+02 0.  0.
        -12    1    3    3    0    0 -0.32356374898E+02  0.43218496886E+01 -0.17034237183E+02  0.36820899197E+02  0.00000000000E+00 0.  1.
         11    1    4    4    0    0  0.21511398882E+02 -0.81611989875E+01  0.93612675457E+01  0.24839057573E+02  0.51100000000E-03 0. -1.
        -11    1    4    4    0    0  0.48946163674E+01  0.41662550903E+01  0.17160153034E+02  0.18324459154E+02  0.51100000000E-03 0.  1.
        -12    1    4    4    0    0  0.59503596489E+01 -0.32690579149E+00 -0.94871833968E+01  0.11203584076E+02  0.00000000000E+00 0.  1.
</event>
<event>
 8    1  0.2521748E-006  0.9118800E+02  0.7816164E-02  0.1184000E+00
        -11   -1    0    0    0    0  0.00000000000E+00  0.00000000000E+00  0.45593999997E+02  0.45594000000E+02  0.51100000000E-03 0. -1.
         11   -1    0    0    0    0 -0.00000000000E+00 -0.00000000000E+00 -0.45593999997E+02  0.45594000000E+02  0.51100000000E-03 0.  1.
         23    2    1    2    0    0  0.00000000000E+00  0.00000000000E+00  0.00000000000E+00  0.91188000000E+02  0.91188000000E+02 0.  0.
    9900012    2    3    3    0    0 -0.24618864321E+01  0.28478153823E+02 -0.23210215351E+02  0.54367078955E+02  0.39999988093E+02 0.  0.
        -12    1    3    3    0    0  0.24618864321E+01 -0.28478153823E+02  0.23210215351E+02  0.36820921045E+02  0.00000000000E+00 0.  1.
         11    1    4    4    0    0 -0.83291347457E+01  0.44954897870E+01  0.52577429123E+01  0.10827177602E+02  0.51100000000E-03 0. -1.
        -11    1    4    4    0    0  0.11448084117E+02  0.39316544037E+01 -0.96357534755E+01  0.15471402057E+02  0.51100000000E-03 0.  1.
         12    1    4    4    0    0 -0.55808358033E+01  0.20051009632E+02 -0.18832204788E+02  0.28068499296E+02  0.00000000000E+00 0. -1.
</event>
<event>
 8    1  0.2521748E-006  0.9118800E+02  0.7816164E-02  0.1184000E+00
        -11   -1    0    0    0    0  0.00000000000E+00  0.00000000000E+00  0.45593999997E+02  0.45594000000E+02  0.51100000000E-03 0. -1.
         11   -1    0    0    0    0 -0.00000000000E+00 -0.00000000000E+00 -0.45593999997E+02  0.45594000000E+02  0.51100000000E-03 0.  1.
         23    2    1    2    0    0  0.00000000000E+00  0.00000000000E+00 -0.35527136788E-14  0.91188000000E+02  0.91188000000E+02 0.  0.
    9900012    2    3    3    0    0  0.96395805652E+01  0.18274395304E+02  0.30477929486E+02  0.54367092584E+02  0.40000019163E+02 0.  0.
        -12    1    3    3    0    0 -0.96395805652E+01 -0.18274395304E+02 -0.30477929486E+02  0.36820907416E+02  0.00000000000E+00 0.  1.
         11    1    4    4    0    0  0.10989990439E+02  0.84685804065E+01  0.58991378753E+01  0.15076358044E+02  0.51100000000E-03 0. -1.
        -11    1    4    4    0    0 -0.15417715314E+01  0.15531873106E+02  0.16942199884E+01  0.15699889276E+02  0.51100000000E-03 0.  1.
        -12    1    4    4    0    0  0.19136165754E+00 -0.57260582089E+01  0.22884571622E+02  0.23590845263E+02  0.00000000000E+00 0.  1.
</event>
<event>
 8    1  0.2521748E-006  0.9118800E+02  0.7816164E-02  0.1184000E+00
        -11   -1    0    0    0    0  0.00000000000E+00  0.00000000000E+00  0.45593999997E+02  0.45594000000E+02  0.51100000000E-03 0. -1.
         11   -1    0    0    0    0 -0.00000000000E+00 -0.00000000000E+00 -0.45593999997E+02  0.45594000000E+02  0.51100000000E-03 0.  1.
         23    2    1    2    0    0  0.35527136788E-14 -0.88817841970E-15  0.35527136788E-14  0.91188000000E+02  0.91188000000E+02 0.  0.
    9900012    2    3    3    0    0 -0.29984426773E+02  0.24317626178E+01 -0.21232091285E+02  0.54367068199E+02  0.39999963574E+02 0.  0.
         12    1    3    3    0    0  0.29984426773E+02 -0.24317626178E+01  0.21232091285E+02  0.36820931801E+02  0.00000000000E+00 0. -1.
         11    1    4    4    0    0 -0.51940167606E+01  0.44135125879E+01  0.79482369360E+01  0.10470500185E+02  0.51100000000E-03 0. -1.
        -11    1    4    4    0    0 -0.28399749811E+02 -0.13769140014E+01 -0.22419463894E+02  0.36208756442E+02  0.51100000000E-03 0.  1.
        -12    1    4    4    0    0  0.36093397988E+01 -0.60483596875E+00 -0.67608643268E+01  0.76878115727E+01  0.00000000000E+00 0.  1.
</event>
<event>
 8    1  0.2521748E-006  0.9118800E+02  0.7816164E-02  0.1184000E+00
        -11   -1    0    0    0    0  0.00000000000E+00  0.00000000000E+00  0.45593999997E+02  0.45594000000E+02  0.51100000000E-03 0.  1.
         11   -1    0    0    0    0 -0.00000000000E+00 -0.00000000000E+00 -0.45593999997E+02  0.45594000000E+02  0.51100000000E-03 0. -1.
         23    2    1    2    0    0  0.35527136788E-14 -0.22204460493E-15  0.35527136788E-14  0.91188000000E+02  0.91188000000E+02 0.  0.
    9900012    2    3    3    0    0  0.23044938881E+02  0.16360422049E+01  0.28671138315E+02  0.54367081836E+02  0.39999994663E+02 0.  0.
         12    1    3    3    0    0 -0.23044938881E+02 -0.16360422049E+01 -0.28671138315E+02  0.36820918164E+02  0.00000000000E+00 0. -1.
         11    1    4    4    0    0  0.19031842831E+02  0.10542301661E+01  0.12707543504E+02  0.22908603296E+02  0.51100000000E-03 0. -1.
        -11    1    4    4    0    0  0.85448886979E+01  0.10898854533E+02  0.14573802413E+02  0.20104623101E+02  0.51100000000E-03 0.  1.
         12    1    4    4    0    0 -0.45317926478E+01 -0.10317042495E+02  0.13897923979E+01  0.11353855440E+02  0.00000000000E+00 0. -1.
</event>
<event>
 8    1  0.2521748E-006  0.9118800E+02  0.7816164E-02  0.1184000E+00
        -11   -1    0    0    0    0  0.00000000000E+00  0.00000000000E+00  0.45593999997E+02  0.45594000000E+02  0.51100000000E-03 0. -1.
         11   -1    0    0    0    0 -0.00000000000E+00 -0.00000000000E+00 -0.45593999997E+02  0.45594000000E+02  0.51100000000E-03 0.  1.
         23    2    1    2    0    0  0.00000000000E+00  0.00000000000E+00  0.00000000000E+00  0.91188000000E+02  0.91188000000E+02 0.  0.
    9900012    2    3    3    0    0  0.29404095497E+02 -0.10532914281E+02 -0.19499665268E+02  0.54367081206E+02  0.39999993225E+02 0.  0.
         12    1    3    3    0    0 -0.29404095497E+02  0.10532914281E+02  0.19499665268E+02  0.36820918794E+02  0.00000000000E+00 0. -1.
         11    1    4    4    0    0  0.29898640885E+02 -0.14684076228E+02 -0.47256019571E+01  0.33643456059E+02  0.51100000000E-03 0. -1.
        -11    1    4    4    0    0  0.65181994978E+01  0.37084709276E+01 -0.79382356723E+01  0.10920405998E+02  0.51100000000E-03 0.  1.
         12    1    4    4    0    0 -0.70127448858E+01  0.44269101933E+00 -0.68358276387E+01  0.98032191487E+01  0.00000000000E+00 0. -1.
</event>
<event>
 8    1  0.2521748E-006  0.9118800E+02  0.7816164E-02  0.1184000E+00
        -11   -1    0    0    0    0  0.00000000000E+00  0.00000000000E+00  0.45593999997E+02  0.45594000000E+02  0.51100000000E-03 0.  1.
         11   -1    0    0    0    0 -0.00000000000E+00 -0.00000000000E+00 -0.45593999997E+02  0.45594000000E+02  0.51100000000E-03 0. -1.
         23    2    1    2    0    0 -0.35527136788E-14 -0.17763568394E-14 -0.35527136788E-14  0.91188000000E+02  0.91188000000E+02 0.  0.
    9900012    2    3    3    0    0 -0.22271433719E+02 -0.79694519336E+01 -0.28217921855E+02  0.54367081518E+02  0.39999993938E+02 0.  0.
        -12    1    3    3    0    0  0.22271433719E+02  0.79694519336E+01  0.28217921855E+02  0.36820918482E+02  0.00000000000E+00 0.  1.
         11    1    4    4    0    0 -0.19996981046E+02 -0.25107256519E+01 -0.14516823539E+01  0.20206196479E+02  0.51100000000E-03 0. -1.
        -11    1    4    4    0    0 -0.77152766038E+01 -0.79278637749E+01 -0.60676021028E+01  0.12617143601E+02  0.51100000000E-03 0.  1.
         12    1    4    4    0    0  0.54408239309E+01  0.24691374932E+01 -0.20698637398E+02  0.21543741438E+02  0.00000000000E+00 0. -1.
</event>
<event>
 8    1  0.2521748E-006  0.9118800E+02  0.7816164E-02  0.1184000E+00
        -11   -1    0    0    0    0  0.00000000000E+00  0.00000000000E+00  0.45593999997E+02  0.45594000000E+02  0.51100000000E-03 0. -1.
         11   -1    0    0    0    0 -0.00000000000E+00 -0.00000000000E+00 -0.45593999997E+02  0.45594000000E+02  0.51100000000E-03 0.  1.
         23    2    1    2    0    0  0.00000000000E+00  0.35527136788E-14  0.00000000000E+00  0.91188000000E+02  0.91188000000E+02 0.  0.
    9900012    2    3    3    0    0 -0.31516816481E+02  0.17889861254E+02  0.65132514617E+01  0.54367091519E+02  0.40000016736E+02 0.  0.
         12    1    3    3    0    0  0.31516816481E+02 -0.17889861254E+02 -0.65132514617E+01  0.36820908481E+02  0.00000000000E+00 0. -1.
         11    1    4    4    0    0  0.12059601413E+01 -0.80194437122E+01 -0.55802859274E+01  0.98440544801E+01  0.51100000000E-03 0. -1.
        -11    1    4    4    0    0 -0.45435354754E+01  0.11951830278E+01 -0.10315155948E+01  0.48100105789E+01  0.51100000000E-03 0.  1.
        -12    1    4    4    0    0 -0.28179241146E+02  0.24714121939E+02  0.13125052984E+02  0.39713026460E+02  0.00000000000E+00 0.  1.
</event>
<event>
 8    1  0.2521748E-006  0.9118800E+02  0.7816164E-02  0.1184000E+00
        -11   -1    0    0    0    0  0.00000000000E+00  0.00000000000E+00  0.45593999997E+02  0.45594000000E+02  0.51100000000E-03 0. -1.
         11   -1    0    0    0    0 -0.00000000000E+00 -0.00000000000E+00 -0.45593999997E+02  0.45594000000E+02  0.51100000000E-03 0.  1.
         23    2    1    2    0    0 -0.35527136788E-14  0.00000000000E+00  0.00000000000E+00  0.91188000000E+02  0.91188000000E+02 0.  0.
    9900012    2    3    3    0    0  0.15972114259E+02 -0.11317273505E+02 -0.31186379496E+02  0.54367090457E+02  0.40000014314E+02 0.  0.
         12    1    3    3    0    0 -0.15972114259E+02  0.11317273505E+02  0.31186379496E+02  0.36820909543E+02  0.00000000000E+00 0. -1.
         11    1    4    4    0    0 -0.41922476192E+01 -0.54851931896E+01 -0.13575418786E+02  0.15230045302E+02  0.51100000000E-03 0. -1.
        -11    1    4    4    0    0 -0.47129078294E+01 -0.84439648177E+01 -0.28014376382E+01  0.10067775085E+02  0.51100000000E-03 0.  1.
        -12    1    4    4    0    0  0.24877269708E+02  0.26118845027E+01 -0.14809523072E+02  0.29069270070E+02  0.00000000000E+00 0.  1.
</event>
<event>
 8    1  0.2521748E-006  0.9118800E+02  0.7816164E-02  0.1184000E+00
        -11   -1    0    0    0    0  0.00000000000E+00  0.00000000000E+00  0.45593999997E+02  0.45594000000E+02  0.51100000000E-03 0.  1.
         11   -1    0    0    0    0 -0.00000000000E+00 -0.00000000000E+00 -0.45593999997E+02  0.45594000000E+02  0.51100000000E-03 0. -1.
         23    2    1    2    0    0  0.17763568394E-14  0.35527136788E-14 -0.17763568394E-14  0.91188000000E+02  0.91188000000E+02 0.  0.
    9900012    2    3    3    0    0 -0.13463247909E+02 -0.30742446246E+02  0.15146695986E+02  0.54367089572E+02  0.40000012297E+02 0.  0.
         12    1    3    3    0    0  0.13463247909E+02  0.30742446246E+02 -0.15146695986E+02  0.36820910428E+02  0.00000000000E+00 0. -1.
         11    1    4    4    0    0 -0.14388124337E+02 -0.24458382297E+02  0.84762999327E+01  0.29615506872E+02  0.51100000000E-03 0. -1.
        -11    1    4    4    0    0 -0.10436935264E+02 -0.45432305174E+01 -0.15400026038E+00  0.11383948242E+02  0.51100000000E-03 0.  1.
         12    1    4    4    0    0  0.11361811692E+02 -0.17408334326E+01  0.68243963132E+01  0.13367634458E+02  0.00000000000E+00 0. -1.
</event>
<event>
 8    1  0.2521748E-006  0.9118800E+02  0.7816164E-02  0.1184000E+00
        -11   -1    0    0    0    0  0.00000000000E+00  0.00000000000E+00  0.45593999997E+02  0.45594000000E+02  0.51100000000E-03 0.  1.
         11   -1    0    0    0    0 -0.00000000000E+00 -0.00000000000E+00 -0.45593999997E+02  0.45594000000E+02  0.51100000000E-03 0. -1.
         23    2    1    2    0    0  0.00000000000E+00  0.00000000000E+00  0.00000000000E+00  0.91188000000E+02  0.91188000000E+02 0.  0.
    9900012    2    3    3    0    0  0.10135419116E+02  0.16469111615E+02  0.31334018649E+02  0.54367094488E+02  0.40000023504E+02 0.  0.
         12    1    3    3    0    0 -0.10135419116E+02 -0.16469111615E+02 -0.31334018649E+02  0.36820905512E+02  0.00000000000E+00 0. -1.
         11    1    4    4    0    0  0.12040293269E+02 -0.26371554703E+01  0.26603912421E+02  0.29320494664E+02  0.51100000000E-03 0. -1.
        -11    1    4    4    0    0  0.28818334064E+00  0.32831092651E+00  0.60773891238E+01  0.60930695487E+01  0.51100000000E-03 0.  1.
         12    1    4    4    0    0 -0.21930574935E+01  0.18777956159E+02 -0.13472828962E+01  0.18953530275E+02  0.00000000000E+00 0. -1.
</event>
<event>
 8    1  0.2521748E-006  0.9118800E+02  0.7816164E-02  0.1184000E+00
        -11   -1    0    0    0    0  0.00000000000E+00  0.00000000000E+00  0.45593999997E+02  0.45594000000E+02  0.51100000000E-03 0.  1.
         11   -1    0    0    0    0 -0.00000000000E+00 -0.00000000000E+00 -0.45593999997E+02  0.45594000000E+02  0.51100000000E-03 0. -1.
         23    2    1    2    0    0  0.99920072216E-15  0.00000000000E+00  0.00000000000E+00  0.91188000000E+02  0.91188000000E+02 0.  0.
    9900012    2    3    3    0    0 -0.47786520700E+00 -0.35102779069E+02  0.11106149941E+02  0.54367081759E+02  0.39999994487E+02 0.  0.
         12    1    3    3    0    0  0.47786520700E+00  0.35102779069E+02 -0.11106149941E+02  0.36820918241E+02  0.00000000000E+00 0. -1.
         11    1    4    4    0    0  0.78295301956E+01 -0.17748696414E+00 -0.82944660510E+01  0.11407506828E+02  0.51100000000E-03 0. -1.
        -11    1    4    4    0    0 -0.91913759654E+01 -0.16943165144E+02  0.50232804192E+01  0.19919477495E+02  0.51100000000E-03 0.  1.
         12    1    4    4    0    0  0.88398056284E+00 -0.17982126961E+02  0.14377335573E+02  0.23040097436E+02  0.00000000000E+00 0. -1.
</event>
<event>
 8    1  0.2521748E-006  0.9118800E+02  0.7816164E-02  0.1184000E+00
        -11   -1    0    0    0    0  0.00000000000E+00  0.00000000000E+00  0.45593999997E+02  0.45594000000E+02  0.51100000000E-03 0.  1.
         11   -1    0    0    0    0 -0.00000000000E+00 -0.00000000000E+00 -0.45593999997E+02  0.45594000000E+02  0.51100000000E-03 0. -1.
         23    2    1    2    0    0  0.00000000000E+00 -0.35527136788E-14  0.00000000000E+00  0.91188000000E+02  0.91188000000E+02 0.  0.
    9900012    2    3    3    0    0  0.24676536999E+01  0.31681549555E+02  0.18600288782E+02  0.54367073344E+02  0.39999975303E+02 0.  0.
         12    1    3    3    0    0 -0.24676536999E+01 -0.31681549555E+02 -0.18600288782E+02  0.36820926656E+02  0.00000000000E+00 0. -1.
         11    1    4    4    0    0  0.11419899677E+02  0.19312346295E+02 -0.29753244908E+01  0.22632573520E+02  0.51100000000E-03 0. -1.
        -11    1    4    4    0    0  0.11031294943E+01 -0.34954714579E+01  0.72083007235E+01  0.80867060646E+01  0.51100000000E-03 0.  1.
        -12    1    4    4    0    0 -0.10055375471E+02  0.15864674718E+02  0.14367312550E+02  0.23647793759E+02  0.00000000000E+00 0.  1.
</event>
<event>
 8    1  0.2521748E-006  0.9118800E+02  0.7816164E-02  0.1184000E+00
        -11   -1    0    0    0    0  0.00000000000E+00  0.00000000000E+00  0.45593999997E+02  0.45594000000E+02  0.51100000000E-03 0.  1.
         11   -1    0    0    0    0 -0.00000000000E+00 -0.00000000000E+00 -0.45593999997E+02  0.45594000000E+02  0.51100000000E-03 0. -1.
         23    2    1    2    0    0 -0.35527136788E-14  0.71054273576E-14 -0.88817841970E-15  0.91188000000E+02  0.91188000000E+02 0.  0.
    9900012    2    3    3    0    0  0.25419546974E+02 -0.26417141449E+02 -0.34298884902E+01  0.54367043117E+02  0.39999906395E+02 0.  0.
         12    1    3    3    0    0 -0.25419546974E+02  0.26417141449E+02  0.34298884902E+01  0.36820956883E+02  0.00000000000E+00 0. -1.
         11    1    4    4    0    0  0.10311823798E+01  0.37636303588E+01 -0.20670323785E+01  0.44159793584E+01  0.51100000000E-03 0. -1.
        -11    1    4    4    0    0  0.20920604515E+02 -0.30370727193E+02 -0.11983493059E+02  0.38777014708E+02  0.51100000000E-03 0.  1.
         12    1    4    4    0    0  0.34677600795E+01  0.18995538577E+00  0.10620636948E+02  0.11174049051E+02  0.00000000000E+00 0. -1.
</event>
<event>
 8    1  0.2521748E-006  0.9118800E+02  0.7816164E-02  0.1184000E+00
        -11   -1    0    0    0    0  0.00000000000E+00  0.00000000000E+00  0.45593999997E+02  0.45594000000E+02  0.51100000000E-03 0. -1.
         11   -1    0    0    0    0 -0.00000000000E+00 -0.00000000000E+00 -0.45593999997E+02  0.45594000000E+02  0.51100000000E-03 0.  1.
         23    2    1    2    0    0  0.00000000000E+00 -0.35527136788E-14  0.13877787808E-15  0.91188000000E+02  0.91188000000E+02 0.  0.
    9900012    2    3    3    0    0 -0.21851533071E+02 -0.29635626966E+02  0.14279051645E+00  0.54367078334E+02  0.39999986678E+02 0.  0.
        -12    1    3    3    0    0  0.21851533071E+02  0.29635626966E+02 -0.14279051645E+00  0.36820921666E+02  0.00000000000E+00 0.  1.
         11    1    4    4    0    0 -0.17070356669E+02 -0.39000009919E+02  0.16712646641E+01  0.42605058107E+02  0.51100000000E-03 0. -1.
        -11    1    4    4    0    0 -0.44841476932E+00  0.63363815539E+01 -0.45787094215E+00  0.63687089008E+01  0.51100000000E-03 0.  1.
         12    1    4    4    0    0 -0.43327616323E+01  0.30280013993E+01 -0.10706032055E+01  0.53933113261E+01  0.00000000000E+00 0. -1.
</event>
<event>
 8    1  0.2521748E-006  0.9118800E+02  0.7816164E-02  0.1184000E+00
        -11   -1    0    0    0    0  0.00000000000E+00  0.00000000000E+00  0.45593999997E+02  0.45594000000E+02  0.51100000000E-03 0.  1.
         11   -1    0    0    0    0 -0.00000000000E+00 -0.00000000000E+00 -0.45593999997E+02  0.45594000000E+02  0.51100000000E-03 0. -1.
         23    2    1    2    0    0  0.00000000000E+00 -0.35527136788E-14  0.00000000000E+00  0.91188000000E+02  0.91188000000E+02 0.  0.
    9900012    2    3    3    0    0 -0.26506755257E+02  0.20911922372E+02  0.14692249427E+02  0.54367098806E+02  0.40000033347E+02 0.  0.
         12    1    3    3    0    0  0.26506755257E+02 -0.20911922372E+02 -0.14692249427E+02  0.36820901194E+02  0.00000000000E+00 0. -1.
         11    1    4    4    0    0 -0.21317764869E+02  0.12163652457E+02 -0.50346058165E+01  0.25054915608E+02  0.51100000000E-03 0. -1.
        -11    1    4    4    0    0 -0.20614453354E+01  0.10055057433E+02  0.10358671643E+01  0.10316334518E+02  0.51100000000E-03 0.  1.
         12    1    4    4    0    0 -0.31275450524E+01 -0.13067875182E+01  0.18690988079E+02  0.18995848680E+02  0.00000000000E+00 0. -1.
</event>
<event>
 8    1  0.2521748E-006  0.9118800E+02  0.7816164E-02  0.1184000E+00
        -11   -1    0    0    0    0  0.00000000000E+00  0.00000000000E+00  0.45593999997E+02  0.45594000000E+02  0.51100000000E-03 0.  1.
         11   -1    0    0    0    0 -0.00000000000E+00 -0.00000000000E+00 -0.45593999997E+02  0.45594000000E+02  0.51100000000E-03 0. -1.
         23    2    1    2    0    0  0.00000000000E+00 -0.35527136788E-14 -0.17763568394E-14  0.91188000000E+02  0.91188000000E+02 0.  0.
    9900012    2    3    3    0    0 -0.27663399427E+02  0.20954742077E+02 -0.12305177636E+02  0.54367051071E+02  0.39999924526E+02 0.  0.
         12    1    3    3    0    0  0.27663399427E+02 -0.20954742077E+02  0.12305177636E+02  0.36820948929E+02  0.00000000000E+00 0. -1.
         11    1    4    4    0    0 -0.31351543870E+02  0.10754909473E+02 -0.11092026179E+01  0.33163499687E+02  0.51100000000E-03 0. -1.
        -11    1    4    4    0    0  0.27447162496E+00  0.11084371452E+02 -0.18846149986E+01  0.11246795059E+02  0.51100000000E-03 0.  1.
         12    1    4    4    0    0  0.34136728178E+01 -0.88453884790E+00 -0.93113600198E+01  0.99567563242E+01  0.00000000000E+00 0. -1.
</event>
<event>
 8    1  0.2521748E-006  0.9118800E+02  0.7816164E-02  0.1184000E+00
        -11   -1    0    0    0    0  0.00000000000E+00  0.00000000000E+00  0.45593999997E+02  0.45594000000E+02  0.51100000000E-03 0. -1.
         11   -1    0    0    0    0 -0.00000000000E+00 -0.00000000000E+00 -0.45593999997E+02  0.45594000000E+02  0.51100000000E-03 0.  1.
         23    2    1    2    0    0  0.00000000000E+00  0.00000000000E+00  0.00000000000E+00  0.91188000000E+02  0.91188000000E+02 0.  0.
    9900012    2    3    3    0    0  0.19287484137E+02  0.17008760960E+02  0.26352884499E+02  0.54367088616E+02  0.40000010118E+02 0.  0.
        -12    1    3    3    0    0 -0.19287484137E+02 -0.17008760960E+02 -0.26352884499E+02  0.36820911384E+02  0.00000000000E+00 0.  1.
         11    1    4    4    0    0  0.11363356847E+02  0.59303496011E+01  0.13078188533E+02  0.18312125513E+02  0.51100000000E-03 0. -1.
        -11    1    4    4    0    0 -0.37108878911E+01  0.11294357663E+02  0.19514512011E+02  0.22850588247E+02  0.51100000000E-03 0.  1.
        -12    1    4    4    0    0  0.11635015181E+02 -0.21594630423E+00 -0.62398160447E+01  0.13204374856E+02  0.00000000000E+00 0.  1.
</event>
<event>
 8    1  0.2521748E-006  0.9118800E+02  0.7816164E-02  0.1184000E+00
        -11   -1    0    0    0    0  0.00000000000E+00  0.00000000000E+00  0.45593999997E+02  0.45594000000E+02  0.51100000000E-03 0.  1.
         11   -1    0    0    0    0 -0.00000000000E+00 -0.00000000000E+00 -0.45593999997E+02  0.45594000000E+02  0.51100000000E-03 0. -1.
         23    2    1    2    0    0 -0.22204460493E-15  0.00000000000E+00  0.00000000000E+00  0.91188000000E+02  0.91188000000E+02 0.  0.
    9900012    2    3    3    0    0  0.11560004957E+01  0.40472155044E+01  0.36579535473E+02  0.54367099605E+02  0.40000035170E+02 0.  0.
         12    1    3    3    0    0 -0.11560004957E+01 -0.40472155044E+01 -0.36579535473E+02  0.36820900395E+02  0.00000000000E+00 0. -1.
         11    1    4    4    0    0  0.14389436594E+01  0.68364530617E+01  0.21265662767E+00  0.69894829868E+01  0.51100000000E-03 0. -1.
        -11    1    4    4    0    0  0.83073366662E+01  0.10851916338E+02  0.12154286400E+02  0.18289412480E+02  0.51100000000E-03 0.  1.
        -12    1    4    4    0    0 -0.85902798298E+01 -0.13641153895E+02  0.24212592445E+02  0.29088204139E+02  0.00000000000E+00 0.  1.
</event>
<event>
 8    1  0.2521748E-006  0.9118800E+02  0.7816164E-02  0.1184000E+00
        -11   -1    0    0    0    0  0.00000000000E+00  0.00000000000E+00  0.45593999997E+02  0.45594000000E+02  0.51100000000E-03 0. -1.
         11   -1    0    0    0    0 -0.00000000000E+00 -0.00000000000E+00 -0.45593999997E+02  0.45594000000E+02  0.51100000000E-03 0.  1.
         23    2    1    2    0    0 -0.88817841970E-15 -0.35527136788E-14  0.00000000000E+00  0.91188000000E+02  0.91188000000E+02 0.  0.
    9900012    2    3    3    0    0 -0.62154705085E+01 -0.27084902047E+02 -0.24156889299E+02  0.54367091630E+02  0.40000016989E+02 0.  0.
         12    1    3    3    0    0  0.62154705085E+01  0.27084902047E+02  0.24156889299E+02  0.36820908370E+02  0.00000000000E+00 0. -1.
         11    1    4    4    0    0  0.96271273450E-01  0.55027886131E+01 -0.37851354969E+01  0.66796108920E+01  0.51100000000E-03 0. -1.
        -11    1    4    4    0    0 -0.49637542197E+01 -0.30303036335E+02 -0.38420876112E+01  0.30946316494E+02  0.51100000000E-03 0.  1.
        -12    1    4    4    0    0 -0.13479875622E+01 -0.22846543252E+01 -0.16529666191E+02  0.16741164244E+02  0.00000000000E+00 0.  1.
</event>
<event>
 8    1  0.2521748E-006  0.9118800E+02  0.7816164E-02  0.1184000E+00
        -11   -1    0    0    0    0  0.00000000000E+00  0.00000000000E+00  0.45593999997E+02  0.45594000000E+02  0.51100000000E-03 0.  1.
         11   -1    0    0    0    0 -0.00000000000E+00 -0.00000000000E+00 -0.45593999997E+02  0.45594000000E+02  0.51100000000E-03 0. -1.
         23    2    1    2    0    0  0.35527136788E-14  0.44408920985E-15  0.00000000000E+00  0.91188000000E+02  0.91188000000E+02 0.  0.
    9900012    2    3    3    0    0 -0.29509264121E+02 -0.26862877401E+01 -0.21857826677E+02  0.54367117367E+02  0.40000075662E+02 0.  0.
        -12    1    3    3    0    0  0.29509264121E+02  0.26862877401E+01  0.21857826677E+02  0.36820882633E+02  0.00000000000E+00 0.  1.
         11    1    4    4    0    0 -0.18219499315E+02 -0.70634439662E+01 -0.89518453115E+01  0.21493671875E+02  0.51100000000E-03 0. -1.
        -11    1    4    4    0    0 -0.15862233315E+02  0.11027345806E+02 -0.21668571759E+01  0.19439857807E+02  0.51100000000E-03 0.  1.
        -12    1    4    4    0    0  0.45724685084E+01 -0.66501895804E+01 -0.10739124190E+02  0.13433587685E+02  0.00000000000E+00 0.  1.
</event>
<event>
 8    1  0.2521748E-006  0.9118800E+02  0.7816164E-02  0.1184000E+00
        -11   -1    0    0    0    0  0.00000000000E+00  0.00000000000E+00  0.45593999997E+02  0.45594000000E+02  0.51100000000E-03 0.  1.
         11   -1    0    0    0    0 -0.00000000000E+00 -0.00000000000E+00 -0.45593999997E+02  0.45594000000E+02  0.51100000000E-03 0. -1.
         23    2    1    2    0    0  0.00000000000E+00  0.00000000000E+00  0.00000000000E+00  0.91188000000E+02  0.91188000000E+02 0.  0.
    9900012    2    3    3    0    0  0.23383063609E+02  0.22236229146E+02  0.17735905956E+02  0.54367083248E+02  0.39999997880E+02 0.  0.
         12    1    3    3    0    0 -0.23383063609E+02 -0.22236229146E+02 -0.17735905956E+02  0.36820916752E+02  0.00000000000E+00 0. -1.
         11    1    4    4    0    0  0.17470107261E+01  0.64258370698E+01 -0.80107826210E+01  0.10417104539E+02  0.51100000000E-03 0. -1.
        -11    1    4    4    0    0  0.18958340281E+02  0.13515930429E+02  0.62091078415E+01  0.24096723056E+02  0.51100000000E-03 0.  1.
         12    1    4    4    0    0  0.26777126020E+01  0.22944616474E+01  0.19537580735E+02  0.19853255653E+02  0.00000000000E+00 0. -1.
</event>
<event>
 8    1  0.2521748E-006  0.9118800E+02  0.7816164E-02  0.1184000E+00
        -11   -1    0    0    0    0  0.00000000000E+00  0.00000000000E+00  0.45593999997E+02  0.45594000000E+02  0.51100000000E-03 0. -1.
         11   -1    0    0    0    0 -0.00000000000E+00 -0.00000000000E+00 -0.45593999997E+02  0.45594000000E+02  0.51100000000E-03 0.  1.
         23    2    1    2    0    0  0.00000000000E+00  0.88817841970E-15  0.00000000000E+00  0.91188000000E+02  0.91188000000E+02 0.  0.
    9900012    2    3    3    0    0  0.34454831821E+02  0.45802938251E+01 -0.12151704160E+02  0.54367103198E+02  0.40000043361E+02 0.  0.
         12    1    3    3    0    0 -0.34454831821E+02 -0.45802938251E+01  0.12151704160E+02  0.36820896802E+02  0.00000000000E+00 0. -1.
         11    1    4    4    0    0  0.15332929700E+02 -0.15266444061E+02 -0.61312477553E+01  0.22489002796E+02  0.51100000000E-03 0. -1.
        -11    1    4    4    0    0  0.13328961915E+02  0.15470679543E+02 -0.10883465550E+02  0.23139856825E+02  0.51100000000E-03 0.  1.
         12    1    4    4    0    0  0.57929402062E+01  0.43760583434E+01  0.48630091458E+01  0.87382435769E+01  0.00000000000E+00 0. -1.
</event>
<event>
 8    1  0.2521748E-006  0.9118800E+02  0.7816164E-02  0.1184000E+00
        -11   -1    0    0    0    0  0.00000000000E+00  0.00000000000E+00  0.45593999997E+02  0.45594000000E+02  0.51100000000E-03 0.  1.
         11   -1    0    0    0    0 -0.00000000000E+00 -0.00000000000E+00 -0.45593999997E+02  0.45594000000E+02  0.51100000000E-03 0. -1.
         23    2    1    2    0    0 -0.35527136788E-14  0.35527136788E-14  0.17763568394E-14  0.91188000000E+02  0.91188000000E+02 0.  0.
    9900012    2    3    3    0    0 -0.22115289243E+02  0.28948073058E+02  0.53573628729E+01  0.54367105266E+02  0.40000048074E+02 0.  0.
        -12    1    3    3    0    0  0.22115289243E+02 -0.28948073058E+02 -0.53573628729E+01  0.36820894734E+02  0.00000000000E+00 0.  1.
         11    1    4    4    0    0 -0.18986953304E+02  0.31835760343E+02 -0.95967162309E+01  0.38289907222E+02  0.51100000000E-03 0. -1.
        -11    1    4    4    0    0 -0.29805419498E+01 -0.20748504475E+01  0.55230173091E+01  0.66100193004E+01  0.51100000000E-03 0.  1.
         12    1    4    4    0    0 -0.14779398953E+00 -0.81283683726E+00  0.94310617947E+01  0.94671787436E+01  0.00000000000E+00 0. -1.
</event>
<event>
 8    1  0.2521748E-006  0.9118800E+02  0.7816164E-02  0.1184000E+00
        -11   -1    0    0    0    0  0.00000000000E+00  0.00000000000E+00  0.45593999997E+02  0.45594000000E+02  0.51100000000E-03 0. -1.
         11   -1    0    0    0    0 -0.00000000000E+00 -0.00000000000E+00 -0.45593999997E+02  0.45594000000E+02  0.51100000000E-03 0.  1.
         23    2    1    2    0    0 -0.17763568394E-14  0.00000000000E+00  0.00000000000E+00  0.91188000000E+02  0.91188000000E+02 0.  0.
    9900012    2    3    3    0    0 -0.39935175773E+01 -0.29604396731E+02 -0.21526999768E+02  0.54367079215E+02  0.39999988686E+02 0.  0.
         12    1    3    3    0    0  0.39935175773E+01  0.29604396731E+02  0.21526999768E+02  0.36820920785E+02  0.00000000000E+00 0. -1.
         11    1    4    4    0    0  0.10759976461E+02 -0.14455693369E+02 -0.78921427587E+01  0.19673080130E+02  0.51100000000E-03 0. -1.
        -11    1    4    4    0    0 -0.26652996921E+01 -0.24943832100E+01 -0.16554270206E+02  0.16951980190E+02  0.51100000000E-03 0.  1.
         12    1    4    4    0    0 -0.12088194346E+02 -0.12654320153E+02  0.29194131961E+01  0.17742018895E+02  0.00000000000E+00 0. -1.
</event>
<event>
 8    1  0.2521748E-006  0.9118800E+02  0.7816164E-02  0.1184000E+00
        -11   -1    0    0    0    0  0.00000000000E+00  0.00000000000E+00  0.45593999997E+02  0.45594000000E+02  0.51100000000E-03 0.  1.
         11   -1    0    0    0    0 -0.00000000000E+00 -0.00000000000E+00 -0.45593999997E+02  0.45594000000E+02  0.51100000000E-03 0. -1.
         23    2    1    2    0    0  0.00000000000E+00  0.00000000000E+00  0.00000000000E+00  0.91188000000E+02  0.91188000000E+02 0.  0.
    9900012    2    3    3    0    0  0.21697590409E+02  0.21890489105E+02  0.20144528685E+02  0.54367068741E+02  0.39999964809E+02 0.  0.
         12    1    3    3    0    0 -0.21697590409E+02 -0.21890489105E+02 -0.20144528685E+02  0.36820931259E+02  0.00000000000E+00 0. -1.
         11    1    4    4    0    0  0.10880460621E+02  0.14618520071E+02 -0.73845397609E+01  0.19662578166E+02  0.51100000000E-03 0. -1.
        -11    1    4    4    0    0 -0.34037543598E+01  0.43266629593E+01  0.13203708859E+02  0.14305365567E+02  0.51100000000E-03 0.  1.
         12    1    4    4    0    0  0.14220884147E+02  0.29453060750E+01  0.14325359587E+02  0.20399125009E+02  0.00000000000E+00 0. -1.
</event>
<event>
 8    1  0.2521748E-006  0.9118800E+02  0.7816164E-02  0.1184000E+00
        -11   -1    0    0    0    0  0.00000000000E+00  0.00000000000E+00  0.45593999997E+02  0.45594000000E+02  0.51100000000E-03 0.  1.
         11   -1    0    0    0    0 -0.00000000000E+00 -0.00000000000E+00 -0.45593999997E+02  0.45594000000E+02  0.51100000000E-03 0. -1.
         23    2    1    2    0    0  0.00000000000E+00  0.00000000000E+00  0.00000000000E+00  0.91188000000E+02  0.91188000000E+02 0.  0.
    9900012    2    3    3    0    0 -0.68069688136E+01 -0.18758484212E+02  0.30944538081E+02  0.54367082148E+02  0.39999995374E+02 0.  0.
         12    1    3    3    0    0  0.68069688136E+01  0.18758484212E+02 -0.30944538081E+02  0.36820917852E+02  0.00000000000E+00 0. -1.
         11    1    4    4    0    0  0.10222210686E+02 -0.95613150112E+01  0.11513879737E+02  0.18124065849E+02  0.51100000000E-03 0. -1.
        -11    1    4    4    0    0 -0.10656194061E+02 -0.17082076730E+02  0.10375623479E+02  0.22649622074E+02  0.51100000000E-03 0.  1.
        -12    1    4    4    0    0 -0.63729854387E+01  0.78849075285E+01  0.90550348656E+01  0.13593394225E+02  0.00000000000E+00 0.  1.
</event>
<event>
 8    1  0.2521748E-006  0.9118800E+02  0.7816164E-02  0.1184000E+00
        -11   -1    0    0    0    0  0.00000000000E+00  0.00000000000E+00  0.45593999997E+02  0.45594000000E+02  0.51100000000E-03 0. -1.
         11   -1    0    0    0    0 -0.00000000000E+00 -0.00000000000E+00 -0.45593999997E+02  0.45594000000E+02  0.51100000000E-03 0.  1.
         23    2    1    2    0    0 -0.35527136788E-14  0.35527136788E-14  0.00000000000E+00  0.91188000000E+02  0.91188000000E+02 0.  0.
    9900012    2    3    3    0    0  0.20726852688E+02  0.19592598974E+02 -0.23287555542E+02  0.54367046726E+02  0.39999914621E+02 0.  0.
         12    1    3    3    0    0 -0.20726852688E+02 -0.19592598974E+02  0.23287555542E+02  0.36820953274E+02  0.00000000000E+00 0. -1.
         11    1    4    4    0    0 -0.59234081884E+01 -0.45258771314E+01 -0.76790238637E+01  0.10702230428E+02  0.51100000000E-03 0. -1.
        -11    1    4    4    0    0  0.10796275489E+02  0.10747642693E+02 -0.17063495611E+02  0.22874314649E+02  0.51100000000E-03 0.  1.
        -12    1    4    4    0    0  0.15853985387E+02  0.13370833412E+02  0.14549639330E+01  0.20790501649E+02  0.00000000000E+00 0.  1.
</event>
<event>
 8    1  0.2521748E-006  0.9118800E+02  0.7816164E-02  0.1184000E+00
        -11   -1    0    0    0    0  0.00000000000E+00  0.00000000000E+00  0.45593999997E+02  0.45594000000E+02  0.51100000000E-03 0.  1.
         11   -1    0    0    0    0 -0.00000000000E+00 -0.00000000000E+00 -0.45593999997E+02  0.45594000000E+02  0.51100000000E-03 0. -1.
         23    2    1    2    0    0  0.00000000000E+00 -0.71054273576E-14 -0.17763568394E-14  0.91188000000E+02  0.91188000000E+02 0.  0.
    9900012    2    3    3    0    0 -0.16262699214E+02 -0.28946473422E+02 -0.15918546300E+02  0.54367165876E+02  0.40000186247E+02 0.  0.
        -12    1    3    3    0    0  0.16262699214E+02  0.28946473422E+02  0.15918546300E+02  0.36820834124E+02  0.00000000000E+00 0.  1.
         11    1    4    4    0    0 -0.61855281436E+01  0.92547635149E+01 -0.75753894814E+00  0.11157296790E+02  0.51100000000E-03 0. -1.
        -11    1    4    4    0    0 -0.46737533175E+01 -0.30925599345E+02 -0.10320614511E+02  0.32935569663E+02  0.51100000000E-03 0.  1.
         12    1    4    4    0    0 -0.54034177525E+01 -0.72756375922E+01 -0.48403928417E+01  0.10274299423E+02  0.00000000000E+00 0. -1.
</event>
<event>
 8    1  0.2521748E-006  0.9118800E+02  0.7816164E-02  0.1184000E+00
        -11   -1    0    0    0    0  0.00000000000E+00  0.00000000000E+00  0.45593999997E+02  0.45594000000E+02  0.51100000000E-03 0.  1.
         11   -1    0    0    0    0 -0.00000000000E+00 -0.00000000000E+00 -0.45593999997E+02  0.45594000000E+02  0.51100000000E-03 0. -1.
         23    2    1    2    0    0  0.44408920985E-15  0.00000000000E+00 -0.35527136788E-14  0.91188000000E+02  0.91188000000E+02 0.  0.
    9900012    2    3    3    0    0 -0.23328666309E+01  0.21743562654E+02  0.29623576984E+02  0.54367067136E+02  0.39999961150E+02 0.  0.
         12    1    3    3    0    0  0.23328666309E+01 -0.21743562654E+02 -0.29623576984E+02  0.36820932864E+02  0.00000000000E+00 0. -1.
         11    1    4    4    0    0  0.97963612220E+00  0.19612766941E+02  0.42547353104E+01  0.20092861589E+02  0.51100000000E-03 0. -1.
        -11    1    4    4    0    0  0.55847746572E+01  0.90711996786E+01  0.17605733715E+02  0.20577614815E+02  0.51100000000E-03 0.  1.
        -12    1    4    4    0    0 -0.88972774103E+01 -0.69404039649E+01  0.77631079589E+01  0.13696590733E+02  0.00000000000E+00 0.  1.
</event>
<event>
 8    1  0.2521748E-006  0.9118800E+02  0.7816164E-02  0.1184000E+00
        -11   -1    0    0    0    0  0.00000000000E+00  0.00000000000E+00  0.45593999997E+02  0.45594000000E+02  0.51100000000E-03 0.  1.
         11   -1    0    0    0    0 -0.00000000000E+00 -0.00000000000E+00 -0.45593999997E+02  0.45594000000E+02  0.51100000000E-03 0. -1.
         23    2    1    2    0    0  0.35527136788E-14  0.00000000000E+00 -0.35527136788E-14  0.91188000000E+02  0.91188000000E+02 0.  0.
    9900012    2    3    3    0    0 -0.26246814279E+02  0.12339559918E+02  0.22685138369E+02  0.54367143117E+02  0.40000134364E+02 0.  0.
         12    1    3    3    0    0  0.26246814279E+02 -0.12339559918E+02 -0.22685138369E+02  0.36820856883E+02  0.00000000000E+00 0. -1.
         11    1    4    4    0    0  0.34491677750E+01  0.39972378989E+01  0.20117767113E+02  0.20799019762E+02  0.51100000000E-03 0. -1.
        -11    1    4    4    0    0 -0.21802807604E+02  0.15455269516E+01  0.58856543377E+01  0.22636077403E+02  0.51100000000E-03 0.  1.
        -12    1    4    4    0    0 -0.78931744504E+01  0.67967950672E+01 -0.33182830822E+01  0.10932045952E+02  0.00000000000E+00 0.  1.
</event>
<event>
 8    1  0.2521748E-006  0.9118800E+02  0.7816164E-02  0.1184000E+00
        -11   -1    0    0    0    0  0.00000000000E+00  0.00000000000E+00  0.45593999997E+02  0.45594000000E+02  0.51100000000E-03 0. -1.
         11   -1    0    0    0    0 -0.00000000000E+00 -0.00000000000E+00 -0.45593999997E+02  0.45594000000E+02  0.51100000000E-03 0.  1.
         23    2    1    2    0    0  0.00000000000E+00 -0.17763568394E-14 -0.17763568394E-14  0.91188000000E+02  0.91188000000E+02 0.  0.
    9900012    2    3    3    0    0  0.34646687284E+02  0.72413558055E+01  0.10145720437E+02  0.54367274629E+02  0.40000434168E+02 0.  0.
        -12    1    3    3    0    0 -0.34646687284E+02 -0.72413558055E+01 -0.10145720437E+02  0.36820725371E+02  0.00000000000E+00 0.  1.
         11    1    4    4    0    0  0.16324609789E+02 -0.28107966104E+01 -0.43343139944E+01  0.17122492237E+02  0.51100000000E-03 0. -1.
        -11    1    4    4    0    0  0.36201340981E+01 -0.65222129986E+01 -0.39366149856E+01  0.84345462885E+01  0.51100000000E-03 0.  1.
         12    1    4    4    0    0  0.14701943397E+02  0.16574365414E+02  0.18416649417E+02  0.28810236103E+02  0.00000000000E+00 0. -1.
</event>
<event>
 8    1  0.2521748E-006  0.9118800E+02  0.7816164E-02  0.1184000E+00
        -11   -1    0    0    0    0  0.00000000000E+00  0.00000000000E+00  0.45593999997E+02  0.45594000000E+02  0.51100000000E-03 0. -1.
         11   -1    0    0    0    0 -0.00000000000E+00 -0.00000000000E+00 -0.45593999997E+02  0.45594000000E+02  0.51100000000E-03 0.  1.
         23    2    1    2    0    0  0.00000000000E+00 -0.35527136788E-14  0.00000000000E+00  0.91188000000E+02  0.91188000000E+02 0.  0.
    9900012    2    3    3    0    0 -0.24579943837E+02  0.26894151937E+02 -0.53206774243E+01  0.54367100287E+02  0.40000036725E+02 0.  0.
        -12    1    3    3    0    0  0.24579943837E+02 -0.26894151937E+02  0.53206774243E+01  0.36820899713E+02  0.00000000000E+00 0.  1.
         11    1    4    4    0    0 -0.17922411461E+02  0.78262520475E+01  0.25113134201E+01  0.19717244966E+02  0.51100000000E-03 0. -1.
        -11    1    4    4    0    0  0.39107590613E+01  0.43970187335E+01 -0.14286782850E+02  0.15451212724E+02  0.51100000000E-03 0.  1.
        -12    1    4    4    0    0 -0.10568291437E+02  0.14670881155E+02  0.64547920051E+01  0.19198642598E+02  0.00000000000E+00 0.  1.
</event>
<event>
 8    1  0.2521748E-006  0.9118800E+02  0.7816164E-02  0.1184000E+00
        -11   -1    0    0    0    0  0.00000000000E+00  0.00000000000E+00  0.45593999997E+02  0.45594000000E+02  0.51100000000E-03 0. -1.
         11   -1    0    0    0    0 -0.00000000000E+00 -0.00000000000E+00 -0.45593999997E+02  0.45594000000E+02  0.51100000000E-03 0.  1.
         23    2    1    2    0    0  0.00000000000E+00  0.00000000000E+00  0.00000000000E+00  0.91188000000E+02  0.91188000000E+02 0.  0.
    9900012    2    3    3    0    0 -0.10364995634E+02  0.28616800187E+02 -0.20722610272E+02  0.54367068943E+02  0.39999965268E+02 0.  0.
        -12    1    3    3    0    0  0.10364995634E+02 -0.28616800187E+02  0.20722610272E+02  0.36820931057E+02  0.00000000000E+00 0.  1.
         11    1    4    4    0    0 -0.59975343705E+01  0.75803590140E+01 -0.10731828619E+02  0.14443143947E+02  0.51100000000E-03 0. -1.
        -11    1    4    4    0    0 -0.17455151704E+02  0.60061747973E+01 -0.24781553032E+01  0.18625190219E+02  0.51100000000E-03 0.  1.
         12    1    4    4    0    0  0.13087690441E+02  0.15030266376E+02 -0.75126263499E+01  0.21298734777E+02  0.00000000000E+00 0. -1.
</event>
<event>
 8    1  0.2521748E-006  0.9118800E+02  0.7816164E-02  0.1184000E+00
        -11   -1    0    0    0    0  0.00000000000E+00  0.00000000000E+00  0.45593999997E+02  0.45594000000E+02  0.51100000000E-03 0.  1.
         11   -1    0    0    0    0 -0.00000000000E+00 -0.00000000000E+00 -0.45593999997E+02  0.45594000000E+02  0.51100000000E-03 0. -1.
         23    2    1    2    0    0  0.00000000000E+00  0.35527136788E-14  0.00000000000E+00  0.91188000000E+02  0.91188000000E+02 0.  0.
    9900012    2    3    3    0    0 -0.14070891998E+02 -0.21159601187E+02 -0.26646956697E+02  0.54367095269E+02  0.40000025285E+02 0.  0.
        -12    1    3    3    0    0  0.14070891998E+02  0.21159601187E+02  0.26646956697E+02  0.36820904731E+02  0.00000000000E+00 0.  1.
         11    1    4    4    0    0  0.57125972296E+01 -0.11918167892E+02 -0.24802226635E+02  0.28103859865E+02  0.51100000000E-03 0. -1.
        -11    1    4    4    0    0 -0.13094253649E+02 -0.11404351137E+02 -0.56612620495E+01  0.18263860264E+02  0.51100000000E-03 0.  1.
         12    1    4    4    0    0 -0.66892355786E+01  0.21629178423E+01  0.38165319878E+01  0.79993751401E+01  0.00000000000E+00 0. -1.
</event>
<event>
 8    1  0.2521748E-006  0.9118800E+02  0.7816164E-02  0.1184000E+00
        -11   -1    0    0    0    0  0.00000000000E+00  0.00000000000E+00  0.45593999997E+02  0.45594000000E+02  0.51100000000E-03 0.  1.
         11   -1    0    0    0    0 -0.00000000000E+00 -0.00000000000E+00 -0.45593999997E+02  0.45594000000E+02  0.51100000000E-03 0. -1.
         23    2    1    2    0    0  0.00000000000E+00  0.00000000000E+00  0.00000000000E+00  0.91188000000E+02  0.91188000000E+02 0.  0.
    9900012    2    3    3    0    0 -0.21426818214E+02 -0.28635781614E+02  0.87558139883E+01  0.54367071087E+02  0.39999970157E+02 0.  0.
         12    1    3    3    0    0  0.21426818214E+02  0.28635781614E+02 -0.87558139883E+01  0.36820928913E+02  0.00000000000E+00 0. -1.
         11    1    4    4    0    0 -0.81626215976E+01  0.33532226712E+01 -0.61179673253E+01  0.10737877727E+02  0.51100000000E-03 0. -1.
        -11    1    4    4    0    0 -0.10559328485E+02 -0.20291570230E+01  0.57549014583E+01  0.12195728241E+02  0.51100000000E-03 0.  1.
        -12    1    4    4    0    0 -0.27048681323E+01 -0.29959847262E+02  0.91188798552E+01  0.31433465119E+02  0.00000000000E+00 0.  1.
</event>
<event>
 8    1  0.2521748E-006  0.9118800E+02  0.7816164E-02  0.1184000E+00
        -11   -1    0    0    0    0  0.00000000000E+00  0.00000000000E+00  0.45593999997E+02  0.45594000000E+02  0.51100000000E-03 0.  1.
         11   -1    0    0    0    0 -0.00000000000E+00 -0.00000000000E+00 -0.45593999997E+02  0.45594000000E+02  0.51100000000E-03 0. -1.
         23    2    1    2    0    0  0.00000000000E+00  0.00000000000E+00  0.00000000000E+00  0.91188000000E+02  0.91188000000E+02 0.  0.
    9900012    2    3    3    0    0  0.45137754316E+01 -0.33709969223E+02 -0.14107922408E+02  0.54367222329E+02  0.40000314942E+02 0.  0.
         12    1    3    3    0    0 -0.45137754316E+01  0.33709969223E+02  0.14107922408E+02  0.36820777671E+02  0.00000000000E+00 0. -1.
         11    1    4    4    0    0  0.36352803165E+01 -0.71272506899E+01  0.66850278767E+01  0.10426052146E+02  0.51100000000E-03 0.  1.
        -11    1    4    4    0    0  0.37252216248E+01 -0.20622192436E+01 -0.18687392592E+02  0.19166342022E+02  0.51100000000E-03 0. -1.
         12    1    4    4    0    0 -0.28467265096E+01 -0.24520499289E+02 -0.21055576931E+01  0.24774828161E+02  0.00000000000E+00 0. -1.
</event>
<event>
 8    1  0.2521748E-006  0.9118800E+02  0.7816164E-02  0.1184000E+00
        -11   -1    0    0    0    0  0.00000000000E+00  0.00000000000E+00  0.45593999997E+02  0.45594000000E+02  0.51100000000E-03 0.  1.
         11   -1    0    0    0    0 -0.00000000000E+00 -0.00000000000E+00 -0.45593999997E+02  0.45594000000E+02  0.51100000000E-03 0. -1.
         23    2    1    2    0    0  0.00000000000E+00  0.48849813084E-14  0.00000000000E+00  0.91188000000E+02  0.91188000000E+02 0.  0.
    9900012    2    3    3    0    0  0.12808283830E+01  0.17083644519E+01 -0.36758969668E+02  0.54367070062E+02  0.39999967820E+02 0.  0.
        -12    1    3    3    0    0 -0.12808283830E+01 -0.17083644519E+01  0.36758969668E+02  0.36820929938E+02  0.00000000000E+00 0.  1.
         11    1    4    4    0    0  0.34111078570E+01  0.18638474326E+02 -0.17450719289E+02  0.25759580470E+02  0.51100000000E-03 0. -1.
        -11    1    4    4    0    0 -0.49451499426E+01 -0.54708691422E+01 -0.19671501865E+01  0.76324699307E+01  0.51100000000E-03 0.  1.
         12    1    4    4    0    0  0.28148704685E+01 -0.11459240732E+02 -0.17341100192E+02  0.20975019661E+02  0.00000000000E+00 0. -1.
</event>
<event>
 8    1  0.2521748E-006  0.9118800E+02  0.7816164E-02  0.1184000E+00
        -11   -1    0    0    0    0  0.00000000000E+00  0.00000000000E+00  0.45593999997E+02  0.45594000000E+02  0.51100000000E-03 0.  1.
         11   -1    0    0    0    0 -0.00000000000E+00 -0.00000000000E+00 -0.45593999997E+02  0.45594000000E+02  0.51100000000E-03 0. -1.
         23    2    1    2    0    0  0.35527136788E-14  0.35527136788E-14  0.74940054162E-15  0.91188000000E+02  0.91188000000E+02 0.  0.
    9900012    2    3    3    0    0  0.22397059378E+02  0.29225518763E+02  0.14316651578E+00  0.54367085938E+02  0.40000004012E+02 0.  0.
        -12    1    3    3    0    0 -0.22397059378E+02 -0.29225518763E+02 -0.14316651578E+00  0.36820914062E+02  0.00000000000E+00 0.  1.
         11    1    4    4    0    0 -0.16283987120E+01  0.91763537383E+01 -0.63241171689E+01  0.11262841938E+02  0.51100000000E-03 0. -1.
        -11    1    4    4    0    0 -0.54168533684E+01  0.10230615147E+02  0.15007327416E+01  0.11673045263E+02  0.51100000000E-03 0.  1.
         12    1    4    4    0    0  0.29442311458E+02  0.98185498777E+01  0.49665509431E+01  0.31431198736E+02  0.00000000000E+00 0. -1.
</event>
<event>
 8    1  0.2521748E-006  0.9118800E+02  0.7816164E-02  0.1184000E+00
        -11   -1    0    0    0    0  0.00000000000E+00  0.00000000000E+00  0.45593999997E+02  0.45594000000E+02  0.51100000000E-03 0. -1.
         11   -1    0    0    0    0 -0.00000000000E+00 -0.00000000000E+00 -0.45593999997E+02  0.45594000000E+02  0.51100000000E-03 0.  1.
         23    2    1    2    0    0  0.35527136788E-14  0.35527136788E-14  0.88817841970E-15  0.91188000000E+02  0.91188000000E+02 0.  0.
    9900012    2    3    3    0    0 -0.30703151794E+02  0.19269162278E+02 -0.64649620949E+01  0.54367083663E+02  0.39999998826E+02 0.  0.
         12    1    3    3    0    0  0.30703151794E+02 -0.19269162278E+02  0.64649620949E+01  0.36820916337E+02  0.00000000000E+00 0. -1.
         11    1    4    4    0    0 -0.23530042868E+02  0.26854640951E+02  0.30019857228E+01  0.35830804854E+02  0.51100000000E-03 0. -1.
        -11    1    4    4    0    0 -0.10292160256E+02 -0.37735521812E+01 -0.71928186230E+01  0.13111250848E+02  0.51100000000E-03 0.  1.
         12    1    4    4    0    0  0.31190513296E+01 -0.38119264917E+01 -0.22741291947E+01  0.54250279602E+01  0.00000000000E+00 0. -1.
</event>
<event>
 8    1  0.2521748E-006  0.9118800E+02  0.7816164E-02  0.1184000E+00
        -11   -1    0    0    0    0  0.00000000000E+00  0.00000000000E+00  0.45593999997E+02  0.45594000000E+02  0.51100000000E-03 0.  1.
         11   -1    0    0    0    0 -0.00000000000E+00 -0.00000000000E+00 -0.45593999997E+02  0.45594000000E+02  0.51100000000E-03 0. -1.
         23    2    1    2    0    0 -0.71054273576E-14 -0.88817841970E-15  0.35527136788E-14  0.91188000000E+02  0.91188000000E+02 0.  0.
    9900012    2    3    3    0    0  0.32449626427E+02  0.38623318625E+01 -0.16967197448E+02  0.54367059601E+02  0.39999943972E+02 0.  0.
         12    1    3    3    0    0 -0.32449626427E+02 -0.38623318625E+01  0.16967197448E+02  0.36820940399E+02  0.00000000000E+00 0. -1.
         11    1    4    4    0    0  0.62786336500E+00 -0.40245690256E+01  0.10058517042E+02  0.10851964504E+02  0.51100000000E-03 0. -1.
        -11    1    4    4    0    0  0.50954230356E+00  0.22079179616E+01 -0.14716076510E+01  0.27018816451E+01  0.51100000000E-03 0.  1.
        -12    1    4    4    0    0  0.31312220758E+02  0.56789829264E+01 -0.25554106839E+02  0.40813213452E+02  0.00000000000E+00 0.  1.
</event>
<event>
 8    1  0.2521748E-006  0.9118800E+02  0.7816164E-02  0.1184000E+00
        -11   -1    0    0    0    0  0.00000000000E+00  0.00000000000E+00  0.45593999997E+02  0.45594000000E+02  0.51100000000E-03 0. -1.
         11   -1    0    0    0    0 -0.00000000000E+00 -0.00000000000E+00 -0.45593999997E+02  0.45594000000E+02  0.51100000000E-03 0.  1.
         23    2    1    2    0    0  0.00000000000E+00  0.00000000000E+00 -0.17763568394E-14  0.91188000000E+02  0.91188000000E+02 0.  0.
    9900012    2    3    3    0    0  0.31097045214E+02  0.15726016586E+02  0.11893050257E+02  0.54367102902E+02  0.40000042686E+02 0.  0.
         12    1    3    3    0    0 -0.31097045214E+02 -0.15726016586E+02 -0.11893050257E+02  0.36820897098E+02  0.00000000000E+00 0. -1.
         11    1    4    4    0    0  0.53772872768E+01  0.13563318647E+02  0.80813865111E+01  0.16678957982E+02  0.51100000000E-03 0. -1.
        -11    1    4    4    0    0  0.26806502067E+02  0.84220317445E+01 -0.31371010421E+01  0.28272965444E+02  0.51100000000E-03 0.  1.
        -12    1    4    4    0    0 -0.10867441300E+01 -0.62593338056E+01  0.69487647876E+01  0.94151794761E+01  0.00000000000E+00 0.  1.
</event>
<event>
 8    1  0.2521748E-006  0.9118800E+02  0.7816164E-02  0.1184000E+00
        -11   -1    0    0    0    0  0.00000000000E+00  0.00000000000E+00  0.45593999997E+02  0.45594000000E+02  0.51100000000E-03 0. -1.
         11   -1    0    0    0    0 -0.00000000000E+00 -0.00000000000E+00 -0.45593999997E+02  0.45594000000E+02  0.51100000000E-03 0.  1.
         23    2    1    2    0    0  0.00000000000E+00  0.00000000000E+00  0.00000000000E+00  0.91188000000E+02  0.91188000000E+02 0.  0.
    9900012    2    3    3    0    0  0.15198108809E+02 -0.31352441232E+02 -0.11909146928E+02  0.54367002415E+02  0.39999813606E+02 0.  0.
         12    1    3    3    0    0 -0.15198108809E+02  0.31352441232E+02  0.11909146928E+02  0.36820997585E+02  0.00000000000E+00 0. -1.
         11    1    4    4    0    0 -0.10430467432E+00 -0.54838484525E+01  0.90316023722E+01  0.10566613222E+02  0.51100000000E-03 0. -1.
        -11    1    4    4    0    0 -0.22930845390E+00 -0.35472115406E+01 -0.15711786975E+02  0.16108865332E+02  0.51100000000E-03 0.  1.
        -12    1    4    4    0    0  0.15531721938E+02 -0.22321381239E+02 -0.52289623248E+01  0.27691523861E+02  0.00000000000E+00 0.  1.
</event>
<event>
 8    1  0.2521748E-006  0.9118800E+02  0.7816164E-02  0.1184000E+00
        -11   -1    0    0    0    0  0.00000000000E+00  0.00000000000E+00  0.45593999997E+02  0.45594000000E+02  0.51100000000E-03 0. -1.
         11   -1    0    0    0    0 -0.00000000000E+00 -0.00000000000E+00 -0.45593999997E+02  0.45594000000E+02  0.51100000000E-03 0.  1.
         23    2    1    2    0    0  0.10269562978E-14  0.71054273576E-14  0.35527136788E-14  0.91188000000E+02  0.91188000000E+02 0.  0.
    9900012    2    3    3    0    0  0.50961583928E-01  0.32446687172E+02  0.17406581899E+02  0.54367092910E+02  0.40000019907E+02 0.  0.
        -12    1    3    3    0    0 -0.50961583928E-01 -0.32446687172E+02 -0.17406581899E+02  0.36820907090E+02  0.00000000000E+00 0.  1.
         11    1    4    4    0    0 -0.46345938224E+01 -0.25239051345E+01  0.67145487709E+01  0.85401828133E+01  0.51100000000E-03 0. -1.
        -11    1    4    4    0    0 -0.74779252199E+01  0.51567481743E+01  0.10152257176E+02  0.13622765628E+02  0.51100000000E-03 0.  1.
         12    1    4    4    0    0  0.12163480626E+02  0.29813844132E+02  0.53977595225E+00  0.32204144469E+02  0.00000000000E+00 0. -1.
</event>
<event>
 8    1  0.2521748E-006  0.9118800E+02  0.7816164E-02  0.1184000E+00
        -11   -1    0    0    0    0  0.00000000000E+00  0.00000000000E+00  0.45593999997E+02  0.45594000000E+02  0.51100000000E-03 0. -1.
         11   -1    0    0    0    0 -0.00000000000E+00 -0.00000000000E+00 -0.45593999997E+02  0.45594000000E+02  0.51100000000E-03 0.  1.
         23    2    1    2    0    0  0.00000000000E+00  0.00000000000E+00  0.35527136788E-14  0.91188000000E+02  0.91188000000E+02 0.  0.
    9900012    2    3    3    0    0  0.25046020367E+02 -0.65220353343E+01  0.26190456314E+02  0.54367080904E+02  0.39999992537E+02 0.  0.
        -12    1    3    3    0    0 -0.25046020367E+02  0.65220353343E+01 -0.26190456314E+02  0.36820919096E+02  0.00000000000E+00 0.  1.
         11    1    4    4    0    0  0.50396705472E+01 -0.16944371910E+01 -0.60957429381E+01  0.80887254155E+01  0.51100000000E-03 0.  1.
        -11    1    4    4    0    0  0.17663751593E+02 -0.14563187962E+02  0.24974857655E+02  0.33879759136E+02  0.51100000000E-03 0. -1.
         12    1    4    4    0    0  0.23425982267E+01  0.97355898186E+01  0.73113415970E+01  0.12398596353E+02  0.00000000000E+00 0. -1.
</event>
<event>
 8    1  0.2521748E-006  0.9118800E+02  0.7816164E-02  0.1184000E+00
        -11   -1    0    0    0    0  0.00000000000E+00  0.00000000000E+00  0.45593999997E+02  0.45594000000E+02  0.51100000000E-03 0.  1.
         11   -1    0    0    0    0 -0.00000000000E+00 -0.00000000000E+00 -0.45593999997E+02  0.45594000000E+02  0.51100000000E-03 0. -1.
         23    2    1    2    0    0  0.00000000000E+00 -0.13322676296E-14  0.00000000000E+00  0.91188000000E+02  0.91188000000E+02 0.  0.
    9900012    2    3    3    0    0 -0.32428868240E+02  0.27911487177E+01  0.17214988166E+02  0.54367111580E+02  0.40000062469E+02 0.  0.
        -12    1    3    3    0    0  0.32428868240E+02 -0.27911487177E+01 -0.17214988166E+02  0.36820888420E+02  0.00000000000E+00 0.  1.
         11    1    4    4    0    0 -0.12340050066E+02  0.64536404997E+01  0.16802605884E+02  0.21823241650E+02  0.51100000000E-03 0. -1.
        -11    1    4    4    0    0 -0.10105792552E+02 -0.82757273956E+01  0.11150044414E+02  0.17173764809E+02  0.51100000000E-03 0.  1.
         12    1    4    4    0    0 -0.99830256214E+01  0.46132356136E+01 -0.10737662132E+02  0.15370105121E+02  0.00000000000E+00 0. -1.
</event>
<event>
 8    1  0.2521748E-006  0.9118800E+02  0.7816164E-02  0.1184000E+00
        -11   -1    0    0    0    0  0.00000000000E+00  0.00000000000E+00  0.45593999997E+02  0.45594000000E+02  0.51100000000E-03 0. -1.
         11   -1    0    0    0    0 -0.00000000000E+00 -0.00000000000E+00 -0.45593999997E+02  0.45594000000E+02  0.51100000000E-03 0.  1.
         23    2    1    2    0    0  0.00000000000E+00  0.00000000000E+00  0.00000000000E+00  0.91188000000E+02  0.91188000000E+02 0.  0.
    9900012    2    3    3    0    0 -0.25739635909E+02  0.15582971765E+02 -0.21223144530E+02  0.54367085705E+02  0.40000003482E+02 0.  0.
         12    1    3    3    0    0  0.25739635909E+02 -0.15582971765E+02  0.21223144530E+02  0.36820914295E+02  0.00000000000E+00 0. -1.
         11    1    4    4    0    0 -0.18474128239E+02  0.80425040712E+01 -0.24422591107E+02  0.31661305130E+02  0.51100000000E-03 0. -1.
        -11    1    4    4    0    0 -0.87431712421E+01  0.36029195420E+01 -0.69392935266E+01  0.11729359211E+02  0.51100000000E-03 0.  1.
         12    1    4    4    0    0  0.14776635718E+01  0.39375481514E+01  0.10138740103E+02  0.10976421364E+02  0.00000000000E+00 0. -1.
</event>
<event>
 8    1  0.2521748E-006  0.9118800E+02  0.7816164E-02  0.1184000E+00
        -11   -1    0    0    0    0  0.00000000000E+00  0.00000000000E+00  0.45593999997E+02  0.45594000000E+02  0.51100000000E-03 0.  1.
         11   -1    0    0    0    0 -0.00000000000E+00 -0.00000000000E+00 -0.45593999997E+02  0.45594000000E+02  0.51100000000E-03 0. -1.
         23    2    1    2    0    0 -0.35527136788E-14  0.00000000000E+00  0.71054273576E-14  0.91188000000E+02  0.91188000000E+02 0.  0.
    9900012    2    3    3    0    0 -0.14841757679E+02  0.25353684912E+01 -0.33601737188E+02  0.54367046639E+02  0.39999914423E+02 0.  0.
        -12    1    3    3    0    0  0.14841757679E+02 -0.25353684912E+01  0.33601737188E+02  0.36820953361E+02  0.00000000000E+00 0.  1.
         11    1    4    4    0    0  0.11411413550E+02  0.10418038507E+01 -0.12511000085E+02  0.16965578029E+02  0.51100000000E-03 0. -1.
        -11    1    4    4    0    0 -0.27354928957E+02  0.41116702699E+01 -0.17162290884E+02  0.32553681808E+02  0.51100000000E-03 0.  1.
        -12    1    4    4    0    0  0.11017577282E+01 -0.26181056294E+01 -0.39284462192E+01  0.48477868017E+01  0.00000000000E+00 0.  1.
</event>
<event>
 8    1  0.2521748E-006  0.9118800E+02  0.7816164E-02  0.1184000E+00
        -11   -1    0    0    0    0  0.00000000000E+00  0.00000000000E+00  0.45593999997E+02  0.45594000000E+02  0.51100000000E-03 0. -1.
         11   -1    0    0    0    0 -0.00000000000E+00 -0.00000000000E+00 -0.45593999997E+02  0.45594000000E+02  0.51100000000E-03 0.  1.
         23    2    1    2    0    0  0.00000000000E+00  0.44408920985E-14  0.00000000000E+00  0.91188000000E+02  0.91188000000E+02 0.  0.
    9900012    2    3    3    0    0  0.19109778235E+02 -0.68605820522E+01  0.30716890979E+02  0.54367101020E+02  0.40000038395E+02 0.  0.
        -12    1    3    3    0    0 -0.19109778235E+02  0.68605820522E+01 -0.30716890979E+02  0.36820898980E+02  0.00000000000E+00 0.  1.
         11    1    4    4    0    0  0.40218344165E+01 -0.83723407973E+01  0.18523242015E+02  0.20721528358E+02  0.51100000000E-03 0. -1.
        -11    1    4    4    0    0  0.13686511004E+02  0.13416287836E+02  0.56094786281E+01  0.19969567184E+02  0.51100000000E-03 0.  1.
        -12    1    4    4    0    0  0.14014328139E+01 -0.11904529091E+02  0.65841703362E+01  0.13676005478E+02  0.00000000000E+00 0.  1.
</event>
<event>
 8    1  0.2521748E-006  0.9118800E+02  0.7816164E-02  0.1184000E+00
        -11   -1    0    0    0    0  0.00000000000E+00  0.00000000000E+00  0.45593999997E+02  0.45594000000E+02  0.51100000000E-03 0. -1.
         11   -1    0    0    0    0 -0.00000000000E+00 -0.00000000000E+00 -0.45593999997E+02  0.45594000000E+02  0.51100000000E-03 0.  1.
         23    2    1    2    0    0  0.17763568394E-14  0.35527136788E-14  0.00000000000E+00  0.91188000000E+02  0.91188000000E+02 0.  0.
    9900012    2    3    3    0    0  0.51343435193E+01  0.24118478368E+02  0.27344391422E+02  0.54367106143E+02  0.40000050074E+02 0.  0.
        -12    1    3    3    0    0 -0.51343435193E+01 -0.24118478368E+02 -0.27344391422E+02  0.36820893857E+02  0.00000000000E+00 0.  1.
         11    1    4    4    0    0 -0.74931147912E+01  0.31189159688E+01  0.65253041380E+01  0.10414125045E+02  0.51100000000E-03 0. -1.
        -11    1    4    4    0    0  0.31001575543E+01 -0.47741042175E+01 -0.39744452857E+01  0.69425689432E+01  0.51100000000E-03 0.  1.
         12    1    4    4    0    0  0.95273007561E+01  0.25773666617E+02  0.24793532570E+02  0.37010412155E+02  0.00000000000E+00 0. -1.
</event>
<event>
 8    1  0.2521748E-006  0.9118800E+02  0.7816164E-02  0.1184000E+00
        -11   -1    0    0    0    0  0.00000000000E+00  0.00000000000E+00  0.45593999997E+02  0.45594000000E+02  0.51100000000E-03 0.  1.
         11   -1    0    0    0    0 -0.00000000000E+00 -0.00000000000E+00 -0.45593999997E+02  0.45594000000E+02  0.51100000000E-03 0. -1.
         23    2    1    2    0    0  0.00000000000E+00  0.00000000000E+00  0.00000000000E+00  0.91188000000E+02  0.91188000000E+02 0.  0.
    9900012    2    3    3    0    0 -0.20695283781E+01 -0.12716576151E+02 -0.34493271365E+02  0.54367081677E+02  0.39999994300E+02 0.  0.
        -12    1    3    3    0    0  0.20695283781E+01  0.12716576151E+02  0.34493271365E+02  0.36820918323E+02  0.00000000000E+00 0.  1.
         11    1    4    4    0    0 -0.31118192124E+01 -0.22883502591E+01 -0.42104760425E+00  0.38855176058E+01  0.51100000000E-03 0. -1.
        -11    1    4    4    0    0 -0.50748626309E+01 -0.12966785639E+02 -0.39522885932E+02  0.41904060343E+02  0.51100000000E-03 0.  1.
        -12    1    4    4    0    0  0.61171534652E+01  0.25385597480E+01  0.54506621716E+01  0.85775037289E+01  0.00000000000E+00 0.  1.
</event>
<event>
 8    1  0.2521748E-006  0.9118800E+02  0.7816164E-02  0.1184000E+00
        -11   -1    0    0    0    0  0.00000000000E+00  0.00000000000E+00  0.45593999997E+02  0.45594000000E+02  0.51100000000E-03 0.  1.
         11   -1    0    0    0    0 -0.00000000000E+00 -0.00000000000E+00 -0.45593999997E+02  0.45594000000E+02  0.51100000000E-03 0. -1.
         23    2    1    2    0    0  0.00000000000E+00  0.00000000000E+00  0.00000000000E+00  0.91188000000E+02  0.91188000000E+02 0.  0.
    9900012    2    3    3    0    0  0.10562390387E+02 -0.33735419759E+02 -0.10302317839E+02  0.54367076738E+02  0.39999983040E+02 0.  0.
        -12    1    3    3    0    0 -0.10562390387E+02  0.33735419759E+02  0.10302317839E+02  0.36820923262E+02  0.00000000000E+00 0.  1.
         11    1    4    4    0    0  0.15163010574E+02 -0.20308813437E+02  0.12331875420E+01  0.25374899894E+02  0.51100000000E-03 0. -1.
        -11    1    4    4    0    0  0.79708582038E+01 -0.88367117000E+00 -0.39701385507E+00  0.80295127812E+01  0.51100000000E-03 0.  1.
         12    1    4    4    0    0 -0.12571478390E+02 -0.12542935152E+02 -0.11138491526E+02  0.20962664063E+02  0.00000000000E+00 0. -1.
</event>
<event>
 8    1  0.2521748E-006  0.9118800E+02  0.7816164E-02  0.1184000E+00
        -11   -1    0    0    0    0  0.00000000000E+00  0.00000000000E+00  0.45593999997E+02  0.45594000000E+02  0.51100000000E-03 0.  1.
         11   -1    0    0    0    0 -0.00000000000E+00 -0.00000000000E+00 -0.45593999997E+02  0.45594000000E+02  0.51100000000E-03 0. -1.
         23    2    1    2    0    0  0.35527136788E-14 -0.35527136788E-14 -0.99920072216E-15  0.91188000000E+02  0.91188000000E+02 0.  0.
    9900012    2    3    3    0    0 -0.31768898365E+02  0.18613062114E+02 -0.26717281453E+00  0.54367077064E+02  0.39999983782E+02 0.  0.
        -12    1    3    3    0    0  0.31768898365E+02 -0.18613062114E+02  0.26717281453E+00  0.36820922936E+02  0.00000000000E+00 0.  1.
         11    1    4    4    0    0 -0.10048295817E+02  0.13239126190E+02 -0.88519240624E+01  0.18830806434E+02  0.51100000000E-03 0. -1.
        -11    1    4    4    0    0 -0.11325088346E+02  0.11316037842E+02  0.15011480386E+02  0.21946637149E+02  0.51100000000E-03 0.  1.
         12    1    4    4    0    0 -0.10395514202E+02 -0.59421019180E+01 -0.64267291385E+01  0.13589633481E+02  0.00000000000E+00 0. -1.
</event>
<event>
 8    1  0.2521748E-006  0.9118800E+02  0.7816164E-02  0.1184000E+00
        -11   -1    0    0    0    0  0.00000000000E+00  0.00000000000E+00  0.45593999997E+02  0.45594000000E+02  0.51100000000E-03 0.  1.
         11   -1    0    0    0    0 -0.00000000000E+00 -0.00000000000E+00 -0.45593999997E+02  0.45594000000E+02  0.51100000000E-03 0. -1.
         23    2    1    2    0    0  0.88817841970E-15  0.35527136788E-14  0.35527136788E-14  0.91188000000E+02  0.91188000000E+02 0.  0.
    9900012    2    3    3    0    0 -0.42473685112E+01  0.27020000443E+02  0.24650759597E+02  0.54367075081E+02  0.39999979262E+02 0.  0.
         12    1    3    3    0    0  0.42473685112E+01 -0.27020000443E+02 -0.24650759597E+02  0.36820924919E+02  0.00000000000E+00 0. -1.
         11    1    4    4    0    0  0.44382947154E+01  0.33952349037E+02  0.14889366223E+02  0.37338367558E+02  0.51100000000E-03 0. -1.
        -11    1    4    4    0    0 -0.54359672844E+01  0.85461169104E+00  0.35009139041E+01  0.65220012178E+01  0.51100000000E-03 0.  1.
         12    1    4    4    0    0 -0.32496959422E+01 -0.77869602851E+01  0.62604794691E+01  0.10506706305E+02  0.00000000000E+00 0. -1.
</event>
<event>
 8    1  0.2521748E-006  0.9118800E+02  0.7816164E-02  0.1184000E+00
        -11   -1    0    0    0    0  0.00000000000E+00  0.00000000000E+00  0.45593999997E+02  0.45594000000E+02  0.51100000000E-03 0. -1.
         11   -1    0    0    0    0 -0.00000000000E+00 -0.00000000000E+00 -0.45593999997E+02  0.45594000000E+02  0.51100000000E-03 0.  1.
         23    2    1    2    0    0  0.00000000000E+00  0.88817841970E-15 -0.35527136788E-14  0.91188000000E+02  0.91188000000E+02 0.  0.
    9900012    2    3    3    0    0 -0.25365781078E+02  0.79060704184E+01 -0.25492182050E+02  0.54367080066E+02  0.39999990626E+02 0.  0.
         12    1    3    3    0    0  0.25365781078E+02 -0.79060704184E+01  0.25492182050E+02  0.36820919934E+02  0.00000000000E+00 0. -1.
         11    1    4    4    0    0 -0.20184672815E+02  0.11714082299E+01 -0.14011567201E+02  0.24599130667E+02  0.51100000000E-03 0. -1.
        -11    1    4    4    0    0 -0.32087181990E+01 -0.53436956556E+01 -0.15644648551E+02  0.16840605223E+02  0.51100000000E-03 0.  1.
        -12    1    4    4    0    0 -0.19723900635E+01  0.12078357844E+02  0.41640337017E+01  0.12927344176E+02  0.00000000000E+00 0.  1.
</event>
<event>
 8    1  0.2521748E-006  0.9118800E+02  0.7816164E-02  0.1184000E+00
        -11   -1    0    0    0    0  0.00000000000E+00  0.00000000000E+00  0.45593999997E+02  0.45594000000E+02  0.51100000000E-03 0.  1.
         11   -1    0    0    0    0 -0.00000000000E+00 -0.00000000000E+00 -0.45593999997E+02  0.45594000000E+02  0.51100000000E-03 0. -1.
         23    2    1    2    0    0  0.35527136788E-14  0.00000000000E+00 -0.17763568394E-14  0.91188000000E+02  0.91188000000E+02 0.  0.
    9900012    2    3    3    0    0 -0.18084550547E+02 -0.30176470239E+02  0.10867810087E+02  0.54367087183E+02  0.40000006852E+02 0.  0.
         12    1    3    3    0    0  0.18084550547E+02  0.30176470239E+02 -0.10867810087E+02  0.36820912817E+02  0.00000000000E+00 0. -1.
         11    1    4    4    0    0 -0.41082703579E+00 -0.28444914909E+01 -0.63194681439E+01  0.69423042701E+01  0.51100000000E-03 0. -1.
        -11    1    4    4    0    0 -0.30608353270E+01 -0.26735446065E+02  0.30475363484E+01  0.27082102342E+02  0.51100000000E-03 0.  1.
         12    1    4    4    0    0 -0.14612888184E+02 -0.59653268299E+00  0.14139741883E+02  0.20342680571E+02  0.00000000000E+00 0. -1.
</event>
<event>
 8    1  0.2521748E-006  0.9118800E+02  0.7816164E-02  0.1184000E+00
        -11   -1    0    0    0    0  0.00000000000E+00  0.00000000000E+00  0.45593999997E+02  0.45594000000E+02  0.51100000000E-03 0.  1.
         11   -1    0    0    0    0 -0.00000000000E+00 -0.00000000000E+00 -0.45593999997E+02  0.45594000000E+02  0.51100000000E-03 0. -1.
         23    2    1    2    0    0  0.00000000000E+00  0.00000000000E+00 -0.35527136788E-14  0.91188000000E+02  0.91188000000E+02 0.  0.
    9900012    2    3    3    0    0  0.10600529433E+02  0.33411716946E+02  0.11272416004E+02  0.54367062803E+02  0.39999951271E+02 0.  0.
         12    1    3    3    0    0 -0.10600529433E+02 -0.33411716946E+02 -0.11272416004E+02  0.36820937197E+02  0.00000000000E+00 0. -1.
         11    1    4    4    0    0  0.22815276837E+01 -0.13942335877E+01  0.18050198860E+01  0.32260429195E+01  0.51100000000E-03 0. -1.
        -11    1    4    4    0    0 -0.88126567114E+01  0.13481358756E+02  0.16333206763E+02  0.22938692109E+02  0.51100000000E-03 0.  1.
         12    1    4    4    0    0  0.17131658461E+02  0.21324591777E+02 -0.68658106454E+01  0.28202327775E+02  0.00000000000E+00 0. -1.
</event>
<event>
 8    1  0.2521748E-006  0.9118800E+02  0.7816164E-02  0.1184000E+00
        -11   -1    0    0    0    0  0.00000000000E+00  0.00000000000E+00  0.45593999997E+02  0.45594000000E+02  0.51100000000E-03 0. -1.
         11   -1    0    0    0    0 -0.00000000000E+00 -0.00000000000E+00 -0.45593999997E+02  0.45594000000E+02  0.51100000000E-03 0.  1.
         23    2    1    2    0    0  0.00000000000E+00  0.00000000000E+00 -0.35527136788E-14  0.91188000000E+02  0.91188000000E+02 0.  0.
    9900012    2    3    3    0    0 -0.30786149731E+02  0.72542828674E+01 -0.18851189542E+02  0.54367095851E+02  0.40000026612E+02 0.  0.
         12    1    3    3    0    0  0.30786149731E+02 -0.72542828674E+01  0.18851189542E+02  0.36820904149E+02  0.00000000000E+00 0. -1.
         11    1    4    4    0    0 -0.11972653645E+02  0.11929284107E+02 -0.57867218433E+00  0.16911153609E+02  0.51100000000E-03 0.  1.
        -11    1    4    4    0    0  0.63291493341E+01 -0.33058698642E+01 -0.65159233872E+01  0.96666521972E+01  0.51100000000E-03 0. -1.
        -12    1    4    4    0    0 -0.25142645420E+02 -0.13691313754E+01 -0.11756593971E+02  0.27789290045E+02  0.00000000000E+00 0.  1.
</event>
<event>
 8    1  0.2521748E-006  0.9118800E+02  0.7816164E-02  0.1184000E+00
        -11   -1    0    0    0    0  0.00000000000E+00  0.00000000000E+00  0.45593999997E+02  0.45594000000E+02  0.51100000000E-03 0. -1.
         11   -1    0    0    0    0 -0.00000000000E+00 -0.00000000000E+00 -0.45593999997E+02  0.45594000000E+02  0.51100000000E-03 0.  1.
         23    2    1    2    0    0  0.00000000000E+00 -0.35527136788E-14  0.66613381478E-15  0.91188000000E+02  0.91188000000E+02 0.  0.
    9900012    2    3    3    0    0  0.21387651476E+02 -0.29919348351E+02 -0.17834540562E+01  0.54367085430E+02  0.40000002855E+02 0.  0.
         12    1    3    3    0    0 -0.21387651476E+02  0.29919348351E+02  0.17834540562E+01  0.36820914570E+02  0.00000000000E+00 0. -1.
         11    1    4    4    0    0  0.49792199688E+01 -0.12197310369E+02 -0.10476114380E+01  0.13216069829E+02  0.51100000000E-03 0. -1.
        -11    1    4    4    0    0  0.21436967597E+02 -0.20531947099E+02  0.79491541577E+01  0.30729358658E+02  0.51100000000E-03 0.  1.
         12    1    4    4    0    0 -0.50285360900E+01  0.28099091166E+01 -0.86849967758E+01  0.10421656944E+02  0.00000000000E+00 0. -1.
</event>
<event>
 8    1  0.2521748E-006  0.9118800E+02  0.7816164E-02  0.1184000E+00
        -11   -1    0    0    0    0  0.00000000000E+00  0.00000000000E+00  0.45593999997E+02  0.45594000000E+02  0.51100000000E-03 0.  1.
         11   -1    0    0    0    0 -0.00000000000E+00 -0.00000000000E+00 -0.45593999997E+02  0.45594000000E+02  0.51100000000E-03 0. -1.
         23    2    1    2    0    0 -0.35527136788E-14  0.35527136788E-14 -0.35527136788E-14  0.91188000000E+02  0.91188000000E+02 0.  0.
    9900012    2    3    3    0    0 -0.28194558529E+02  0.21491157566E+02 -0.99488943970E+01  0.54367034723E+02  0.39999887259E+02 0.  0.
         12    1    3    3    0    0  0.28194558529E+02 -0.21491157566E+02  0.99488943970E+01  0.36820965277E+02  0.00000000000E+00 0. -1.
         11    1    4    4    0    0 -0.18616195279E+02  0.12747763881E+02 -0.70783311747E+00  0.22573640349E+02  0.51100000000E-03 0. -1.
        -11    1    4    4    0    0 -0.12783072509E+02 -0.24446692118E+00  0.57533515515E+01  0.14020262521E+02  0.51100000000E-03 0.  1.
        -12    1    4    4    0    0  0.32047092582E+01  0.89878606061E+01 -0.14994412831E+02  0.17773131853E+02  0.00000000000E+00 0.  1.
</event>
<event>
 8    1  0.2521748E-006  0.9118800E+02  0.7816164E-02  0.1184000E+00
        -11   -1    0    0    0    0  0.00000000000E+00  0.00000000000E+00  0.45593999997E+02  0.45594000000E+02  0.51100000000E-03 0. -1.
         11   -1    0    0    0    0 -0.00000000000E+00 -0.00000000000E+00 -0.45593999997E+02  0.45594000000E+02  0.51100000000E-03 0.  1.
         23    2    1    2    0    0 -0.17763568394E-14  0.71054273576E-14  0.88817841970E-15  0.91188000000E+02  0.91188000000E+02 0.  0.
    9900012    2    3    3    0    0  0.95525355825E+01 -0.34942818600E+02  0.65975453516E+01  0.54367094084E+02  0.40000022583E+02 0.  0.
        -12    1    3    3    0    0 -0.95525355825E+01  0.34942818600E+02 -0.65975453516E+01  0.36820905916E+02  0.00000000000E+00 0.  1.
         11    1    4    4    0    0  0.92931505514E+00 -0.53983253734E+01 -0.39642680267E+01  0.67617279270E+01  0.51100000000E-03 0. -1.
        -11    1    4    4    0    0 -0.18939561901E+01 -0.52015371362E+01 -0.11724897763E+02  0.12965966468E+02  0.51100000000E-03 0.  1.
         12    1    4    4    0    0  0.10517176717E+02 -0.24342956091E+02  0.22286711141E+02  0.34639399689E+02  0.00000000000E+00 0. -1.
</event>
<event>
 8    1  0.2521748E-006  0.9118800E+02  0.7816164E-02  0.1184000E+00
        -11   -1    0    0    0    0  0.00000000000E+00  0.00000000000E+00  0.45593999997E+02  0.45594000000E+02  0.51100000000E-03 0.  1.
         11   -1    0    0    0    0 -0.00000000000E+00 -0.00000000000E+00 -0.45593999997E+02  0.45594000000E+02  0.51100000000E-03 0. -1.
         23    2    1    2    0    0  0.35527136788E-14 -0.35527136788E-14  0.00000000000E+00  0.91188000000E+02  0.91188000000E+02 0.  0.
    9900012    2    3    3    0    0  0.31049499401E+02  0.17597417982E+02  0.90576249797E+01  0.54367067055E+02  0.39999960965E+02 0.  0.
        -12    1    3    3    0    0 -0.31049499401E+02 -0.17597417982E+02 -0.90576249797E+01  0.36820932945E+02  0.00000000000E+00 0.  1.
         11    1    4    4    0    0  0.11791294667E+02  0.12362777459E+02 -0.40457996268E+01  0.17556804701E+02  0.51100000000E-03 0. -1.
        -11    1    4    4    0    0  0.18117119271E+02  0.13313805161E+02  0.16585859695E+02  0.27938828906E+02  0.51100000000E-03 0.  1.
        -12    1    4    4    0    0  0.11410854624E+01 -0.80791646377E+01 -0.34824350888E+01  0.88714334480E+01  0.00000000000E+00 0.  1.
</event>
<event>
 8    1  0.2521748E-006  0.9118800E+02  0.7816164E-02  0.1184000E+00
        -11   -1    0    0    0    0  0.00000000000E+00  0.00000000000E+00  0.45593999997E+02  0.45594000000E+02  0.51100000000E-03 0.  1.
         11   -1    0    0    0    0 -0.00000000000E+00 -0.00000000000E+00 -0.45593999997E+02  0.45594000000E+02  0.51100000000E-03 0. -1.
         23    2    1    2    0    0  0.71054273576E-14 -0.35527136788E-14  0.00000000000E+00  0.91188000000E+02  0.91188000000E+02 0.  0.
    9900012    2    3    3    0    0  0.24353736031E+02  0.17409418016E+02  0.21438013805E+02  0.54367072116E+02  0.39999972503E+02 0.  0.
         12    1    3    3    0    0 -0.24353736031E+02 -0.17409418016E+02 -0.21438013805E+02  0.36820927884E+02  0.00000000000E+00 0. -1.
         11    1    4    4    0    0 -0.74255144646E+01 -0.22509263954E+01  0.46840553894E+01  0.90634049812E+01  0.51100000000E-03 0. -1.
        -11    1    4    4    0    0  0.23255647656E+01 -0.37752954192E+01  0.21793196644E+01  0.49407025251E+01  0.51100000000E-03 0.  1.
         12    1    4    4    0    0  0.29453685730E+02  0.23435639831E+02  0.14574638751E+02  0.40362964610E+02  0.00000000000E+00 0. -1.
</event>
<event>
 8    1  0.2521748E-006  0.9118800E+02  0.7816164E-02  0.1184000E+00
        -11   -1    0    0    0    0  0.00000000000E+00  0.00000000000E+00  0.45593999997E+02  0.45594000000E+02  0.51100000000E-03 0.  1.
         11   -1    0    0    0    0 -0.00000000000E+00 -0.00000000000E+00 -0.45593999997E+02  0.45594000000E+02  0.51100000000E-03 0. -1.
         23    2    1    2    0    0 -0.17763568394E-14  0.00000000000E+00 -0.44408920985E-15  0.91188000000E+02  0.91188000000E+02 0.  0.
    9900012    2    3    3    0    0 -0.71657632720E+01 -0.35941181506E+02  0.35586508311E+01  0.54367072702E+02  0.39999973840E+02 0.  0.
        -12    1    3    3    0    0  0.71657632720E+01  0.35941181506E+02 -0.35586508311E+01  0.36820927298E+02  0.00000000000E+00 0.  1.
         11    1    4    4    0    0 -0.95132500127E+01 -0.22288045413E+02  0.45603533916E+01  0.24658785806E+02  0.51100000000E-03 0. -1.
        -11    1    4    4    0    0  0.37575268859E+01 -0.16455032379E+02  0.90687647508E+01  0.19160626119E+02  0.51100000000E-03 0.  1.
        -12    1    4    4    0    0 -0.14100401452E+01  0.28018962857E+01 -0.10070467311E+02  0.10547660777E+02  0.00000000000E+00 0.  1.
</event>
<event>
 8    1  0.2521748E-006  0.9118800E+02  0.7816164E-02  0.1184000E+00
        -11   -1    0    0    0    0  0.00000000000E+00  0.00000000000E+00  0.45593999997E+02  0.45594000000E+02  0.51100000000E-03 0.  1.
         11   -1    0    0    0    0 -0.00000000000E+00 -0.00000000000E+00 -0.45593999997E+02  0.45594000000E+02  0.51100000000E-03 0. -1.
         23    2    1    2    0    0  0.00000000000E+00  0.17763568394E-14  0.00000000000E+00  0.91188000000E+02  0.91188000000E+02 0.  0.
    9900012    2    3    3    0    0 -0.20158567833E+02  0.23218745507E+01  0.30724898961E+02  0.54367104102E+02  0.40000045422E+02 0.  0.
         12    1    3    3    0    0  0.20158567833E+02 -0.23218745507E+01 -0.30724898961E+02  0.36820895898E+02  0.00000000000E+00 0. -1.
         11    1    4    4    0    0 -0.95468802984E+00  0.70859461010E+01 -0.37128690145E+01  0.80565164904E+01  0.51100000000E-03 0. -1.
        -11    1    4    4    0    0 -0.17118636265E+02 -0.13466475365E+02  0.26885323232E+02  0.34600784267E+02  0.51100000000E-03 0.  1.
        -12    1    4    4    0    0 -0.20852435386E+01  0.87024038146E+01  0.75524447438E+01  0.11709803345E+02  0.00000000000E+00 0.  1.
</event>
<event>
 8    1  0.2521748E-006  0.9118800E+02  0.7816164E-02  0.1184000E+00
        -11   -1    0    0    0    0  0.00000000000E+00  0.00000000000E+00  0.45593999997E+02  0.45594000000E+02  0.51100000000E-03 0.  1.
         11   -1    0    0    0    0 -0.00000000000E+00 -0.00000000000E+00 -0.45593999997E+02  0.45594000000E+02  0.51100000000E-03 0. -1.
         23    2    1    2    0    0 -0.22204460493E-15  0.00000000000E+00  0.00000000000E+00  0.91188000000E+02  0.91188000000E+02 0.  0.
    9900012    2    3    3    0    0  0.14695060772E+01 -0.26509713125E+02 -0.25511848597E+02  0.54367098912E+02  0.40000033590E+02 0.  0.
        -12    1    3    3    0    0 -0.14695060772E+01  0.26509713125E+02  0.25511848597E+02  0.36820901088E+02  0.00000000000E+00 0.  1.
         11    1    4    4    0    0  0.80608115954E+01 -0.60638311764E+01 -0.10747159037E+02  0.14739340547E+02  0.51100000000E-03 0. -1.
        -11    1    4    4    0    0  0.87474342563E+01 -0.19158623940E+02 -0.11090239665E+02  0.23802602661E+02  0.51100000000E-03 0.  1.
        -12    1    4    4    0    0 -0.15338739774E+02 -0.12872580083E+01 -0.36744498950E+01  0.15825155705E+02  0.00000000000E+00 0.  1.
</event>
<event>
 8    1  0.2521748E-006  0.9118800E+02  0.7816164E-02  0.1184000E+00
        -11   -1    0    0    0    0  0.00000000000E+00  0.00000000000E+00  0.45593999997E+02  0.45594000000E+02  0.51100000000E-03 0.  1.
         11   -1    0    0    0    0 -0.00000000000E+00 -0.00000000000E+00 -0.45593999997E+02  0.45594000000E+02  0.51100000000E-03 0. -1.
         23    2    1    2    0    0  0.00000000000E+00  0.00000000000E+00  0.00000000000E+00  0.91188000000E+02  0.91188000000E+02 0.  0.
    9900012    2    3    3    0    0  0.24117225512E+02 -0.22204480329E+02  0.16766590609E+02  0.54366836606E+02  0.39999435606E+02 0.  0.
         12    1    3    3    0    0 -0.24117225512E+02  0.22204480329E+02 -0.16766590609E+02  0.36821163394E+02  0.00000000000E+00 0. -1.
         11    1    4    4    0    0  0.15493262887E+02 -0.23462710177E+01  0.50725194590E+01  0.16470477725E+02  0.51100000000E-03 0. -1.
        -11    1    4    4    0    0  0.30704016154E+00 -0.12680467037E+02  0.20302723208E+02  0.23939279184E+02  0.51100000000E-03 0.  1.
         12    1    4    4    0    0  0.83169224631E+01 -0.71777422745E+01 -0.86086520573E+01  0.13957079697E+02  0.00000000000E+00 0. -1.
</event>
<event>
 8    1  0.2521748E-006  0.9118800E+02  0.7816164E-02  0.1184000E+00
        -11   -1    0    0    0    0  0.00000000000E+00  0.00000000000E+00  0.45593999997E+02  0.45594000000E+02  0.51100000000E-03 0. -1.
         11   -1    0    0    0    0 -0.00000000000E+00 -0.00000000000E+00 -0.45593999997E+02  0.45594000000E+02  0.51100000000E-03 0.  1.
         23    2    1    2    0    0  0.35527136788E-14  0.35527136788E-14  0.00000000000E+00  0.91188000000E+02  0.91188000000E+02 0.  0.
    9900012    2    3    3    0    0  0.21543691951E+02  0.28904319851E+02 -0.74958986267E+01  0.54367097442E+02  0.40000030239E+02 0.  0.
         12    1    3    3    0    0 -0.21543691951E+02 -0.28904319851E+02  0.74958986267E+01  0.36820902558E+02  0.00000000000E+00 0. -1.
         11    1    4    4    0    0  0.19916312856E+02  0.12060070322E+02  0.18055555806E+01  0.23353047877E+02  0.51100000000E-03 0. -1.
        -11    1    4    4    0    0  0.12748415801E+02  0.11383301151E+02 -0.66814184059E+01  0.18350558648E+02  0.51100000000E-03 0.  1.
         12    1    4    4    0    0 -0.11121036706E+02  0.54609483787E+01 -0.26200358014E+01  0.12663490917E+02  0.00000000000E+00 0. -1.
</event>
<event>
 8    1  0.2521748E-006  0.9118800E+02  0.7816164E-02  0.1184000E+00
        -11   -1    0    0    0    0  0.00000000000E+00  0.00000000000E+00  0.45593999997E+02  0.45594000000E+02  0.51100000000E-03 0. -1.
         11   -1    0    0    0    0 -0.00000000000E+00 -0.00000000000E+00 -0.45593999997E+02  0.45594000000E+02  0.51100000000E-03 0.  1.
         23    2    1    2    0    0  0.00000000000E+00  0.00000000000E+00  0.00000000000E+00  0.91188000000E+02  0.91188000000E+02 0.  0.
    9900012    2    3    3    0    0 -0.18816213679E+02 -0.17592533152E+02 -0.26310285461E+02  0.54367105918E+02  0.40000049562E+02 0.  0.
         12    1    3    3    0    0  0.18816213679E+02  0.17592533152E+02  0.26310285461E+02  0.36820894082E+02  0.00000000000E+00 0. -1.
         11    1    4    4    0    0  0.29563562056E+01 -0.22171926677E+02 -0.12017593901E+02  0.25392064469E+02  0.51100000000E-03 0. -1.
        -11    1    4    4    0    0 -0.52244513330E+01 -0.38017095487E+01 -0.21715968325E+01  0.68164301718E+01  0.51100000000E-03 0.  1.
         12    1    4    4    0    0 -0.16548118551E+02  0.83811030737E+01 -0.12121094728E+02  0.22158611277E+02  0.00000000000E+00 0. -1.
</event>
<event>
 8    1  0.2521748E-006  0.9118800E+02  0.7816164E-02  0.1184000E+00
        -11   -1    0    0    0    0  0.00000000000E+00  0.00000000000E+00  0.45593999997E+02  0.45594000000E+02  0.51100000000E-03 0.  1.
         11   -1    0    0    0    0 -0.00000000000E+00 -0.00000000000E+00 -0.45593999997E+02  0.45594000000E+02  0.51100000000E-03 0. -1.
         23    2    1    2    0    0  0.00000000000E+00 -0.35527136788E-14  0.00000000000E+00  0.91188000000E+02  0.91188000000E+02 0.  0.
    9900012    2    3    3    0    0 -0.21813180044E+02 -0.20095318132E+02  0.21820743754E+02  0.54367061766E+02  0.39999948907E+02 0.  0.
         12    1    3    3    0    0  0.21813180044E+02  0.20095318132E+02 -0.21820743754E+02  0.36820938234E+02  0.00000000000E+00 0. -1.
         11    1    4    4    0    0  0.46770492692E+01 -0.11266710728E+01 -0.50393767204E+00  0.48371614622E+01  0.51100000000E-03 0. -1.
        -11    1    4    4    0    0 -0.50341667152E+00 -0.17316383429E+02  0.13743113094E+02  0.22112976307E+02  0.51100000000E-03 0.  1.
        -12    1    4    4    0    0 -0.25986812642E+02 -0.16522636307E+01  0.85815683329E+01  0.27416923996E+02  0.00000000000E+00 0.  1.
</event>
<event>
 8    1  0.2521748E-006  0.9118800E+02  0.7816164E-02  0.1184000E+00
        -11   -1    0    0    0    0  0.00000000000E+00  0.00000000000E+00  0.45593999997E+02  0.45594000000E+02  0.51100000000E-03 0. -1.
         11   -1    0    0    0    0 -0.00000000000E+00 -0.00000000000E+00 -0.45593999997E+02  0.45594000000E+02  0.51100000000E-03 0.  1.
         23    2    1    2    0    0  0.35527136788E-14  0.00000000000E+00  0.00000000000E+00  0.91188000000E+02  0.91188000000E+02 0.  0.
    9900012    2    3    3    0    0  0.29710727225E+02  0.24428013356E+01 -0.21612188791E+02  0.54367064447E+02  0.39999955021E+02 0.  0.
         12    1    3    3    0    0 -0.29710727225E+02 -0.24428013356E+01  0.21612188791E+02  0.36820935553E+02  0.00000000000E+00 0. -1.
         11    1    4    4    0    0  0.22744283227E+02  0.37849002677E+01  0.50198205498E+01  0.23597171190E+02  0.51100000000E-03 0. -1.
        -11    1    4    4    0    0 -0.11631078123E+00  0.55297359574E+01 -0.89817971879E+01  0.10548184154E+02  0.51100000000E-03 0.  1.
        -12    1    4    4    0    0  0.70827547793E+01 -0.68718348895E+01 -0.17650212153E+02  0.20221709104E+02  0.00000000000E+00 0.  1.
</event>
<event>
 8    1  0.2521748E-006  0.9118800E+02  0.7816164E-02  0.1184000E+00
        -11   -1    0    0    0    0  0.00000000000E+00  0.00000000000E+00  0.45593999997E+02  0.45594000000E+02  0.51100000000E-03 0. -1.
         11   -1    0    0    0    0 -0.00000000000E+00 -0.00000000000E+00 -0.45593999997E+02  0.45594000000E+02  0.51100000000E-03 0.  1.
         23    2    1    2    0    0  0.00000000000E+00  0.44408920985E-15 -0.71054273576E-14  0.91188000000E+02  0.91188000000E+02 0.  0.
    9900012    2    3    3    0    0 -0.58278080103E+01 -0.31434605958E+01 -0.36220632970E+02  0.54367096379E+02  0.40000027816E+02 0.  0.
         12    1    3    3    0    0  0.58278080103E+01  0.31434605958E+01  0.36220632970E+02  0.36820903621E+02  0.00000000000E+00 0. -1.
         11    1    4    4    0    0 -0.56913516584E+01 -0.57934147463E+01 -0.20929216967E+02  0.22449660604E+02  0.51100000000E-03 0. -1.
        -11    1    4    4    0    0  0.93402512511E+01 -0.86666002656E+01 -0.10139311202E+02  0.16283607878E+02  0.51100000000E-03 0.  1.
         12    1    4    4    0    0 -0.94767076030E+01  0.11316554416E+02 -0.51521047998E+01  0.15633827897E+02  0.00000000000E+00 0. -1.
</event>
<event>
 8    1  0.2521748E-006  0.9118800E+02  0.7816164E-02  0.1184000E+00
        -11   -1    0    0    0    0  0.00000000000E+00  0.00000000000E+00  0.45593999997E+02  0.45594000000E+02  0.51100000000E-03 0. -1.
         11   -1    0    0    0    0 -0.00000000000E+00 -0.00000000000E+00 -0.45593999997E+02  0.45594000000E+02  0.51100000000E-03 0.  1.
         23    2    1    2    0    0  0.00000000000E+00  0.00000000000E+00 -0.17763568394E-14  0.91188000000E+02  0.91188000000E+02 0.  0.
    9900012    2    3    3    0    0 -0.18576627266E+02 -0.29359588015E+02  0.12194391326E+02  0.54367086530E+02  0.40000005363E+02 0.  0.
        -12    1    3    3    0    0  0.18576627266E+02  0.29359588015E+02 -0.12194391326E+02  0.36820913470E+02  0.00000000000E+00 0.  1.
         11    1    4    4    0    0  0.25654473599E+01 -0.38316116421E+01  0.58685785342E+01  0.74634430530E+01  0.51100000000E-03 0.  1.
        -11    1    4    4    0    0 -0.19478222104E+02 -0.22230480468E+02  0.18035833836E+02  0.34624943330E+02  0.51100000000E-03 0. -1.
         12    1    4    4    0    0 -0.16638525211E+01 -0.32974959040E+01 -0.11710021044E+02  0.12278700147E+02  0.00000000000E+00 0. -1.
</event>
<event>
 8    1  0.2521748E-006  0.9118800E+02  0.7816164E-02  0.1184000E+00
        -11   -1    0    0    0    0  0.00000000000E+00  0.00000000000E+00  0.45593999997E+02  0.45594000000E+02  0.51100000000E-03 0. -1.
         11   -1    0    0    0    0 -0.00000000000E+00 -0.00000000000E+00 -0.45593999997E+02  0.45594000000E+02  0.51100000000E-03 0.  1.
         23    2    1    2    0    0  0.00000000000E+00 -0.17763568394E-14  0.00000000000E+00  0.91188000000E+02  0.91188000000E+02 0.  0.
    9900012    2    3    3    0    0 -0.22547881769E+02 -0.84238956659E+01 -0.27864142260E+02  0.54367089985E+02  0.40000013239E+02 0.  0.
         12    1    3    3    0    0  0.22547881769E+02  0.84238956659E+01  0.27864142260E+02  0.36820910015E+02  0.00000000000E+00 0. -1.
         11    1    4    4    0    0  0.12690964480E+01 -0.79890954415E+00 -0.16277126016E+01  0.22132127843E+01  0.51100000000E-03 0. -1.
        -11    1    4    4    0    0 -0.31944580890E+02 -0.43364577790E+01 -0.28575833407E+02  0.43079454146E+02  0.51100000000E-03 0.  1.
        -12    1    4    4    0    0  0.81276026734E+01 -0.32885283428E+01  0.23394037489E+01  0.90744230548E+01  0.00000000000E+00 0.  1.
</event>
<event>
 8    1  0.2521748E-006  0.9118800E+02  0.7816164E-02  0.1184000E+00
        -11   -1    0    0    0    0  0.00000000000E+00  0.00000000000E+00  0.45593999997E+02  0.45594000000E+02  0.51100000000E-03 0. -1.
         11   -1    0    0    0    0 -0.00000000000E+00 -0.00000000000E+00 -0.45593999997E+02  0.45594000000E+02  0.51100000000E-03 0.  1.
         23    2    1    2    0    0  0.00000000000E+00 -0.44408920985E-15  0.35527136788E-14  0.91188000000E+02  0.91188000000E+02 0.  0.
    9900012    2    3    3    0    0 -0.30537028112E+02 -0.17835040859E+01  0.20496079815E+02  0.54367078494E+02  0.39999987043E+02 0.  0.
        -12    1    3    3    0    0  0.30537028112E+02  0.17835040859E+01 -0.20496079815E+02  0.36820921506E+02  0.00000000000E+00 0.  1.
         11    1    4    4    0    0 -0.99600673660E+01 -0.35718989052E+01  0.10530317212E+02  0.14928127296E+02  0.51100000000E-03 0. -1.
        -11    1    4    4    0    0  0.11349831527E+01  0.30429625417E+01  0.16431988558E+02  0.16749867344E+02  0.51100000000E-03 0.  1.
         12    1    4    4    0    0 -0.21711943899E+02 -0.12545677224E+01 -0.64662259556E+01  0.22689083854E+02  0.00000000000E+00 0. -1.
</event>
<event>
 8    1  0.2521748E-006  0.9118800E+02  0.7816164E-02  0.1184000E+00
        -11   -1    0    0    0    0  0.00000000000E+00  0.00000000000E+00  0.45593999997E+02  0.45594000000E+02  0.51100000000E-03 0.  1.
         11   -1    0    0    0    0 -0.00000000000E+00 -0.00000000000E+00 -0.45593999997E+02  0.45594000000E+02  0.51100000000E-03 0. -1.
         23    2    1    2    0    0  0.35527136788E-14  0.44408920985E-14 -0.35527136788E-14  0.91188000000E+02  0.91188000000E+02 0.  0.
    9900012    2    3    3    0    0 -0.17291222424E+02 -0.78264521361E+01  0.31552180238E+02  0.54367084698E+02  0.40000001186E+02 0.  0.
         12    1    3    3    0    0  0.17291222424E+02  0.78264521361E+01 -0.31552180238E+02  0.36820915302E+02  0.00000000000E+00 0. -1.
         11    1    4    4    0    0 -0.95694800486E+01  0.11014835162E+02  0.13590460564E+02  0.19939963908E+02  0.51100000000E-03 0. -1.
        -11    1    4    4    0    0 -0.28573486195E+01 -0.37124304120E+01  0.17933657300E+02  0.18535442943E+02  0.51100000000E-03 0.  1.
         12    1    4    4    0    0 -0.48643937554E+01 -0.15128856886E+02  0.28062374098E-01  0.15891677847E+02  0.00000000000E+00 0. -1.
</event>
<event>
 8    1  0.2521748E-006  0.9118800E+02  0.7816164E-02  0.1184000E+00
        -11   -1    0    0    0    0  0.00000000000E+00  0.00000000000E+00  0.45593999997E+02  0.45594000000E+02  0.51100000000E-03 0.  1.
         11   -1    0    0    0    0 -0.00000000000E+00 -0.00000000000E+00 -0.45593999997E+02  0.45594000000E+02  0.51100000000E-03 0. -1.
         23    2    1    2    0    0  0.71054273576E-14  0.17763568394E-14 -0.85348395018E-15  0.91188000000E+02  0.91188000000E+02 0.  0.
    9900012    2    3    3    0    0 -0.35850429281E+02 -0.83980179908E+01  0.19837811863E-01  0.54367076880E+02  0.39999983364E+02 0.  0.
        -12    1    3    3    0    0  0.35850429281E+02  0.83980179908E+01 -0.19837811863E-01  0.36820923120E+02  0.00000000000E+00 0.  1.
         11    1    4    4    0    0  0.36686540762E+01 -0.32935856112E+01 -0.28450334047E+01  0.56921827311E+01  0.51100000000E-03 0. -1.
        -11    1    4    4    0    0 -0.19759840560E+02  0.64434335608E+00  0.14971324452E+02  0.24799335343E+02  0.51100000000E-03 0.  1.
         12    1    4    4    0    0 -0.19759242797E+02 -0.57487757357E+01 -0.12106453236E+02  0.23875558806E+02  0.00000000000E+00 0. -1.
</event>
<event>
 8    1  0.2521748E-006  0.9118800E+02  0.7816164E-02  0.1184000E+00
        -11   -1    0    0    0    0  0.00000000000E+00  0.00000000000E+00  0.45593999997E+02  0.45594000000E+02  0.51100000000E-03 0.  1.
         11   -1    0    0    0    0 -0.00000000000E+00 -0.00000000000E+00 -0.45593999997E+02  0.45594000000E+02  0.51100000000E-03 0. -1.
         23    2    1    2    0    0  0.25535129566E-14  0.00000000000E+00  0.35527136788E-14  0.91188000000E+02  0.91188000000E+02 0.  0.
    9900012    2    3    3    0    0  0.60611423529E+00 -0.26096617710E+02 -0.25968784514E+02  0.54367101049E+02  0.40000038462E+02 0.  0.
        -12    1    3    3    0    0 -0.60611423529E+00  0.26096617710E+02  0.25968784514E+02  0.36820898951E+02  0.00000000000E+00 0.  1.
         11    1    4    4    0    0  0.10968442086E+02 -0.59193906835E+01 -0.28788380414E+02  0.31370635234E+02  0.51100000000E-03 0. -1.
        -11    1    4    4    0    0 -0.90177827779E+01 -0.16038321903E+02  0.15582949317E+01  0.18465547894E+02  0.51100000000E-03 0.  1.
         12    1    4    4    0    0 -0.13445450730E+01 -0.41389051240E+01  0.12613009677E+01  0.45309179214E+01  0.00000000000E+00 0. -1.
</event>
<event>
 8    1  0.2521748E-006  0.9118800E+02  0.7816164E-02  0.1184000E+00
        -11   -1    0    0    0    0  0.00000000000E+00  0.00000000000E+00  0.45593999997E+02  0.45594000000E+02  0.51100000000E-03 0. -1.
         11   -1    0    0    0    0 -0.00000000000E+00 -0.00000000000E+00 -0.45593999997E+02  0.45594000000E+02  0.51100000000E-03 0.  1.
         23    2    1    2    0    0  0.00000000000E+00  0.35527136788E-14 -0.35527136788E-14  0.91188000000E+02  0.91188000000E+02 0.  0.
    9900012    2    3    3    0    0  0.10280313210E+02  0.31441604619E+02 -0.16171571293E+02  0.54367094813E+02  0.40000024245E+02 0.  0.
         12    1    3    3    0    0 -0.10280313210E+02 -0.31441604619E+02  0.16171571293E+02  0.36820905187E+02  0.00000000000E+00 0. -1.
         11    1    4    4    0    0 -0.19291977046E+01 -0.25421538942E+01  0.94854594720E+01  0.10007911463E+02  0.51100000000E-03 0. -1.
        -11    1    4    4    0    0  0.56321746440E+01  0.18791433244E+02 -0.14529566207E+02  0.24412039018E+02  0.51100000000E-03 0.  1.
         12    1    4    4    0    0  0.65773362703E+01  0.15192325269E+02 -0.11127464558E+02  0.19947144331E+02  0.00000000000E+00 0. -1.
</event>
<event>
 8    1  0.2521748E-006  0.9118800E+02  0.7816164E-02  0.1184000E+00
        -11   -1    0    0    0    0  0.00000000000E+00  0.00000000000E+00  0.45593999997E+02  0.45594000000E+02  0.51100000000E-03 0.  1.
         11   -1    0    0    0    0 -0.00000000000E+00 -0.00000000000E+00 -0.45593999997E+02  0.45594000000E+02  0.51100000000E-03 0. -1.
         23    2    1    2    0    0 -0.71054273576E-14 -0.71054273576E-14  0.26645352591E-14  0.91188000000E+02  0.91188000000E+02 0.  0.
    9900012    2    3    3    0    0 -0.16689917720E+02 -0.32578372724E+02  0.39840484285E+01  0.54367131396E+02  0.40000107644E+02 0.  0.
         12    1    3    3    0    0  0.16689917720E+02  0.32578372724E+02 -0.39840484285E+01  0.36820868604E+02  0.00000000000E+00 0. -1.
         11    1    4    4    0    0  0.42507746445E+01  0.65376821530E+00 -0.12226682920E+01  0.44711761284E+01  0.51100000000E-03 0. -1.
        -11    1    4    4    0    0 -0.35561569040E+01 -0.16233344814E+02 -0.11663021961E+02  0.20302556916E+02  0.51100000000E-03 0.  1.
         12    1    4    4    0    0 -0.17384535461E+02 -0.16998796125E+02  0.16869738681E+02  0.29593398353E+02  0.00000000000E+00 0. -1.
</event>
<event>
 8    1  0.2521748E-006  0.9118800E+02  0.7816164E-02  0.1184000E+00
        -11   -1    0    0    0    0  0.00000000000E+00  0.00000000000E+00  0.45593999997E+02  0.45594000000E+02  0.51100000000E-03 0.  1.
         11   -1    0    0    0    0 -0.00000000000E+00 -0.00000000000E+00 -0.45593999997E+02  0.45594000000E+02  0.51100000000E-03 0. -1.
         23    2    1    2    0    0  0.35527136788E-14  0.00000000000E+00 -0.71054273576E-14  0.91188000000E+02  0.91188000000E+02 0.  0.
    9900012    2    3    3    0    0 -0.17556558739E+02 -0.90239715826E+01  0.31082309016E+02  0.54367153300E+02  0.40000157579E+02 0.  0.
         12    1    3    3    0    0  0.17556558739E+02  0.90239715826E+01 -0.31082309016E+02  0.36820846700E+02  0.00000000000E+00 0. -1.
         11    1    4    4    0    0 -0.28084163156E-01  0.18446683075E+01  0.21935091629E+02  0.22012538130E+02  0.51100000000E-03 0. -1.
        -11    1    4    4    0    0  0.55001785376E+01 -0.36617625434E+01  0.17316170102E+00  0.66098754985E+01  0.51100000000E-03 0.  1.
        -12    1    4    4    0    0 -0.23028653114E+02 -0.72068773467E+01  0.89740556864E+01  0.25744739672E+02  0.00000000000E+00 0.  1.
</event>
<event>
 8    1  0.2521748E-006  0.9118800E+02  0.7816164E-02  0.1184000E+00
        -11   -1    0    0    0    0  0.00000000000E+00  0.00000000000E+00  0.45593999997E+02  0.45594000000E+02  0.51100000000E-03 0.  1.
         11   -1    0    0    0    0 -0.00000000000E+00 -0.00000000000E+00 -0.45593999997E+02  0.45594000000E+02  0.51100000000E-03 0. -1.
         23    2    1    2    0    0 -0.17763568394E-14  0.17763568394E-14 -0.35527136788E-14  0.91188000000E+02  0.91188000000E+02 0.  0.
    9900012    2    3    3    0    0  0.12034079988E+02 -0.14089463215E+02 -0.31818990920E+02  0.54367078800E+02  0.39999987740E+02 0.  0.
        -12    1    3    3    0    0 -0.12034079988E+02  0.14089463215E+02  0.31818990920E+02  0.36820921200E+02  0.00000000000E+00 0.  1.
         11    1    4    4    0    0 -0.15068897312E+01 -0.19100993910E+02 -0.12180711770E+02  0.22704370163E+02  0.51100000000E-03 0. -1.
        -11    1    4    4    0    0  0.13209576627E+02  0.81324165556E+01 -0.22557533140E+02  0.27376475583E+02  0.51100000000E-03 0.  1.
         12    1    4    4    0    0  0.33139309260E+00 -0.31208858600E+01  0.29192539904E+01  0.42862330540E+01  0.00000000000E+00 0. -1.
</event>
<event>
 8    1  0.2521748E-006  0.9118800E+02  0.7816164E-02  0.1184000E+00
        -11   -1    0    0    0    0  0.00000000000E+00  0.00000000000E+00  0.45593999997E+02  0.45594000000E+02  0.51100000000E-03 0.  1.
         11   -1    0    0    0    0 -0.00000000000E+00 -0.00000000000E+00 -0.45593999997E+02  0.45594000000E+02  0.51100000000E-03 0. -1.
         23    2    1    2    0    0  0.88817841970E-15 -0.35527136788E-14  0.00000000000E+00  0.91188000000E+02  0.91188000000E+02 0.  0.
    9900012    2    3    3    0    0  0.41369281856E+01 -0.27523827911E+02  0.24106105868E+02  0.54367087222E+02  0.40000006940E+02 0.  0.
         12    1    3    3    0    0 -0.41369281856E+01  0.27523827911E+02 -0.24106105868E+02  0.36820912778E+02  0.00000000000E+00 0. -1.
         11    1    4    4    0    0 -0.12717202332E+02 -0.19688452100E+02  0.97872072475E+01  0.25399838724E+02  0.51100000000E-03 0.  1.
        -11    1    4    4    0    0  0.28402441292E+01 -0.42580601565E+01 -0.33623654494E+01  0.61240154055E+01  0.51100000000E-03 0. -1.
         12    1    4    4    0    0  0.14013886388E+02 -0.35773156544E+01  0.17681264070E+02  0.22843233092E+02  0.00000000000E+00 0. -1.
</event>
<event>
 8    1  0.2521748E-006  0.9118800E+02  0.7816164E-02  0.1184000E+00
        -11   -1    0    0    0    0  0.00000000000E+00  0.00000000000E+00  0.45593999997E+02  0.45594000000E+02  0.51100000000E-03 0.  1.
         11   -1    0    0    0    0 -0.00000000000E+00 -0.00000000000E+00 -0.45593999997E+02  0.45594000000E+02  0.51100000000E-03 0. -1.
         23    2    1    2    0    0  0.35527136788E-14  0.00000000000E+00 -0.35527136788E-14  0.91188000000E+02  0.91188000000E+02 0.  0.
    9900012    2    3    3    0    0  0.13604202133E+02  0.28177048240E+02 -0.19410333589E+02  0.54367062842E+02  0.39999951360E+02 0.  0.
         12    1    3    3    0    0 -0.13604202133E+02 -0.28177048240E+02  0.19410333589E+02  0.36820937158E+02  0.00000000000E+00 0. -1.
         11    1    4    4    0    0 -0.42192593144E+01  0.71207855019E+01 -0.11513612906E+02  0.14179951260E+02  0.51100000000E-03 0. -1.
        -11    1    4    4    0    0 -0.58789653185E+01 -0.21043223499E+01 -0.78660865288E+00  0.62935807933E+01  0.51100000000E-03 0.  1.
        -12    1    4    4    0    0  0.23702426766E+02  0.23160585088E+02 -0.71101120301E+01  0.33893530788E+02  0.00000000000E+00 0.  1.
</event>
<event>
 8    1  0.2521748E-006  0.9118800E+02  0.7816164E-02  0.1184000E+00
        -11   -1    0    0    0    0  0.00000000000E+00  0.00000000000E+00  0.45593999997E+02  0.45594000000E+02  0.51100000000E-03 0. -1.
         11   -1    0    0    0    0 -0.00000000000E+00 -0.00000000000E+00 -0.45593999997E+02  0.45594000000E+02  0.51100000000E-03 0.  1.
         23    2    1    2    0    0  0.00000000000E+00  0.53290705182E-14  0.00000000000E+00  0.91188000000E+02  0.91188000000E+02 0.  0.
    9900012    2    3    3    0    0  0.33561991078E+02  0.11896589778E+02  0.93724624065E+01  0.54367093642E+02  0.40000021575E+02 0.  0.
        -12    1    3    3    0    0 -0.33561991078E+02 -0.11896589778E+02 -0.93724624065E+01  0.36820906358E+02  0.00000000000E+00 0.  1.
         11    1    4    4    0    0  0.11507125452E+02  0.77967830704E+01  0.18880843092E+01  0.14027424034E+02  0.51100000000E-03 0. -1.
        -11    1    4    4    0    0 -0.46874091958E+01 -0.50031359529E+01 -0.59324767518E+01  0.90662812113E+01  0.51100000000E-03 0.  1.
        -12    1    4    4    0    0  0.26742274823E+02  0.91029426604E+01  0.13416854849E+02  0.31273388397E+02  0.00000000000E+00 0.  1.
</event>
<event>
 8    1  0.2521748E-006  0.9118800E+02  0.7816164E-02  0.1184000E+00
        -11   -1    0    0    0    0  0.00000000000E+00  0.00000000000E+00  0.45593999997E+02  0.45594000000E+02  0.51100000000E-03 0.  1.
         11   -1    0    0    0    0 -0.00000000000E+00 -0.00000000000E+00 -0.45593999997E+02  0.45594000000E+02  0.51100000000E-03 0. -1.
         23    2    1    2    0    0  0.00000000000E+00 -0.88817841970E-15  0.88817841970E-15  0.91188000000E+02  0.91188000000E+02 0.  0.
    9900012    2    3    3    0    0 -0.35869174101E+02  0.38631030191E+01  0.73657979928E+01  0.54367133691E+02  0.40000112876E+02 0.  0.
         12    1    3    3    0    0  0.35869174101E+02 -0.38631030191E+01 -0.73657979928E+01  0.36820866309E+02  0.00000000000E+00 0. -1.
         11    1    4    4    0    0 -0.10492764364E+02  0.11552019377E+02  0.93069413515E+00  0.15633727883E+02  0.51100000000E-03 0. -1.
        -11    1    4    4    0    0 -0.11783301184E+02 -0.17514980193E+02  0.11229857579E+01  0.21139579353E+02  0.51100000000E-03 0.  1.
        -12    1    4    4    0    0 -0.13593108553E+02  0.98260638345E+01  0.53121180998E+01  0.17593826455E+02  0.00000000000E+00 0.  1.
</event>
<event>
 8    1  0.2521748E-006  0.9118800E+02  0.7816164E-02  0.1184000E+00
        -11   -1    0    0    0    0  0.00000000000E+00  0.00000000000E+00  0.45593999997E+02  0.45594000000E+02  0.51100000000E-03 0. -1.
         11   -1    0    0    0    0 -0.00000000000E+00 -0.00000000000E+00 -0.45593999997E+02  0.45594000000E+02  0.51100000000E-03 0.  1.
         23    2    1    2    0    0 -0.88817841970E-15  0.00000000000E+00  0.00000000000E+00  0.91188000000E+02  0.91188000000E+02 0.  0.
    9900012    2    3    3    0    0 -0.73795756398E+01  0.18878855195E+02 -0.30739390777E+02  0.54367089427E+02  0.40000011966E+02 0.  0.
         12    1    3    3    0    0  0.73795756398E+01 -0.18878855195E+02  0.30739390777E+02  0.36820910573E+02  0.00000000000E+00 0. -1.
         11    1    4    4    0    0  0.35070819975E+01  0.13850211714E+02 -0.36841371120E+01  0.14754689261E+02  0.51100000000E-03 0. -1.
        -11    1    4    4    0    0 -0.56034433481E+00 -0.10160036156E+02 -0.12864772977E+02  0.16402521284E+02  0.51100000000E-03 0.  1.
        -12    1    4    4    0    0 -0.10326313302E+02  0.15188679637E+02 -0.14190480688E+02  0.23209878882E+02  0.00000000000E+00 0.  1.
</event>
<event>
 8    1  0.2521748E-006  0.9118800E+02  0.7816164E-02  0.1184000E+00
        -11   -1    0    0    0    0  0.00000000000E+00  0.00000000000E+00  0.45593999997E+02  0.45594000000E+02  0.51100000000E-03 0. -1.
         11   -1    0    0    0    0 -0.00000000000E+00 -0.00000000000E+00 -0.45593999997E+02  0.45594000000E+02  0.51100000000E-03 0.  1.
         23    2    1    2    0    0 -0.71054273576E-14 -0.35527136788E-14 -0.35527136788E-14  0.91188000000E+02  0.91188000000E+02 0.  0.
    9900012    2    3    3    0    0 -0.18621345270E+02  0.22493833110E+02 -0.22428796398E+02  0.54367110067E+02  0.40000059020E+02 0.  0.
         12    1    3    3    0    0  0.18621345270E+02 -0.22493833110E+02  0.22428796398E+02  0.36820889933E+02  0.00000000000E+00 0. -1.
         11    1    4    4    0    0 -0.17619186778E+02  0.14568591308E+02 -0.42052973073E+01  0.23245733396E+02  0.51100000000E-03 0. -1.
        -11    1    4    4    0    0  0.13289230065E+01 -0.30003449523E+01 -0.19593319328E+02  0.19866209219E+02  0.51100000000E-03 0.  1.
        -12    1    4    4    0    0 -0.23310814981E+01  0.10925586754E+02  0.13698202379E+01  0.11255167452E+02  0.00000000000E+00 0.  1.
</event>
<event>
 8    1  0.2521748E-006  0.9118800E+02  0.7816164E-02  0.1184000E+00
        -11   -1    0    0    0    0  0.00000000000E+00  0.00000000000E+00  0.45593999997E+02  0.45594000000E+02  0.51100000000E-03 0. -1.
         11   -1    0    0    0    0 -0.00000000000E+00 -0.00000000000E+00 -0.45593999997E+02  0.45594000000E+02  0.51100000000E-03 0.  1.
         23    2    1    2    0    0  0.17763568394E-14  0.17763568394E-14 -0.71054273576E-14  0.91188000000E+02  0.91188000000E+02 0.  0.
    9900012    2    3    3    0    0 -0.15815372755E+02  0.36569814377E+01  0.33049627258E+02  0.54367117467E+02  0.40000075890E+02 0.  0.
        -12    1    3    3    0    0  0.15815372755E+02 -0.36569814377E+01 -0.33049627258E+02  0.36820882533E+02  0.00000000000E+00 0.  1.
         11    1    4    4    0    0 -0.16991130006E+01 -0.67191859207E+01  0.12859246680E+02  0.14608034429E+02  0.51100000000E-03 0. -1.
        -11    1    4    4    0    0 -0.14626937720E+02 -0.64436668957E+01  0.15558886373E+02  0.22305763730E+02  0.51100000000E-03 0.  1.
        -12    1    4    4    0    0  0.51067796594E+00  0.16819834254E+02  0.46314942044E+01  0.17453319309E+02  0.00000000000E+00 0.  1.
</event>
<event>
 8    1  0.2521748E-006  0.9118800E+02  0.7816164E-02  0.1184000E+00
        -11   -1    0    0    0    0  0.00000000000E+00  0.00000000000E+00  0.45593999997E+02  0.45594000000E+02  0.51100000000E-03 0. -1.
         11   -1    0    0    0    0 -0.00000000000E+00 -0.00000000000E+00 -0.45593999997E+02  0.45594000000E+02  0.51100000000E-03 0.  1.
         23    2    1    2    0    0  0.00000000000E+00  0.00000000000E+00 -0.71054273576E-14  0.91188000000E+02  0.91188000000E+02 0.  0.
    9900012    2    3    3    0    0 -0.63006831427E+01 -0.13489151224E+02 -0.33676742916E+02  0.54367098025E+02  0.40000031569E+02 0.  0.
         12    1    3    3    0    0  0.63006831427E+01  0.13489151224E+02  0.33676742916E+02  0.36820901975E+02  0.00000000000E+00 0. -1.
         11    1    4    4    0    0 -0.69543217707E+00  0.23159494275E+01  0.28149117729E+01  0.37109265978E+01  0.51100000000E-03 0. -1.
        -11    1    4    4    0    0 -0.95349075156E+01 -0.18637611826E+02 -0.39675097896E+02  0.44859652575E+02  0.51100000000E-03 0.  1.
        -12    1    4    4    0    0  0.39296565500E+01  0.28325111747E+01  0.31834432068E+01  0.57965188524E+01  0.00000000000E+00 0.  1.
</event>
<event>
 8    1  0.2521748E-006  0.9118800E+02  0.7816164E-02  0.1184000E+00
        -11   -1    0    0    0    0  0.00000000000E+00  0.00000000000E+00  0.45593999997E+02  0.45594000000E+02  0.51100000000E-03 0. -1.
         11   -1    0    0    0    0 -0.00000000000E+00 -0.00000000000E+00 -0.45593999997E+02  0.45594000000E+02  0.51100000000E-03 0.  1.
         23    2    1    2    0    0  0.00000000000E+00 -0.35527136788E-14  0.17763568394E-14  0.91188000000E+02  0.91188000000E+02 0.  0.
    9900012    2    3    3    0    0  0.27213922099E+02 -0.20804713316E+02 -0.13503174451E+02  0.54367226347E+02  0.40000324102E+02 0.  0.
         12    1    3    3    0    0 -0.27213922099E+02  0.20804713316E+02  0.13503174451E+02  0.36820773653E+02  0.00000000000E+00 0. -1.
         11    1    4    4    0    0  0.58335695715E+01  0.41148930461E+01 -0.15325369168E+01  0.73014757679E+01  0.51100000000E-03 0. -1.
        -11    1    4    4    0    0  0.14589339005E+02  0.44305420382E+01 -0.58101814566E+01  0.16316762062E+02  0.51100000000E-03 0.  1.
        -12    1    4    4    0    0  0.67910135224E+01 -0.29350148400E+02 -0.61604560781E+01  0.30748988517E+02  0.00000000000E+00 0.  1.
</event>
<event>
 8    1  0.2521748E-006  0.9118800E+02  0.7816164E-02  0.1184000E+00
        -11   -1    0    0    0    0  0.00000000000E+00  0.00000000000E+00  0.45593999997E+02  0.45594000000E+02  0.51100000000E-03 0. -1.
         11   -1    0    0    0    0 -0.00000000000E+00 -0.00000000000E+00 -0.45593999997E+02  0.45594000000E+02  0.51100000000E-03 0.  1.
         23    2    1    2    0    0  0.00000000000E+00  0.88817841970E-15  0.00000000000E+00  0.91188000000E+02  0.91188000000E+02 0.  0.
    9900012    2    3    3    0    0 -0.29263273769E+02  0.63560200182E+01  0.21425288581E+02  0.54367066105E+02  0.39999958799E+02 0.  0.
        -12    1    3    3    0    0  0.29263273769E+02 -0.63560200182E+01 -0.21425288581E+02  0.36820933895E+02  0.00000000000E+00 0.  1.
         11    1    4    4    0    0 -0.21885175625E+01 -0.12507601664E+01  0.15588249002E+02  0.15790741506E+02  0.51100000000E-03 0. -1.
        -11    1    4    4    0    0 -0.27627728499E+02  0.13274789516E+02  0.91497922574E+01  0.31987968321E+02  0.51100000000E-03 0.  1.
        -12    1    4    4    0    0  0.55297229266E+00 -0.56680093312E+01 -0.33127526783E+01  0.65883562777E+01  0.00000000000E+00 0.  1.
</event>
<event>
 8    1  0.2521748E-006  0.9118800E+02  0.7816164E-02  0.1184000E+00
        -11   -1    0    0    0    0  0.00000000000E+00  0.00000000000E+00  0.45593999997E+02  0.45594000000E+02  0.51100000000E-03 0. -1.
         11   -1    0    0    0    0 -0.00000000000E+00 -0.00000000000E+00 -0.45593999997E+02  0.45594000000E+02  0.51100000000E-03 0.  1.
         23    2    1    2    0    0  0.00000000000E+00 -0.88817841970E-15  0.00000000000E+00  0.91188000000E+02  0.91188000000E+02 0.  0.
    9900012    2    3    3    0    0 -0.19102872751E+02  0.53084954690E+01  0.31027089553E+02  0.54367079892E+02  0.39999990229E+02 0.  0.
        -12    1    3    3    0    0  0.19102872751E+02 -0.53084954690E+01 -0.31027089553E+02  0.36820920108E+02  0.00000000000E+00 0.  1.
         11    1    4    4    0    0  0.17677319227E+01 -0.51339849005E+01  0.52505662926E+01  0.75532194304E+01  0.51100000000E-03 0. -1.
        -11    1    4    4    0    0  0.14085437092E+01 -0.39141308543E+01 -0.47982654238E+01  0.63504147159E+01  0.51100000000E-03 0.  1.
         12    1    4    4    0    0 -0.22279148383E+02  0.14356611224E+02  0.30574788684E+02  0.40463445745E+02  0.00000000000E+00 0. -1.
</event>
<event>
 8    1  0.2521748E-006  0.9118800E+02  0.7816164E-02  0.1184000E+00
        -11   -1    0    0    0    0  0.00000000000E+00  0.00000000000E+00  0.45593999997E+02  0.45594000000E+02  0.51100000000E-03 0.  1.
         11   -1    0    0    0    0 -0.00000000000E+00 -0.00000000000E+00 -0.45593999997E+02  0.45594000000E+02  0.51100000000E-03 0. -1.
         23    2    1    2    0    0  0.35527136788E-14 -0.17763568394E-14 -0.17763568394E-14  0.91188000000E+02  0.91188000000E+02 0.  0.
    9900012    2    3    3    0    0 -0.31055422797E+02  0.15390012364E+02  0.12429387518E+02  0.54367062481E+02  0.39999950538E+02 0.  0.
         12    1    3    3    0    0  0.31055422797E+02 -0.15390012364E+02 -0.12429387518E+02  0.36820937519E+02  0.00000000000E+00 0. -1.
         11    1    4    4    0    0 -0.47787898000E+01 -0.12017615987E+02  0.55471292988E+01  0.14072333484E+02  0.51100000000E-03 0. -1.
        -11    1    4    4    0    0 -0.21094185100E+02  0.24110720824E+02  0.14074711678E+01  0.32066687996E+02  0.51100000000E-03 0.  1.
        -12    1    4    4    0    0 -0.51824478975E+01  0.32969075278E+01  0.54747870514E+01  0.82280410011E+01  0.00000000000E+00 0.  1.
</event>
<event>
 8    1  0.2521748E-006  0.9118800E+02  0.7816164E-02  0.1184000E+00
        -11   -1    0    0    0    0  0.00000000000E+00  0.00000000000E+00  0.45593999997E+02  0.45594000000E+02  0.51100000000E-03 0.  1.
         11   -1    0    0    0    0 -0.00000000000E+00 -0.00000000000E+00 -0.45593999997E+02  0.45594000000E+02  0.51100000000E-03 0. -1.
         23    2    1    2    0    0 -0.88817841970E-15  0.00000000000E+00  0.00000000000E+00  0.91188000000E+02  0.91188000000E+02 0.  0.
    9900012    2    3    3    0    0 -0.45466448377E+01  0.21440789618E+02  0.29587159734E+02  0.54367089367E+02  0.40000011830E+02 0.  0.
         12    1    3    3    0    0  0.45466448377E+01 -0.21440789618E+02 -0.29587159734E+02  0.36820910633E+02  0.00000000000E+00 0. -1.
         11    1    4    4    0    0  0.18135863969E+01 -0.22762611342E+01  0.15887861888E+02  0.16152232539E+02  0.51100000000E-03 0. -1.
        -11    1    4    4    0    0 -0.11886936092E+02  0.17100030164E+01  0.90885887328E+01  0.15060737213E+02  0.51100000000E-03 0.  1.
        -12    1    4    4    0    0  0.55267048576E+01  0.22007047735E+02  0.46107091135E+01  0.23154119615E+02  0.00000000000E+00 0.  1.
</event>
<event>
 8    1  0.2521748E-006  0.9118800E+02  0.7816164E-02  0.1184000E+00
        -11   -1    0    0    0    0  0.00000000000E+00  0.00000000000E+00  0.45593999997E+02  0.45594000000E+02  0.51100000000E-03 0. -1.
         11   -1    0    0    0    0 -0.00000000000E+00 -0.00000000000E+00 -0.45593999997E+02  0.45594000000E+02  0.51100000000E-03 0.  1.
         23    2    1    2    0    0  0.00000000000E+00  0.00000000000E+00  0.00000000000E+00  0.91188000000E+02  0.91188000000E+02 0.  0.
    9900012    2    3    3    0    0 -0.19696452125E+02 -0.17578933204E+02 -0.25667308996E+02  0.54367083797E+02  0.39999999133E+02 0.  0.
         12    1    3    3    0    0  0.19696452125E+02  0.17578933204E+02  0.25667308996E+02  0.36820916203E+02  0.00000000000E+00 0. -1.
         11    1    4    4    0    0 -0.16813195050E+02 -0.19173280836E+02 -0.28037496886E+02  0.37899860919E+02  0.51100000000E-03 0. -1.
        -11    1    4    4    0    0  0.39689867843E+01  0.71625846857E+00 -0.49612774602E+01  0.63937591905E+01  0.51100000000E-03 0.  1.
         12    1    4    4    0    0 -0.68522438592E+01  0.87808916310E+00  0.73314653504E+01  0.10073463688E+02  0.00000000000E+00 0. -1.
</event>
<event>
 8    1  0.2521748E-006  0.9118800E+02  0.7816164E-02  0.1184000E+00
        -11   -1    0    0    0    0  0.00000000000E+00  0.00000000000E+00  0.45593999997E+02  0.45594000000E+02  0.51100000000E-03 0. -1.
         11   -1    0    0    0    0 -0.00000000000E+00 -0.00000000000E+00 -0.45593999997E+02  0.45594000000E+02  0.51100000000E-03 0.  1.
         23    2    1    2    0    0 -0.35527136788E-14  0.00000000000E+00  0.00000000000E+00  0.91188000000E+02  0.91188000000E+02 0.  0.
    9900012    2    3    3    0    0 -0.31529574275E+02  0.16542784862E+02 -0.93809224178E+01  0.54367088952E+02  0.40000010884E+02 0.  0.
         12    1    3    3    0    0  0.31529574275E+02 -0.16542784862E+02  0.93809224178E+01  0.36820911048E+02  0.00000000000E+00 0. -1.
         11    1    4    4    0    0  0.31851457213E+01  0.39541198110E+01  0.29166346129E+01  0.58555080456E+01  0.51100000000E-03 0. -1.
        -11    1    4    4    0    0 -0.12924918294E+02  0.19342064610E+02 -0.16069692597E+01  0.23318476081E+02  0.51100000000E-03 0.  1.
         12    1    4    4    0    0 -0.21789801703E+02 -0.67533995591E+01 -0.10690587771E+02  0.25193104825E+02  0.00000000000E+00 0. -1.
</event>
<event>
 8    1  0.2521748E-006  0.9118800E+02  0.7816164E-02  0.1184000E+00
        -11   -1    0    0    0    0  0.00000000000E+00  0.00000000000E+00  0.45593999997E+02  0.45594000000E+02  0.51100000000E-03 0. -1.
         11   -1    0    0    0    0 -0.00000000000E+00 -0.00000000000E+00 -0.45593999997E+02  0.45594000000E+02  0.51100000000E-03 0.  1.
         23    2    1    2    0    0  0.00000000000E+00 -0.44408920985E-15  0.00000000000E+00  0.91188000000E+02  0.91188000000E+02 0.  0.
    9900012    2    3    3    0    0  0.14097632239E+02 -0.24139383260E+01 -0.33929502236E+02  0.54367062274E+02  0.39999950067E+02 0.  0.
         12    1    3    3    0    0 -0.14097632239E+02  0.24139383260E+01  0.33929502236E+02  0.36820937726E+02  0.00000000000E+00 0. -1.
         11    1    4    4    0    0  0.14122963725E+02 -0.43544558808E+01 -0.42996879942E+01  0.15391774021E+02  0.51100000000E-03 0. -1.
        -11    1    4    4    0    0 -0.51643877434E+01  0.10854653858E+00 -0.32432781036E+02  0.32841558567E+02  0.51100000000E-03 0.  1.
        -12    1    4    4    0    0  0.51390562577E+01  0.18319710162E+01  0.28029667939E+01  0.61337296869E+01  0.00000000000E+00 0.  1.
</event>
<event>
 8    1  0.2521748E-006  0.9118800E+02  0.7816164E-02  0.1184000E+00
        -11   -1    0    0    0    0  0.00000000000E+00  0.00000000000E+00  0.45593999997E+02  0.45594000000E+02  0.51100000000E-03 0.  1.
         11   -1    0    0    0    0 -0.00000000000E+00 -0.00000000000E+00 -0.45593999997E+02  0.45594000000E+02  0.51100000000E-03 0. -1.
         23    2    1    2    0    0  0.00000000000E+00 -0.17763568394E-14 -0.88817841970E-15  0.91188000000E+02  0.91188000000E+02 0.  0.
    9900012    2    3    3    0    0 -0.35296121014E+02  0.99260628601E+01  0.33819008746E+01  0.54367080184E+02  0.39999990896E+02 0.  0.
        -12    1    3    3    0    0  0.35296121014E+02 -0.99260628601E+01 -0.33819008746E+01  0.36820919816E+02  0.00000000000E+00 0.  1.
         11    1    4    4    0    0 -0.18853121626E+02 -0.11993848049E+02 -0.74174899178E+01  0.23543826006E+02  0.51100000000E-03 0. -1.
        -11    1    4    4    0    0 -0.55159118310E+01  0.90991466954E+01 -0.30873726700E+00  0.10644955278E+02  0.51100000000E-03 0.  1.
         12    1    4    4    0    0 -0.10927087557E+02  0.12820764214E+02  0.11108128059E+02  0.20178298900E+02  0.00000000000E+00 0. -1.
</event>
<event>
 8    1  0.2521748E-006  0.9118800E+02  0.7816164E-02  0.1184000E+00
        -11   -1    0    0    0    0  0.00000000000E+00  0.00000000000E+00  0.45593999997E+02  0.45594000000E+02  0.51100000000E-03 0.  1.
         11   -1    0    0    0    0 -0.00000000000E+00 -0.00000000000E+00 -0.45593999997E+02  0.45594000000E+02  0.51100000000E-03 0. -1.
         23    2    1    2    0    0  0.00000000000E+00  0.00000000000E+00 -0.19984014443E-14  0.91188000000E+02  0.91188000000E+02 0.  0.
    9900012    2    3    3    0    0 -0.27561706668E+02  0.24408173805E+02  0.61101171762E+00  0.54367082599E+02  0.39999996402E+02 0.  0.
        -12    1    3    3    0    0  0.27561706668E+02 -0.24408173805E+02 -0.61101171762E+00  0.36820917401E+02  0.00000000000E+00 0.  1.
         11    1    4    4    0    0 -0.18672743395E+02  0.17095685920E+02  0.14124542673E+02  0.28990283354E+02  0.51100000000E-03 0.  1.
        -11    1    4    4    0    0 -0.27463838322E+01  0.12403198237E+02 -0.11530446034E+02  0.17156139911E+02  0.51100000000E-03 0. -1.
         12    1    4    4    0    0 -0.61425794408E+01 -0.50907103526E+01 -0.19830849218E+01  0.82206593341E+01  0.00000000000E+00 0. -1.
</event>
<event>
 8    1  0.2521748E-006  0.9118800E+02  0.7816164E-02  0.1184000E+00
        -11   -1    0    0    0    0  0.00000000000E+00  0.00000000000E+00  0.45593999997E+02  0.45594000000E+02  0.51100000000E-03 0. -1.
         11   -1    0    0    0    0 -0.00000000000E+00 -0.00000000000E+00 -0.45593999997E+02  0.45594000000E+02  0.51100000000E-03 0.  1.
         23    2    1    2    0    0  0.35527136788E-14  0.00000000000E+00  0.00000000000E+00  0.91188000000E+02  0.91188000000E+02 0.  0.
    9900012    2    3    3    0    0 -0.17103760398E+02 -0.21343006166E+02  0.24651919237E+02  0.54367086730E+02  0.40000005819E+02 0.  0.
        -12    1    3    3    0    0  0.17103760398E+02  0.21343006166E+02 -0.24651919237E+02  0.36820913270E+02  0.00000000000E+00 0.  1.
         11    1    4    4    0    0 -0.13842423611E+02 -0.63931792079E+01 -0.27319534890E+01  0.15490287342E+02  0.51100000000E-03 0. -1.
        -11    1    4    4    0    0  0.45131260475E+00  0.48213632699E+01  0.13743323917E+02  0.14571485147E+02  0.51100000000E-03 0.  1.
        -12    1    4    4    0    0 -0.37126493915E+01 -0.19771190228E+02  0.13640548809E+02  0.24305314241E+02  0.00000000000E+00 0.  1.
</event>
<event>
 8    1  0.2521748E-006  0.9118800E+02  0.7816164E-02  0.1184000E+00
        -11   -1    0    0    0    0  0.00000000000E+00  0.00000000000E+00  0.45593999997E+02  0.45594000000E+02  0.51100000000E-03 0.  1.
         11   -1    0    0    0    0 -0.00000000000E+00 -0.00000000000E+00 -0.45593999997E+02  0.45594000000E+02  0.51100000000E-03 0. -1.
         23    2    1    2    0    0  0.00000000000E+00  0.00000000000E+00  0.00000000000E+00  0.91188000000E+02  0.91188000000E+02 0.  0.
    9900012    2    3    3    0    0 -0.16577073793E+02  0.21500130097E+02 -0.24874345158E+02  0.54366973171E+02  0.39999746938E+02 0.  0.
        -12    1    3    3    0    0  0.16577073793E+02 -0.21500130097E+02  0.24874345158E+02  0.36821026829E+02  0.00000000000E+00 0.  1.
         11    1    4    4    0    0  0.68237028258E-01  0.33772183099E+01 -0.19717692199E+02  0.20004940533E+02  0.51100000000E-03 0. -1.
        -11    1    4    4    0    0 -0.65975069288E+01  0.20009729349E+02  0.30021106316E+01  0.21282129470E+02  0.51100000000E-03 0.  1.
        -12    1    4    4    0    0 -0.10047803892E+02 -0.18868175618E+01 -0.81587635905E+01  0.13079903168E+02  0.00000000000E+00 0.  1.
</event>
<event>
 8    1  0.2521748E-006  0.9118800E+02  0.7816164E-02  0.1184000E+00
        -11   -1    0    0    0    0  0.00000000000E+00  0.00000000000E+00  0.45593999997E+02  0.45594000000E+02  0.51100000000E-03 0.  1.
         11   -1    0    0    0    0 -0.00000000000E+00 -0.00000000000E+00 -0.45593999997E+02  0.45594000000E+02  0.51100000000E-03 0. -1.
         23    2    1    2    0    0 -0.35527136788E-14 -0.35527136788E-14  0.35527136788E-14  0.91188000000E+02  0.91188000000E+02 0.  0.
    9900012    2    3    3    0    0 -0.30506244489E+02  0.18882507647E+02 -0.82824884020E+01  0.54367086622E+02  0.40000005572E+02 0.  0.
         12    1    3    3    0    0  0.30506244489E+02 -0.18882507647E+02  0.82824884020E+01  0.36820913378E+02  0.00000000000E+00 0. -1.
         11    1    4    4    0    0 -0.25950448461E+01 -0.23737992775E+01  0.78879434430E+01  0.86364826627E+01  0.51100000000E-03 0.  1.
        -11    1    4    4    0    0 -0.70858645376E+01 -0.40399848088E+01 -0.90814799066E+01  0.12206728925E+02  0.51100000000E-03 0. -1.
         12    1    4    4    0    0 -0.20825335105E+02  0.25296291733E+02 -0.70889519384E+01  0.33523875034E+02  0.00000000000E+00 0. -1.
</event>
<event>
 8    1  0.2521748E-006  0.9118800E+02  0.7816164E-02  0.1184000E+00
        -11   -1    0    0    0    0  0.00000000000E+00  0.00000000000E+00  0.45593999997E+02  0.45594000000E+02  0.51100000000E-03 0. -1.
         11   -1    0    0    0    0 -0.00000000000E+00 -0.00000000000E+00 -0.45593999997E+02  0.45594000000E+02  0.51100000000E-03 0.  1.
         23    2    1    2    0    0  0.00000000000E+00  0.00000000000E+00  0.35527136788E-14  0.91188000000E+02  0.91188000000E+02 0.  0.
    9900012    2    3    3    0    0 -0.25410463348E+02 -0.14937017874E+02  0.22067596710E+02  0.54367014474E+02  0.39999841097E+02 0.  0.
        -12    1    3    3    0    0  0.25410463348E+02  0.14937017874E+02 -0.22067596710E+02  0.36820985526E+02  0.00000000000E+00 0.  1.
         11    1    4    4    0    0 -0.38142888853E+01  0.55814397226E+01  0.13113644458E+02  0.14753607705E+02  0.51100000000E-03 0. -1.
        -11    1    4    4    0    0  0.56121036359E+00  0.20336684033E+01 -0.47180212758E+01  0.51682191582E+01  0.51100000000E-03 0.  1.
        -12    1    4    4    0    0 -0.22157384826E+02 -0.22552126000E+02  0.13671973528E+02  0.34445187612E+02  0.00000000000E+00 0.  1.
</event>
<event>
 8    1  0.2521748E-006  0.9118800E+02  0.7816164E-02  0.1184000E+00
        -11   -1    0    0    0    0  0.00000000000E+00  0.00000000000E+00  0.45593999997E+02  0.45594000000E+02  0.51100000000E-03 0. -1.
         11   -1    0    0    0    0 -0.00000000000E+00 -0.00000000000E+00 -0.45593999997E+02  0.45594000000E+02  0.51100000000E-03 0.  1.
         23    2    1    2    0    0  0.35527136788E-14  0.71054273576E-14  0.00000000000E+00  0.91188000000E+02  0.91188000000E+02 0.  0.
    9900012    2    3    3    0    0 -0.20278465835E+02 -0.28370969892E+02 -0.11817405027E+02  0.54367093292E+02  0.40000020777E+02 0.  0.
        -12    1    3    3    0    0  0.20278465835E+02  0.28370969892E+02  0.11817405027E+02  0.36820906708E+02  0.00000000000E+00 0.  1.
         11    1    4    4    0    0 -0.20656131139E+02 -0.12153298869E+02 -0.67471292606E+01  0.24897834857E+02  0.51100000000E-03 0. -1.
        -11    1    4    4    0    0 -0.58969332698E+01  0.40519168554E+01  0.13908822832E+01  0.72887863172E+01  0.51100000000E-03 0.  1.
        -12    1    4    4    0    0  0.62745985740E+01 -0.20269587878E+02 -0.64611580495E+01  0.22180472117E+02  0.00000000000E+00 0.  1.
</event>
<event>
 8    1  0.2521748E-006  0.9118800E+02  0.7816164E-02  0.1184000E+00
        -11   -1    0    0    0    0  0.00000000000E+00  0.00000000000E+00  0.45593999997E+02  0.45594000000E+02  0.51100000000E-03 0.  1.
         11   -1    0    0    0    0 -0.00000000000E+00 -0.00000000000E+00 -0.45593999997E+02  0.45594000000E+02  0.51100000000E-03 0. -1.
         23    2    1    2    0    0  0.35527136788E-14 -0.88817841970E-15  0.00000000000E+00  0.91188000000E+02  0.91188000000E+02 0.  0.
    9900012    2    3    3    0    0  0.17963315259E+02 -0.77027226566E+01 -0.31205233658E+02  0.54367092365E+02  0.40000018665E+02 0.  0.
        -12    1    3    3    0    0 -0.17963315259E+02  0.77027226566E+01  0.31205233658E+02  0.36820907635E+02  0.00000000000E+00 0.  1.
         11    1    4    4    0    0  0.75345107648E+01 -0.11599358356E+02 -0.26066286665E+02  0.29508732055E+02  0.51100000000E-03 0. -1.
        -11    1    4    4    0    0  0.15442790069E+02 -0.18442212195E+01 -0.69330903071E+01  0.17027878860E+02  0.51100000000E-03 0.  1.
         12    1    4    4    0    0 -0.50139855749E+01  0.57408569187E+01  0.17941433145E+01  0.78304814500E+01  0.00000000000E+00 0. -1.
</event>
<event>
 8    1  0.2521748E-006  0.9118800E+02  0.7816164E-02  0.1184000E+00
        -11   -1    0    0    0    0  0.00000000000E+00  0.00000000000E+00  0.45593999997E+02  0.45594000000E+02  0.51100000000E-03 0.  1.
         11   -1    0    0    0    0 -0.00000000000E+00 -0.00000000000E+00 -0.45593999997E+02  0.45594000000E+02  0.51100000000E-03 0. -1.
         23    2    1    2    0    0  0.00000000000E+00  0.00000000000E+00 -0.88817841970E-15  0.91188000000E+02  0.91188000000E+02 0.  0.
    9900012    2    3    3    0    0  0.27029781360E+02 -0.24619729134E+02  0.43633930072E+01  0.54367090973E+02  0.40000015492E+02 0.  0.
         12    1    3    3    0    0 -0.27029781360E+02  0.24619729134E+02 -0.43633930072E+01  0.36820909027E+02  0.00000000000E+00 0. -1.
         11    1    4    4    0    0  0.18887763702E+02 -0.13271717347E+02 -0.72715389896E+01  0.24202507691E+02  0.51100000000E-03 0. -1.
        -11    1    4    4    0    0  0.93574797779E+01  0.47791567762E+01  0.48079135953E+00  0.10518266391E+02  0.51100000000E-03 0.  1.
         12    1    4    4    0    0 -0.12154621192E+01 -0.16127168563E+02  0.11154140637E+02  0.19646316891E+02  0.00000000000E+00 0. -1.
</event>
<event>
 8    1  0.2521748E-006  0.9118800E+02  0.7816164E-02  0.1184000E+00
        -11   -1    0    0    0    0  0.00000000000E+00  0.00000000000E+00  0.45593999997E+02  0.45594000000E+02  0.51100000000E-03 0.  1.
         11   -1    0    0    0    0 -0.00000000000E+00 -0.00000000000E+00 -0.45593999997E+02  0.45594000000E+02  0.51100000000E-03 0. -1.
         23    2    1    2    0    0  0.35527136788E-14  0.00000000000E+00  0.35527136788E-14  0.91188000000E+02  0.91188000000E+02 0.  0.
    9900012    2    3    3    0    0 -0.28087448516E+02 -0.15056009043E+02  0.18444290018E+02  0.54367081941E+02  0.39999994900E+02 0.  0.
         12    1    3    3    0    0  0.28087448516E+02  0.15056009043E+02 -0.18444290018E+02  0.36820918059E+02  0.00000000000E+00 0. -1.
         11    1    4    4    0    0  0.36440684522E+01 -0.11167385589E+02 -0.37361461054E+01  0.12326740192E+02  0.51100000000E-03 0. -1.
        -11    1    4    4    0    0 -0.70953528038E+01  0.20797105879E+01 -0.12768686686E+01  0.75033073640E+01  0.51100000000E-03 0.  1.
        -12    1    4    4    0    0 -0.24636164165E+02 -0.59683340420E+01  0.23457304792E+02  0.34537034385E+02  0.00000000000E+00 0.  1.
</event>
<event>
 8    1  0.2521748E-006  0.9118800E+02  0.7816164E-02  0.1184000E+00
        -11   -1    0    0    0    0  0.00000000000E+00  0.00000000000E+00  0.45593999997E+02  0.45594000000E+02  0.51100000000E-03 0.  1.
         11   -1    0    0    0    0 -0.00000000000E+00 -0.00000000000E+00 -0.45593999997E+02  0.45594000000E+02  0.51100000000E-03 0. -1.
         23    2    1    2    0    0  0.35527136788E-14  0.00000000000E+00  0.44408920985E-15  0.91188000000E+02  0.91188000000E+02 0.  0.
    9900012    2    3    3    0    0  0.30425506503E+02  0.20687419025E+02  0.14476342159E+01  0.54367130962E+02  0.40000106655E+02 0.  0.
         12    1    3    3    0    0 -0.30425506503E+02 -0.20687419025E+02 -0.14476342159E+01  0.36820869038E+02  0.00000000000E+00 0. -1.
         11    1    4    4    0    0  0.26092588939E+02  0.25368208125E+01  0.52859148822E+01  0.26743215098E+02  0.51100000000E-03 0. -1.
        -11    1    4    4    0    0  0.10036284278E+02  0.16169637706E+02 -0.76197411279E+01  0.20499869287E+02  0.51100000000E-03 0.  1.
         12    1    4    4    0    0 -0.57033667148E+01  0.19809605065E+01  0.37814604615E+01  0.71240465772E+01  0.00000000000E+00 0. -1.
</event>
<event>
 8    1  0.2521748E-006  0.9118800E+02  0.7816164E-02  0.1184000E+00
        -11   -1    0    0    0    0  0.00000000000E+00  0.00000000000E+00  0.45593999997E+02  0.45594000000E+02  0.51100000000E-03 0.  1.
         11   -1    0    0    0    0 -0.00000000000E+00 -0.00000000000E+00 -0.45593999997E+02  0.45594000000E+02  0.51100000000E-03 0. -1.
         23    2    1    2    0    0 -0.35527136788E-14  0.00000000000E+00  0.00000000000E+00  0.91188000000E+02  0.91188000000E+02 0.  0.
    9900012    2    3    3    0    0  0.21507146231E+02  0.21650783110E+02 -0.20602531384E+02  0.54367108543E+02  0.40000055545E+02 0.  0.
        -12    1    3    3    0    0 -0.21507146231E+02 -0.21650783110E+02  0.20602531384E+02  0.36820891457E+02  0.00000000000E+00 0.  1.
         11    1    4    4    0    0  0.23924479082E+02  0.11301240433E+02 -0.22527647679E+02  0.34750448125E+02  0.51100000000E-03 0. -1.
        -11    1    4    4    0    0 -0.94381570526E+01  0.50979840467E+01  0.54235488534E+00  0.10740688943E+02  0.51100000000E-03 0.  1.
        -12    1    4    4    0    0  0.70208242018E+01  0.52515586297E+01  0.13827614089E+01  0.88759714751E+01  0.00000000000E+00 0.  1.
</event>
<event>
 8    1  0.2521748E-006  0.9118800E+02  0.7816164E-02  0.1184000E+00
        -11   -1    0    0    0    0  0.00000000000E+00  0.00000000000E+00  0.45593999997E+02  0.45594000000E+02  0.51100000000E-03 0. -1.
         11   -1    0    0    0    0 -0.00000000000E+00 -0.00000000000E+00 -0.45593999997E+02  0.45594000000E+02  0.51100000000E-03 0.  1.
         23    2    1    2    0    0  0.00000000000E+00  0.00000000000E+00 -0.35527136788E-14  0.91188000000E+02  0.91188000000E+02 0.  0.
    9900012    2    3    3    0    0 -0.17456368629E+01 -0.22497476391E+02 -0.29096336881E+02  0.54367075081E+02  0.39999979261E+02 0.  0.
         12    1    3    3    0    0  0.17456368629E+01  0.22497476391E+02  0.29096336881E+02  0.36820924919E+02  0.00000000000E+00 0. -1.
         11    1    4    4    0    0 -0.48996834358E+01  0.37327857592E+01 -0.10687998411E+02  0.12335878468E+02  0.51100000000E-03 0. -1.
        -11    1    4    4    0    0  0.10478521544E+02 -0.33021285078E+01 -0.13604727601E+02  0.17486911671E+02  0.51100000000E-03 0.  1.
        -12    1    4    4    0    0 -0.73244749708E+01 -0.22928133642E+02 -0.48036108697E+01  0.24544284942E+02  0.00000000000E+00 0.  1.
</event>
<event>
 8    1  0.2521748E-006  0.9118800E+02  0.7816164E-02  0.1184000E+00
        -11   -1    0    0    0    0  0.00000000000E+00  0.00000000000E+00  0.45593999997E+02  0.45594000000E+02  0.51100000000E-03 0.  1.
         11   -1    0    0    0    0 -0.00000000000E+00 -0.00000000000E+00 -0.45593999997E+02  0.45594000000E+02  0.51100000000E-03 0. -1.
         23    2    1    2    0    0  0.00000000000E+00 -0.17763568394E-14  0.00000000000E+00  0.91188000000E+02  0.91188000000E+02 0.  0.
    9900012    2    3    3    0    0 -0.12452444112E+02 -0.82196013501E+01  0.33662365704E+02  0.54367081007E+02  0.39999992772E+02 0.  0.
         12    1    3    3    0    0  0.12452444112E+02  0.82196013501E+01 -0.33662365704E+02  0.36820918993E+02  0.00000000000E+00 0. -1.
         11    1    4    4    0    0 -0.87791750392E+01  0.63433651194E+01  0.21901062289E+01  0.11050283298E+02  0.51100000000E-03 0. -1.
        -11    1    4    4    0    0  0.69095249125E+00 -0.15072310439E+01  0.29339970038E+02  0.29386782792E+02  0.51100000000E-03 0.  1.
        -12    1    4    4    0    0 -0.43642215640E+01 -0.13055735426E+02  0.21322894368E+01  0.13930014918E+02  0.00000000000E+00 0.  1.
</event>
<event>
 8    1  0.2521748E-006  0.9118800E+02  0.7816164E-02  0.1184000E+00
        -11   -1    0    0    0    0  0.00000000000E+00  0.00000000000E+00  0.45593999997E+02  0.45594000000E+02  0.51100000000E-03 0.  1.
         11   -1    0    0    0    0 -0.00000000000E+00 -0.00000000000E+00 -0.45593999997E+02  0.45594000000E+02  0.51100000000E-03 0. -1.
         23    2    1    2    0    0  0.17763568394E-14  0.35527136788E-14  0.53290705182E-14  0.91188000000E+02  0.91188000000E+02 0.  0.
    9900012    2    3    3    0    0  0.90967273049E+01  0.31960360096E+02  0.15860788754E+02  0.54367086309E+02  0.40000004859E+02 0.  0.
         12    1    3    3    0    0 -0.90967273049E+01 -0.31960360096E+02 -0.15860788754E+02  0.36820913691E+02  0.00000000000E+00 0. -1.
         11    1    4    4    0    0  0.41349988910E+01  0.16514617656E+02  0.52145929427E+01  0.17805133866E+02  0.51100000000E-03 0. -1.
        -11    1    4    4    0    0  0.11024284463E+02  0.12624434501E+02  0.19341319860E+02  0.25592925752E+02  0.51100000000E-03 0.  1.
         12    1    4    4    0    0 -0.60625560493E+01  0.28213079393E+01 -0.86951240483E+01  0.10969026691E+02  0.00000000000E+00 0. -1.
</event>
<event>
 8    1  0.2521748E-006  0.9118800E+02  0.7816164E-02  0.1184000E+00
        -11   -1    0    0    0    0  0.00000000000E+00  0.00000000000E+00  0.45593999997E+02  0.45594000000E+02  0.51100000000E-03 0.  1.
         11   -1    0    0    0    0 -0.00000000000E+00 -0.00000000000E+00 -0.45593999997E+02  0.45594000000E+02  0.51100000000E-03 0. -1.
         23    2    1    2    0    0 -0.35527136788E-14 -0.17763568394E-14  0.00000000000E+00  0.91188000000E+02  0.91188000000E+02 0.  0.
    9900012    2    3    3    0    0 -0.89319673921E+01 -0.13497678410E+02 -0.33072792999E+02  0.54367122760E+02  0.40000087955E+02 0.  0.
        -12    1    3    3    0    0  0.89319673921E+01  0.13497678410E+02  0.33072792999E+02  0.36820877240E+02  0.00000000000E+00 0.  1.
         11    1    4    4    0    0  0.52244410508E+01  0.14947088470E+01 -0.16610724865E+02  0.17476988288E+02  0.51100000000E-03 0. -1.
        -11    1    4    4    0    0 -0.12640437834E+01 -0.91019819771E+00  0.66969915818E+01  0.68757518827E+01  0.51100000000E-03 0.  1.
         12    1    4    4    0    0 -0.12892364660E+02 -0.14082189060E+02 -0.23159059716E+02  0.30014382589E+02  0.00000000000E+00 0. -1.
</event>
<event>
 8    1  0.2521748E-006  0.9118800E+02  0.7816164E-02  0.1184000E+00
        -11   -1    0    0    0    0  0.00000000000E+00  0.00000000000E+00  0.45593999997E+02  0.45594000000E+02  0.51100000000E-03 0.  1.
         11   -1    0    0    0    0 -0.00000000000E+00 -0.00000000000E+00 -0.45593999997E+02  0.45594000000E+02  0.51100000000E-03 0. -1.
         23    2    1    2    0    0  0.00000000000E+00  0.00000000000E+00  0.00000000000E+00  0.91188000000E+02  0.91188000000E+02 0.  0.
    9900012    2    3    3    0    0 -0.22318411938E+02 -0.25850746927E+02  0.13762530529E+02  0.54367083734E+02  0.39999998988E+02 0.  0.
         12    1    3    3    0    0  0.22318411938E+02  0.25850746927E+02 -0.13762530529E+02  0.36820916266E+02  0.00000000000E+00 0. -1.
         11    1    4    4    0    0 -0.46088876244E+01 -0.45556045884E+01  0.72826444494E+01  0.97484505814E+01  0.51100000000E-03 0. -1.
        -11    1    4    4    0    0 -0.18320323815E+02 -0.26514239544E+02  0.14250585624E+02  0.35238024266E+02  0.51100000000E-03 0.  1.
         12    1    4    4    0    0  0.61079950128E+00  0.52190972054E+01 -0.77706995448E+01  0.93806088867E+01  0.00000000000E+00 0. -1.
</event>
<event>
 8    1  0.2521748E-006  0.9118800E+02  0.7816164E-02  0.1184000E+00
        -11   -1    0    0    0    0  0.00000000000E+00  0.00000000000E+00  0.45593999997E+02  0.45594000000E+02  0.51100000000E-03 0. -1.
         11   -1    0    0    0    0 -0.00000000000E+00 -0.00000000000E+00 -0.45593999997E+02  0.45594000000E+02  0.51100000000E-03 0.  1.
         23    2    1    2    0    0  0.00000000000E+00  0.00000000000E+00  0.00000000000E+00  0.91188000000E+02  0.91188000000E+02 0.  0.
    9900012    2    3    3    0    0  0.25519726580E+02  0.13487539798E+02  0.22860832925E+02  0.54366975347E+02  0.39999751897E+02 0.  0.
        -12    1    3    3    0    0 -0.25519726580E+02 -0.13487539798E+02 -0.22860832925E+02  0.36821024653E+02  0.00000000000E+00 0.  1.
         11    1    4    4    0    0 -0.35555801725E+01  0.58344157023E+01  0.73931962811E+01  0.10066871831E+02  0.51100000000E-03 0. -1.
        -11    1    4    4    0    0  0.21902754140E+02  0.11223252562E+02  0.22718974435E+02  0.33493937312E+02  0.51100000000E-03 0.  1.
        -12    1    4    4    0    0  0.71725526129E+01 -0.35701284670E+01 -0.72513377918E+01  0.10806166204E+02  0.00000000000E+00 0.  1.
</event>
<event>
 8    1  0.2521748E-006  0.9118800E+02  0.7816164E-02  0.1184000E+00
        -11   -1    0    0    0    0  0.00000000000E+00  0.00000000000E+00  0.45593999997E+02  0.45594000000E+02  0.51100000000E-03 0.  1.
         11   -1    0    0    0    0 -0.00000000000E+00 -0.00000000000E+00 -0.45593999997E+02  0.45594000000E+02  0.51100000000E-03 0. -1.
         23    2    1    2    0    0 -0.71054273576E-14  0.00000000000E+00 -0.88817841970E-15  0.91188000000E+02  0.91188000000E+02 0.  0.
    9900012    2    3    3    0    0 -0.32606806036E+02  0.15296481374E+02 -0.76547144173E+01  0.54367071236E+02  0.39999970496E+02 0.  0.
        -12    1    3    3    0    0  0.32606806036E+02 -0.15296481374E+02  0.76547144173E+01  0.36820928764E+02  0.00000000000E+00 0.  1.
         11    1    4    4    0    0 -0.13895292519E+02  0.93783532656E+01  0.97486662708E+01  0.19392502636E+02  0.51100000000E-03 0.  1.
        -11    1    4    4    0    0 -0.80633623547E+01  0.11358750176E+02 -0.18282719661E+02  0.22984709189E+02  0.51100000000E-03 0. -1.
         12    1    4    4    0    0 -0.10648151162E+02 -0.54406220681E+01  0.87933897343E+00  0.11989859410E+02  0.00000000000E+00 0. -1.
</event>
<event>
 8    1  0.2521748E-006  0.9118800E+02  0.7816164E-02  0.1184000E+00
        -11   -1    0    0    0    0  0.00000000000E+00  0.00000000000E+00  0.45593999997E+02  0.45594000000E+02  0.51100000000E-03 0. -1.
         11   -1    0    0    0    0 -0.00000000000E+00 -0.00000000000E+00 -0.45593999997E+02  0.45594000000E+02  0.51100000000E-03 0.  1.
         23    2    1    2    0    0  0.00000000000E+00  0.00000000000E+00  0.00000000000E+00  0.91188000000E+02  0.91188000000E+02 0.  0.
    9900012    2    3    3    0    0 -0.21745308577E+02  0.26170884491E+02  0.14071445278E+02  0.54367092728E+02  0.40000019491E+02 0.  0.
        -12    1    3    3    0    0  0.21745308577E+02 -0.26170884491E+02 -0.14071445278E+02  0.36820907272E+02  0.00000000000E+00 0.  1.
         11    1    4    4    0    0 -0.17571079581E+02 -0.26061108335E+01  0.14807595498E+02  0.23125733199E+02  0.51100000000E-03 0. -1.
        -11    1    4    4    0    0 -0.41903963865E+01  0.17336719407E+02 -0.57651045783E+01  0.18744537677E+02  0.51100000000E-03 0.  1.
        -12    1    4    4    0    0  0.16167389829E-01  0.11440275917E+02  0.50289543583E+01  0.12496821851E+02  0.00000000000E+00 0.  1.
</event>
<event>
 8    1  0.2521748E-006  0.9118800E+02  0.7816164E-02  0.1184000E+00
        -11   -1    0    0    0    0  0.00000000000E+00  0.00000000000E+00  0.45593999997E+02  0.45594000000E+02  0.51100000000E-03 0. -1.
         11   -1    0    0    0    0 -0.00000000000E+00 -0.00000000000E+00 -0.45593999997E+02  0.45594000000E+02  0.51100000000E-03 0.  1.
         23    2    1    2    0    0  0.17763568394E-14  0.00000000000E+00  0.71054273576E-14  0.91188000000E+02  0.91188000000E+02 0.  0.
    9900012    2    3    3    0    0  0.13945763443E+02  0.17846678492E+02  0.29030868795E+02  0.54367087542E+02  0.40000007670E+02 0.  0.
        -12    1    3    3    0    0 -0.13945763443E+02 -0.17846678492E+02 -0.29030868795E+02  0.36820912458E+02  0.00000000000E+00 0.  1.
         11    1    4    4    0    0  0.15126287619E+02  0.69613091052E+01  0.36623015769E+02  0.40230705759E+02  0.51100000000E-03 0. -1.
        -11    1    4    4    0    0  0.16919180246E+01  0.60607829958E+01 -0.43900255660E+01  0.76725485894E+01  0.51100000000E-03 0.  1.
         12    1    4    4    0    0 -0.28724422004E+01  0.48245863914E+01 -0.32021214084E+01  0.64638331937E+01  0.00000000000E+00 0. -1.
</event>
<event>
 8    1  0.2521748E-006  0.9118800E+02  0.7816164E-02  0.1184000E+00
        -11   -1    0    0    0    0  0.00000000000E+00  0.00000000000E+00  0.45593999997E+02  0.45594000000E+02  0.51100000000E-03 0.  1.
         11   -1    0    0    0    0 -0.00000000000E+00 -0.00000000000E+00 -0.45593999997E+02  0.45594000000E+02  0.51100000000E-03 0. -1.
         23    2    1    2    0    0  0.88817841970E-15  0.00000000000E+00  0.00000000000E+00  0.91188000000E+02  0.91188000000E+02 0.  0.
    9900012    2    3    3    0    0  0.43598227704E+01  0.32260351744E+02 -0.17205783000E+02  0.54367118453E+02  0.40000078138E+02 0.  0.
        -12    1    3    3    0    0 -0.43598227704E+01 -0.32260351744E+02  0.17205783000E+02  0.36820881547E+02  0.00000000000E+00 0.  1.
         11    1    4    4    0    0  0.18057408647E+01  0.11505829695E+01 -0.15466616199E+02  0.15614120473E+02  0.51100000000E-03 0. -1.
        -11    1    4    4    0    0 -0.50541674334E+01 -0.13728604416E+01 -0.12648348951E+01  0.53878717328E+01  0.51100000000E-03 0.  1.
         12    1    4    4    0    0  0.76082493390E+01  0.32482629216E+02 -0.47433190656E+00  0.33365126248E+02  0.00000000000E+00 0. -1.
</event>
<event>
 8    1  0.2521748E-006  0.9118800E+02  0.7816164E-02  0.1184000E+00
        -11   -1    0    0    0    0  0.00000000000E+00  0.00000000000E+00  0.45593999997E+02  0.45594000000E+02  0.51100000000E-03 0.  1.
         11   -1    0    0    0    0 -0.00000000000E+00 -0.00000000000E+00 -0.45593999997E+02  0.45594000000E+02  0.51100000000E-03 0. -1.
         23    2    1    2    0    0 -0.35527136788E-14  0.00000000000E+00  0.00000000000E+00  0.91188000000E+02  0.91188000000E+02 0.  0.
    9900012    2    3    3    0    0 -0.20680350962E+02 -0.24995953617E+02  0.17415597885E+02  0.54367113769E+02  0.40000067459E+02 0.  0.
         12    1    3    3    0    0  0.20680350962E+02  0.24995953617E+02 -0.17415597885E+02  0.36820886231E+02  0.00000000000E+00 0. -1.
         11    1    4    4    0    0 -0.97817992880E+01  0.43629119004E+01  0.14736747133E+02  0.18217857006E+02  0.51100000000E-03 0. -1.
        -11    1    4    4    0    0 -0.64780590213E+01 -0.18801833679E+02 -0.70791502401E+01  0.21108968870E+02  0.51100000000E-03 0.  1.
        -12    1    4    4    0    0 -0.44204926528E+01 -0.10557031839E+02  0.97580009923E+01  0.15040287893E+02  0.00000000000E+00 0.  1.
</event>
<event>
 8    1  0.2521748E-006  0.9118800E+02  0.7816164E-02  0.1184000E+00
        -11   -1    0    0    0    0  0.00000000000E+00  0.00000000000E+00  0.45593999997E+02  0.45594000000E+02  0.51100000000E-03 0.  1.
         11   -1    0    0    0    0 -0.00000000000E+00 -0.00000000000E+00 -0.45593999997E+02  0.45594000000E+02  0.51100000000E-03 0. -1.
         23    2    1    2    0    0  0.17763568394E-14 -0.35527136788E-14  0.00000000000E+00  0.91188000000E+02  0.91188000000E+02 0.  0.
    9900012    2    3    3    0    0 -0.68767912448E+00 -0.22128613520E+02  0.29421604223E+02  0.54367092434E+02  0.40000018823E+02 0.  0.
         12    1    3    3    0    0  0.68767912448E+00  0.22128613520E+02 -0.29421604223E+02  0.36820907566E+02  0.00000000000E+00 0. -1.
         11    1    4    4    0    0  0.10865222237E+02 -0.85638159693E+01  0.53605780456E+01  0.14836704333E+02  0.51100000000E-03 0. -1.
        -11    1    4    4    0    0  0.63038180263E+01 -0.22621840013E+01  0.15208670068E+02  0.16618039706E+02  0.51100000000E-03 0.  1.
        -12    1    4    4    0    0 -0.17856719388E+02 -0.11302613550E+02  0.88523561096E+01  0.22912348396E+02  0.00000000000E+00 0.  1.
</event>
<event>
 8    1  0.2521748E-006  0.9118800E+02  0.7816164E-02  0.1184000E+00
        -11   -1    0    0    0    0  0.00000000000E+00  0.00000000000E+00  0.45593999997E+02  0.45594000000E+02  0.51100000000E-03 0.  1.
         11   -1    0    0    0    0 -0.00000000000E+00 -0.00000000000E+00 -0.45593999997E+02  0.45594000000E+02  0.51100000000E-03 0. -1.
         23    2    1    2    0    0 -0.35527136788E-14  0.00000000000E+00  0.17763568394E-14  0.91188000000E+02  0.91188000000E+02 0.  0.
    9900012    2    3    3    0    0  0.30050678074E+02  0.16401355231E+02 -0.13554774609E+02  0.54367087181E+02  0.40000006847E+02 0.  0.
        -12    1    3    3    0    0 -0.30050678074E+02 -0.16401355231E+02  0.13554774609E+02  0.36820912819E+02  0.00000000000E+00 0.  1.
         11    1    4    4    0    0  0.20056129333E+02  0.17467837263E+02 -0.27459107581E+01  0.26737869934E+02  0.51100000000E-03 0. -1.
        -11    1    4    4    0    0  0.15932225296E+02  0.40438089703E+01 -0.32750754161E+01  0.16760498593E+02  0.51100000000E-03 0.  1.
         12    1    4    4    0    0 -0.59376765544E+01 -0.51102910020E+01 -0.75337884352E+01  0.10868718654E+02  0.00000000000E+00 0. -1.
</event>
<event>
 8    1  0.2521748E-006  0.9118800E+02  0.7816164E-02  0.1184000E+00
        -11   -1    0    0    0    0  0.00000000000E+00  0.00000000000E+00  0.45593999997E+02  0.45594000000E+02  0.51100000000E-03 0. -1.
         11   -1    0    0    0    0 -0.00000000000E+00 -0.00000000000E+00 -0.45593999997E+02  0.45594000000E+02  0.51100000000E-03 0.  1.
         23    2    1    2    0    0  0.00000000000E+00  0.00000000000E+00  0.00000000000E+00  0.91188000000E+02  0.91188000000E+02 0.  0.
    9900012    2    3    3    0    0  0.12430603932E+02 -0.33016124967E+02 -0.10545045430E+02  0.54367049374E+02  0.39999920657E+02 0.  0.
        -12    1    3    3    0    0 -0.12430603932E+02  0.33016124967E+02  0.10545045430E+02  0.36820950626E+02  0.00000000000E+00 0.  1.
         11    1    4    4    0    0 -0.75154441432E+00 -0.17135781306E+02 -0.25174553519E+01  0.17336014585E+02  0.51100000000E-03 0. -1.
        -11    1    4    4    0    0  0.75855515982E+01 -0.11999915970E+02 -0.19241111526E+02  0.23911481538E+02  0.51100000000E-03 0.  1.
         12    1    4    4    0    0  0.55965967478E+01 -0.38804276908E+01  0.11213521448E+02  0.13119553250E+02  0.00000000000E+00 0. -1.
</event>
<event>
 8    1  0.2521748E-006  0.9118800E+02  0.7816164E-02  0.1184000E+00
        -11   -1    0    0    0    0  0.00000000000E+00  0.00000000000E+00  0.45593999997E+02  0.45594000000E+02  0.51100000000E-03 0. -1.
         11   -1    0    0    0    0 -0.00000000000E+00 -0.00000000000E+00 -0.45593999997E+02  0.45594000000E+02  0.51100000000E-03 0.  1.
         23    2    1    2    0    0  0.00000000000E+00  0.00000000000E+00 -0.88817841970E-15  0.91188000000E+02  0.91188000000E+02 0.  0.
    9900012    2    3    3    0    0 -0.10828926454E+02  0.34641986729E+02 -0.61991302797E+01  0.54367324980E+02  0.40000548954E+02 0.  0.
         12    1    3    3    0    0  0.10828926454E+02 -0.34641986729E+02  0.61991302797E+01  0.36820675020E+02  0.00000000000E+00 0. -1.
         11    1    4    4    0    0 -0.11603408655E+02  0.18093130868E+02 -0.57099938757E+01  0.22239705649E+02  0.51100000000E-03 0. -1.
        -11    1    4    4    0    0  0.27908774083E+01  0.19427036858E+02 -0.99720033190E+01  0.22014531751E+02  0.51100000000E-03 0.  1.
         12    1    4    4    0    0 -0.20163952069E+01 -0.28781809963E+01  0.94828669151E+01  0.10113087580E+02  0.00000000000E+00 0. -1.
</event>
<event>
 8    1  0.2521748E-006  0.9118800E+02  0.7816164E-02  0.1184000E+00
        -11   -1    0    0    0    0  0.00000000000E+00  0.00000000000E+00  0.45593999997E+02  0.45594000000E+02  0.51100000000E-03 0.  1.
         11   -1    0    0    0    0 -0.00000000000E+00 -0.00000000000E+00 -0.45593999997E+02  0.45594000000E+02  0.51100000000E-03 0. -1.
         23    2    1    2    0    0  0.00000000000E+00  0.00000000000E+00  0.00000000000E+00  0.91188000000E+02  0.91188000000E+02 0.  0.
    9900012    2    3    3    0    0 -0.35562588746E+02 -0.86006796390E+01 -0.41364898955E+01  0.54367082613E+02  0.39999996433E+02 0.  0.
         12    1    3    3    0    0  0.35562588746E+02  0.86006796390E+01  0.41364898955E+01  0.36820917387E+02  0.00000000000E+00 0. -1.
         11    1    4    4    0    0 -0.12815044765E+02 -0.95351689865E+01 -0.41675858810E+01  0.16507985712E+02  0.51100000000E-03 0. -1.
        -11    1    4    4    0    0 -0.27774657467E+02  0.42517881698E-01 -0.74917191072E+01  0.28767329745E+02  0.51100000000E-03 0.  1.
        -12    1    4    4    0    0  0.50271134866E+01  0.89197146583E+00  0.75228150926E+01  0.90917671561E+01  0.00000000000E+00 0.  1.
</event>
<event>
 8    1  0.2521748E-006  0.9118800E+02  0.7816164E-02  0.1184000E+00
        -11   -1    0    0    0    0  0.00000000000E+00  0.00000000000E+00  0.45593999997E+02  0.45594000000E+02  0.51100000000E-03 0. -1.
         11   -1    0    0    0    0 -0.00000000000E+00 -0.00000000000E+00 -0.45593999997E+02  0.45594000000E+02  0.51100000000E-03 0.  1.
         23    2    1    2    0    0  0.88817841970E-15  0.35527136788E-14  0.00000000000E+00  0.91188000000E+02  0.91188000000E+02 0.  0.
    9900012    2    3    3    0    0 -0.44952055738E+01 -0.11055656542E+02  0.34833111366E+02  0.54367081188E+02  0.39999993184E+02 0.  0.
        -12    1    3    3    0    0  0.44952055738E+01  0.11055656542E+02 -0.34833111366E+02  0.36820918812E+02  0.00000000000E+00 0.  1.
         11    1    4    4    0    0 -0.38608724739E+01 -0.99155191424E+01  0.23307829156E+01  0.10892952097E+02  0.51100000000E-03 0. -1.
        -11    1    4    4    0    0 -0.75942316895E+01 -0.92817793876E+00 -0.22945374971E+01  0.79874133377E+01  0.51100000000E-03 0.  1.
         12    1    4    4    0    0  0.69598985895E+01 -0.21195946119E+00  0.34796865948E+02  0.35486715753E+02  0.00000000000E+00 0. -1.
</event>
<event>
 8    1  0.2521748E-006  0.9118800E+02  0.7816164E-02  0.1184000E+00
        -11   -1    0    0    0    0  0.00000000000E+00  0.00000000000E+00  0.45593999997E+02  0.45594000000E+02  0.51100000000E-03 0.  1.
         11   -1    0    0    0    0 -0.00000000000E+00 -0.00000000000E+00 -0.45593999997E+02  0.45594000000E+02  0.51100000000E-03 0. -1.
         23    2    1    2    0    0  0.00000000000E+00  0.00000000000E+00 -0.35527136788E-14  0.91188000000E+02  0.91188000000E+02 0.  0.
    9900012    2    3    3    0    0 -0.17239694668E+02 -0.94011420079E+01 -0.31147886483E+02  0.54367090510E+02  0.40000014436E+02 0.  0.
        -12    1    3    3    0    0  0.17239694668E+02  0.94011420079E+01  0.31147886483E+02  0.36820909490E+02  0.00000000000E+00 0.  1.
         11    1    4    4    0    0 -0.17940802779E+02 -0.17007570514E+02 -0.32254991224E+01  0.24930577690E+02  0.51100000000E-03 0. -1.
        -11    1    4    4    0    0  0.29100062577E+01  0.37723718583E+01 -0.12013785901E+02  0.12924007807E+02  0.51100000000E-03 0.  1.
         12    1    4    4    0    0 -0.22088981472E+01  0.38340566474E+01 -0.15908601460E+02  0.16512505013E+02  0.00000000000E+00 0. -1.
</event>
<event>
 8    1  0.2521748E-006  0.9118800E+02  0.7816164E-02  0.1184000E+00
        -11   -1    0    0    0    0  0.00000000000E+00  0.00000000000E+00  0.45593999997E+02  0.45594000000E+02  0.51100000000E-03 0. -1.
         11   -1    0    0    0    0 -0.00000000000E+00 -0.00000000000E+00 -0.45593999997E+02  0.45594000000E+02  0.51100000000E-03 0.  1.
         23    2    1    2    0    0  0.00000000000E+00  0.44408920985E-15  0.00000000000E+00  0.91188000000E+02  0.91188000000E+02 0.  0.
    9900012    2    3    3    0    0 -0.36638612401E+02  0.26875117961E+01 -0.24839659995E+01  0.54367072181E+02  0.39999972651E+02 0.  0.
         12    1    3    3    0    0  0.36638612401E+02 -0.26875117961E+01  0.24839659995E+01  0.36820927819E+02  0.00000000000E+00 0. -1.
         11    1    4    4    0    0  0.20446759429E+01  0.25538441807E+01 -0.28832885055E+01  0.43607536823E+01  0.51100000000E-03 0. -1.
        -11    1    4    4    0    0 -0.10523817247E+02  0.10403759237E+02 -0.10464535007E+02  0.18124442857E+02  0.51100000000E-03 0.  1.
         12    1    4    4    0    0 -0.28159471097E+02 -0.10270091621E+02  0.10863857513E+02  0.31881875642E+02  0.00000000000E+00 0. -1.
</event>
<event>
 8    1  0.2521748E-006  0.9118800E+02  0.7816164E-02  0.1184000E+00
        -11   -1    0    0    0    0  0.00000000000E+00  0.00000000000E+00  0.45593999997E+02  0.45594000000E+02  0.51100000000E-03 0.  1.
         11   -1    0    0    0    0 -0.00000000000E+00 -0.00000000000E+00 -0.45593999997E+02  0.45594000000E+02  0.51100000000E-03 0. -1.
         23    2    1    2    0    0  0.00000000000E+00  0.00000000000E+00  0.00000000000E+00  0.91188000000E+02  0.91188000000E+02 0.  0.
    9900012    2    3    3    0    0 -0.18101697945E+02  0.52818829102E+01 -0.31626111400E+02  0.54367072828E+02  0.39999974125E+02 0.  0.
        -12    1    3    3    0    0  0.18101697945E+02 -0.52818829102E+01  0.31626111400E+02  0.36820927172E+02  0.00000000000E+00 0.  1.
         11    1    4    4    0    0 -0.29074922523E+01  0.33868789736E+01 -0.34249955287E+01  0.56262825215E+01  0.51100000000E-03 0. -1.
        -11    1    4    4    0    0 -0.74260842864E+01 -0.13722033074E+02 -0.24827398717E-01  0.15602613120E+02  0.51100000000E-03 0.  1.
        -12    1    4    4    0    0 -0.77681214062E+01  0.15617037010E+02 -0.28176288472E+02  0.33138177186E+02  0.00000000000E+00 0.  1.
</event>
<event>
 8    1  0.2521748E-006  0.9118800E+02  0.7816164E-02  0.1184000E+00
        -11   -1    0    0    0    0  0.00000000000E+00  0.00000000000E+00  0.45593999997E+02  0.45594000000E+02  0.51100000000E-03 0. -1.
         11   -1    0    0    0    0 -0.00000000000E+00 -0.00000000000E+00 -0.45593999997E+02  0.45594000000E+02  0.51100000000E-03 0.  1.
         23    2    1    2    0    0 -0.17763568394E-14 -0.88817841970E-15  0.00000000000E+00  0.91188000000E+02  0.91188000000E+02 0.  0.
    9900012    2    3    3    0    0  0.15464090001E+02 -0.67695127184E+01  0.32723113893E+02  0.54367264471E+02  0.40000411013E+02 0.  0.
        -12    1    3    3    0    0 -0.15464090001E+02  0.67695127184E+01 -0.32723113893E+02  0.36820735529E+02  0.00000000000E+00 0.  1.
         11    1    4    4    0    0  0.69070395402E+01 -0.52492857735E+01  0.50050199948E+01  0.10015608906E+02  0.51100000000E-03 0. -1.
        -11    1    4    4    0    0  0.12978277243E+02  0.12524613731E+02  0.22256563848E+02  0.28647098699E+02  0.51100000000E-03 0.  1.
        -12    1    4    4    0    0 -0.44212267820E+01 -0.14044840676E+02  0.54615300504E+01  0.15704556866E+02  0.00000000000E+00 0.  1.
</event>
<event>
 8    1  0.2521748E-006  0.9118800E+02  0.7816164E-02  0.1184000E+00
        -11   -1    0    0    0    0  0.00000000000E+00  0.00000000000E+00  0.45593999997E+02  0.45594000000E+02  0.51100000000E-03 0.  1.
         11   -1    0    0    0    0 -0.00000000000E+00 -0.00000000000E+00 -0.45593999997E+02  0.45594000000E+02  0.51100000000E-03 0. -1.
         23    2    1    2    0    0  0.11102230246E-14  0.00000000000E+00  0.71054273576E-14  0.91188000000E+02  0.91188000000E+02 0.  0.
    9900012    2    3    3    0    0 -0.15379725238E+01  0.99485983388E+01 -0.35418071981E+02  0.54367084867E+02  0.40000001572E+02 0.  0.
        -12    1    3    3    0    0  0.15379725238E+01 -0.99485983388E+01  0.35418071981E+02  0.36820915133E+02  0.00000000000E+00 0.  1.
         11    1    4    4    0    0  0.25002458318E+01  0.23906412176E+01 -0.27866555794E+02  0.28080443848E+02  0.51100000000E-03 0. -1.
        -11    1    4    4    0    0 -0.10866625603E+02  0.84198319641E-01  0.33868900996E+01  0.11382515810E+02  0.51100000000E-03 0.  1.
        -12    1    4    4    0    0  0.68284072473E+01  0.74737588016E+01 -0.10938406287E+02  0.14904125209E+02  0.00000000000E+00 0.  1.
</event>
<event>
 8    1  0.2521748E-006  0.9118800E+02  0.7816164E-02  0.1184000E+00
        -11   -1    0    0    0    0  0.00000000000E+00  0.00000000000E+00  0.45593999997E+02  0.45594000000E+02  0.51100000000E-03 0.  1.
         11   -1    0    0    0    0 -0.00000000000E+00 -0.00000000000E+00 -0.45593999997E+02  0.45594000000E+02  0.51100000000E-03 0. -1.
         23    2    1    2    0    0  0.00000000000E+00 -0.71054273576E-14  0.00000000000E+00  0.91188000000E+02  0.91188000000E+02 0.  0.
    9900012    2    3    3    0    0  0.90393107781E+01  0.34930208761E+02  0.73452121480E+01  0.54367071645E+02  0.39999971429E+02 0.  0.
         12    1    3    3    0    0 -0.90393107781E+01 -0.34930208761E+02 -0.73452121480E+01  0.36820928355E+02  0.00000000000E+00 0. -1.
         11    1    4    4    0    0  0.12182299986E+02  0.10207564544E+02 -0.36755696352E+01  0.16312958630E+02  0.51100000000E-03 0. -1.
        -11    1    4    4    0    0  0.53790322084E+01  0.26088747784E+02  0.12280186350E+02  0.29331889225E+02  0.51100000000E-03 0.  1.
         12    1    4    4    0    0 -0.85220214160E+01 -0.13661035676E+01 -0.12594045672E+01  0.87222237896E+01  0.00000000000E+00 0. -1.
</event>
<event>
 8    1  0.2521748E-006  0.9118800E+02  0.7816164E-02  0.1184000E+00
        -11   -1    0    0    0    0  0.00000000000E+00  0.00000000000E+00  0.45593999997E+02  0.45594000000E+02  0.51100000000E-03 0.  1.
         11   -1    0    0    0    0 -0.00000000000E+00 -0.00000000000E+00 -0.45593999997E+02  0.45594000000E+02  0.51100000000E-03 0. -1.
         23    2    1    2    0    0  0.00000000000E+00  0.35527136788E-14  0.35527136788E-14  0.91188000000E+02  0.91188000000E+02 0.  0.
    9900012    2    3    3    0    0 -0.83619208981E+01  0.27650818849E+02 -0.22832195607E+02  0.54366828639E+02  0.39999417444E+02 0.  0.
        -12    1    3    3    0    0  0.83619208981E+01 -0.27650818849E+02  0.22832195607E+02  0.36821171361E+02  0.00000000000E+00 0.  1.
         11    1    4    4    0    0 -0.57882453386E+01 -0.47870518122E+01  0.52234047800E+01  0.91489675324E+01  0.51100000000E-03 0. -1.
        -11    1    4    4    0    0  0.38937980998E+01  0.40910223568E+01 -0.83996603947E+01  0.10121878411E+02  0.51100000000E-03 0.  1.
         12    1    4    4    0    0 -0.64674736593E+01  0.28346848305E+02 -0.19655939993E+02  0.35095982695E+02  0.00000000000E+00 0. -1.
</event>
<event>
 8    1  0.2521748E-006  0.9118800E+02  0.7816164E-02  0.1184000E+00
        -11   -1    0    0    0    0  0.00000000000E+00  0.00000000000E+00  0.45593999997E+02  0.45594000000E+02  0.51100000000E-03 0.  1.
         11   -1    0    0    0    0 -0.00000000000E+00 -0.00000000000E+00 -0.45593999997E+02  0.45594000000E+02  0.51100000000E-03 0. -1.
         23    2    1    2    0    0  0.00000000000E+00  0.00000000000E+00  0.00000000000E+00  0.91188000000E+02  0.91188000000E+02 0.  0.
    9900012    2    3    3    0    0 -0.28903437448E+02  0.12887103710E+02 -0.18822746993E+02  0.54367055652E+02  0.39999934970E+02 0.  0.
        -12    1    3    3    0    0  0.28903437448E+02 -0.12887103710E+02  0.18822746993E+02  0.36820944348E+02  0.00000000000E+00 0.  1.
         11    1    4    4    0    0 -0.70714376489E+01  0.18123128454E+02 -0.13385115952E+02  0.23613859165E+02  0.51100000000E-03 0. -1.
        -11    1    4    4    0    0 -0.15400518298E+02  0.32591900330E+01 -0.10534906867E+02  0.18941556073E+02  0.51100000000E-03 0.  1.
        -12    1    4    4    0    0 -0.64314815008E+01 -0.84952147764E+01  0.50972758268E+01  0.11811640413E+02  0.00000000000E+00 0.  1.
</event>
<event>
 8    1  0.2521748E-006  0.9118800E+02  0.7816164E-02  0.1184000E+00
        -11   -1    0    0    0    0  0.00000000000E+00  0.00000000000E+00  0.45593999997E+02  0.45594000000E+02  0.51100000000E-03 0.  1.
         11   -1    0    0    0    0 -0.00000000000E+00 -0.00000000000E+00 -0.45593999997E+02  0.45594000000E+02  0.51100000000E-03 0. -1.
         23    2    1    2    0    0  0.00000000000E+00  0.00000000000E+00  0.00000000000E+00  0.91188000000E+02  0.91188000000E+02 0.  0.
    9900012    2    3    3    0    0  0.32515970750E+02  0.16995377036E+02 -0.31058153059E+01  0.54367118925E+02  0.40000079213E+02 0.  0.
        -12    1    3    3    0    0 -0.32515970750E+02 -0.16995377036E+02  0.31058153059E+01  0.36820881075E+02  0.00000000000E+00 0.  1.
         11    1    4    4    0    0  0.11507693466E+02  0.16622379003E+02  0.10009974992E+02  0.22559478988E+02  0.51100000000E-03 0. -1.
        -11    1    4    4    0    0  0.10732064519E+02  0.94032793477E+00  0.42825503288E+01  0.11593173123E+02  0.51100000000E-03 0.  1.
         12    1    4    4    0    0  0.10276212765E+02 -0.56732990207E+00 -0.17398340627E+02  0.20214466814E+02  0.00000000000E+00 0. -1.
</event>
<event>
 8    1  0.2521748E-006  0.9118800E+02  0.7816164E-02  0.1184000E+00
        -11   -1    0    0    0    0  0.00000000000E+00  0.00000000000E+00  0.45593999997E+02  0.45594000000E+02  0.51100000000E-03 0. -1.
         11   -1    0    0    0    0 -0.00000000000E+00 -0.00000000000E+00 -0.45593999997E+02  0.45594000000E+02  0.51100000000E-03 0.  1.
         23    2    1    2    0    0  0.00000000000E+00 -0.44408920985E-15  0.00000000000E+00  0.91188000000E+02  0.91188000000E+02 0.  0.
    9900012    2    3    3    0    0 -0.23161878542E+02 -0.37326838050E+01 -0.28379115566E+02  0.54367085478E+02  0.40000002963E+02 0.  0.
         12    1    3    3    0    0  0.23161878542E+02  0.37326838050E+01  0.28379115566E+02  0.36820914522E+02  0.00000000000E+00 0. -1.
         11    1    4    4    0    0 -0.37595296283E+01  0.83306436879E+01 -0.12007361683E+02  0.15090076942E+02  0.51100000000E-03 0. -1.
        -11    1    4    4    0    0 -0.25333557687E+02 -0.14564829113E+02 -0.12660841460E+02  0.31846825571E+02  0.51100000000E-03 0.  1.
         12    1    4    4    0    0  0.59312087738E+01  0.25015016202E+01 -0.37109124228E+01  0.74301829644E+01  0.00000000000E+00 0. -1.
</event>
<event>
 8    1  0.2521748E-006  0.9118800E+02  0.7816164E-02  0.1184000E+00
        -11   -1    0    0    0    0  0.00000000000E+00  0.00000000000E+00  0.45593999997E+02  0.45594000000E+02  0.51100000000E-03 0.  1.
         11   -1    0    0    0    0 -0.00000000000E+00 -0.00000000000E+00 -0.45593999997E+02  0.45594000000E+02  0.51100000000E-03 0. -1.
         23    2    1    2    0    0  0.88817841970E-15  0.00000000000E+00  0.00000000000E+00  0.91188000000E+02  0.91188000000E+02 0.  0.
    9900012    2    3    3    0    0 -0.39392708150E+01  0.22838520761E+02 -0.28612431587E+02  0.54366985261E+02  0.39999774499E+02 0.  0.
        -12    1    3    3    0    0  0.39392708150E+01 -0.22838520761E+02  0.28612431587E+02  0.36821014739E+02  0.00000000000E+00 0.  1.
         11    1    4    4    0    0  0.26131783720E+01  0.20419032153E+02 -0.28135477431E+01  0.20776949401E+02  0.51100000000E-03 0. -1.
        -11    1    4    4    0    0 -0.94899069936E+01  0.93023927901E+01 -0.12060699557E+02  0.17945844099E+02  0.51100000000E-03 0.  1.
         12    1    4    4    0    0  0.29374578066E+01 -0.68829041821E+01 -0.13738184287E+02  0.15644191760E+02  0.00000000000E+00 0. -1.
</event>
<event>
 8    1  0.2521748E-006  0.9118800E+02  0.7816164E-02  0.1184000E+00
        -11   -1    0    0    0    0  0.00000000000E+00  0.00000000000E+00  0.45593999997E+02  0.45594000000E+02  0.51100000000E-03 0.  1.
         11   -1    0    0    0    0 -0.00000000000E+00 -0.00000000000E+00 -0.45593999997E+02  0.45594000000E+02  0.51100000000E-03 0. -1.
         23    2    1    2    0    0 -0.71054273576E-14 -0.17763568394E-14  0.17763568394E-14  0.91188000000E+02  0.91188000000E+02 0.  0.
    9900012    2    3    3    0    0 -0.32043755653E+02 -0.10762600701E+02  0.14599458778E+02  0.54367081396E+02  0.39999993659E+02 0.  0.
         12    1    3    3    0    0  0.32043755653E+02  0.10762600701E+02 -0.14599458778E+02  0.36820918604E+02  0.00000000000E+00 0. -1.
         11    1    4    4    0    0 -0.25047402752E+02 -0.13429193744E+02 -0.36557606871E+01  0.28654497303E+02  0.51100000000E-03 0. -1.
        -11    1    4    4    0    0 -0.89402732276E+01 -0.49410534709E+01  0.11169771588E+02  0.15136257542E+02  0.51100000000E-03 0.  1.
        -12    1    4    4    0    0  0.19439203267E+01  0.76076465131E+01  0.70854478774E+01  0.10576326552E+02  0.00000000000E+00 0.  1.
</event>
<event>
 8    1  0.2521748E-006  0.9118800E+02  0.7816164E-02  0.1184000E+00
        -11   -1    0    0    0    0  0.00000000000E+00  0.00000000000E+00  0.45593999997E+02  0.45594000000E+02  0.51100000000E-03 0.  1.
         11   -1    0    0    0    0 -0.00000000000E+00 -0.00000000000E+00 -0.45593999997E+02  0.45594000000E+02  0.51100000000E-03 0. -1.
         23    2    1    2    0    0  0.00000000000E+00  0.00000000000E+00  0.00000000000E+00  0.91188000000E+02  0.91188000000E+02 0.  0.
    9900012    2    3    3    0    0 -0.21647175716E+02 -0.23898118445E+02  0.17777960996E+02  0.54367133920E+02  0.40000113397E+02 0.  0.
         12    1    3    3    0    0  0.21647175716E+02  0.23898118445E+02 -0.17777960996E+02  0.36820866080E+02  0.00000000000E+00 0. -1.
         11    1    4    4    0    0  0.57043470355E+01 -0.60913340516E+01 -0.39486146943E+01  0.92323065317E+01  0.51100000000E-03 0. -1.
        -11    1    4    4    0    0 -0.27939017674E+02 -0.13711886598E+02  0.99836168579E+01  0.32684509305E+02  0.51100000000E-03 0.  1.
        -12    1    4    4    0    0  0.58749492226E+00 -0.40948977959E+01  0.11742958832E+02  0.12450318084E+02  0.00000000000E+00 0.  1.
</event>
<event>
 8    1  0.2521748E-006  0.9118800E+02  0.7816164E-02  0.1184000E+00
        -11   -1    0    0    0    0  0.00000000000E+00  0.00000000000E+00  0.45593999997E+02  0.45594000000E+02  0.51100000000E-03 0.  1.
         11   -1    0    0    0    0 -0.00000000000E+00 -0.00000000000E+00 -0.45593999997E+02  0.45594000000E+02  0.51100000000E-03 0. -1.
         23    2    1    2    0    0 -0.88817841970E-15  0.00000000000E+00  0.00000000000E+00  0.91188000000E+02  0.91188000000E+02 0.  0.
    9900012    2    3    3    0    0 -0.54905193956E+01  0.94257957999E+01 -0.35167856559E+02  0.54367223736E+02  0.40000318150E+02 0.  0.
        -12    1    3    3    0    0  0.54905193956E+01 -0.94257957999E+01  0.35167856559E+02  0.36820776264E+02  0.00000000000E+00 0.  1.
         11    1    4    4    0    0 -0.16595637640E+02 -0.53245666356E+00 -0.24954389593E+02  0.29973659419E+02  0.51100000000E-03 0. -1.
        -11    1    4    4    0    0  0.14849432925E+02  0.10209369347E+02 -0.10058602359E+02  0.20637644302E+02  0.51100000000E-03 0.  1.
         12    1    4    4    0    0 -0.37443146802E+01 -0.25111688304E+00 -0.15486460768E+00  0.37559200151E+01  0.00000000000E+00 0. -1.
</event>
<event>
 8    1  0.2521748E-006  0.9118800E+02  0.7816164E-02  0.1184000E+00
        -11   -1    0    0    0    0  0.00000000000E+00  0.00000000000E+00  0.45593999997E+02  0.45594000000E+02  0.51100000000E-03 0. -1.
         11   -1    0    0    0    0 -0.00000000000E+00 -0.00000000000E+00 -0.45593999997E+02  0.45594000000E+02  0.51100000000E-03 0.  1.
         23    2    1    2    0    0  0.00000000000E+00  0.88817841970E-15  0.35527136788E-14  0.91188000000E+02  0.91188000000E+02 0.  0.
    9900012    2    3    3    0    0  0.28906798938E+02  0.64561972757E+01 -0.21874509830E+02  0.54367086263E+02  0.40000004753E+02 0.  0.
         12    1    3    3    0    0 -0.28906798938E+02 -0.64561972757E+01  0.21874509830E+02  0.36820913737E+02  0.00000000000E+00 0. -1.
         11    1    4    4    0    0  0.25520763579E+02  0.15002497411E+02  0.76404328697E+00  0.29613646595E+02  0.51100000000E-03 0. -1.
        -11    1    4    4    0    0  0.28257308761E+01 -0.59167715214E+01 -0.10979119811E+02  0.12788041770E+02  0.51100000000E-03 0.  1.
         12    1    4    4    0    0  0.56030448336E+00 -0.26295286140E+01 -0.11659433306E+02  0.11965397898E+02  0.00000000000E+00 0. -1.
</event>
<event>
 8    1  0.2521748E-006  0.9118800E+02  0.7816164E-02  0.1184000E+00
        -11   -1    0    0    0    0  0.00000000000E+00  0.00000000000E+00  0.45593999997E+02  0.45594000000E+02  0.51100000000E-03 0. -1.
         11   -1    0    0    0    0 -0.00000000000E+00 -0.00000000000E+00 -0.45593999997E+02  0.45594000000E+02  0.51100000000E-03 0.  1.
         23    2    1    2    0    0  0.88817841970E-15  0.00000000000E+00  0.00000000000E+00  0.91188000000E+02  0.91188000000E+02 0.  0.
    9900012    2    3    3    0    0  0.13586868005E+01 -0.35148021190E+02  0.10888066378E+02  0.54367090006E+02  0.40000013286E+02 0.  0.
        -12    1    3    3    0    0 -0.13586868005E+01  0.35148021190E+02 -0.10888066378E+02  0.36820909994E+02  0.00000000000E+00 0.  1.
         11    1    4    4    0    0  0.98775429356E+01 -0.62758305473E+01  0.18639330143E+02  0.22008555880E+02  0.51100000000E-03 0.  1.
        -11    1    4    4    0    0 -0.68488384163E+01 -0.23034557003E+02 -0.97968379611E+01  0.25951405323E+02  0.51100000000E-03 0. -1.
        -12    1    4    4    0    0 -0.16700177189E+01 -0.58376336398E+01  0.20455741961E+01  0.64071288020E+01  0.00000000000E+00 0.  1.
</event>
<event>
 8    1  0.2521748E-006  0.9118800E+02  0.7816164E-02  0.1184000E+00
        -11   -1    0    0    0    0  0.00000000000E+00  0.00000000000E+00  0.45593999997E+02  0.45594000000E+02  0.51100000000E-03 0. -1.
         11   -1    0    0    0    0 -0.00000000000E+00 -0.00000000000E+00 -0.45593999997E+02  0.45594000000E+02  0.51100000000E-03 0.  1.
         23    2    1    2    0    0 -0.35527136788E-14  0.00000000000E+00  0.35527136788E-14  0.91188000000E+02  0.91188000000E+02 0.  0.
    9900012    2    3    3    0    0  0.29923635355E+02  0.17231907553E+01 -0.21386583897E+02  0.54367091401E+02  0.40000016468E+02 0.  0.
         12    1    3    3    0    0 -0.29923635355E+02 -0.17231907553E+01  0.21386583897E+02  0.36820908599E+02  0.00000000000E+00 0. -1.
         11    1    4    4    0    0  0.10067650893E+02  0.30395879634E+01 -0.27757691843E+02  0.29683095294E+02  0.51100000000E-03 0. -1.
        -11    1    4    4    0    0  0.16831843021E+01 -0.42560676254E+01  0.40829164050E+01  0.61333047909E+01  0.51100000000E-03 0.  1.
        -12    1    4    4    0    0  0.18172800160E+02  0.29396704173E+01  0.22881915409E+01  0.18550691317E+02  0.00000000000E+00 0.  1.
</event>
<event>
 8    1  0.2521748E-006  0.9118800E+02  0.7816164E-02  0.1184000E+00
        -11   -1    0    0    0    0  0.00000000000E+00  0.00000000000E+00  0.45593999997E+02  0.45594000000E+02  0.51100000000E-03 0. -1.
         11   -1    0    0    0    0 -0.00000000000E+00 -0.00000000000E+00 -0.45593999997E+02  0.45594000000E+02  0.51100000000E-03 0.  1.
         23    2    1    2    0    0  0.71054273576E-14 -0.35527136788E-14 -0.35527136788E-14  0.91188000000E+02  0.91188000000E+02 0.  0.
    9900012    2    3    3    0    0  0.28267218474E+02 -0.16484195435E+02 -0.16882441602E+02  0.54367066093E+02  0.39999958772E+02 0.  0.
         12    1    3    3    0    0 -0.28267218474E+02  0.16484195435E+02  0.16882441602E+02  0.36820933907E+02  0.00000000000E+00 0. -1.
         11    1    4    4    0    0  0.69940201566E+01 -0.10233088522E+02  0.57676283330E+01  0.13671062706E+02  0.51100000000E-03 0. -1.
        -11    1    4    4    0    0  0.49518528488E+01 -0.12683015871E+02 -0.17958811787E+02  0.22536607094E+02  0.51100000000E-03 0.  1.
         12    1    4    4    0    0  0.16321345468E+02  0.64319089584E+01 -0.46912581476E+01  0.18159396294E+02  0.00000000000E+00 0. -1.
</event>
<event>
 8    1  0.2521748E-006  0.9118800E+02  0.7816164E-02  0.1184000E+00
        -11   -1    0    0    0    0  0.00000000000E+00  0.00000000000E+00  0.45593999997E+02  0.45594000000E+02  0.51100000000E-03 0.  1.
         11   -1    0    0    0    0 -0.00000000000E+00 -0.00000000000E+00 -0.45593999997E+02  0.45594000000E+02  0.51100000000E-03 0. -1.
         23    2    1    2    0    0 -0.17763568394E-14  0.00000000000E+00  0.00000000000E+00  0.91188000000E+02  0.91188000000E+02 0.  0.
    9900012    2    3    3    0    0 -0.10897746099E+02  0.10174375655E+02  0.33667515113E+02  0.54367077091E+02  0.39999983844E+02 0.  0.
         12    1    3    3    0    0  0.10897746099E+02 -0.10174375655E+02 -0.33667515113E+02  0.36820922909E+02  0.00000000000E+00 0. -1.
         11    1    4    4    0    0 -0.48361154287E+01  0.11913399282E+02  0.19453331191E+02  0.23318430256E+02  0.51100000000E-03 0. -1.
        -11    1    4    4    0    0  0.65868267846E+01  0.78385743004E+01  0.10678586308E+02  0.14793976475E+02  0.51100000000E-03 0.  1.
         12    1    4    4    0    0 -0.12648457454E+02 -0.95775979273E+01  0.35355976140E+01  0.16254670360E+02  0.00000000000E+00 0. -1.
</event>
<event>
 8    1  0.2521748E-006  0.9118800E+02  0.7816164E-02  0.1184000E+00
        -11   -1    0    0    0    0  0.00000000000E+00  0.00000000000E+00  0.45593999997E+02  0.45594000000E+02  0.51100000000E-03 0.  1.
         11   -1    0    0    0    0 -0.00000000000E+00 -0.00000000000E+00 -0.45593999997E+02  0.45594000000E+02  0.51100000000E-03 0. -1.
         23    2    1    2    0    0  0.00000000000E+00 -0.71054273576E-14 -0.71054273576E-14  0.91188000000E+02  0.91188000000E+02 0.  0.
    9900012    2    3    3    0    0  0.88438338322E+01  0.31897682112E+02  0.16127737268E+02  0.54367089768E+02  0.40000012744E+02 0.  0.
        -12    1    3    3    0    0 -0.88438338322E+01 -0.31897682112E+02 -0.16127737268E+02  0.36820910232E+02  0.00000000000E+00 0.  1.
         11    1    4    4    0    0  0.64297223422E+01  0.17178610483E+01 -0.10573512559E+02  0.12493660156E+02  0.51100000000E-03 0. -1.
        -11    1    4    4    0    0 -0.43302035289E+01  0.91036282887E+01  0.73378933541E+01  0.12468816694E+02  0.51100000000E-03 0.  1.
         12    1    4    4    0    0  0.67443150189E+01  0.21076192775E+02  0.19363356473E+02  0.29404612918E+02  0.00000000000E+00 0. -1.
</event>
<event>
 8    1  0.2521748E-006  0.9118800E+02  0.7816164E-02  0.1184000E+00
        -11   -1    0    0    0    0  0.00000000000E+00  0.00000000000E+00  0.45593999997E+02  0.45594000000E+02  0.51100000000E-03 0. -1.
         11   -1    0    0    0    0 -0.00000000000E+00 -0.00000000000E+00 -0.45593999997E+02  0.45594000000E+02  0.51100000000E-03 0.  1.
         23    2    1    2    0    0  0.35527136788E-14  0.00000000000E+00  0.17763568394E-14  0.91188000000E+02  0.91188000000E+02 0.  0.
    9900012    2    3    3    0    0 -0.26938907612E+02  0.23966645746E+02 -0.74615565178E+01  0.54367086414E+02  0.40000005097E+02 0.  0.
         12    1    3    3    0    0  0.26938907612E+02 -0.23966645746E+02  0.74615565178E+01  0.36820913586E+02  0.00000000000E+00 0. -1.
         11    1    4    4    0    0 -0.86110069073E+00  0.79069538231E-01  0.79949131585E+01  0.80415410877E+01  0.51100000000E-03 0. -1.
        -11    1    4    4    0    0  0.84050963210E+00  0.36528711670E+01 -0.11883966324E+02  0.12461082620E+02  0.51100000000E-03 0.  1.
         12    1    4    4    0    0 -0.26918316553E+02  0.20234705041E+02 -0.35725033521E+01  0.33864462706E+02  0.00000000000E+00 0. -1.
</event>
<event>
 8    1  0.2521748E-006  0.9118800E+02  0.7816164E-02  0.1184000E+00
        -11   -1    0    0    0    0  0.00000000000E+00  0.00000000000E+00  0.45593999997E+02  0.45594000000E+02  0.51100000000E-03 0. -1.
         11   -1    0    0    0    0 -0.00000000000E+00 -0.00000000000E+00 -0.45593999997E+02  0.45594000000E+02  0.51100000000E-03 0.  1.
         23    2    1    2    0    0  0.00000000000E+00 -0.17763568394E-14  0.71054273576E-14  0.91188000000E+02  0.91188000000E+02 0.  0.
    9900012    2    3    3    0    0  0.86756534875E+01 -0.14922118187E+02  0.32524501619E+02  0.54367085017E+02  0.40000001913E+02 0.  0.
        -12    1    3    3    0    0 -0.86756534875E+01  0.14922118187E+02 -0.32524501619E+02  0.36820914983E+02  0.00000000000E+00 0.  1.
         11    1    4    4    0    0  0.17425588295E+00 -0.12551187868E+02  0.28476865912E+02  0.31120645470E+02  0.51100000000E-03 0. -1.
        -11    1    4    4    0    0  0.12922028256E+02 -0.81905007310E+01  0.44320728494E+01  0.15928163312E+02  0.51100000000E-03 0.  1.
        -12    1    4    4    0    0 -0.44206306518E+01  0.58195704124E+01 -0.38443714213E+00  0.73182762356E+01  0.00000000000E+00 0.  1.
</event>
<event>
 8    1  0.2521748E-006  0.9118800E+02  0.7816164E-02  0.1184000E+00
        -11   -1    0    0    0    0  0.00000000000E+00  0.00000000000E+00  0.45593999997E+02  0.45594000000E+02  0.51100000000E-03 0.  1.
         11   -1    0    0    0    0 -0.00000000000E+00 -0.00000000000E+00 -0.45593999997E+02  0.45594000000E+02  0.51100000000E-03 0. -1.
         23    2    1    2    0    0  0.00000000000E+00 -0.35527136788E-14  0.11102230246E-15  0.91188000000E+02  0.91188000000E+02 0.  0.
    9900012    2    3    3    0    0 -0.18376813313E+02  0.31905737198E+02  0.30909523369E+00  0.54367097328E+02  0.40000029978E+02 0.  0.
         12    1    3    3    0    0  0.18376813313E+02 -0.31905737198E+02 -0.30909523369E+00  0.36820902672E+02  0.00000000000E+00 0. -1.
         11    1    4    4    0    0  0.15683707480E+01 -0.29487434493E+01  0.25511295398E+01  0.42027534930E+01  0.51100000000E-03 0. -1.
        -11    1    4    4    0    0 -0.21004509786E+02  0.97309820928E+01  0.56135785930E+01  0.23820027471E+02  0.51100000000E-03 0.  1.
         12    1    4    4    0    0  0.10593257254E+01  0.25123498555E+02 -0.78556128991E+01  0.26344316363E+02  0.00000000000E+00 0. -1.
</event>
<event>
 8    1  0.2521748E-006  0.9118800E+02  0.7816164E-02  0.1184000E+00
        -11   -1    0    0    0    0  0.00000000000E+00  0.00000000000E+00  0.45593999997E+02  0.45594000000E+02  0.51100000000E-03 0. -1.
         11   -1    0    0    0    0 -0.00000000000E+00 -0.00000000000E+00 -0.45593999997E+02  0.45594000000E+02  0.51100000000E-03 0.  1.
         23    2    1    2    0    0  0.35527136788E-14  0.00000000000E+00  0.00000000000E+00  0.91188000000E+02  0.91188000000E+02 0.  0.
    9900012    2    3    3    0    0 -0.27703051909E+02  0.88850130174E+01 -0.22569382935E+02  0.54367087634E+02  0.40000007879E+02 0.  0.
         12    1    3    3    0    0  0.27703051909E+02 -0.88850130174E+01  0.22569382935E+02  0.36820912366E+02  0.00000000000E+00 0. -1.
         11    1    4    4    0    0 -0.10071930473E+02 -0.84133348102E+01 -0.18746971119E+01  0.13256789793E+02  0.51100000000E-03 0. -1.
        -11    1    4    4    0    0 -0.24017500509E+02  0.16174730289E+02 -0.15804243990E+02  0.32988427652E+02  0.51100000000E-03 0.  1.
         12    1    4    4    0    0  0.63863790733E+01  0.11236175391E+01 -0.48904418339E+01  0.81218701893E+01  0.00000000000E+00 0. -1.
</event>
<event>
 8    1  0.2521748E-006  0.9118800E+02  0.7816164E-02  0.1184000E+00
        -11   -1    0    0    0    0  0.00000000000E+00  0.00000000000E+00  0.45593999997E+02  0.45594000000E+02  0.51100000000E-03 0.  1.
         11   -1    0    0    0    0 -0.00000000000E+00 -0.00000000000E+00 -0.45593999997E+02  0.45594000000E+02  0.51100000000E-03 0. -1.
         23    2    1    2    0    0 -0.22204460493E-15  0.35527136788E-14  0.00000000000E+00  0.91188000000E+02  0.91188000000E+02 0.  0.
    9900012    2    3    3    0    0  0.10738058603E+01  0.19973757561E+02 -0.30914030034E+02  0.54367064337E+02  0.39999954769E+02 0.  0.
        -12    1    3    3    0    0 -0.10738058603E+01 -0.19973757561E+02  0.30914030034E+02  0.36820935663E+02  0.00000000000E+00 0.  1.
         11    1    4    4    0    0  0.13238276412E+02  0.10406647084E+02 -0.27459588548E+02  0.32211477293E+02  0.51100000000E-03 0. -1.
        -11    1    4    4    0    0 -0.54252794163E+01  0.11893234994E+02 -0.62603466484E+01  0.14493951696E+02  0.51100000000E-03 0.  1.
        -12    1    4    4    0    0 -0.67391911354E+01 -0.23261245160E+01  0.28059051623E+01  0.76616353478E+01  0.00000000000E+00 0.  1.
</event>
<event>
 8    1  0.2521748E-006  0.9118800E+02  0.7816164E-02  0.1184000E+00
        -11   -1    0    0    0    0  0.00000000000E+00  0.00000000000E+00  0.45593999997E+02  0.45594000000E+02  0.51100000000E-03 0. -1.
         11   -1    0    0    0    0 -0.00000000000E+00 -0.00000000000E+00 -0.45593999997E+02  0.45594000000E+02  0.51100000000E-03 0.  1.
         23    2    1    2    0    0 -0.35527136788E-14  0.00000000000E+00  0.00000000000E+00  0.91188000000E+02  0.91188000000E+02 0.  0.
    9900012    2    3    3    0    0  0.28033501632E+02  0.20575370433E+02  0.12106095252E+02  0.54367073553E+02  0.39999975778E+02 0.  0.
        -12    1    3    3    0    0 -0.28033501632E+02 -0.20575370433E+02 -0.12106095252E+02  0.36820926447E+02  0.00000000000E+00 0.  1.
         11    1    4    4    0    0  0.14482503096E+02  0.21270992351E+02  0.74251012858E+01  0.26783019637E+02  0.51100000000E-03 0. -1.
        -11    1    4    4    0    0  0.24829214105E+01  0.98995160427E+01  0.65823792246E+01  0.12144670977E+02  0.51100000000E-03 0.  1.
        -12    1    4    4    0    0  0.11068077126E+02 -0.10595137960E+02 -0.19013852582E+01  0.15439382939E+02  0.00000000000E+00 0.  1.
</event>
<event>
 8    1  0.2521748E-006  0.9118800E+02  0.7816164E-02  0.1184000E+00
        -11   -1    0    0    0    0  0.00000000000E+00  0.00000000000E+00  0.45593999997E+02  0.45594000000E+02  0.51100000000E-03 0. -1.
         11   -1    0    0    0    0 -0.00000000000E+00 -0.00000000000E+00 -0.45593999997E+02  0.45594000000E+02  0.51100000000E-03 0.  1.
         23    2    1    2    0    0  0.11657341759E-14  0.00000000000E+00 -0.35527136788E-14  0.91188000000E+02  0.91188000000E+02 0.  0.
    9900012    2    3    3    0    0 -0.12921035012E+00  0.28035106195E+02  0.23870396130E+02  0.54367086295E+02  0.40000004826E+02 0.  0.
         12    1    3    3    0    0  0.12921035012E+00 -0.28035106195E+02 -0.23870396130E+02  0.36820913705E+02  0.00000000000E+00 0. -1.
         11    1    4    4    0    0  0.62344218788E+01 -0.38389086406E+00  0.10621961268E+01  0.63359016116E+01  0.51100000000E-03 0. -1.
        -11    1    4    4    0    0  0.11910221114E+02  0.14594661780E+02  0.14051399013E+02  0.23501049634E+02  0.51100000000E-03 0.  1.
         12    1    4    4    0    0 -0.18273853343E+02  0.13824335279E+02  0.87568009910E+01  0.24530135049E+02  0.00000000000E+00 0. -1.
</event>
<event>
 8    1  0.2521748E-006  0.9118800E+02  0.7816164E-02  0.1184000E+00
        -11   -1    0    0    0    0  0.00000000000E+00  0.00000000000E+00  0.45593999997E+02  0.45594000000E+02  0.51100000000E-03 0.  1.
         11   -1    0    0    0    0 -0.00000000000E+00 -0.00000000000E+00 -0.45593999997E+02  0.45594000000E+02  0.51100000000E-03 0. -1.
         23    2    1    2    0    0  0.00000000000E+00  0.71054273576E-14 -0.44408920985E-15  0.91188000000E+02  0.91188000000E+02 0.  0.
    9900012    2    3    3    0    0  0.61055498481E+01 -0.36202272242E+02 -0.28101684719E+01  0.54367091520E+02  0.40000016738E+02 0.  0.
         12    1    3    3    0    0 -0.61055498481E+01  0.36202272242E+02  0.28101684719E+01  0.36820908480E+02  0.00000000000E+00 0. -1.
         11    1    4    4    0    0  0.68069360497E+01  0.79705450003E+00 -0.13401780514E+02  0.15052488016E+02  0.51100000000E-03 0. -1.
        -11    1    4    4    0    0 -0.33375883118E+01 -0.72986724009E+01  0.27447003371E+01  0.84819511173E+01  0.51100000000E-03 0.  1.
         12    1    4    4    0    0  0.26362021102E+01 -0.29700654341E+02  0.78469117052E+01  0.30832652386E+02  0.00000000000E+00 0. -1.
</event>
<event>
 8    1  0.2521748E-006  0.9118800E+02  0.7816164E-02  0.1184000E+00
        -11   -1    0    0    0    0  0.00000000000E+00  0.00000000000E+00  0.45593999997E+02  0.45594000000E+02  0.51100000000E-03 0. -1.
         11   -1    0    0    0    0 -0.00000000000E+00 -0.00000000000E+00 -0.45593999997E+02  0.45594000000E+02  0.51100000000E-03 0.  1.
         23    2    1    2    0    0  0.00000000000E+00  0.00000000000E+00  0.00000000000E+00  0.91188000000E+02  0.91188000000E+02 0.  0.
    9900012    2    3    3    0    0 -0.32904845811E+02 -0.12197652764E+02 -0.11147546455E+02  0.54367090142E+02  0.40000013597E+02 0.  0.
         12    1    3    3    0    0  0.32904845811E+02  0.12197652764E+02  0.11147546455E+02  0.36820909858E+02  0.00000000000E+00 0. -1.
         11    1    4    4    0    0  0.31587969196E+01 -0.46189078667E+01  0.36277529964E+01  0.66688004861E+01  0.51100000000E-03 0. -1.
        -11    1    4    4    0    0 -0.80449586603E+01 -0.11954503548E+02 -0.12796078636E+02  0.19270992285E+02  0.51100000000E-03 0.  1.
         12    1    4    4    0    0 -0.28018684070E+02  0.43757586511E+01 -0.19792208158E+01  0.28427297371E+02  0.00000000000E+00 0. -1.
</event>
<event>
 8    1  0.2521748E-006  0.9118800E+02  0.7816164E-02  0.1184000E+00
        -11   -1    0    0    0    0  0.00000000000E+00  0.00000000000E+00  0.45593999997E+02  0.45594000000E+02  0.51100000000E-03 0. -1.
         11   -1    0    0    0    0 -0.00000000000E+00 -0.00000000000E+00 -0.45593999997E+02  0.45594000000E+02  0.51100000000E-03 0.  1.
         23    2    1    2    0    0  0.00000000000E+00  0.00000000000E+00  0.00000000000E+00  0.91188000000E+02  0.91188000000E+02 0.  0.
    9900012    2    3    3    0    0 -0.15040052320E+02 -0.19500941756E+02 -0.27373147676E+02  0.54367094025E+02  0.40000022448E+02 0.  0.
         12    1    3    3    0    0  0.15040052320E+02  0.19500941756E+02  0.27373147676E+02  0.36820905975E+02  0.00000000000E+00 0. -1.
         11    1    4    4    0    0  0.47479540937E+01 -0.10932926586E+02 -0.30392826629E+00  0.11923268195E+02  0.51100000000E-03 0. -1.
        -11    1    4    4    0    0 -0.18199139889E+02 -0.52925443638E+01 -0.43645387577E+01  0.19449136674E+02  0.51100000000E-03 0.  1.
        -12    1    4    4    0    0 -0.15888665249E+01 -0.32754708061E+01 -0.22704680652E+02  0.22994689155E+02  0.00000000000E+00 0.  1.
</event>
<event>
 8    1  0.2521748E-006  0.9118800E+02  0.7816164E-02  0.1184000E+00
        -11   -1    0    0    0    0  0.00000000000E+00  0.00000000000E+00  0.45593999997E+02  0.45594000000E+02  0.51100000000E-03 0. -1.
         11   -1    0    0    0    0 -0.00000000000E+00 -0.00000000000E+00 -0.45593999997E+02  0.45594000000E+02  0.51100000000E-03 0.  1.
         23    2    1    2    0    0  0.55511151231E-15  0.71054273576E-14  0.00000000000E+00  0.91188000000E+02  0.91188000000E+02 0.  0.
    9900012    2    3    3    0    0 -0.51237894650E+00 -0.33456853145E+02  0.15367437056E+02  0.54367059270E+02  0.39999943218E+02 0.  0.
        -12    1    3    3    0    0  0.51237894650E+00  0.33456853145E+02 -0.15367437056E+02  0.36820940730E+02  0.00000000000E+00 0.  1.
         11    1    4    4    0    0 -0.99911026732E+01 -0.16311451607E+02  0.12747614585E+02  0.22986675793E+02  0.51100000000E-03 0.  1.
        -11    1    4    4    0    0  0.94476178530E+01 -0.18890894368E+02  0.10303586715E+02  0.23500793020E+02  0.51100000000E-03 0. -1.
        -12    1    4    4    0    0  0.31105873664E-01  0.17454928294E+01 -0.76837642447E+01  0.78795904565E+01  0.00000000000E+00 0.  1.
</event>
<event>
 8    1  0.2521748E-006  0.9118800E+02  0.7816164E-02  0.1184000E+00
        -11   -1    0    0    0    0  0.00000000000E+00  0.00000000000E+00  0.45593999997E+02  0.45594000000E+02  0.51100000000E-03 0.  1.
         11   -1    0    0    0    0 -0.00000000000E+00 -0.00000000000E+00 -0.45593999997E+02  0.45594000000E+02  0.51100000000E-03 0. -1.
         23    2    1    2    0    0  0.00000000000E+00 -0.88817841970E-15  0.00000000000E+00  0.91188000000E+02  0.91188000000E+02 0.  0.
    9900012    2    3    3    0    0 -0.33447198644E+02 -0.66039500884E+01  0.13908742595E+02  0.54367076947E+02  0.39999983516E+02 0.  0.
        -12    1    3    3    0    0  0.33447198644E+02  0.66039500884E+01 -0.13908742595E+02  0.36820923053E+02  0.00000000000E+00 0.  1.
         11    1    4    4    0    0 -0.32659868143E+02 -0.16552471752E+01  0.15295431904E+02  0.36102036892E+02  0.51100000000E-03 0. -1.
        -11    1    4    4    0    0  0.81867764977E+01 -0.98437002637E+00  0.55348721453E+00  0.82642992522E+01  0.51100000000E-03 0.  1.
         12    1    4    4    0    0 -0.89741069985E+01 -0.39643328869E+01 -0.19401765235E+01  0.10000740803E+02  0.00000000000E+00 0. -1.
</event>
<event>
 8    1  0.2521748E-006  0.9118800E+02  0.7816164E-02  0.1184000E+00
        -11   -1    0    0    0    0  0.00000000000E+00  0.00000000000E+00  0.45593999997E+02  0.45594000000E+02  0.51100000000E-03 0.  1.
         11   -1    0    0    0    0 -0.00000000000E+00 -0.00000000000E+00 -0.45593999997E+02  0.45594000000E+02  0.51100000000E-03 0. -1.
         23    2    1    2    0    0  0.00000000000E+00  0.71054273576E-14  0.00000000000E+00  0.91188000000E+02  0.91188000000E+02 0.  0.
    9900012    2    3    3    0    0  0.23745512863E+01 -0.20724889570E+02  0.30341726029E+02  0.54367083662E+02  0.39999998825E+02 0.  0.
         12    1    3    3    0    0 -0.23745512863E+01  0.20724889570E+02 -0.30341726029E+02  0.36820916338E+02  0.00000000000E+00 0. -1.
         11    1    4    4    0    0  0.66757572978E+01 -0.33597371105E+01  0.90854733678E+01  0.11764327245E+02  0.51100000000E-03 0. -1.
        -11    1    4    4    0    0 -0.12099044522E+02 -0.17544464276E+02  0.25887577878E+02  0.33531504495E+02  0.51100000000E-03 0.  1.
         12    1    4    4    0    0  0.77978385107E+01  0.17931181644E+00 -0.46313252162E+01  0.90712519216E+01  0.00000000000E+00 0. -1.
</event>
<event>
 8    1  0.2521748E-006  0.9118800E+02  0.7816164E-02  0.1184000E+00
        -11   -1    0    0    0    0  0.00000000000E+00  0.00000000000E+00  0.45593999997E+02  0.45594000000E+02  0.51100000000E-03 0.  1.
         11   -1    0    0    0    0 -0.00000000000E+00 -0.00000000000E+00 -0.45593999997E+02  0.45594000000E+02  0.51100000000E-03 0. -1.
         23    2    1    2    0    0  0.00000000000E+00 -0.35527136788E-14  0.88817841970E-15  0.91188000000E+02  0.91188000000E+02 0.  0.
    9900012    2    3    3    0    0 -0.20614694593E+02  0.30110292683E+02 -0.49191779825E+01  0.54366896396E+02  0.39999571911E+02 0.  0.
         12    1    3    3    0    0  0.20614694593E+02 -0.30110292683E+02  0.49191779825E+01  0.36821103604E+02  0.00000000000E+00 0. -1.
         11    1    4    4    0    0 -0.15231639653E+02  0.39846239902E+01 -0.12985343975E+02  0.20408312847E+02  0.51100000000E-03 0. -1.
        -11    1    4    4    0    0 -0.93358968107E+01  0.15339454608E+02 -0.27664232136E+01  0.18168955242E+02  0.51100000000E-03 0.  1.
        -12    1    4    4    0    0  0.39528418705E+01  0.10786214085E+02  0.10832589206E+02  0.15789628306E+02  0.00000000000E+00 0.  1.
</event>
<event>
 8    1  0.2521748E-006  0.9118800E+02  0.7816164E-02  0.1184000E+00
        -11   -1    0    0    0    0  0.00000000000E+00  0.00000000000E+00  0.45593999997E+02  0.45594000000E+02  0.51100000000E-03 0.  1.
         11   -1    0    0    0    0 -0.00000000000E+00 -0.00000000000E+00 -0.45593999997E+02  0.45594000000E+02  0.51100000000E-03 0. -1.
         23    2    1    2    0    0  0.88817841970E-15  0.17763568394E-14 -0.71054273576E-14  0.91188000000E+02  0.91188000000E+02 0.  0.
    9900012    2    3    3    0    0  0.61163757725E+01  0.15366472147E+02  0.32897424323E+02  0.54367094988E+02  0.40000024644E+02 0.  0.
         12    1    3    3    0    0 -0.61163757725E+01 -0.15366472147E+02 -0.32897424323E+02  0.36820905012E+02  0.00000000000E+00 0. -1.
         11    1    4    4    0    0  0.11219686379E+02 -0.43335484495E+01  0.54274394084E+01  0.13195381896E+02  0.51100000000E-03 0. -1.
        -11    1    4    4    0    0  0.86205984411E+01  0.11867896062E+02  0.10897913135E+02  0.18273647293E+02  0.51100000000E-03 0.  1.
        -12    1    4    4    0    0 -0.13723909047E+02  0.78321245346E+01  0.16572071779E+02  0.22898065798E+02  0.00000000000E+00 0.  1.
</event>
<event>
 8    1  0.2521748E-006  0.9118800E+02  0.7816164E-02  0.1184000E+00
        -11   -1    0    0    0    0  0.00000000000E+00  0.00000000000E+00  0.45593999997E+02  0.45594000000E+02  0.51100000000E-03 0.  1.
         11   -1    0    0    0    0 -0.00000000000E+00 -0.00000000000E+00 -0.45593999997E+02  0.45594000000E+02  0.51100000000E-03 0. -1.
         23    2    1    2    0    0  0.00000000000E+00  0.00000000000E+00  0.00000000000E+00  0.91188000000E+02  0.91188000000E+02 0.  0.
    9900012    2    3    3    0    0 -0.22986349806E+02  0.22711070492E+02 -0.17652550386E+02  0.54367115499E+02  0.40000071403E+02 0.  0.
        -12    1    3    3    0    0  0.22986349806E+02 -0.22711070492E+02  0.17652550386E+02  0.36820884501E+02  0.00000000000E+00 0.  1.
         11    1    4    4    0    0 -0.11274988988E+02  0.28656615994E+01  0.87908655204E+01  0.14581382305E+02  0.51100000000E-03 0.  1.
        -11    1    4    4    0    0 -0.11910836822E+02  0.12032137152E+02 -0.61054915856E+01  0.17997705021E+02  0.51100000000E-03 0. -1.
        -12    1    4    4    0    0  0.19947600338E+00  0.78132717402E+01 -0.20337924321E+02  0.21788028173E+02  0.00000000000E+00 0.  1.
</event>
<event>
 8    1  0.2521748E-006  0.9118800E+02  0.7816164E-02  0.1184000E+00
        -11   -1    0    0    0    0  0.00000000000E+00  0.00000000000E+00  0.45593999997E+02  0.45594000000E+02  0.51100000000E-03 0. -1.
         11   -1    0    0    0    0 -0.00000000000E+00 -0.00000000000E+00 -0.45593999997E+02  0.45594000000E+02  0.51100000000E-03 0.  1.
         23    2    1    2    0    0 -0.35527136788E-14  0.00000000000E+00 -0.35527136788E-14  0.91188000000E+02  0.91188000000E+02 0.  0.
    9900012    2    3    3    0    0 -0.30160882182E+02 -0.40110685993E+01  0.20736571099E+02  0.54367178903E+02  0.40000215945E+02 0.  0.
        -12    1    3    3    0    0  0.30160882182E+02  0.40110685993E+01 -0.20736571099E+02  0.36820821097E+02  0.00000000000E+00 0.  1.
         11    1    4    4    0    0 -0.25278820052E+01 -0.71162543714E+01 -0.68154714420E+01  0.10172606104E+02  0.51100000000E-03 0. -1.
        -11    1    4    4    0    0  0.75388316736E+00  0.34929210359E+01  0.10467903331E+02  0.11061005271E+02  0.51100000000E-03 0.  1.
         12    1    4    4    0    0 -0.28386883344E+02 -0.38773526373E+00  0.17084139210E+02  0.33133567528E+02  0.00000000000E+00 0. -1.
</event>
<event>
 8    1  0.2521748E-006  0.9118800E+02  0.7816164E-02  0.1184000E+00
        -11   -1    0    0    0    0  0.00000000000E+00  0.00000000000E+00  0.45593999997E+02  0.45594000000E+02  0.51100000000E-03 0. -1.
         11   -1    0    0    0    0 -0.00000000000E+00 -0.00000000000E+00 -0.45593999997E+02  0.45594000000E+02  0.51100000000E-03 0.  1.
         23    2    1    2    0    0  0.00000000000E+00  0.00000000000E+00  0.17763568394E-14  0.91188000000E+02  0.91188000000E+02 0.  0.
    9900012    2    3    3    0    0  0.33843027564E+01 -0.33860589269E+02  0.14063658415E+02  0.54367088838E+02  0.40000010624E+02 0.  0.
         12    1    3    3    0    0 -0.33843027564E+01  0.33860589269E+02 -0.14063658415E+02  0.36820911162E+02  0.00000000000E+00 0. -1.
         11    1    4    4    0    0 -0.30211420369E+01 -0.21227018348E+02  0.12052091850E+02  0.24596067274E+02  0.51100000000E-03 0. -1.
        -11    1    4    4    0    0 -0.28004850099E+01 -0.94317733558E+01 -0.10183172221E+02  0.14159733813E+02  0.51100000000E-03 0.  1.
         12    1    4    4    0    0  0.92059298033E+01 -0.32017975653E+01  0.12194738785E+02  0.15611287751E+02  0.00000000000E+00 0. -1.
</event>
<event>
 8    1  0.2521748E-006  0.9118800E+02  0.7816164E-02  0.1184000E+00
        -11   -1    0    0    0    0  0.00000000000E+00  0.00000000000E+00  0.45593999997E+02  0.45594000000E+02  0.51100000000E-03 0.  1.
         11   -1    0    0    0    0 -0.00000000000E+00 -0.00000000000E+00 -0.45593999997E+02  0.45594000000E+02  0.51100000000E-03 0. -1.
         23    2    1    2    0    0  0.00000000000E+00  0.88817841970E-15  0.00000000000E+00  0.91188000000E+02  0.91188000000E+02 0.  0.
    9900012    2    3    3    0    0  0.28462357347E+02  0.51390534614E+01 -0.22787441267E+02  0.54367039451E+02  0.39999898037E+02 0.  0.
        -12    1    3    3    0    0 -0.28462357347E+02 -0.51390534614E+01  0.22787441267E+02  0.36820960549E+02  0.00000000000E+00 0.  1.
         11    1    4    4    0    0  0.31417154716E+02  0.13018339216E+02 -0.16852310422E+02  0.37954118791E+02  0.51100000000E-03 0. -1.
        -11    1    4    4    0    0  0.27451720849E+01 -0.70478459140E+01 -0.72797719366E+01  0.10497770312E+02  0.51100000000E-03 0.  1.
         12    1    4    4    0    0 -0.56999694538E+01 -0.83143984020E+00  0.13446410922E+01  0.59151503488E+01  0.00000000000E+00 0. -1.
</event>
<event>
 8    1  0.2521748E-006  0.9118800E+02  0.7816164E-02  0.1184000E+00
        -11   -1    0    0    0    0  0.00000000000E+00  0.00000000000E+00  0.45593999997E+02  0.45594000000E+02  0.51100000000E-03 0.  1.
         11   -1    0    0    0    0 -0.00000000000E+00 -0.00000000000E+00 -0.45593999997E+02  0.45594000000E+02  0.51100000000E-03 0. -1.
         23    2    1    2    0    0 -0.88817841970E-15  0.00000000000E+00  0.00000000000E+00  0.91188000000E+02  0.91188000000E+02 0.  0.
    9900012    2    3    3    0    0 -0.49200258725E+01 -0.21733351946E+02 -0.29312712368E+02  0.54367077310E+02  0.39999984344E+02 0.  0.
        -12    1    3    3    0    0  0.49200258725E+01  0.21733351946E+02  0.29312712368E+02  0.36820922690E+02  0.00000000000E+00 0.  1.
         11    1    4    4    0    0 -0.62571745925E+01  0.78351826277E+01 -0.93845617353E+01  0.13733620059E+02  0.51100000000E-03 0. -1.
        -11    1    4    4    0    0  0.51801224207E+01 -0.86540667757E+01 -0.16142722171E+02  0.19034548048E+02  0.51100000000E-03 0.  1.
         12    1    4    4    0    0 -0.38429737007E+01 -0.20914467798E+02 -0.37854284611E+01  0.21598909203E+02  0.00000000000E+00 0. -1.
</event>
<event>
 8    1  0.2521748E-006  0.9118800E+02  0.7816164E-02  0.1184000E+00
        -11   -1    0    0    0    0  0.00000000000E+00  0.00000000000E+00  0.45593999997E+02  0.45594000000E+02  0.51100000000E-03 0.  1.
         11   -1    0    0    0    0 -0.00000000000E+00 -0.00000000000E+00 -0.45593999997E+02  0.45594000000E+02  0.51100000000E-03 0. -1.
         23    2    1    2    0    0 -0.35527136788E-14 -0.35527136788E-14  0.00000000000E+00  0.91188000000E+02  0.91188000000E+02 0.  0.
    9900012    2    3    3    0    0  0.26777397416E+02 -0.23373331546E+02 -0.96143212210E+01  0.54367125316E+02  0.40000093784E+02 0.  0.
        -12    1    3    3    0    0 -0.26777397416E+02  0.23373331546E+02  0.96143212210E+01  0.36820874684E+02  0.00000000000E+00 0.  1.
         11    1    4    4    0    0  0.24121971528E+02 -0.10493375370E+02 -0.89366401575E+01  0.27782080099E+02  0.51100000000E-03 0. -1.
        -11    1    4    4    0    0 -0.63366654128E+01 -0.15865098861E+02  0.33038777437E-01  0.17083787117E+02  0.51100000000E-03 0.  1.
         12    1    4    4    0    0  0.89920913007E+01  0.29851426850E+01 -0.71071984094E+00  0.95012581010E+01  0.00000000000E+00 0. -1.
</event>
<event>
 8    1  0.2521748E-006  0.9118800E+02  0.7816164E-02  0.1184000E+00
        -11   -1    0    0    0    0  0.00000000000E+00  0.00000000000E+00  0.45593999997E+02  0.45594000000E+02  0.51100000000E-03 0.  1.
         11   -1    0    0    0    0 -0.00000000000E+00 -0.00000000000E+00 -0.45593999997E+02  0.45594000000E+02  0.51100000000E-03 0. -1.
         23    2    1    2    0    0  0.00000000000E+00  0.00000000000E+00 -0.71054273576E-14  0.91188000000E+02  0.91188000000E+02 0.  0.
    9900012    2    3    3    0    0  0.87547164745E+01 -0.99485961656E+01 -0.34353477830E+02  0.54367067567E+02  0.39999962133E+02 0.  0.
        -12    1    3    3    0    0 -0.87547164745E+01  0.99485961656E+01  0.34353477830E+02  0.36820932433E+02  0.00000000000E+00 0.  1.
         11    1    4    4    0    0 -0.35573493362E+01 -0.51801862509E+01 -0.28579077904E+01  0.69033833077E+01  0.51100000000E-03 0. -1.
        -11    1    4    4    0    0 -0.49695628861E+01  0.17380306014E+01  0.45532277230E+01  0.69605451374E+01  0.51100000000E-03 0.  1.
         12    1    4    4    0    0  0.17281628697E+02 -0.65064405161E+01 -0.36048797763E+02  0.40503139122E+02  0.00000000000E+00 0. -1.
</event>
<event>
 8    1  0.2521748E-006  0.9118800E+02  0.7816164E-02  0.1184000E+00
        -11   -1    0    0    0    0  0.00000000000E+00  0.00000000000E+00  0.45593999997E+02  0.45594000000E+02  0.51100000000E-03 0.  1.
         11   -1    0    0    0    0 -0.00000000000E+00 -0.00000000000E+00 -0.45593999997E+02  0.45594000000E+02  0.51100000000E-03 0. -1.
         23    2    1    2    0    0  0.17763568394E-14  0.00000000000E+00  0.00000000000E+00  0.91188000000E+02  0.91188000000E+02 0.  0.
    9900012    2    3    3    0    0  0.13810755644E+02 -0.21782919300E+02 -0.26278276293E+02  0.54367077284E+02  0.39999984285E+02 0.  0.
        -12    1    3    3    0    0 -0.13810755644E+02  0.21782919300E+02  0.26278276293E+02  0.36820922716E+02  0.00000000000E+00 0.  1.
         11    1    4    4    0    0  0.82499131334E+01 -0.15303140224E+02 -0.20144011096E+02  0.26608802129E+02  0.51100000000E-03 0. -1.
        -11    1    4    4    0    0 -0.93781169246E+01 -0.68312152232E+01  0.72130222970E-02  0.11602354535E+02  0.51100000000E-03 0.  1.
         12    1    4    4    0    0  0.14938959435E+02  0.35143614737E+00 -0.61414782195E+01  0.16155920620E+02  0.00000000000E+00 0. -1.
</event>
<event>
 8    1  0.2521748E-006  0.9118800E+02  0.7816164E-02  0.1184000E+00
        -11   -1    0    0    0    0  0.00000000000E+00  0.00000000000E+00  0.45593999997E+02  0.45594000000E+02  0.51100000000E-03 0.  1.
         11   -1    0    0    0    0 -0.00000000000E+00 -0.00000000000E+00 -0.45593999997E+02  0.45594000000E+02  0.51100000000E-03 0. -1.
         23    2    1    2    0    0  0.00000000000E+00 -0.44408920985E-15 -0.44408920985E-15  0.91188000000E+02  0.91188000000E+02 0.  0.
    9900012    2    3    3    0    0 -0.36706404337E+02  0.28164186113E+01 -0.69820620430E+00  0.54367084407E+02  0.40000000524E+02 0.  0.
         12    1    3    3    0    0  0.36706404337E+02 -0.28164186113E+01  0.69820620430E+00  0.36820915593E+02  0.00000000000E+00 0. -1.
         11    1    4    4    0    0 -0.26323358588E+00  0.79289088641E+01 -0.26922663120E+01  0.83776599270E+01  0.51100000000E-03 0. -1.
        -11    1    4    4    0    0 -0.70296470251E+01 -0.11785311920E+01  0.12599423326E+02  0.14475853739E+02  0.51100000000E-03 0.  1.
         12    1    4    4    0    0 -0.29413523726E+02 -0.39339590608E+01 -0.10605363218E+02  0.31513570742E+02  0.00000000000E+00 0. -1.
</event>
<event>
 8    1  0.2521748E-006  0.9118800E+02  0.7816164E-02  0.1184000E+00
        -11   -1    0    0    0    0  0.00000000000E+00  0.00000000000E+00  0.45593999997E+02  0.45594000000E+02  0.51100000000E-03 0.  1.
         11   -1    0    0    0    0 -0.00000000000E+00 -0.00000000000E+00 -0.45593999997E+02  0.45594000000E+02  0.51100000000E-03 0. -1.
         23    2    1    2    0    0 -0.35527136788E-14  0.00000000000E+00  0.00000000000E+00  0.91188000000E+02  0.91188000000E+02 0.  0.
    9900012    2    3    3    0    0 -0.33488931520E+01  0.35884684758E+02  0.75402273521E+01  0.54367072336E+02  0.39999973005E+02 0.  0.
        -12    1    3    3    0    0  0.33488931520E+01 -0.35884684758E+02 -0.75402273521E+01  0.36820927664E+02  0.00000000000E+00 0.  1.
         11    1    4    4    0    0  0.10434984795E+02  0.57782348146E+01 -0.51503199813E+01  0.12992409377E+02  0.51100000000E-03 0. -1.
        -11    1    4    4    0    0  0.25580217695E+01 -0.14888909913E+00  0.57492449678E+01  0.62943992007E+01  0.51100000000E-03 0.  1.
         12    1    4    4    0    0 -0.16341899716E+02  0.30255339042E+02  0.69413023656E+01  0.35080263759E+02  0.00000000000E+00 0. -1.
</event>
<event>
 8    1  0.2521748E-006  0.9118800E+02  0.7816164E-02  0.1184000E+00
        -11   -1    0    0    0    0  0.00000000000E+00  0.00000000000E+00  0.45593999997E+02  0.45594000000E+02  0.51100000000E-03 0. -1.
         11   -1    0    0    0    0 -0.00000000000E+00 -0.00000000000E+00 -0.45593999997E+02  0.45594000000E+02  0.51100000000E-03 0.  1.
         23    2    1    2    0    0  0.00000000000E+00 -0.88817841970E-15 -0.22204460493E-15  0.91188000000E+02  0.91188000000E+02 0.  0.
    9900012    2    3    3    0    0 -0.36292970629E+02 -0.60297902288E+01  0.14973146225E+01  0.54367081511E+02  0.39999993922E+02 0.  0.
        -12    1    3    3    0    0  0.36292970629E+02  0.60297902288E+01 -0.14973146225E+01  0.36820918489E+02  0.00000000000E+00 0.  1.
         11    1    4    4    0    0 -0.18629230724E+02 -0.57912279876E+01 -0.76866862492E+01  0.20968350072E+02  0.51100000000E-03 0. -1.
        -11    1    4    4    0    0 -0.42800079650E+01  0.12625501390E+02  0.19394728921E+01  0.13471574106E+02  0.51100000000E-03 0.  1.
         12    1    4    4    0    0 -0.13383731940E+02 -0.12864063632E+02  0.72445279796E+01  0.19927157334E+02  0.00000000000E+00 0. -1.
</event>
<event>
 8    1  0.2521748E-006  0.9118800E+02  0.7816164E-02  0.1184000E+00
        -11   -1    0    0    0    0  0.00000000000E+00  0.00000000000E+00  0.45593999997E+02  0.45594000000E+02  0.51100000000E-03 0. -1.
         11   -1    0    0    0    0 -0.00000000000E+00 -0.00000000000E+00 -0.45593999997E+02  0.45594000000E+02  0.51100000000E-03 0.  1.
         23    2    1    2    0    0 -0.35527136788E-14 -0.22204460493E-15  0.00000000000E+00  0.91188000000E+02  0.91188000000E+02 0.  0.
    9900012    2    3    3    0    0 -0.28124154042E+02 -0.88521987508E+00  0.23749265516E+02  0.54367091981E+02  0.40000017789E+02 0.  0.
        -12    1    3    3    0    0  0.28124154042E+02  0.88521987508E+00 -0.23749265516E+02  0.36820908019E+02  0.00000000000E+00 0.  1.
         11    1    4    4    0    0 -0.37141217623E+01 -0.11055340302E+01  0.11143249213E+01  0.40321986866E+01  0.51100000000E-03 0. -1.
        -11    1    4    4    0    0 -0.16352773240E+02 -0.32638790410E+01 -0.79799295444E+01  0.18486356451E+02  0.51100000000E-03 0.  1.
         12    1    4    4    0    0 -0.80572590401E+01  0.34841931960E+01  0.30614870139E+02  0.31848536844E+02  0.00000000000E+00 0. -1.
</event>
<event>
 8    1  0.2521748E-006  0.9118800E+02  0.7816164E-02  0.1184000E+00
        -11   -1    0    0    0    0  0.00000000000E+00  0.00000000000E+00  0.45593999997E+02  0.45594000000E+02  0.51100000000E-03 0.  1.
         11   -1    0    0    0    0 -0.00000000000E+00 -0.00000000000E+00 -0.45593999997E+02  0.45594000000E+02  0.51100000000E-03 0. -1.
         23    2    1    2    0    0  0.17763568394E-14  0.35527136788E-14  0.00000000000E+00  0.91188000000E+02  0.91188000000E+02 0.  0.
    9900012    2    3    3    0    0  0.15752129690E+02  0.31339343694E+02 -0.11202481601E+02  0.54367086826E+02  0.40000006036E+02 0.  0.
        -12    1    3    3    0    0 -0.15752129690E+02 -0.31339343694E+02  0.11202481601E+02  0.36820913174E+02  0.00000000000E+00 0.  1.
         11    1    4    4    0    0  0.97178545421E+01 -0.10938274874E+01 -0.21632460593E+00  0.97816129585E+01  0.51100000000E-03 0. -1.
        -11    1    4    4    0    0  0.52526619015E+01 -0.17068505966E+01  0.44664354321E+01  0.71030163833E+01  0.51100000000E-03 0.  1.
         12    1    4    4    0    0  0.78161324654E+00  0.34140021778E+02 -0.15452592427E+02  0.37482457484E+02  0.00000000000E+00 0. -1.
</event>
<event>
 8    1  0.2521748E-006  0.9118800E+02  0.7816164E-02  0.1184000E+00
        -11   -1    0    0    0    0  0.00000000000E+00  0.00000000000E+00  0.45593999997E+02  0.45594000000E+02  0.51100000000E-03 0. -1.
         11   -1    0    0    0    0 -0.00000000000E+00 -0.00000000000E+00 -0.45593999997E+02  0.45594000000E+02  0.51100000000E-03 0.  1.
         23    2    1    2    0    0  0.35527136788E-14 -0.71054273576E-14  0.35527136788E-14  0.91188000000E+02  0.91188000000E+02 0.  0.
    9900012    2    3    3    0    0 -0.25858507724E+02  0.21084038339E+02 -0.15575156205E+02  0.54367019768E+02  0.39999853166E+02 0.  0.
         12    1    3    3    0    0  0.25858507724E+02 -0.21084038339E+02  0.15575156205E+02  0.36820980232E+02  0.00000000000E+00 0. -1.
         11    1    4    4    0    0 -0.12103467336E+02 -0.33769609341E+01  0.21694448523E+01  0.12751638245E+02  0.51100000000E-03 0. -1.
        -11    1    4    4    0    0 -0.18452259083E+02  0.24961208400E+02 -0.19406027773E+02  0.36607945916E+02  0.51100000000E-03 0.  1.
         12    1    4    4    0    0  0.46972186940E+01 -0.50020912650E+00  0.16614267160E+01  0.50074356074E+01  0.00000000000E+00 0. -1.
</event>
<event>
 8    1  0.2521748E-006  0.9118800E+02  0.7816164E-02  0.1184000E+00
        -11   -1    0    0    0    0  0.00000000000E+00  0.00000000000E+00  0.45593999997E+02  0.45594000000E+02  0.51100000000E-03 0. -1.
         11   -1    0    0    0    0 -0.00000000000E+00 -0.00000000000E+00 -0.45593999997E+02  0.45594000000E+02  0.51100000000E-03 0.  1.
         23    2    1    2    0    0  0.35527136788E-14  0.00000000000E+00 -0.35527136788E-14  0.91188000000E+02  0.91188000000E+02 0.  0.
    9900012    2    3    3    0    0 -0.16979106505E+02 -0.20714680135E+02  0.25266448852E+02  0.54367062092E+02  0.39999949652E+02 0.  0.
        -12    1    3    3    0    0  0.16979106505E+02  0.20714680135E+02 -0.25266448852E+02  0.36820937908E+02  0.00000000000E+00 0.  1.
         11    1    4    4    0    0  0.59091349886E-01 -0.64290157628E+01 -0.11450904924E+00  0.64303069950E+01  0.51100000000E-03 0. -1.
        -11    1    4    4    0    0  0.65793989228E+01 -0.14998688279E+01 -0.42272092378E+01  0.79628760437E+01  0.51100000000E-03 0.  1.
         12    1    4    4    0    0 -0.23617596778E+02 -0.12785795544E+02  0.29608167139E+02  0.39973879054E+02  0.00000000000E+00 0. -1.
</event>
<event>
 8    1  0.2521748E-006  0.9118800E+02  0.7816164E-02  0.1184000E+00
        -11   -1    0    0    0    0  0.00000000000E+00  0.00000000000E+00  0.45593999997E+02  0.45594000000E+02  0.51100000000E-03 0.  1.
         11   -1    0    0    0    0 -0.00000000000E+00 -0.00000000000E+00 -0.45593999997E+02  0.45594000000E+02  0.51100000000E-03 0. -1.
         23    2    1    2    0    0  0.35527136788E-14  0.00000000000E+00  0.00000000000E+00  0.91188000000E+02  0.91188000000E+02 0.  0.
    9900012    2    3    3    0    0  0.21466681976E+02 -0.21423684041E+02  0.20880292176E+02  0.54367091887E+02  0.40000017575E+02 0.  0.
         12    1    3    3    0    0 -0.21466681976E+02  0.21423684041E+02 -0.20880292176E+02  0.36820908113E+02  0.00000000000E+00 0. -1.
         11    1    4    4    0    0  0.46215818203E+01 -0.18513125673E+01  0.16701176399E+02  0.17427440148E+02  0.51100000000E-03 0. -1.
        -11    1    4    4    0    0 -0.33649246709E+01  0.40967640811E+01  0.22414129362E+01  0.57558775341E+01  0.51100000000E-03 0.  1.
         12    1    4    4    0    0  0.20210024826E+02 -0.23669135555E+02  0.19377028408E+01  0.31183774205E+02  0.00000000000E+00 0. -1.
</event>
<event>
 8    1  0.2521748E-006  0.9118800E+02  0.7816164E-02  0.1184000E+00
        -11   -1    0    0    0    0  0.00000000000E+00  0.00000000000E+00  0.45593999997E+02  0.45594000000E+02  0.51100000000E-03 0.  1.
         11   -1    0    0    0    0 -0.00000000000E+00 -0.00000000000E+00 -0.45593999997E+02  0.45594000000E+02  0.51100000000E-03 0. -1.
         23    2    1    2    0    0  0.71054273576E-14 -0.44408920985E-15 -0.17763568394E-14  0.91188000000E+02  0.91188000000E+02 0.  0.
    9900012    2    3    3    0    0 -0.36269590934E+02  0.11880564917E+01  0.62360119017E+01  0.54367047417E+02  0.39999916195E+02 0.  0.
         12    1    3    3    0    0  0.36269590934E+02 -0.11880564917E+01 -0.62360119017E+01  0.36820952583E+02  0.00000000000E+00 0. -1.
         11    1    4    4    0    0  0.58031222530E+01 -0.23874870061E+01 -0.33473098607E+00  0.62839770195E+01  0.51100000000E-03 0. -1.
        -11    1    4    4    0    0 -0.47631381748E+00 -0.96625353456E+00 -0.46402194434E+01  0.47636286054E+01  0.51100000000E-03 0.  1.
        -12    1    4    4    0    0 -0.41596399369E+02  0.45417970324E+01  0.11210962331E+02  0.43319441792E+02  0.00000000000E+00 0.  1.
</event>
<event>
 8    1  0.2521748E-006  0.9118800E+02  0.7816164E-02  0.1184000E+00
        -11   -1    0    0    0    0  0.00000000000E+00  0.00000000000E+00  0.45593999997E+02  0.45594000000E+02  0.51100000000E-03 0.  1.
         11   -1    0    0    0    0 -0.00000000000E+00 -0.00000000000E+00 -0.45593999997E+02  0.45594000000E+02  0.51100000000E-03 0. -1.
         23    2    1    2    0    0  0.26645352591E-14  0.00000000000E+00  0.00000000000E+00  0.91188000000E+02  0.91188000000E+02 0.  0.
    9900012    2    3    3    0    0 -0.27699657516E+01  0.10341626655E+02 -0.35230087642E+02  0.54367068081E+02  0.39999963304E+02 0.  0.
        -12    1    3    3    0    0  0.27699657516E+01 -0.10341626655E+02  0.35230087642E+02  0.36820931919E+02  0.00000000000E+00 0.  1.
         11    1    4    4    0    0  0.83523320902E+01 -0.63028227272E+01 -0.20680623317E+02  0.23177040508E+02  0.51100000000E-03 0. -1.
        -11    1    4    4    0    0  0.21616055654E+01  0.13301361194E+02 -0.45235270741E+01  0.14214817821E+02  0.51100000000E-03 0.  1.
         12    1    4    4    0    0 -0.13283903407E+02  0.33430881885E+01 -0.10025937251E+02  0.16975209752E+02  0.00000000000E+00 0. -1.
</event>
<event>
 8    1  0.2521748E-006  0.9118800E+02  0.7816164E-02  0.1184000E+00
        -11   -1    0    0    0    0  0.00000000000E+00  0.00000000000E+00  0.45593999997E+02  0.45594000000E+02  0.51100000000E-03 0. -1.
         11   -1    0    0    0    0 -0.00000000000E+00 -0.00000000000E+00 -0.45593999997E+02  0.45594000000E+02  0.51100000000E-03 0.  1.
         23    2    1    2    0    0  0.71054273576E-14 -0.88817841970E-15  0.00000000000E+00  0.91188000000E+02  0.91188000000E+02 0.  0.
    9900012    2    3    3    0    0  0.35265757949E+02 -0.11378745522E+01  0.10526730685E+02  0.54367075227E+02  0.39999979594E+02 0.  0.
        -12    1    3    3    0    0 -0.35265757949E+02  0.11378745522E+01 -0.10526730685E+02  0.36820924773E+02  0.00000000000E+00 0.  1.
         11    1    4    4    0    0  0.29949539165E+02 -0.87559759614E+01  0.17809211760E+02  0.35927844842E+02  0.51100000000E-03 0. -1.
        -11    1    4    4    0    0  0.32127812536E+01  0.84588699789E+01 -0.10902898366E+02  0.14168543953E+02  0.51100000000E-03 0.  1.
        -12    1    4    4    0    0  0.21034375310E+01 -0.84076856959E+00  0.36204172916E+01  0.42706864319E+01  0.00000000000E+00 0.  1.
</event>
<event>
 8    1  0.2521748E-006  0.9118800E+02  0.7816164E-02  0.1184000E+00
        -11   -1    0    0    0    0  0.00000000000E+00  0.00000000000E+00  0.45593999997E+02  0.45594000000E+02  0.51100000000E-03 0. -1.
         11   -1    0    0    0    0 -0.00000000000E+00 -0.00000000000E+00 -0.45593999997E+02  0.45594000000E+02  0.51100000000E-03 0.  1.
         23    2    1    2    0    0 -0.44408920985E-15  0.00000000000E+00  0.00000000000E+00  0.91188000000E+02  0.91188000000E+02 0.  0.
    9900012    2    3    3    0    0 -0.14082948529E+01  0.25150656255E+02 -0.26855915884E+02  0.54367095308E+02  0.40000025373E+02 0.  0.
         12    1    3    3    0    0  0.14082948529E+01 -0.25150656255E+02  0.26855915884E+02  0.36820904692E+02  0.00000000000E+00 0. -1.
         11    1    4    4    0    0 -0.91985619575E+01 -0.60569156353E+01 -0.21357504071E+01  0.11218787776E+02  0.51100000000E-03 0. -1.
        -11    1    4    4    0    0  0.36975287683E+01  0.51696968598E+01 -0.12653141593E+02  0.14159783793E+02  0.51100000000E-03 0.  1.
         12    1    4    4    0    0  0.40927383363E+01  0.26037875030E+02 -0.12067023883E+02  0.28988523739E+02  0.00000000000E+00 0. -1.
</event>
<event>
 8    1  0.2521748E-006  0.9118800E+02  0.7816164E-02  0.1184000E+00
        -11   -1    0    0    0    0  0.00000000000E+00  0.00000000000E+00  0.45593999997E+02  0.45594000000E+02  0.51100000000E-03 0. -1.
         11   -1    0    0    0    0 -0.00000000000E+00 -0.00000000000E+00 -0.45593999997E+02  0.45594000000E+02  0.51100000000E-03 0.  1.
         23    2    1    2    0    0  0.00000000000E+00 -0.35527136788E-14  0.00000000000E+00  0.91188000000E+02  0.91188000000E+02 0.  0.
    9900012    2    3    3    0    0 -0.12895213548E+02 -0.28478506644E+02  0.19454260454E+02  0.54367080363E+02  0.39999991303E+02 0.  0.
        -12    1    3    3    0    0  0.12895213548E+02  0.28478506644E+02 -0.19454260454E+02  0.36820919637E+02  0.00000000000E+00 0.  1.
         11    1    4    4    0    0 -0.87196055138E+01 -0.22575364488E+02  0.24033382341E+02  0.34106921132E+02  0.51100000000E-03 0. -1.
        -11    1    4    4    0    0  0.58539140852E+01 -0.51789549498E+01 -0.63243295643E+01  0.10054204553E+02  0.51100000000E-03 0.  1.
        -12    1    4    4    0    0 -0.10029522120E+02 -0.72418720608E+00  0.17452076776E+01  0.10205954678E+02  0.00000000000E+00 0.  1.
</event>
<event>
 8    1  0.2521748E-006  0.9118800E+02  0.7816164E-02  0.1184000E+00
        -11   -1    0    0    0    0  0.00000000000E+00  0.00000000000E+00  0.45593999997E+02  0.45594000000E+02  0.51100000000E-03 0. -1.
         11   -1    0    0    0    0 -0.00000000000E+00 -0.00000000000E+00 -0.45593999997E+02  0.45594000000E+02  0.51100000000E-03 0.  1.
         23    2    1    2    0    0  0.00000000000E+00  0.00000000000E+00  0.00000000000E+00  0.91188000000E+02  0.91188000000E+02 0.  0.
    9900012    2    3    3    0    0  0.34363255432E+02  0.10472654534E+02  0.80792814781E+01  0.54367019485E+02  0.39999852519E+02 0.  0.
        -12    1    3    3    0    0 -0.34363255432E+02 -0.10472654534E+02 -0.80792814781E+01  0.36820980515E+02  0.00000000000E+00 0.  1.
         11    1    4    4    0    0  0.19245108316E+02 -0.99806392233E+01 -0.62276249984E+00  0.21688134700E+02  0.51100000000E-03 0.  1.
        -11    1    4    4    0    0 -0.11713569052E+01  0.10180684680E+02 -0.22955888303E+01  0.10501816314E+02  0.51100000000E-03 0. -1.
        -12    1    4    4    0    0  0.16289504022E+02  0.10272609078E+02  0.10997632808E+02  0.22177068470E+02  0.00000000000E+00 0.  1.
</event>
<event>
 8    1  0.2521748E-006  0.9118800E+02  0.7816164E-02  0.1184000E+00
        -11   -1    0    0    0    0  0.00000000000E+00  0.00000000000E+00  0.45593999997E+02  0.45594000000E+02  0.51100000000E-03 0.  1.
         11   -1    0    0    0    0 -0.00000000000E+00 -0.00000000000E+00 -0.45593999997E+02  0.45594000000E+02  0.51100000000E-03 0. -1.
         23    2    1    2    0    0 -0.88817841970E-15  0.00000000000E+00  0.00000000000E+00  0.91188000000E+02  0.91188000000E+02 0.  0.
    9900012    2    3    3    0    0 -0.79698071069E+01  0.27745119842E+02 -0.22857634073E+02  0.54367069325E+02  0.39999966141E+02 0.  0.
        -12    1    3    3    0    0  0.79698071069E+01 -0.27745119842E+02  0.22857634073E+02  0.36820930675E+02  0.00000000000E+00 0.  1.
         11    1    4    4    0    0 -0.47542639572E+01  0.12282827772E+02  0.86263260835E+01  0.15744344566E+02  0.51100000000E-03 0. -1.
        -11    1    4    4    0    0 -0.89279764997E+01  0.84124321911E+01 -0.12150794087E+02  0.17266139608E+02  0.51100000000E-03 0.  1.
         12    1    4    4    0    0  0.57124333500E+01  0.70498598784E+01 -0.19333166069E+02  0.21356585152E+02  0.00000000000E+00 0. -1.
</event>
<event>
 8    1  0.2521748E-006  0.9118800E+02  0.7816164E-02  0.1184000E+00
        -11   -1    0    0    0    0  0.00000000000E+00  0.00000000000E+00  0.45593999997E+02  0.45594000000E+02  0.51100000000E-03 0.  1.
         11   -1    0    0    0    0 -0.00000000000E+00 -0.00000000000E+00 -0.45593999997E+02  0.45594000000E+02  0.51100000000E-03 0. -1.
         23    2    1    2    0    0 -0.88817841970E-15  0.00000000000E+00  0.00000000000E+00  0.91188000000E+02  0.91188000000E+02 0.  0.
    9900012    2    3    3    0    0  0.64406041331E+01  0.34332151556E+02 -0.11644666982E+02  0.54367132531E+02  0.40000110231E+02 0.  0.
        -12    1    3    3    0    0 -0.64406041331E+01 -0.34332151556E+02  0.11644666982E+02  0.36820867469E+02  0.00000000000E+00 0.  1.
         11    1    4    4    0    0  0.68598596439E+01  0.18518414930E+02 -0.12400017270E+02  0.23318443224E+02  0.51100000000E-03 0. -1.
        -11    1    4    4    0    0  0.12166190514E+02  0.13219300837E+02  0.22746017353E+01  0.18109111507E+02  0.51100000000E-03 0.  1.
         12    1    4    4    0    0 -0.12585446024E+02  0.25944357888E+01 -0.15192514474E+01  0.12939577801E+02  0.00000000000E+00 0. -1.
</event>
<event>
 8    1  0.2521748E-006  0.9118800E+02  0.7816164E-02  0.1184000E+00
        -11   -1    0    0    0    0  0.00000000000E+00  0.00000000000E+00  0.45593999997E+02  0.45594000000E+02  0.51100000000E-03 0. -1.
         11   -1    0    0    0    0 -0.00000000000E+00 -0.00000000000E+00 -0.45593999997E+02  0.45594000000E+02  0.51100000000E-03 0.  1.
         23    2    1    2    0    0  0.00000000000E+00 -0.88817841970E-15  0.00000000000E+00  0.91188000000E+02  0.91188000000E+02 0.  0.
    9900012    2    3    3    0    0  0.30626296737E+02 -0.22480174060E+01  0.20316380718E+02  0.54367096161E+02  0.40000027318E+02 0.  0.
         12    1    3    3    0    0 -0.30626296737E+02  0.22480174060E+01 -0.20316380718E+02  0.36820903839E+02  0.00000000000E+00 0. -1.
         11    1    4    4    0    0  0.97304657318E+01 -0.59059557936E+01  0.24153269177E+02  0.26700986675E+02  0.51100000000E-03 0. -1.
        -11    1    4    4    0    0  0.13583401880E+02  0.10665619880E+02 -0.24798243661E+01  0.17447457786E+02  0.51100000000E-03 0.  1.
         12    1    4    4    0    0  0.73124291252E+01 -0.70076814927E+01 -0.13570640934E+01  0.10218651700E+02  0.00000000000E+00 0. -1.
</event>
<event>
 8    1  0.2521748E-006  0.9118800E+02  0.7816164E-02  0.1184000E+00
        -11   -1    0    0    0    0  0.00000000000E+00  0.00000000000E+00  0.45593999997E+02  0.45594000000E+02  0.51100000000E-03 0.  1.
         11   -1    0    0    0    0 -0.00000000000E+00 -0.00000000000E+00 -0.45593999997E+02  0.45594000000E+02  0.51100000000E-03 0. -1.
         23    2    1    2    0    0  0.00000000000E+00  0.00000000000E+00  0.00000000000E+00  0.91188000000E+02  0.91188000000E+02 0.  0.
    9900012    2    3    3    0    0 -0.27134638386E+02  0.19597953113E+02 -0.15343111392E+02  0.54367089721E+02  0.40000012638E+02 0.  0.
        -12    1    3    3    0    0  0.27134638386E+02 -0.19597953113E+02  0.15343111392E+02  0.36820910279E+02  0.00000000000E+00 0.  1.
         11    1    4    4    0    0 -0.96175105704E+01  0.27340812440E+01 -0.18973268990E+02  0.21446599876E+02  0.51100000000E-03 0. -1.
        -11    1    4    4    0    0 -0.15543622740E+02  0.76790736522E-01 -0.38060393181E+00  0.15548471446E+02  0.51100000000E-03 0.  1.
         12    1    4    4    0    0 -0.19735050762E+01  0.16787081132E+02  0.40107615297E+01  0.17372018400E+02  0.00000000000E+00 0. -1.
</event>
<event>
 8    1  0.2521748E-006  0.9118800E+02  0.7816164E-02  0.1184000E+00
        -11   -1    0    0    0    0  0.00000000000E+00  0.00000000000E+00  0.45593999997E+02  0.45594000000E+02  0.51100000000E-03 0.  1.
         11   -1    0    0    0    0 -0.00000000000E+00 -0.00000000000E+00 -0.45593999997E+02  0.45594000000E+02  0.51100000000E-03 0. -1.
         23    2    1    2    0    0  0.00000000000E+00 -0.35527136788E-14  0.00000000000E+00  0.91188000000E+02  0.91188000000E+02 0.  0.
    9900012    2    3    3    0    0  0.16347594054E+02 -0.16951281190E+02  0.28305266915E+02  0.54367110542E+02  0.40000060103E+02 0.  0.
         12    1    3    3    0    0 -0.16347594054E+02  0.16951281190E+02 -0.28305266915E+02  0.36820889458E+02  0.00000000000E+00 0. -1.
         11    1    4    4    0    0  0.66902078431E+01 -0.19212259365E+02  0.72980365184E+01  0.21613216517E+02  0.51100000000E-03 0. -1.
        -11    1    4    4    0    0 -0.30472083386E+01  0.80081946348E+01  0.15599792517E+02  0.17798038847E+02  0.51100000000E-03 0.  1.
        -12    1    4    4    0    0  0.12704594550E+02 -0.57472164590E+01  0.54074378795E+01  0.14955855179E+02  0.00000000000E+00 0.  1.
</event>
<event>
 8    1  0.2521748E-006  0.9118800E+02  0.7816164E-02  0.1184000E+00
        -11   -1    0    0    0    0  0.00000000000E+00  0.00000000000E+00  0.45593999997E+02  0.45594000000E+02  0.51100000000E-03 0. -1.
         11   -1    0    0    0    0 -0.00000000000E+00 -0.00000000000E+00 -0.45593999997E+02  0.45594000000E+02  0.51100000000E-03 0.  1.
         23    2    1    2    0    0  0.17763568394E-14 -0.10658141036E-13  0.00000000000E+00  0.91188000000E+02  0.91188000000E+02 0.  0.
    9900012    2    3    3    0    0  0.12962284886E+02 -0.27810678050E+02 -0.20354987145E+02  0.54367080066E+02  0.39999990628E+02 0.  0.
        -12    1    3    3    0    0 -0.12962284886E+02  0.27810678050E+02  0.20354987145E+02  0.36820919934E+02  0.00000000000E+00 0.  1.
         11    1    4    4    0    0  0.41931896362E+01  0.76910631708E+01 -0.67624336827E+00  0.87859317876E+01  0.51100000000E-03 0. -1.
        -11    1    4    4    0    0 -0.29773525662E+01  0.32859825685E+00 -0.33409705258E+01  0.44871694233E+01  0.51100000000E-03 0.  1.
         12    1    4    4    0    0  0.11746447816E+02 -0.35830339478E+02 -0.16337773251E+02  0.41093978856E+02  0.00000000000E+00 0. -1.
</event>
<event>
 8    1  0.2521748E-006  0.9118800E+02  0.7816164E-02  0.1184000E+00
        -11   -1    0    0    0    0  0.00000000000E+00  0.00000000000E+00  0.45593999997E+02  0.45594000000E+02  0.51100000000E-03 0.  1.
         11   -1    0    0    0    0 -0.00000000000E+00 -0.00000000000E+00 -0.45593999997E+02  0.45594000000E+02  0.51100000000E-03 0. -1.
         23    2    1    2    0    0  0.00000000000E+00  0.00000000000E+00  0.00000000000E+00  0.91188000000E+02  0.91188000000E+02 0.  0.
    9900012    2    3    3    0    0  0.29621245647E+02 -0.83861466244E+01 -0.20199911205E+02  0.54367054037E+02  0.39999931289E+02 0.  0.
        -12    1    3    3    0    0 -0.29621245647E+02  0.83861466244E+01  0.20199911205E+02  0.36820945963E+02  0.00000000000E+00 0.  1.
         11    1    4    4    0    0  0.26393504646E+02 -0.59851472217E+01 -0.54260318006E+01  0.27602190060E+02  0.51100000000E-03 0. -1.
        -11    1    4    4    0    0  0.80286367251E+01 -0.61101546707E+01  0.73061060732E+00  0.10115670511E+02  0.51100000000E-03 0.  1.
        -12    1    4    4    0    0 -0.48008957239E+01  0.37091552681E+01 -0.15504490012E+02  0.16649193466E+02  0.00000000000E+00 0.  1.
</event>
<event>
 8    1  0.2521748E-006  0.9118800E+02  0.7816164E-02  0.1184000E+00
        -11   -1    0    0    0    0  0.00000000000E+00  0.00000000000E+00  0.45593999997E+02  0.45594000000E+02  0.51100000000E-03 0. -1.
         11   -1    0    0    0    0 -0.00000000000E+00 -0.00000000000E+00 -0.45593999997E+02  0.45594000000E+02  0.51100000000E-03 0.  1.
         23    2    1    2    0    0 -0.35527136788E-14 -0.71054273576E-14  0.35527136788E-14  0.91188000000E+02  0.91188000000E+02 0.  0.
    9900012    2    3    3    0    0 -0.18802880987E+02 -0.26196453859E+02 -0.17775759151E+02  0.54367080109E+02  0.39999990725E+02 0.  0.
         12    1    3    3    0    0  0.18802880987E+02  0.26196453859E+02  0.17775759151E+02  0.36820919891E+02  0.00000000000E+00 0. -1.
         11    1    4    4    0    0 -0.15861114254E+02 -0.16714588766E+02 -0.10692125116E+00  0.23042652960E+02  0.51100000000E-03 0. -1.
        -11    1    4    4    0    0  0.38630716607E+01  0.47413790763E+01  0.17014533185E+01  0.63481447571E+01  0.51100000000E-03 0.  1.
        -12    1    4    4    0    0 -0.68048383931E+01 -0.14223244170E+02 -0.19370291219E+02  0.24976282393E+02  0.00000000000E+00 0.  1.
</event>
<event>
 8    1  0.2521748E-006  0.9118800E+02  0.7816164E-02  0.1184000E+00
        -11   -1    0    0    0    0  0.00000000000E+00  0.00000000000E+00  0.45593999997E+02  0.45594000000E+02  0.51100000000E-03 0.  1.
         11   -1    0    0    0    0 -0.00000000000E+00 -0.00000000000E+00 -0.45593999997E+02  0.45594000000E+02  0.51100000000E-03 0. -1.
         23    2    1    2    0    0  0.00000000000E+00  0.00000000000E+00  0.00000000000E+00  0.91188000000E+02  0.91188000000E+02 0.  0.
    9900012    2    3    3    0    0 -0.10998954384E+02  0.12178541801E+02  0.32961868801E+02  0.54367100054E+02  0.40000036194E+02 0.  0.
         12    1    3    3    0    0  0.10998954384E+02 -0.12178541801E+02 -0.32961868801E+02  0.36820899946E+02  0.00000000000E+00 0. -1.
         11    1    4    4    0    0  0.25869830150E+01  0.39110133426E+01  0.11686298855E+01  0.48326186024E+01  0.51100000000E-03 0. -1.
        -11    1    4    4    0    0 -0.20448069146E+02  0.58596835547E+01  0.35490142706E+02  0.41376438376E+02  0.51100000000E-03 0.  1.
        -12    1    4    4    0    0  0.68621317464E+01  0.24078449038E+01 -0.36969037906E+01  0.81580430756E+01  0.00000000000E+00 0.  1.
</event>
<event>
 8    1  0.2521748E-006  0.9118800E+02  0.7816164E-02  0.1184000E+00
        -11   -1    0    0    0    0  0.00000000000E+00  0.00000000000E+00  0.45593999997E+02  0.45594000000E+02  0.51100000000E-03 0.  1.
         11   -1    0    0    0    0 -0.00000000000E+00 -0.00000000000E+00 -0.45593999997E+02  0.45594000000E+02  0.51100000000E-03 0. -1.
         23    2    1    2    0    0  0.00000000000E+00  0.00000000000E+00  0.00000000000E+00  0.91188000000E+02  0.91188000000E+02 0.  0.
    9900012    2    3    3    0    0  0.14410909278E+02 -0.10290994210E+02  0.32283134697E+02  0.54367086731E+02  0.40000005822E+02 0.  0.
         12    1    3    3    0    0 -0.14410909278E+02  0.10290994210E+02 -0.32283134697E+02  0.36820913269E+02  0.00000000000E+00 0. -1.
         11    1    4    4    0    0  0.30953248702E+01 -0.93751970353E+00  0.11613777349E+02  0.12055695908E+02  0.51100000000E-03 0.  1.
        -11    1    4    4    0    0  0.61258901694E+01 -0.77572874423E+00  0.28768149349E+02  0.29423370009E+02  0.51100000000E-03 0. -1.
         12    1    4    4    0    0  0.51896942383E+01 -0.85777457625E+01 -0.80987920007E+01  0.12888020815E+02  0.00000000000E+00 0. -1.
</event>
<event>
 8    1  0.2521748E-006  0.9118800E+02  0.7816164E-02  0.1184000E+00
        -11   -1    0    0    0    0  0.00000000000E+00  0.00000000000E+00  0.45593999997E+02  0.45594000000E+02  0.51100000000E-03 0.  1.
         11   -1    0    0    0    0 -0.00000000000E+00 -0.00000000000E+00 -0.45593999997E+02  0.45594000000E+02  0.51100000000E-03 0. -1.
         23    2    1    2    0    0  0.00000000000E+00 -0.88817841970E-15  0.35527136788E-14  0.91188000000E+02  0.91188000000E+02 0.  0.
    9900012    2    3    3    0    0 -0.20270049585E+02 -0.79426821649E+01 -0.29695437912E+02  0.54367080091E+02  0.39999990684E+02 0.  0.
        -12    1    3    3    0    0  0.20270049585E+02  0.79426821649E+01  0.29695437912E+02  0.36820919909E+02  0.00000000000E+00 0.  1.
         11    1    4    4    0    0 -0.26118165192E+02  0.57172442101E+01 -0.17497932061E+02  0.31953451473E+02  0.51100000000E-03 0. -1.
        -11    1    4    4    0    0 -0.15429325512E+01 -0.98522369860E+01 -0.40208384905E+01  0.10752411679E+02  0.51100000000E-03 0.  1.
        -12    1    4    4    0    0  0.73910481590E+01 -0.38076893890E+01 -0.81766673607E+01  0.11661216939E+02  0.00000000000E+00 0.  1.
</event>
<event>
 8    1  0.2521748E-006  0.9118800E+02  0.7816164E-02  0.1184000E+00
        -11   -1    0    0    0    0  0.00000000000E+00  0.00000000000E+00  0.45593999997E+02  0.45594000000E+02  0.51100000000E-03 0.  1.
         11   -1    0    0    0    0 -0.00000000000E+00 -0.00000000000E+00 -0.45593999997E+02  0.45594000000E+02  0.51100000000E-03 0. -1.
         23    2    1    2    0    0  0.17763568394E-14  0.00000000000E+00  0.00000000000E+00  0.91188000000E+02  0.91188000000E+02 0.  0.
    9900012    2    3    3    0    0 -0.87961924315E+01  0.33012326515E+02 -0.13732908578E+02  0.54367089077E+02  0.40000011169E+02 0.  0.
        -12    1    3    3    0    0  0.87961924315E+01 -0.33012326515E+02  0.13732908578E+02  0.36820910923E+02  0.00000000000E+00 0.  1.
         11    1    4    4    0    0  0.76248658469E+00 -0.23426137509E+00 -0.15530372074E+02  0.15550843103E+02  0.51100000000E-03 0. -1.
        -11    1    4    4    0    0 -0.34915615165E+01  0.32434477083E+02  0.20835230117E+01  0.32688336970E+02  0.51100000000E-03 0.  1.
         12    1    4    4    0    0 -0.60671174997E+01  0.81211080718E+00 -0.28605951528E+00  0.61279090043E+01  0.00000000000E+00 0. -1.
</event>
<event>
 8    1  0.2521748E-006  0.9118800E+02  0.7816164E-02  0.1184000E+00
        -11   -1    0    0    0    0  0.00000000000E+00  0.00000000000E+00  0.45593999997E+02  0.45594000000E+02  0.51100000000E-03 0. -1.
         11   -1    0    0    0    0 -0.00000000000E+00 -0.00000000000E+00 -0.45593999997E+02  0.45594000000E+02  0.51100000000E-03 0.  1.
         23    2    1    2    0    0  0.71054273576E-14  0.00000000000E+00  0.00000000000E+00  0.91188000000E+02  0.91188000000E+02 0.  0.
    9900012    2    3    3    0    0 -0.22831112713E+02  0.28266389265E+02 -0.59608201775E+01  0.54367084109E+02  0.39999999844E+02 0.  0.
         12    1    3    3    0    0  0.22831112713E+02 -0.28266389265E+02  0.59608201775E+01  0.36820915891E+02  0.00000000000E+00 0. -1.
         11    1    4    4    0    0  0.35613838312E+00 -0.42633379422E+01 -0.41770378176E+00  0.42985301753E+01  0.51100000000E-03 0. -1.
        -11    1    4    4    0    0  0.22292384062E+01  0.13074128406E+02  0.78047276033E+01  0.15388830712E+02  0.51100000000E-03 0.  1.
        -12    1    4    4    0    0 -0.25416489503E+02  0.19455598801E+02 -0.13347843999E+02  0.34679723222E+02  0.00000000000E+00 0.  1.
</event>
<event>
 8    1  0.2521748E-006  0.9118800E+02  0.7816164E-02  0.1184000E+00
        -11   -1    0    0    0    0  0.00000000000E+00  0.00000000000E+00  0.45593999997E+02  0.45594000000E+02  0.51100000000E-03 0.  1.
         11   -1    0    0    0    0 -0.00000000000E+00 -0.00000000000E+00 -0.45593999997E+02  0.45594000000E+02  0.51100000000E-03 0. -1.
         23    2    1    2    0    0  0.22204460493E-15  0.35527136788E-14  0.00000000000E+00  0.91188000000E+02  0.91188000000E+02 0.  0.
    9900012    2    3    3    0    0  0.18744353923E+01  0.22387095053E+02 -0.29173341817E+02  0.54367090102E+02  0.40000013506E+02 0.  0.
        -12    1    3    3    0    0 -0.18744353923E+01 -0.22387095053E+02  0.29173341817E+02  0.36820909898E+02  0.00000000000E+00 0.  1.
         11    1    4    4    0    0 -0.13325464183E+01 -0.17304100636E+01  0.43457368772E+01  0.48636846333E+01  0.51100000000E-03 0. -1.
        -11    1    4    4    0    0  0.74057681485E+01  0.58726956965E+01 -0.28635775243E+02  0.30155291088E+02  0.51100000000E-03 0.  1.
         12    1    4    4    0    0 -0.41987863380E+01  0.18244809420E+02 -0.48833034518E+01  0.19348114380E+02  0.00000000000E+00 0. -1.
</event>
<event>
 8    1  0.2521748E-006  0.9118800E+02  0.7816164E-02  0.1184000E+00
        -11   -1    0    0    0    0  0.00000000000E+00  0.00000000000E+00  0.45593999997E+02  0.45594000000E+02  0.51100000000E-03 0. -1.
         11   -1    0    0    0    0 -0.00000000000E+00 -0.00000000000E+00 -0.45593999997E+02  0.45594000000E+02  0.51100000000E-03 0.  1.
         23    2    1    2    0    0  0.00000000000E+00  0.00000000000E+00  0.00000000000E+00  0.91188000000E+02  0.91188000000E+02 0.  0.
    9900012    2    3    3    0    0  0.21643174282E+02  0.18451146536E+02 -0.23386049041E+02  0.54367094372E+02  0.40000023241E+02 0.  0.
         12    1    3    3    0    0 -0.21643174282E+02 -0.18451146536E+02  0.23386049041E+02  0.36820905628E+02  0.00000000000E+00 0. -1.
         11    1    4    4    0    0  0.67140744047E+00  0.47520769817E+00  0.32027744618E+01  0.33067166225E+01  0.51100000000E-03 0. -1.
        -11    1    4    4    0    0  0.76359032355E+01  0.21615048717E+02 -0.22039699629E+01  0.23029868282E+02  0.51100000000E-03 0.  1.
        -12    1    4    4    0    0  0.13335863606E+02 -0.36391098792E+01 -0.24384853540E+02  0.28030509468E+02  0.00000000000E+00 0.  1.
</event>
<event>
 8    1  0.2521748E-006  0.9118800E+02  0.7816164E-02  0.1184000E+00
        -11   -1    0    0    0    0  0.00000000000E+00  0.00000000000E+00  0.45593999997E+02  0.45594000000E+02  0.51100000000E-03 0. -1.
         11   -1    0    0    0    0 -0.00000000000E+00 -0.00000000000E+00 -0.45593999997E+02  0.45594000000E+02  0.51100000000E-03 0.  1.
         23    2    1    2    0    0  0.00000000000E+00  0.00000000000E+00 -0.17763568394E-14  0.91188000000E+02  0.91188000000E+02 0.  0.
    9900012    2    3    3    0    0 -0.32755353086E+02  0.11479944779E+02  0.12291357714E+02  0.54367085259E+02  0.40000002465E+02 0.  0.
         12    1    3    3    0    0  0.32755353086E+02 -0.11479944779E+02 -0.12291357714E+02  0.36820914741E+02  0.00000000000E+00 0. -1.
         11    1    4    4    0    0 -0.42643497142E+01 -0.18791071803E+01  0.16519559062E+02  0.17164252216E+02  0.51100000000E-03 0. -1.
        -11    1    4    4    0    0 -0.22252074423E+02  0.18317062849E+02 -0.18240206360E+01  0.28879000313E+02  0.51100000000E-03 0.  1.
        -12    1    4    4    0    0 -0.62389289489E+01 -0.49580108894E+01 -0.24041807122E+01  0.83238327293E+01  0.00000000000E+00 0.  1.
</event>
<event>
 8    1  0.2521748E-006  0.9118800E+02  0.7816164E-02  0.1184000E+00
        -11   -1    0    0    0    0  0.00000000000E+00  0.00000000000E+00  0.45593999997E+02  0.45594000000E+02  0.51100000000E-03 0. -1.
         11   -1    0    0    0    0 -0.00000000000E+00 -0.00000000000E+00 -0.45593999997E+02  0.45594000000E+02  0.51100000000E-03 0.  1.
         23    2    1    2    0    0 -0.17763568394E-14  0.71054273576E-14 -0.35527136788E-14  0.91188000000E+02  0.91188000000E+02 0.  0.
    9900012    2    3    3    0    0  0.13271669769E+02 -0.21326832565E+02  0.26922276463E+02  0.54367082363E+02  0.39999995863E+02 0.  0.
        -12    1    3    3    0    0 -0.13271669769E+02  0.21326832565E+02 -0.26922276463E+02  0.36820917637E+02  0.00000000000E+00 0.  1.
         11    1    4    4    0    0 -0.13892233224E+01  0.32203947305E+01  0.11481196002E+00  0.35091403088E+01  0.51100000000E-03 0.  1.
        -11    1    4    4    0    0  0.11610766375E+02 -0.29369075037E+01  0.26444848440E+02  0.29030420782E+02  0.51100000000E-03 0. -1.
         12    1    4    4    0    0  0.30501267170E+01 -0.21610319791E+02  0.36261606269E+00  0.21827521272E+02  0.00000000000E+00 0. -1.
</event>
<event>
 8    1  0.2521748E-006  0.9118800E+02  0.7816164E-02  0.1184000E+00
        -11   -1    0    0    0    0  0.00000000000E+00  0.00000000000E+00  0.45593999997E+02  0.45594000000E+02  0.51100000000E-03 0.  1.
         11   -1    0    0    0    0 -0.00000000000E+00 -0.00000000000E+00 -0.45593999997E+02  0.45594000000E+02  0.51100000000E-03 0. -1.
         23    2    1    2    0    0  0.00000000000E+00 -0.35527136788E-14 -0.35527136788E-14  0.91188000000E+02  0.91188000000E+02 0.  0.
    9900012    2    3    3    0    0  0.12875614638E+01  0.27619576756E+02  0.24316267754E+02  0.54367085941E+02  0.40000004019E+02 0.  0.
         12    1    3    3    0    0 -0.12875614638E+01 -0.27619576756E+02 -0.24316267754E+02  0.36820914059E+02  0.00000000000E+00 0. -1.
         11    1    4    4    0    0  0.37685116336E+00  0.45967661286E+01 -0.31217956653E+01  0.55693701688E+01  0.51100000000E-03 0. -1.
        -11    1    4    4    0    0  0.16523606806E+01  0.10600631441E+02 -0.65726348528E+01  0.12581860432E+02  0.51100000000E-03 0.  1.
        -12    1    4    4    0    0 -0.74165038025E+00  0.12422179186E+02  0.34010698272E+02  0.36215855340E+02  0.00000000000E+00 0.  1.
</event>
<event>
 8    1  0.2521748E-006  0.9118800E+02  0.7816164E-02  0.1184000E+00
        -11   -1    0    0    0    0  0.00000000000E+00  0.00000000000E+00  0.45593999997E+02  0.45594000000E+02  0.51100000000E-03 0.  1.
         11   -1    0    0    0    0 -0.00000000000E+00 -0.00000000000E+00 -0.45593999997E+02  0.45594000000E+02  0.51100000000E-03 0. -1.
         23    2    1    2    0    0  0.88817841970E-15  0.17763568394E-14  0.00000000000E+00  0.91188000000E+02  0.91188000000E+02 0.  0.
    9900012    2    3    3    0    0  0.78138327132E+01  0.86075390138E+01  0.34937577716E+02  0.54367081405E+02  0.39999993678E+02 0.  0.
         12    1    3    3    0    0 -0.78138327132E+01 -0.86075390138E+01 -0.34937577716E+02  0.36820918595E+02  0.00000000000E+00 0. -1.
         11    1    4    4    0    0  0.70425266620E+01 -0.35602202766E+01  0.30574456109E+01  0.84628791867E+01  0.51100000000E-03 0. -1.
        -11    1    4    4    0    0  0.20972057360E+00 -0.11020823139E+01  0.32584511197E+02  0.32603817849E+02  0.51100000000E-03 0.  1.
         12    1    4    4    0    0  0.56158547756E+00  0.13269841604E+02 -0.70437909181E+00  0.13300384369E+02  0.00000000000E+00 0. -1.
</event>
<event>
 8    1  0.2521748E-006  0.9118800E+02  0.7816164E-02  0.1184000E+00
        -11   -1    0    0    0    0  0.00000000000E+00  0.00000000000E+00  0.45593999997E+02  0.45594000000E+02  0.51100000000E-03 0. -1.
         11   -1    0    0    0    0 -0.00000000000E+00 -0.00000000000E+00 -0.45593999997E+02  0.45594000000E+02  0.51100000000E-03 0.  1.
         23    2    1    2    0    0  0.00000000000E+00  0.00000000000E+00  0.66613381478E-15  0.91188000000E+02  0.91188000000E+02 0.  0.
    9900012    2    3    3    0    0 -0.35381943180E+02 -0.10133656943E+02  0.10984091072E+01  0.54367090061E+02  0.40000013411E+02 0.  0.
        -12    1    3    3    0    0  0.35381943180E+02  0.10133656943E+02 -0.10984091072E+01  0.36820909939E+02  0.00000000000E+00 0.  1.
         11    1    4    4    0    0 -0.15776262526E+02  0.61284316057E+01 -0.42995178374E+01  0.17462359152E+02  0.51100000000E-03 0. -1.
        -11    1    4    4    0    0 -0.92693591098E+01 -0.11765748025E+02 -0.98616691817E+01  0.17933386858E+02  0.51100000000E-03 0.  1.
        -12    1    4    4    0    0 -0.10336321543E+02 -0.44963405240E+01  0.15259596126E+02  0.18971344051E+02  0.00000000000E+00 0.  1.
</event>
<event>
 8    1  0.2521748E-006  0.9118800E+02  0.7816164E-02  0.1184000E+00
        -11   -1    0    0    0    0  0.00000000000E+00  0.00000000000E+00  0.45593999997E+02  0.45594000000E+02  0.51100000000E-03 0. -1.
         11   -1    0    0    0    0 -0.00000000000E+00 -0.00000000000E+00 -0.45593999997E+02  0.45594000000E+02  0.51100000000E-03 0.  1.
         23    2    1    2    0    0 -0.88817841970E-15 -0.16653345369E-14  0.00000000000E+00  0.91188000000E+02  0.91188000000E+02 0.  0.
    9900012    2    3    3    0    0 -0.35749770712E+01 -0.87570075255E+00  0.36636468943E+02  0.54367106889E+02  0.40000051775E+02 0.  0.
        -12    1    3    3    0    0  0.35749770712E+01  0.87570075255E+00 -0.36636468943E+02  0.36820893111E+02  0.00000000000E+00 0.  1.
         11    1    4    4    0    0 -0.10193152043E+02 -0.16205332349E+02  0.25722169810E+02  0.32064671605E+02  0.51100000000E-03 0. -1.
        -11    1    4    4    0    0  0.55965638073E+01  0.10436521613E+02  0.18984379053E+01  0.11993605653E+02  0.51100000000E-03 0.  1.
         12    1    4    4    0    0  0.10216111641E+01  0.48931099836E+01  0.90158612276E+01  0.10308829631E+02  0.00000000000E+00 0. -1.
</event>
<event>
 8    1  0.2521748E-006  0.9118800E+02  0.7816164E-02  0.1184000E+00
        -11   -1    0    0    0    0  0.00000000000E+00  0.00000000000E+00  0.45593999997E+02  0.45594000000E+02  0.51100000000E-03 0. -1.
         11   -1    0    0    0    0 -0.00000000000E+00 -0.00000000000E+00 -0.45593999997E+02  0.45594000000E+02  0.51100000000E-03 0.  1.
         23    2    1    2    0    0  0.00000000000E+00  0.00000000000E+00  0.00000000000E+00  0.91188000000E+02  0.91188000000E+02 0.  0.
    9900012    2    3    3    0    0  0.12583430471E+02  0.42497311868E+01 -0.34342050662E+02  0.54367090434E+02  0.40000014263E+02 0.  0.
         12    1    3    3    0    0 -0.12583430471E+02 -0.42497311868E+01  0.34342050662E+02  0.36820909566E+02  0.00000000000E+00 0. -1.
         11    1    4    4    0    0 -0.70024313785E+01  0.25451573584E+01 -0.76988010442E+01  0.10713701926E+02  0.51100000000E-03 0. -1.
        -11    1    4    4    0    0  0.24486141249E+02  0.36029831254E+01 -0.28799379895E+02  0.37973107369E+02  0.51100000000E-03 0.  1.
        -12    1    4    4    0    0 -0.49002793990E+01 -0.18984092970E+01  0.21561302768E+01  0.56802811390E+01  0.00000000000E+00 0.  1.
</event>
<event>
 8    1  0.2521748E-006  0.9118800E+02  0.7816164E-02  0.1184000E+00
        -11   -1    0    0    0    0  0.00000000000E+00  0.00000000000E+00  0.45593999997E+02  0.45594000000E+02  0.51100000000E-03 0.  1.
         11   -1    0    0    0    0 -0.00000000000E+00 -0.00000000000E+00 -0.45593999997E+02  0.45594000000E+02  0.51100000000E-03 0. -1.
         23    2    1    2    0    0  0.35527136788E-14  0.00000000000E+00  0.35527136788E-14  0.91188000000E+02  0.91188000000E+02 0.  0.
    9900012    2    3    3    0    0  0.30868958282E+02  0.17106316560E+02  0.10500385586E+02  0.54367126177E+02  0.40000095745E+02 0.  0.
        -12    1    3    3    0    0 -0.30868958282E+02 -0.17106316560E+02 -0.10500385586E+02  0.36820873823E+02  0.00000000000E+00 0.  1.
         11    1    4    4    0    0  0.10985535025E+02  0.15041864000E+02 -0.11750966060E+02  0.22023279865E+02  0.51100000000E-03 0. -1.
        -11    1    4    4    0    0  0.12343500191E+02  0.18730008493E-01  0.21102304151E+02  0.24447281823E+02  0.51100000000E-03 0.  1.
         12    1    4    4    0    0  0.75399230651E+01  0.20457225517E+01  0.11490474949E+01  0.78965644892E+01  0.00000000000E+00 0. -1.
</event>
<event>
 8    1  0.2521748E-006  0.9118800E+02  0.7816164E-02  0.1184000E+00
        -11   -1    0    0    0    0  0.00000000000E+00  0.00000000000E+00  0.45593999997E+02  0.45594000000E+02  0.51100000000E-03 0.  1.
         11   -1    0    0    0    0 -0.00000000000E+00 -0.00000000000E+00 -0.45593999997E+02  0.45594000000E+02  0.51100000000E-03 0. -1.
         23    2    1    2    0    0  0.44408920985E-15  0.35527136788E-14  0.00000000000E+00  0.91188000000E+02  0.91188000000E+02 0.  0.
    9900012    2    3    3    0    0  0.38875529396E+01 -0.16107023474E+02 -0.32882098047E+02  0.54367059694E+02  0.39999944184E+02 0.  0.
        -12    1    3    3    0    0 -0.38875529396E+01  0.16107023474E+02  0.32882098047E+02  0.36820940306E+02  0.00000000000E+00 0.  1.
         11    1    4    4    0    0  0.43390325957E+01 -0.41410892383E+01 -0.26236953882E+02  0.26913817514E+02  0.51100000000E-03 0. -1.
        -11    1    4    4    0    0 -0.38240370408E+01  0.24077609634E+01 -0.11138747457E+02  0.12020493639E+02  0.51100000000E-03 0.  1.
        -12    1    4    4    0    0  0.33725573847E+01 -0.14373695199E+02  0.44936032916E+01  0.15432748541E+02  0.00000000000E+00 0.  1.
</event>
<event>
 8    1  0.2521748E-006  0.9118800E+02  0.7816164E-02  0.1184000E+00
        -11   -1    0    0    0    0  0.00000000000E+00  0.00000000000E+00  0.45593999997E+02  0.45594000000E+02  0.51100000000E-03 0.  1.
         11   -1    0    0    0    0 -0.00000000000E+00 -0.00000000000E+00 -0.45593999997E+02  0.45594000000E+02  0.51100000000E-03 0. -1.
         23    2    1    2    0    0  0.00000000000E+00 -0.44408920985E-15  0.35527136788E-14  0.91188000000E+02  0.91188000000E+02 0.  0.
    9900012    2    3    3    0    0  0.30855047313E+02 -0.34139989213E+01  0.19801281375E+02  0.54367080981E+02  0.39999992713E+02 0.  0.
         12    1    3    3    0    0 -0.30855047313E+02  0.34139989213E+01 -0.19801281375E+02  0.36820919019E+02  0.00000000000E+00 0. -1.
         11    1    4    4    0    0  0.47998206951E+01  0.27068780162E+01 -0.90004025610E+01  0.10553327145E+02  0.51100000000E-03 0. -1.
        -11    1    4    4    0    0  0.11188704771E+02 -0.12537524051E+02  0.15439924730E+02  0.22820339606E+02  0.51100000000E-03 0.  1.
         12    1    4    4    0    0  0.14866521847E+02  0.64166471139E+01  0.13361759206E+02  0.20993414231E+02  0.00000000000E+00 0. -1.
</event>
<event>
 8    1  0.2521748E-006  0.9118800E+02  0.7816164E-02  0.1184000E+00
        -11   -1    0    0    0    0  0.00000000000E+00  0.00000000000E+00  0.45593999997E+02  0.45594000000E+02  0.51100000000E-03 0.  1.
         11   -1    0    0    0    0 -0.00000000000E+00 -0.00000000000E+00 -0.45593999997E+02  0.45594000000E+02  0.51100000000E-03 0. -1.
         23    2    1    2    0    0  0.17763568394E-14  0.00000000000E+00  0.00000000000E+00  0.91188000000E+02  0.91188000000E+02 0.  0.
    9900012    2    3    3    0    0 -0.84422003300E+01  0.40100995514E+01  0.35615008924E+02  0.54367075168E+02  0.39999979461E+02 0.  0.
         12    1    3    3    0    0  0.84422003300E+01 -0.40100995514E+01 -0.35615008924E+02  0.36820924832E+02  0.00000000000E+00 0. -1.
         11    1    4    4    0    0  0.99832788932E+01  0.50693286596E+01  0.28319250982E+01  0.11549188307E+02  0.51100000000E-03 0. -1.
        -11    1    4    4    0    0 -0.41782525479E+01  0.67777834183E+01  0.21766113486E+02  0.23176708976E+02  0.51100000000E-03 0.  1.
        -12    1    4    4    0    0 -0.14247226675E+02 -0.78370125265E+01  0.11016970340E+02  0.19641177886E+02  0.00000000000E+00 0.  1.
</event>
<event>
 8    1  0.2521748E-006  0.9118800E+02  0.7816164E-02  0.1184000E+00
        -11   -1    0    0    0    0  0.00000000000E+00  0.00000000000E+00  0.45593999997E+02  0.45594000000E+02  0.51100000000E-03 0.  1.
         11   -1    0    0    0    0 -0.00000000000E+00 -0.00000000000E+00 -0.45593999997E+02  0.45594000000E+02  0.51100000000E-03 0. -1.
         23    2    1    2    0    0  0.00000000000E+00 -0.26645352591E-14 -0.17763568394E-14  0.91188000000E+02  0.91188000000E+02 0.  0.
    9900012    2    3    3    0    0  0.35491499296E+02 -0.69128919775E+01 -0.69529439816E+01  0.54367108814E+02  0.40000056162E+02 0.  0.
        -12    1    3    3    0    0 -0.35491499296E+02  0.69128919775E+01  0.69529439816E+01  0.36820891186E+02  0.00000000000E+00 0.  1.
         11    1    4    4    0    0  0.33153046933E+02  0.19522460770E+01 -0.44795401257E+01  0.33511222981E+02  0.51100000000E-03 0. -1.
        -11    1    4    4    0    0  0.37037593877E+01 -0.10485204687E+02  0.56412559977E+01  0.12469206888E+02  0.51100000000E-03 0.  1.
         12    1    4    4    0    0 -0.13653070250E+01  0.16200666328E+01 -0.81146598537E+01  0.83866789439E+01  0.00000000000E+00 0. -1.
</event>
<event>
 8    1  0.2521748E-006  0.9118800E+02  0.7816164E-02  0.1184000E+00
        -11   -1    0    0    0    0  0.00000000000E+00  0.00000000000E+00  0.45593999997E+02  0.45594000000E+02  0.51100000000E-03 0. -1.
         11   -1    0    0    0    0 -0.00000000000E+00 -0.00000000000E+00 -0.45593999997E+02  0.45594000000E+02  0.51100000000E-03 0.  1.
         23    2    1    2    0    0  0.35527136788E-14  0.35527136788E-14  0.17763568394E-14  0.91188000000E+02  0.91188000000E+02 0.  0.
    9900012    2    3    3    0    0 -0.29309216370E+02 -0.18715352698E+02 -0.12103072673E+02  0.54367096169E+02  0.40000027336E+02 0.  0.
         12    1    3    3    0    0  0.29309216370E+02  0.18715352698E+02  0.12103072673E+02  0.36820903831E+02  0.00000000000E+00 0. -1.
         11    1    4    4    0    0  0.47145421300E+01  0.56350801825E+01  0.46409006754E+01  0.86901665979E+01  0.51100000000E-03 0. -1.
        -11    1    4    4    0    0 -0.12977020064E+02 -0.11816022251E+02 -0.37468204190E+01  0.17946032851E+02  0.51100000000E-03 0.  1.
         12    1    4    4    0    0 -0.21046738436E+02 -0.12534410629E+02 -0.12997152930E+02  0.27730896720E+02  0.00000000000E+00 0. -1.
</event>
<event>
 8    1  0.2521748E-006  0.9118800E+02  0.7816164E-02  0.1184000E+00
        -11   -1    0    0    0    0  0.00000000000E+00  0.00000000000E+00  0.45593999997E+02  0.45594000000E+02  0.51100000000E-03 0. -1.
         11   -1    0    0    0    0 -0.00000000000E+00 -0.00000000000E+00 -0.45593999997E+02  0.45594000000E+02  0.51100000000E-03 0.  1.
         23    2    1    2    0    0  0.00000000000E+00 -0.71054273576E-14  0.17763568394E-14  0.91188000000E+02  0.91188000000E+02 0.  0.
    9900012    2    3    3    0    0  0.69400983258E+01 -0.32674755281E+02 -0.15491117862E+02  0.54367091129E+02  0.40000015847E+02 0.  0.
         12    1    3    3    0    0 -0.69400983258E+01  0.32674755281E+02  0.15491117862E+02  0.36820908871E+02  0.00000000000E+00 0. -1.
         11    1    4    4    0    0 -0.81088692863E+00  0.63855520004E+01 -0.10156739317E+02  0.12024648260E+02  0.51100000000E-03 0. -1.
        -11    1    4    4    0    0  0.18998339160E+01 -0.32670325839E+02 -0.12130123976E+01  0.32747991673E+02  0.51100000000E-03 0.  1.
         12    1    4    4    0    0  0.58511513385E+01 -0.63899814426E+01 -0.41213661476E+01  0.95944511956E+01  0.00000000000E+00 0. -1.
</event>
<event>
 8    1  0.2521748E-006  0.9118800E+02  0.7816164E-02  0.1184000E+00
        -11   -1    0    0    0    0  0.00000000000E+00  0.00000000000E+00  0.45593999997E+02  0.45594000000E+02  0.51100000000E-03 0. -1.
         11   -1    0    0    0    0 -0.00000000000E+00 -0.00000000000E+00 -0.45593999997E+02  0.45594000000E+02  0.51100000000E-03 0.  1.
         23    2    1    2    0    0  0.00000000000E+00  0.00000000000E+00  0.35527136788E-14  0.91188000000E+02  0.91188000000E+02 0.  0.
    9900012    2    3    3    0    0  0.17931726408E+02 -0.22830432349E+02  0.22649608988E+02  0.54367078766E+02  0.39999987662E+02 0.  0.
        -12    1    3    3    0    0 -0.17931726408E+02  0.22830432349E+02 -0.22649608988E+02  0.36820921234E+02  0.00000000000E+00 0.  1.
         11    1    4    4    0    0  0.23312883724E+01  0.74255960489E+00  0.45746186501E+01  0.51878161395E+01  0.51100000000E-03 0. -1.
        -11    1    4    4    0    0  0.24720571605E+02 -0.81958735483E+01  0.38384734602E+01  0.26325137843E+02  0.51100000000E-03 0.  1.
        -12    1    4    4    0    0 -0.91201335695E+01 -0.15377118405E+02  0.14236516878E+02  0.22854124783E+02  0.00000000000E+00 0.  1.
</event>
<event>
 8    1  0.2521748E-006  0.9118800E+02  0.7816164E-02  0.1184000E+00
        -11   -1    0    0    0    0  0.00000000000E+00  0.00000000000E+00  0.45593999997E+02  0.45594000000E+02  0.51100000000E-03 0.  1.
         11   -1    0    0    0    0 -0.00000000000E+00 -0.00000000000E+00 -0.45593999997E+02  0.45594000000E+02  0.51100000000E-03 0. -1.
         23    2    1    2    0    0  0.00000000000E+00 -0.71054273576E-14  0.00000000000E+00  0.91188000000E+02  0.91188000000E+02 0.  0.
    9900012    2    3    3    0    0  0.99572914536E+01  0.32483913216E+02  0.14192529963E+02  0.54367079620E+02  0.39999989609E+02 0.  0.
         12    1    3    3    0    0 -0.99572914536E+01 -0.32483913216E+02 -0.14192529963E+02  0.36820920380E+02  0.00000000000E+00 0. -1.
         11    1    4    4    0    0  0.16744092499E+02  0.16597294106E+02  0.63764667341E+01  0.24423229384E+02  0.51100000000E-03 0. -1.
        -11    1    4    4    0    0 -0.11618195589E+02  0.19131377529E+02  0.34030994914E+01  0.22640078651E+02  0.51100000000E-03 0.  1.
        -12    1    4    4    0    0  0.48313945432E+01 -0.32447584184E+01  0.44129637370E+01  0.73037715853E+01  0.00000000000E+00 0.  1.
</event>
<event>
 8    1  0.2521748E-006  0.9118800E+02  0.7816164E-02  0.1184000E+00
        -11   -1    0    0    0    0  0.00000000000E+00  0.00000000000E+00  0.45593999997E+02  0.45594000000E+02  0.51100000000E-03 0.  1.
         11   -1    0    0    0    0 -0.00000000000E+00 -0.00000000000E+00 -0.45593999997E+02  0.45594000000E+02  0.51100000000E-03 0. -1.
         23    2    1    2    0    0 -0.17763568394E-14  0.00000000000E+00 -0.35527136788E-14  0.91188000000E+02  0.91188000000E+02 0.  0.
    9900012    2    3    3    0    0  0.13637768573E+02  0.13172813254E+02  0.31563717257E+02  0.54367082198E+02  0.39999995488E+02 0.  0.
         12    1    3    3    0    0 -0.13637768573E+02 -0.13172813254E+02 -0.31563717257E+02  0.36820917802E+02  0.00000000000E+00 0. -1.
         11    1    4    4    0    0 -0.45508564958E+00 -0.33486881555E+01 -0.22240689936E+01  0.40456517968E+01  0.51100000000E-03 0. -1.
        -11    1    4    4    0    0  0.15423736461E+01  0.22588266272E+02  0.25513525440E+02  0.34110829223E+02  0.51100000000E-03 0.  1.
        -12    1    4    4    0    0  0.12550480576E+02 -0.60667648630E+01  0.82742608105E+01  0.16210601178E+02  0.00000000000E+00 0.  1.
</event>
<event>
 8    1  0.2521748E-006  0.9118800E+02  0.7816164E-02  0.1184000E+00
        -11   -1    0    0    0    0  0.00000000000E+00  0.00000000000E+00  0.45593999997E+02  0.45594000000E+02  0.51100000000E-03 0. -1.
         11   -1    0    0    0    0 -0.00000000000E+00 -0.00000000000E+00 -0.45593999997E+02  0.45594000000E+02  0.51100000000E-03 0.  1.
         23    2    1    2    0    0  0.00000000000E+00  0.00000000000E+00  0.00000000000E+00  0.91188000000E+02  0.91188000000E+02 0.  0.
    9900012    2    3    3    0    0 -0.57090590986E+01  0.13384928457E+02  0.33823548690E+02  0.54367053359E+02  0.39999929742E+02 0.  0.
        -12    1    3    3    0    0  0.57090590986E+01 -0.13384928457E+02 -0.33823548690E+02  0.36820946641E+02  0.00000000000E+00 0.  1.
         11    1    4    4    0    0 -0.52471115577E+01  0.18887555648E+02  0.68424458486E+01  0.20762731119E+02  0.51100000000E-03 0. -1.
        -11    1    4    4    0    0 -0.82374829347E+01 -0.20938275522E+01  0.22397784227E+02  0.23956230452E+02  0.51100000000E-03 0.  1.
         12    1    4    4    0    0  0.77755353937E+01 -0.34087996389E+01  0.45833186143E+01  0.96480917884E+01  0.00000000000E+00 0. -1.
</event>
<event>
 8    1  0.2521748E-006  0.9118800E+02  0.7816164E-02  0.1184000E+00
        -11   -1    0    0    0    0  0.00000000000E+00  0.00000000000E+00  0.45593999997E+02  0.45594000000E+02  0.51100000000E-03 0. -1.
         11   -1    0    0    0    0 -0.00000000000E+00 -0.00000000000E+00 -0.45593999997E+02  0.45594000000E+02  0.51100000000E-03 0.  1.
         23    2    1    2    0    0  0.00000000000E+00 -0.17763568394E-14  0.00000000000E+00  0.91188000000E+02  0.91188000000E+02 0.  0.
    9900012    2    3    3    0    0 -0.29096747032E+02  0.13992498034E+02  0.17702246431E+02  0.54367079075E+02  0.39999988367E+02 0.  0.
        -12    1    3    3    0    0  0.29096747032E+02 -0.13992498034E+02 -0.17702246431E+02  0.36820920925E+02  0.00000000000E+00 0.  1.
         11    1    4    4    0    0 -0.23798028379E+02  0.19440598485E+02  0.37512243714E+01  0.30957304610E+02  0.51100000000E-03 0. -1.
        -11    1    4    4    0    0 -0.43540129617E+01  0.27118237976E+01  0.14295715793E+02  0.15188117312E+02  0.51100000000E-03 0.  1.
         12    1    4    4    0    0 -0.94470569166E+00 -0.81599242480E+01 -0.34469373338E+00  0.82216571533E+01  0.00000000000E+00 0. -1.
</event>
<event>
 8    1  0.2521748E-006  0.9118800E+02  0.7816164E-02  0.1184000E+00
        -11   -1    0    0    0    0  0.00000000000E+00  0.00000000000E+00  0.45593999997E+02  0.45594000000E+02  0.51100000000E-03 0.  1.
         11   -1    0    0    0    0 -0.00000000000E+00 -0.00000000000E+00 -0.45593999997E+02  0.45594000000E+02  0.51100000000E-03 0. -1.
         23    2    1    2    0    0  0.00000000000E+00  0.00000000000E+00  0.17763568394E-14  0.91188000000E+02  0.91188000000E+02 0.  0.
    9900012    2    3    3    0    0 -0.35222114765E+02  0.50615926327E+01 -0.94637563585E+01  0.54367085116E+02  0.40000002140E+02 0.  0.
        -12    1    3    3    0    0  0.35222114765E+02 -0.50615926327E+01  0.94637563585E+01  0.36820914884E+02  0.00000000000E+00 0.  1.
         11    1    4    4    0    0 -0.21308777677E+02  0.56644265017E+01 -0.11750385629E+02  0.24984421073E+02  0.51100000000E-03 0. -1.
        -11    1    4    4    0    0 -0.62664008486E+01 -0.13126908883E+02  0.21789546464E+01  0.14708207234E+02  0.51100000000E-03 0.  1.
        -12    1    4    4    0    0 -0.76469362391E+01  0.12524075014E+02  0.10767462452E+00  0.14674456809E+02  0.00000000000E+00 0.  1.
</event>
<event>
 8    1  0.2521748E-006  0.9118800E+02  0.7816164E-02  0.1184000E+00
        -11   -1    0    0    0    0  0.00000000000E+00  0.00000000000E+00  0.45593999997E+02  0.45594000000E+02  0.51100000000E-03 0.  1.
         11   -1    0    0    0    0 -0.00000000000E+00 -0.00000000000E+00 -0.45593999997E+02  0.45594000000E+02  0.51100000000E-03 0. -1.
         23    2    1    2    0    0  0.11102230246E-14  0.00000000000E+00  0.00000000000E+00  0.91188000000E+02  0.91188000000E+02 0.  0.
    9900012    2    3    3    0    0  0.11329386142E+01  0.31810914756E+02 -0.18508439209E+02  0.54367079731E+02  0.39999989862E+02 0.  0.
        -12    1    3    3    0    0 -0.11329386142E+01 -0.31810914756E+02  0.18508439209E+02  0.36820920269E+02  0.00000000000E+00 0.  1.
         11    1    4    4    0    0  0.52477445113E+01  0.60635357065E+01 -0.10585929238E+02  0.13280330787E+02  0.51100000000E-03 0.  1.
        -11    1    4    4    0    0 -0.15248406816E+02  0.24545462398E+02 -0.37599852220E+01  0.29139854562E+02  0.51100000000E-03 0. -1.
        -12    1    4    4    0    0  0.11133600919E+02  0.12019166514E+01 -0.41625247493E+01  0.11946894381E+02  0.00000000000E+00 0.  1.
</event>
<event>
 8    1  0.2521748E-006  0.9118800E+02  0.7816164E-02  0.1184000E+00
        -11   -1    0    0    0    0  0.00000000000E+00  0.00000000000E+00  0.45593999997E+02  0.45594000000E+02  0.51100000000E-03 0.  1.
         11   -1    0    0    0    0 -0.00000000000E+00 -0.00000000000E+00 -0.45593999997E+02  0.45594000000E+02  0.51100000000E-03 0. -1.
         23    2    1    2    0    0  0.17763568394E-14  0.00000000000E+00  0.00000000000E+00  0.91188000000E+02  0.91188000000E+02 0.  0.
    9900012    2    3    3    0    0  0.40642608996E+01 -0.92679829989E+01 -0.35402878361E+02  0.54367115685E+02  0.40000071827E+02 0.  0.
        -12    1    3    3    0    0 -0.40642608996E+01  0.92679829989E+01  0.35402878361E+02  0.36820884315E+02  0.00000000000E+00 0.  1.
         11    1    4    4    0    0  0.10347961789E+02 -0.14385381860E+01 -0.26600237236E+02  0.28578354161E+02  0.51100000000E-03 0. -1.
        -11    1    4    4    0    0  0.55562043698E+01  0.41354182259E+01 -0.30568164422E+00  0.69330031322E+01  0.51100000000E-03 0.  1.
        -12    1    4    4    0    0 -0.11839905260E+02 -0.11964863039E+02 -0.84969594806E+01  0.18855758391E+02  0.00000000000E+00 0.  1.
</event>
<event>
 8    1  0.2521748E-006  0.9118800E+02  0.7816164E-02  0.1184000E+00
        -11   -1    0    0    0    0  0.00000000000E+00  0.00000000000E+00  0.45593999997E+02  0.45594000000E+02  0.51100000000E-03 0.  1.
         11   -1    0    0    0    0 -0.00000000000E+00 -0.00000000000E+00 -0.45593999997E+02  0.45594000000E+02  0.51100000000E-03 0. -1.
         23    2    1    2    0    0  0.17763568394E-14 -0.35527136788E-14  0.00000000000E+00  0.91188000000E+02  0.91188000000E+02 0.  0.
    9900012    2    3    3    0    0 -0.10952155090E+02  0.27643450928E+02 -0.21717965535E+02  0.54367080575E+02  0.39999991787E+02 0.  0.
        -12    1    3    3    0    0  0.10952155090E+02 -0.27643450928E+02  0.21717965535E+02  0.36820919425E+02  0.00000000000E+00 0.  1.
         11    1    4    4    0    0  0.11538706317E+02  0.45658847771E+01 -0.14190626574E+01  0.12490107540E+02  0.51100000000E-03 0. -1.
        -11    1    4    4    0    0  0.10793305478E+01  0.35738781085E+01 -0.81414273638E+01  0.89565841115E+01  0.51100000000E-03 0.  1.
        -12    1    4    4    0    0 -0.23570191954E+02  0.19503688042E+02 -0.12157475514E+02  0.32920388924E+02  0.00000000000E+00 0.  1.
</event>
<event>
 8    1  0.2521748E-006  0.9118800E+02  0.7816164E-02  0.1184000E+00
        -11   -1    0    0    0    0  0.00000000000E+00  0.00000000000E+00  0.45593999997E+02  0.45594000000E+02  0.51100000000E-03 0. -1.
         11   -1    0    0    0    0 -0.00000000000E+00 -0.00000000000E+00 -0.45593999997E+02  0.45594000000E+02  0.51100000000E-03 0.  1.
         23    2    1    2    0    0  0.00000000000E+00  0.35527136788E-14 -0.88817841970E-15  0.91188000000E+02  0.91188000000E+02 0.  0.
    9900012    2    3    3    0    0  0.16939174448E+02 -0.31919362088E+02  0.70707751634E+01  0.54367120481E+02  0.40000082761E+02 0.  0.
        -12    1    3    3    0    0 -0.16939174448E+02  0.31919362088E+02 -0.70707751634E+01  0.36820879519E+02  0.00000000000E+00 0.  1.
         11    1    4    4    0    0  0.17781859825E+02 -0.31199175662E+01  0.32942752487E+01  0.18351585058E+02  0.51100000000E-03 0. -1.
        -11    1    4    4    0    0  0.77481120721E+01 -0.25426637572E+02  0.24944529852E+01  0.26697742130E+02  0.51100000000E-03 0.  1.
        -12    1    4    4    0    0 -0.85907974489E+01 -0.33728069505E+01  0.12820469294E+01  0.93177932936E+01  0.00000000000E+00 0.  1.
</event>
<event>
 8    1  0.2521748E-006  0.9118800E+02  0.7816164E-02  0.1184000E+00
        -11   -1    0    0    0    0  0.00000000000E+00  0.00000000000E+00  0.45593999997E+02  0.45594000000E+02  0.51100000000E-03 0.  1.
         11   -1    0    0    0    0 -0.00000000000E+00 -0.00000000000E+00 -0.45593999997E+02  0.45594000000E+02  0.51100000000E-03 0. -1.
         23    2    1    2    0    0  0.00000000000E+00 -0.35527136788E-14  0.00000000000E+00  0.91188000000E+02  0.91188000000E+02 0.  0.
    9900012    2    3    3    0    0  0.89583600570E+01 -0.24120703570E+02 -0.26338568075E+02  0.54367072203E+02  0.39999972700E+02 0.  0.
        -12    1    3    3    0    0 -0.89583600570E+01  0.24120703570E+02  0.26338568075E+02  0.36820927797E+02  0.00000000000E+00 0.  1.
         11    1    4    4    0    0  0.17640119191E+02 -0.15193286655E+02 -0.12159645671E+02  0.26265314534E+02  0.51100000000E-03 0. -1.
        -11    1    4    4    0    0 -0.22518170063E+01 -0.14436212989E+02 -0.46014908855E+01  0.15318245458E+02  0.51100000000E-03 0.  1.
        -12    1    4    4    0    0 -0.64299421276E+01  0.55087960738E+01 -0.95774315189E+01  0.12783512211E+02  0.00000000000E+00 0.  1.
</event>
<event>
 8    1  0.2521748E-006  0.9118800E+02  0.7816164E-02  0.1184000E+00
        -11   -1    0    0    0    0  0.00000000000E+00  0.00000000000E+00  0.45593999997E+02  0.45594000000E+02  0.51100000000E-03 0. -1.
         11   -1    0    0    0    0 -0.00000000000E+00 -0.00000000000E+00 -0.45593999997E+02  0.45594000000E+02  0.51100000000E-03 0.  1.
         23    2    1    2    0    0  0.00000000000E+00 -0.17763568394E-14  0.35527136788E-14  0.91188000000E+02  0.91188000000E+02 0.  0.
    9900012    2    3    3    0    0 -0.13338496752E+02 -0.12418688806E+02  0.31994400816E+02  0.54367068306E+02  0.39999963816E+02 0.  0.
        -12    1    3    3    0    0  0.13338496752E+02  0.12418688806E+02 -0.31994400816E+02  0.36820931694E+02  0.00000000000E+00 0.  1.
         11    1    4    4    0    0  0.72306410690E+01  0.28906379150E+01  0.32635186560E+01  0.84432524600E+01  0.51100000000E-03 0. -1.
        -11    1    4    4    0    0 -0.15106390549E+02 -0.22059393781E+02  0.24501904289E+02  0.36265178938E+02  0.51100000000E-03 0.  1.
        -12    1    4    4    0    0 -0.54627472720E+01  0.67500670596E+01  0.42289778714E+01  0.96586369071E+01  0.00000000000E+00 0.  1.
</event>
<event>
 8    1  0.2521748E-006  0.9118800E+02  0.7816164E-02  0.1184000E+00
        -11   -1    0    0    0    0  0.00000000000E+00  0.00000000000E+00  0.45593999997E+02  0.45594000000E+02  0.51100000000E-03 0.  1.
         11   -1    0    0    0    0 -0.00000000000E+00 -0.00000000000E+00 -0.45593999997E+02  0.45594000000E+02  0.51100000000E-03 0. -1.
         23    2    1    2    0    0  0.00000000000E+00  0.00000000000E+00  0.00000000000E+00  0.91188000000E+02  0.91188000000E+02 0.  0.
    9900012    2    3    3    0    0  0.90011851942E+01 -0.26218191803E+02  0.24235561887E+02  0.54367117660E+02  0.40000076329E+02 0.  0.
         12    1    3    3    0    0 -0.90011851942E+01  0.26218191803E+02 -0.24235561887E+02  0.36820882340E+02  0.00000000000E+00 0. -1.
         11    1    4    4    0    0  0.20082739534E+02 -0.86550969442E+01  0.30182336678E+01  0.22075707578E+02  0.51100000000E-03 0. -1.
        -11    1    4    4    0    0 -0.69407367750E+01 -0.18725569896E+02  0.16473540904E+02  0.25888189298E+02  0.51100000000E-03 0.  1.
         12    1    4    4    0    0 -0.41408175652E+01  0.11624750381E+01  0.47437873153E+01  0.64032207845E+01  0.00000000000E+00 0. -1.
</event>
<event>
 8    1  0.2521748E-006  0.9118800E+02  0.7816164E-02  0.1184000E+00
        -11   -1    0    0    0    0  0.00000000000E+00  0.00000000000E+00  0.45593999997E+02  0.45594000000E+02  0.51100000000E-03 0. -1.
         11   -1    0    0    0    0 -0.00000000000E+00 -0.00000000000E+00 -0.45593999997E+02  0.45594000000E+02  0.51100000000E-03 0.  1.
         23    2    1    2    0    0  0.00000000000E+00 -0.77715611724E-15  0.00000000000E+00  0.91188000000E+02  0.91188000000E+02 0.  0.
    9900012    2    3    3    0    0 -0.30323100677E+02 -0.20357357376E+00  0.20886550882E+02  0.54367083599E+02  0.39999998680E+02 0.  0.
        -12    1    3    3    0    0  0.30323100677E+02  0.20357357376E+00 -0.20886550882E+02  0.36820916401E+02  0.00000000000E+00 0.  1.
         11    1    4    4    0    0  0.90895360859E-01  0.10425078077E+02  0.14448543088E+01  0.10525118484E+02  0.51100000000E-03 0. -1.
        -11    1    4    4    0    0 -0.26000573202E+02 -0.10597533664E+01  0.20670577094E+02  0.33232899990E+02  0.51100000000E-03 0.  1.
        -12    1    4    4    0    0 -0.44134228354E+01 -0.95688982840E+01 -0.12288805207E+01  0.10609065125E+02  0.00000000000E+00 0.  1.
</event>
<event>
 8    1  0.2521748E-006  0.9118800E+02  0.7816164E-02  0.1184000E+00
        -11   -1    0    0    0    0  0.00000000000E+00  0.00000000000E+00  0.45593999997E+02  0.45594000000E+02  0.51100000000E-03 0.  1.
         11   -1    0    0    0    0 -0.00000000000E+00 -0.00000000000E+00 -0.45593999997E+02  0.45594000000E+02  0.51100000000E-03 0. -1.
         23    2    1    2    0    0  0.00000000000E+00 -0.35527136788E-14 -0.35527136788E-14  0.91188000000E+02  0.91188000000E+02 0.  0.
    9900012    2    3    3    0    0 -0.26399984846E+02  0.19900266658E+02  0.16211467729E+02  0.54366925887E+02  0.39999639144E+02 0.  0.
         12    1    3    3    0    0  0.26399984846E+02 -0.19900266658E+02 -0.16211467729E+02  0.36821074113E+02  0.00000000000E+00 0. -1.
         11    1    4    4    0    0 -0.12533342410E+02 -0.12512829457E+01  0.13767675468E+02  0.18660098313E+02  0.51100000000E-03 0. -1.
        -11    1    4    4    0    0 -0.75104258737E+01  0.11182027726E+02 -0.11296395157E+02  0.17579897175E+02  0.51100000000E-03 0.  1.
        -12    1    4    4    0    0 -0.63562165617E+01  0.99695218771E+01  0.13740187417E+02  0.18126930399E+02  0.00000000000E+00 0.  1.
</event>
<event>
 8    1  0.2521748E-006  0.9118800E+02  0.7816164E-02  0.1184000E+00
        -11   -1    0    0    0    0  0.00000000000E+00  0.00000000000E+00  0.45593999997E+02  0.45594000000E+02  0.51100000000E-03 0.  1.
         11   -1    0    0    0    0 -0.00000000000E+00 -0.00000000000E+00 -0.45593999997E+02  0.45594000000E+02  0.51100000000E-03 0. -1.
         23    2    1    2    0    0  0.35527136788E-14  0.00000000000E+00  0.00000000000E+00  0.91188000000E+02  0.91188000000E+02 0.  0.
    9900012    2    3    3    0    0 -0.10053205823E+02  0.15325852502E+02  0.31934811453E+02  0.54367070018E+02  0.39999967719E+02 0.  0.
         12    1    3    3    0    0  0.10053205823E+02 -0.15325852502E+02 -0.31934811453E+02  0.36820929982E+02  0.00000000000E+00 0. -1.
         11    1    4    4    0    0 -0.14197556852E+02  0.85931613174E+01  0.11031836804E+02  0.19927731068E+02  0.51100000000E-03 0. -1.
        -11    1    4    4    0    0  0.47646812073E+01  0.14791238794E+02  0.45404115011E+01  0.16189449309E+02  0.51100000000E-03 0.  1.
        -12    1    4    4    0    0 -0.62033017802E+00 -0.80585476095E+01  0.16362563148E+02  0.18249889640E+02  0.00000000000E+00 0.  1.
</event>
<event>
 8    1  0.2521748E-006  0.9118800E+02  0.7816164E-02  0.1184000E+00
        -11   -1    0    0    0    0  0.00000000000E+00  0.00000000000E+00  0.45593999997E+02  0.45594000000E+02  0.51100000000E-03 0.  1.
         11   -1    0    0    0    0 -0.00000000000E+00 -0.00000000000E+00 -0.45593999997E+02  0.45594000000E+02  0.51100000000E-03 0. -1.
         23    2    1    2    0    0  0.88817841970E-15  0.35527136788E-14  0.00000000000E+00  0.91188000000E+02  0.91188000000E+02 0.  0.
    9900012    2    3    3    0    0  0.18435751608E+01  0.31007025375E+02 -0.19772345555E+02  0.54367081480E+02  0.39999993849E+02 0.  0.
        -12    1    3    3    0    0 -0.18435751608E+01 -0.31007025375E+02  0.19772345555E+02  0.36820918520E+02  0.00000000000E+00 0.  1.
         11    1    4    4    0    0 -0.13898867797E+02  0.14384317419E+02 -0.80078666843E+01  0.21545603792E+02  0.51100000000E-03 0. -1.
        -11    1    4    4    0    0  0.66663793255E+01  0.11512748546E+00  0.44086802617E+01  0.79931426586E+01  0.51100000000E-03 0.  1.
         12    1    4    4    0    0  0.90760636322E+01  0.16507580470E+02 -0.16173159132E+02  0.24828335029E+02  0.00000000000E+00 0. -1.
</event>
<event>
 8    1  0.2521748E-006  0.9118800E+02  0.7816164E-02  0.1184000E+00
        -11   -1    0    0    0    0  0.00000000000E+00  0.00000000000E+00  0.45593999997E+02  0.45594000000E+02  0.51100000000E-03 0. -1.
         11   -1    0    0    0    0 -0.00000000000E+00 -0.00000000000E+00 -0.45593999997E+02  0.45594000000E+02  0.51100000000E-03 0.  1.
         23    2    1    2    0    0  0.00000000000E+00  0.35527136788E-14  0.17763568394E-14  0.91188000000E+02  0.91188000000E+02 0.  0.
    9900012    2    3    3    0    0  0.22325269163E+02 -0.27802494199E+02  0.91860080376E+01  0.54367094653E+02  0.40000023880E+02 0.  0.
        -12    1    3    3    0    0 -0.22325269163E+02  0.27802494199E+02 -0.91860080376E+01  0.36820905347E+02  0.00000000000E+00 0.  1.
         11    1    4    4    0    0  0.12956851388E+02 -0.16991173781E+02  0.23832590500E+02  0.32008941790E+02  0.51100000000E-03 0. -1.
        -11    1    4    4    0    0  0.52334161703E+01 -0.75191992901E+01 -0.31206142675E+01  0.96780802044E+01  0.51100000000E-03 0.  1.
         12    1    4    4    0    0  0.41350016047E+01 -0.32921211288E+01 -0.11525968195E+02  0.12680072658E+02  0.00000000000E+00 0. -1.
</event>
<event>
 8    1  0.2521748E-006  0.9118800E+02  0.7816164E-02  0.1184000E+00
        -11   -1    0    0    0    0  0.00000000000E+00  0.00000000000E+00  0.45593999997E+02  0.45594000000E+02  0.51100000000E-03 0.  1.
         11   -1    0    0    0    0 -0.00000000000E+00 -0.00000000000E+00 -0.45593999997E+02  0.45594000000E+02  0.51100000000E-03 0. -1.
         23    2    1    2    0    0 -0.35527136788E-14  0.00000000000E+00  0.00000000000E+00  0.91188000000E+02  0.91188000000E+02 0.  0.
    9900012    2    3    3    0    0 -0.26829570040E+02 -0.24994875174E+02 -0.33481159357E+01  0.54367088906E+02  0.40000010779E+02 0.  0.
        -12    1    3    3    0    0  0.26829570040E+02  0.24994875174E+02  0.33481159357E+01  0.36820911094E+02  0.00000000000E+00 0.  1.
         11    1    4    4    0    0 -0.12028768902E+02  0.16762968377E+01 -0.48551494277E+01  0.13079515611E+02  0.51100000000E-03 0. -1.
        -11    1    4    4    0    0 -0.64735474130E+00  0.18142065977E+01 -0.78891832446E+01  0.81209375240E+01  0.51100000000E-03 0.  1.
         12    1    4    4    0    0 -0.14153446396E+02 -0.28485378609E+02  0.93962167366E+01  0.33166635771E+02  0.00000000000E+00 0. -1.
</event>
<event>
 8    1  0.2521748E-006  0.9118800E+02  0.7816164E-02  0.1184000E+00
        -11   -1    0    0    0    0  0.00000000000E+00  0.00000000000E+00  0.45593999997E+02  0.45594000000E+02  0.51100000000E-03 0.  1.
         11   -1    0    0    0    0 -0.00000000000E+00 -0.00000000000E+00 -0.45593999997E+02  0.45594000000E+02  0.51100000000E-03 0. -1.
         23    2    1    2    0    0  0.00000000000E+00  0.00000000000E+00  0.00000000000E+00  0.91188000000E+02  0.91188000000E+02 0.  0.
    9900012    2    3    3    0    0 -0.30062071227E+02 -0.13541629665E+02 -0.16391347215E+02  0.54367080349E+02  0.39999991271E+02 0.  0.
        -12    1    3    3    0    0  0.30062071227E+02  0.13541629665E+02  0.16391347215E+02  0.36820919651E+02  0.00000000000E+00 0.  1.
         11    1    4    4    0    0 -0.29808048367E+02 -0.18324475527E+02 -0.14236420873E+02  0.37775413040E+02  0.51100000000E-03 0. -1.
        -11    1    4    4    0    0 -0.49147383161E+01  0.15352508831E+01  0.51870382492E+01  0.73086944148E+01  0.51100000000E-03 0.  1.
         12    1    4    4    0    0  0.46607154556E+01  0.32475949794E+01 -0.73419645907E+01  0.92829728944E+01  0.00000000000E+00 0. -1.
</event>
<event>
 8    1  0.2521748E-006  0.9118800E+02  0.7816164E-02  0.1184000E+00
        -11   -1    0    0    0    0  0.00000000000E+00  0.00000000000E+00  0.45593999997E+02  0.45594000000E+02  0.51100000000E-03 0. -1.
         11   -1    0    0    0    0 -0.00000000000E+00 -0.00000000000E+00 -0.45593999997E+02  0.45594000000E+02  0.51100000000E-03 0.  1.
         23    2    1    2    0    0  0.71054273576E-14  0.35527136788E-14  0.35527136788E-14  0.91188000000E+02  0.91188000000E+02 0.  0.
    9900012    2    3    3    0    0  0.21950946012E+02  0.18856957229E+02  0.22767292783E+02  0.54367102572E+02  0.40000041932E+02 0.  0.
        -12    1    3    3    0    0 -0.21950946012E+02 -0.18856957229E+02 -0.22767292783E+02  0.36820897428E+02  0.00000000000E+00 0.  1.
         11    1    4    4    0    0 -0.21667739491E+01 -0.11058502455E+00 -0.38823963773E+01  0.44474869630E+01  0.51100000000E-03 0. -1.
        -11    1    4    4    0    0  0.81346415705E+01 -0.12348882824E+01 -0.45956770037E+01  0.94243084592E+01  0.51100000000E-03 0.  1.
         12    1    4    4    0    0  0.15983078391E+02  0.20202430536E+02  0.31245366164E+02  0.40495307149E+02  0.00000000000E+00 0. -1.
</event>
<event>
 8    1  0.2521748E-006  0.9118800E+02  0.7816164E-02  0.1184000E+00
        -11   -1    0    0    0    0  0.00000000000E+00  0.00000000000E+00  0.45593999997E+02  0.45594000000E+02  0.51100000000E-03 0.  1.
         11   -1    0    0    0    0 -0.00000000000E+00 -0.00000000000E+00 -0.45593999997E+02  0.45594000000E+02  0.51100000000E-03 0. -1.
         23    2    1    2    0    0 -0.35527136788E-14  0.35527136788E-14 -0.17763568394E-14  0.91188000000E+02  0.91188000000E+02 0.  0.
    9900012    2    3    3    0    0 -0.16964395570E+02  0.29406046813E+02  0.14257394870E+02  0.54367087264E+02  0.40000007036E+02 0.  0.
         12    1    3    3    0    0  0.16964395570E+02 -0.29406046813E+02 -0.14257394870E+02  0.36820912736E+02  0.00000000000E+00 0. -1.
         11    1    4    4    0    0  0.86429623640E+01  0.14242027523E+02 -0.61414320789E+01  0.17755374810E+02  0.51100000000E-03 0. -1.
        -11    1    4    4    0    0 -0.17528740159E+02  0.13381123138E+02  0.13650511745E+02  0.25935451782E+02  0.51100000000E-03 0.  1.
         12    1    4    4    0    0 -0.80786177747E+01  0.17828961513E+01  0.67483152048E+01  0.10676260672E+02  0.00000000000E+00 0. -1.
</event>
<event>
 8    1  0.2521748E-006  0.9118800E+02  0.7816164E-02  0.1184000E+00
        -11   -1    0    0    0    0  0.00000000000E+00  0.00000000000E+00  0.45593999997E+02  0.45594000000E+02  0.51100000000E-03 0. -1.
         11   -1    0    0    0    0 -0.00000000000E+00 -0.00000000000E+00 -0.45593999997E+02  0.45594000000E+02  0.51100000000E-03 0.  1.
         23    2    1    2    0    0  0.00000000000E+00  0.00000000000E+00  0.00000000000E+00  0.91188000000E+02  0.91188000000E+02 0.  0.
    9900012    2    3    3    0    0  0.23501806780E+02 -0.17584071234E+02  0.22231617025E+02  0.54367091828E+02  0.40000017440E+02 0.  0.
        -12    1    3    3    0    0 -0.23501806780E+02  0.17584071234E+02 -0.22231617025E+02  0.36820908172E+02  0.00000000000E+00 0.  1.
         11    1    4    4    0    0  0.30336219850E+01  0.43091744857E+01  0.16543129787E+02  0.17362228846E+02  0.51100000000E-03 0. -1.
        -11    1    4    4    0    0  0.88165386929E+01  0.27048452237E+01  0.11977847392E+00  0.92229002679E+01  0.51100000000E-03 0.  1.
         12    1    4    4    0    0  0.11651646102E+02 -0.24598090943E+02  0.55687087640E+01  0.27781962714E+02  0.00000000000E+00 0. -1.
</event>
<event>
 8    1  0.2521748E-006  0.9118800E+02  0.7816164E-02  0.1184000E+00
        -11   -1    0    0    0    0  0.00000000000E+00  0.00000000000E+00  0.45593999997E+02  0.45594000000E+02  0.51100000000E-03 0. -1.
         11   -1    0    0    0    0 -0.00000000000E+00 -0.00000000000E+00 -0.45593999997E+02  0.45594000000E+02  0.51100000000E-03 0.  1.
         23    2    1    2    0    0 -0.35527136788E-14  0.00000000000E+00  0.35527136788E-14  0.91188000000E+02  0.91188000000E+02 0.  0.
    9900012    2    3    3    0    0  0.30357609513E+02  0.94748923351E+01 -0.18558606126E+02  0.54367083370E+02  0.39999998159E+02 0.  0.
         12    1    3    3    0    0 -0.30357609513E+02 -0.94748923351E+01  0.18558606126E+02  0.36820916630E+02  0.00000000000E+00 0. -1.
         11    1    4    4    0    0 -0.61897090885E+01  0.28908617510E+01 -0.86386583360E+01  0.11013446253E+02  0.51100000000E-03 0. -1.
        -11    1    4    4    0    0  0.11199825859E+02 -0.41827753083E+01 -0.10346656633E+02  0.15810914341E+02  0.51100000000E-03 0.  1.
         12    1    4    4    0    0  0.25347492743E+02  0.10766805892E+02  0.42670884356E+00  0.27542722776E+02  0.00000000000E+00 0. -1.
</event>
<event>
 8    1  0.2521748E-006  0.9118800E+02  0.7816164E-02  0.1184000E+00
        -11   -1    0    0    0    0  0.00000000000E+00  0.00000000000E+00  0.45593999997E+02  0.45594000000E+02  0.51100000000E-03 0.  1.
         11   -1    0    0    0    0 -0.00000000000E+00 -0.00000000000E+00 -0.45593999997E+02  0.45594000000E+02  0.51100000000E-03 0. -1.
         23    2    1    2    0    0  0.00000000000E+00  0.35527136788E-14 -0.17763568394E-14  0.91188000000E+02  0.91188000000E+02 0.  0.
    9900012    2    3    3    0    0 -0.27874654119E+02 -0.18004972973E+02  0.15956300325E+02  0.54367096779E+02  0.40000028727E+02 0.  0.
         12    1    3    3    0    0  0.27874654119E+02  0.18004972973E+02 -0.15956300325E+02  0.36820903221E+02  0.00000000000E+00 0. -1.
         11    1    4    4    0    0 -0.84276763389E+01 -0.47553082738E+00  0.11613514404E+02  0.14357074044E+02  0.51100000000E-03 0. -1.
        -11    1    4    4    0    0  0.24303190842E+01  0.43499404547E+01  0.73972725822E+01  0.89189727394E+01  0.51100000000E-03 0.  1.
         12    1    4    4    0    0 -0.21877296864E+02 -0.21879382600E+02 -0.30544866616E+01  0.31091049995E+02  0.00000000000E+00 0. -1.
</event>
<event>
 8    1  0.2521748E-006  0.9118800E+02  0.7816164E-02  0.1184000E+00
        -11   -1    0    0    0    0  0.00000000000E+00  0.00000000000E+00  0.45593999997E+02  0.45594000000E+02  0.51100000000E-03 0. -1.
         11   -1    0    0    0    0 -0.00000000000E+00 -0.00000000000E+00 -0.45593999997E+02  0.45594000000E+02  0.51100000000E-03 0.  1.
         23    2    1    2    0    0  0.88817841970E-15  0.10658141036E-13  0.35527136788E-14  0.91188000000E+02  0.91188000000E+02 0.  0.
    9900012    2    3    3    0    0 -0.53708736988E+01 -0.20275983807E+02 -0.30262483494E+02  0.54367085958E+02  0.40000004059E+02 0.  0.
         12    1    3    3    0    0  0.53708736988E+01  0.20275983807E+02  0.30262483494E+02  0.36820914042E+02  0.00000000000E+00 0. -1.
         11    1    4    4    0    0 -0.22993674645E+01  0.62525669255E+01 -0.41967734141E+01  0.78736644103E+01  0.51100000000E-03 0. -1.
        -11    1    4    4    0    0 -0.27201454337E+01 -0.18104396424E+02 -0.31520360584E+02  0.36451357898E+02  0.51100000000E-03 0.  1.
         12    1    4    4    0    0 -0.35136080061E+00 -0.84241543085E+01  0.54546505038E+01  0.10042063650E+02  0.00000000000E+00 0. -1.
</event>
<event>
 8    1  0.2521748E-006  0.9118800E+02  0.7816164E-02  0.1184000E+00
        -11   -1    0    0    0    0  0.00000000000E+00  0.00000000000E+00  0.45593999997E+02  0.45594000000E+02  0.51100000000E-03 0. -1.
         11   -1    0    0    0    0 -0.00000000000E+00 -0.00000000000E+00 -0.45593999997E+02  0.45594000000E+02  0.51100000000E-03 0.  1.
         23    2    1    2    0    0  0.00000000000E+00 -0.12212453271E-14  0.53290705182E-14  0.91188000000E+02  0.91188000000E+02 0.  0.
    9900012    2    3    3    0    0 -0.35972579960E+02 -0.63726348514E+00 -0.78324533677E+01  0.54367082854E+02  0.39999996981E+02 0.  0.
        -12    1    3    3    0    0  0.35972579960E+02  0.63726348514E+00  0.78324533677E+01  0.36820917146E+02  0.00000000000E+00 0.  1.
         11    1    4    4    0    0 -0.12697241894E+02  0.30669947311E+00 -0.26012379394E+01  0.12964584658E+02  0.51100000000E-03 0. -1.
        -11    1    4    4    0    0 -0.18640512781E+02 -0.80598764211E+01  0.10991052742E+02  0.23091850625E+02  0.51100000000E-03 0.  1.
        -12    1    4    4    0    0 -0.46348252857E+01  0.71159134629E+01 -0.16222268171E+02  0.18310647570E+02  0.00000000000E+00 0.  1.
</event>
<event>
 8    1  0.2521748E-006  0.9118800E+02  0.7816164E-02  0.1184000E+00
        -11   -1    0    0    0    0  0.00000000000E+00  0.00000000000E+00  0.45593999997E+02  0.45594000000E+02  0.51100000000E-03 0.  1.
         11   -1    0    0    0    0 -0.00000000000E+00 -0.00000000000E+00 -0.45593999997E+02  0.45594000000E+02  0.51100000000E-03 0. -1.
         23    2    1    2    0    0  0.71054273576E-14  0.00000000000E+00 -0.88817841970E-15  0.91188000000E+02  0.91188000000E+02 0.  0.
    9900012    2    3    3    0    0  0.32131432446E+02  0.16263284317E+02 -0.76718086395E+01  0.54367081820E+02  0.39999994624E+02 0.  0.
        -12    1    3    3    0    0 -0.32131432446E+02 -0.16263284317E+02  0.76718086395E+01  0.36820918180E+02  0.00000000000E+00 0.  1.
         11    1    4    4    0    0  0.18622396346E+01  0.30007650702E+01 -0.57466243847E+01  0.67450885497E+01  0.51100000000E-03 0. -1.
        -11    1    4    4    0    0  0.29872540767E+02 -0.41137558103E+01 -0.19291240944E+00  0.30155080736E+02  0.51100000000E-03 0.  1.
        -12    1    4    4    0    0  0.39665204459E+00  0.17376275057E+02 -0.17322718454E+01  0.17466912534E+02  0.00000000000E+00 0.  1.
</event>
<event>
 8    1  0.2521748E-006  0.9118800E+02  0.7816164E-02  0.1184000E+00
        -11   -1    0    0    0    0  0.00000000000E+00  0.00000000000E+00  0.45593999997E+02  0.45594000000E+02  0.51100000000E-03 0.  1.
         11   -1    0    0    0    0 -0.00000000000E+00 -0.00000000000E+00 -0.45593999997E+02  0.45594000000E+02  0.51100000000E-03 0. -1.
         23    2    1    2    0    0  0.71054273576E-14  0.17763568394E-14  0.00000000000E+00  0.91188000000E+02  0.91188000000E+02 0.  0.
    9900012    2    3    3    0    0  0.24981766167E+02  0.50083980059E+01  0.26582075518E+02  0.54367089769E+02  0.40000012746E+02 0.  0.
         12    1    3    3    0    0 -0.24981766167E+02 -0.50083980059E+01 -0.26582075518E+02  0.36820910231E+02  0.00000000000E+00 0. -1.
         11    1    4    4    0    0  0.24455759636E+01 -0.58440089969E+01  0.57290724568E+01  0.85414023688E+01  0.51100000000E-03 0. -1.
        -11    1    4    4    0    0 -0.43206914649E+01  0.89496121119E+01 -0.24297885030E+01  0.10230728426E+02  0.51100000000E-03 0.  1.
         12    1    4    4    0    0  0.26856881669E+02  0.19027948909E+01  0.23282791564E+02  0.35594958974E+02  0.00000000000E+00 0. -1.
</event>
<event>
 8    1  0.2521748E-006  0.9118800E+02  0.7816164E-02  0.1184000E+00
        -11   -1    0    0    0    0  0.00000000000E+00  0.00000000000E+00  0.45593999997E+02  0.45594000000E+02  0.51100000000E-03 0.  1.
         11   -1    0    0    0    0 -0.00000000000E+00 -0.00000000000E+00 -0.45593999997E+02  0.45594000000E+02  0.51100000000E-03 0. -1.
         23    2    1    2    0    0  0.00000000000E+00  0.00000000000E+00 -0.17763568394E-14  0.91188000000E+02  0.91188000000E+02 0.  0.
    9900012    2    3    3    0    0  0.61259584542E+01 -0.35118283865E+02 -0.92172966122E+01  0.54367084946E+02  0.40000001750E+02 0.  0.
        -12    1    3    3    0    0 -0.61259584542E+01  0.35118283865E+02  0.92172966122E+01  0.36820915054E+02  0.00000000000E+00 0.  1.
         11    1    4    4    0    0  0.93498010555E+01 -0.16304002468E+02 -0.98222411807E+01  0.21206501322E+02  0.51100000000E-03 0. -1.
        -11    1    4    4    0    0  0.37218203465E+01 -0.14372869455E+01  0.11036736814E+02  0.11735727512E+02  0.51100000000E-03 0.  1.
         12    1    4    4    0    0 -0.69456629477E+01 -0.17376994451E+02 -0.10431792246E+02  0.21424856112E+02  0.00000000000E+00 0. -1.
</event>
<event>
 8    1  0.2521748E-006  0.9118800E+02  0.7816164E-02  0.1184000E+00
        -11   -1    0    0    0    0  0.00000000000E+00  0.00000000000E+00  0.45593999997E+02  0.45594000000E+02  0.51100000000E-03 0.  1.
         11   -1    0    0    0    0 -0.00000000000E+00 -0.00000000000E+00 -0.45593999997E+02  0.45594000000E+02  0.51100000000E-03 0. -1.
         23    2    1    2    0    0  0.00000000000E+00 -0.35527136788E-14  0.35527136788E-14  0.91188000000E+02  0.91188000000E+02 0.  0.
    9900012    2    3    3    0    0  0.86962464816E+01  0.22918146499E+02 -0.27475699656E+02  0.54367079134E+02  0.39999988501E+02 0.  0.
        -12    1    3    3    0    0 -0.86962464816E+01 -0.22918146499E+02  0.27475699656E+02  0.36820920866E+02  0.00000000000E+00 0.  1.
         11    1    4    4    0    0  0.71215976880E+01 -0.16091093081E+01 -0.31788899215E+01  0.79631481080E+01  0.51100000000E-03 0. -1.
        -11    1    4    4    0    0  0.72955719791E+01  0.10932893459E+02  0.46290060308E+01  0.13934892428E+02  0.51100000000E-03 0.  1.
         12    1    4    4    0    0 -0.57209231855E+01  0.13594362348E+02 -0.28925815765E+02  0.32469038597E+02  0.00000000000E+00 0. -1.
</event>
<event>
 8    1  0.2521748E-006  0.9118800E+02  0.7816164E-02  0.1184000E+00
        -11   -1    0    0    0    0  0.00000000000E+00  0.00000000000E+00  0.45593999997E+02  0.45594000000E+02  0.51100000000E-03 0. -1.
         11   -1    0    0    0    0 -0.00000000000E+00 -0.00000000000E+00 -0.45593999997E+02  0.45594000000E+02  0.51100000000E-03 0.  1.
         23    2    1    2    0    0  0.00000000000E+00  0.35527136788E-14  0.00000000000E+00  0.91188000000E+02  0.91188000000E+02 0.  0.
    9900012    2    3    3    0    0 -0.86876261426E+01 -0.16991081732E+02  0.31489926184E+02  0.54366984839E+02  0.39999773537E+02 0.  0.
        -12    1    3    3    0    0  0.86876261426E+01  0.16991081732E+02 -0.31489926184E+02  0.36821015161E+02  0.00000000000E+00 0.  1.
         11    1    4    4    0    0 -0.34248460943E+01 -0.17156642677E+02  0.25836505775E+02  0.31202643953E+02  0.51100000000E-03 0. -1.
        -11    1    4    4    0    0  0.15928534780E+00  0.51272556202E+01 -0.69118608399E+01  0.86074353061E+01  0.51100000000E-03 0.  1.
        -12    1    4    4    0    0 -0.54220653961E+01 -0.49616946748E+01  0.12565281249E+02  0.14556905580E+02  0.00000000000E+00 0.  1.
</event>
<event>
 8    1  0.2521748E-006  0.9118800E+02  0.7816164E-02  0.1184000E+00
        -11   -1    0    0    0    0  0.00000000000E+00  0.00000000000E+00  0.45593999997E+02  0.45594000000E+02  0.51100000000E-03 0. -1.
         11   -1    0    0    0    0 -0.00000000000E+00 -0.00000000000E+00 -0.45593999997E+02  0.45594000000E+02  0.51100000000E-03 0.  1.
         23    2    1    2    0    0  0.00000000000E+00 -0.35527136788E-14 -0.35527136788E-14  0.91188000000E+02  0.91188000000E+02 0.  0.
    9900012    2    3    3    0    0  0.12666498901E+02  0.26922505911E+02  0.21691433241E+02  0.54367084817E+02  0.40000001457E+02 0.  0.
        -12    1    3    3    0    0 -0.12666498901E+02 -0.26922505911E+02 -0.21691433241E+02  0.36820915183E+02  0.00000000000E+00 0.  1.
         11    1    4    4    0    0  0.10757666328E+02  0.11839194967E+02  0.27481362570E+02  0.31798100750E+02  0.51100000000E-03 0. -1.
        -11    1    4    4    0    0 -0.63735115943E+01  0.54758400678E+01 -0.51769583689E+01  0.98695173491E+01  0.51100000000E-03 0.  1.
         12    1    4    4    0    0  0.82823441666E+01  0.96074708754E+01 -0.61297096084E+00  0.12699466718E+02  0.00000000000E+00 0. -1.
</event>
<event>
 8    1  0.2521748E-006  0.9118800E+02  0.7816164E-02  0.1184000E+00
        -11   -1    0    0    0    0  0.00000000000E+00  0.00000000000E+00  0.45593999997E+02  0.45594000000E+02  0.51100000000E-03 0. -1.
         11   -1    0    0    0    0 -0.00000000000E+00 -0.00000000000E+00 -0.45593999997E+02  0.45594000000E+02  0.51100000000E-03 0.  1.
         23    2    1    2    0    0  0.17763568394E-14 -0.71054273576E-14  0.17763568394E-14  0.91188000000E+02  0.91188000000E+02 0.  0.
    9900012    2    3    3    0    0 -0.13268839669E+02  0.33912531483E+02  0.54457860492E+01  0.54367102626E+02  0.40000042056E+02 0.  0.
        -12    1    3    3    0    0  0.13268839669E+02 -0.33912531483E+02 -0.54457860492E+01  0.36820897374E+02  0.00000000000E+00 0.  1.
         11    1    4    4    0    0 -0.83416370774E+01 -0.18623323601E+00  0.66063730817E+01  0.10642450728E+02  0.51100000000E-03 0. -1.
        -11    1    4    4    0    0  0.29948246891E+01  0.23021712682E+01 -0.92334707858E+01  0.99762693668E+01  0.51100000000E-03 0.  1.
        -12    1    4    4    0    0 -0.79220272808E+01  0.31796593451E+02  0.80728837533E+01  0.33748382530E+02  0.00000000000E+00 0.  1.
</event>
<event>
 8    1  0.2521748E-006  0.9118800E+02  0.7816164E-02  0.1184000E+00
        -11   -1    0    0    0    0  0.00000000000E+00  0.00000000000E+00  0.45593999997E+02  0.45594000000E+02  0.51100000000E-03 0.  1.
         11   -1    0    0    0    0 -0.00000000000E+00 -0.00000000000E+00 -0.45593999997E+02  0.45594000000E+02  0.51100000000E-03 0. -1.
         23    2    1    2    0    0  0.44408920985E-15  0.00000000000E+00  0.44408920985E-15  0.91188000000E+02  0.91188000000E+02 0.  0.
    9900012    2    3    3    0    0 -0.10104414182E+01 -0.36662774875E+02  0.32557766215E+01  0.54367080202E+02  0.39999990936E+02 0.  0.
        -12    1    3    3    0    0  0.10104414182E+01  0.36662774875E+02 -0.32557766215E+01  0.36820919798E+02  0.00000000000E+00 0.  1.
         11    1    4    4    0    0  0.62884463354E+01 -0.97897149052E+00  0.62082391945E+01  0.88907354392E+01  0.51100000000E-03 0.  1.
        -11    1    4    4    0    0 -0.89519244755E+01 -0.23672028377E+02 -0.14129885355E+02  0.28985436683E+02  0.51100000000E-03 0. -1.
         12    1    4    4    0    0  0.16530367219E+01 -0.12011775007E+02  0.11177422782E+02  0.16490908079E+02  0.00000000000E+00 0. -1.
</event>
<event>
 8    1  0.2521748E-006  0.9118800E+02  0.7816164E-02  0.1184000E+00
        -11   -1    0    0    0    0  0.00000000000E+00  0.00000000000E+00  0.45593999997E+02  0.45594000000E+02  0.51100000000E-03 0.  1.
         11   -1    0    0    0    0 -0.00000000000E+00 -0.00000000000E+00 -0.45593999997E+02  0.45594000000E+02  0.51100000000E-03 0. -1.
         23    2    1    2    0    0 -0.71054273576E-14  0.00000000000E+00 -0.35527136788E-14  0.91188000000E+02  0.91188000000E+02 0.  0.
    9900012    2    3    3    0    0  0.29495048704E+02 -0.14518287306E+02  0.16584364815E+02  0.54367085826E+02  0.40000003757E+02 0.  0.
         12    1    3    3    0    0 -0.29495048704E+02  0.14518287306E+02 -0.16584364815E+02  0.36820914174E+02  0.00000000000E+00 0. -1.
         11    1    4    4    0    0 -0.60832573961E+01  0.75069076835E+00  0.70630266590E+01  0.93517860874E+01  0.51100000000E-03 0. -1.
        -11    1    4    4    0    0  0.80343441600E+01 -0.67223148701E+01 -0.61960784503E+01  0.12170932245E+02  0.51100000000E-03 0.  1.
        -12    1    4    4    0    0  0.27543961940E+02 -0.85466632043E+01  0.15717416606E+02  0.32844367493E+02  0.00000000000E+00 0.  1.
</event>
<event>
 8    1  0.2521748E-006  0.9118800E+02  0.7816164E-02  0.1184000E+00
        -11   -1    0    0    0    0  0.00000000000E+00  0.00000000000E+00  0.45593999997E+02  0.45594000000E+02  0.51100000000E-03 0. -1.
         11   -1    0    0    0    0 -0.00000000000E+00 -0.00000000000E+00 -0.45593999997E+02  0.45594000000E+02  0.51100000000E-03 0.  1.
         23    2    1    2    0    0  0.88817841970E-15  0.00000000000E+00  0.00000000000E+00  0.91188000000E+02  0.91188000000E+02 0.  0.
    9900012    2    3    3    0    0  0.52439687476E+01  0.12636986512E+02 -0.34184827239E+02  0.54366877669E+02  0.39999529220E+02 0.  0.
         12    1    3    3    0    0 -0.52439687476E+01 -0.12636986512E+02  0.34184827239E+02  0.36821122331E+02  0.00000000000E+00 0. -1.
         11    1    4    4    0    0 -0.21721454421E-01  0.74533504830E+01 -0.38717244691E+01  0.83989973134E+01  0.51100000000E-03 0. -1.
        -11    1    4    4    0    0 -0.12317672048E+02  0.71744133110E+01 -0.50481481038E+01  0.15122203893E+02  0.51100000000E-03 0.  1.
        -12    1    4    4    0    0  0.17583362250E+02 -0.19907772822E+01 -0.25264954666E+02  0.30845676463E+02  0.00000000000E+00 0.  1.
</event>
<event>
 8    1  0.2521748E-006  0.9118800E+02  0.7816164E-02  0.1184000E+00
        -11   -1    0    0    0    0  0.00000000000E+00  0.00000000000E+00  0.45593999997E+02  0.45594000000E+02  0.51100000000E-03 0.  1.
         11   -1    0    0    0    0 -0.00000000000E+00 -0.00000000000E+00 -0.45593999997E+02  0.45594000000E+02  0.51100000000E-03 0. -1.
         23    2    1    2    0    0  0.35527136788E-14 -0.35527136788E-14  0.00000000000E+00  0.91188000000E+02  0.91188000000E+02 0.  0.
    9900012    2    3    3    0    0 -0.19337659086E+02  0.18077318458E+02  0.25593853555E+02  0.54367084186E+02  0.40000000018E+02 0.  0.
         12    1    3    3    0    0  0.19337659086E+02 -0.18077318458E+02 -0.25593853555E+02  0.36820915814E+02  0.00000000000E+00 0. -1.
         11    1    4    4    0    0 -0.81728724703E+01  0.27987183616E+01 -0.23656314480E+00  0.86420270346E+01  0.51100000000E-03 0. -1.
        -11    1    4    4    0    0 -0.22742136961E+02  0.98322464721E+01  0.15009840170E+02  0.28968485746E+02  0.51100000000E-03 0.  1.
         12    1    4    4    0    0  0.11577350345E+02  0.54463536247E+01  0.10820576530E+02  0.16756571405E+02  0.00000000000E+00 0. -1.
</event>
<event>
 8    1  0.2521748E-006  0.9118800E+02  0.7816164E-02  0.1184000E+00
        -11   -1    0    0    0    0  0.00000000000E+00  0.00000000000E+00  0.45593999997E+02  0.45594000000E+02  0.51100000000E-03 0. -1.
         11   -1    0    0    0    0 -0.00000000000E+00 -0.00000000000E+00 -0.45593999997E+02  0.45594000000E+02  0.51100000000E-03 0.  1.
         23    2    1    2    0    0 -0.22204460493E-15  0.35527136788E-14 -0.35527136788E-14  0.91188000000E+02  0.91188000000E+02 0.  0.
    9900012    2    3    3    0    0 -0.12293672759E+01 -0.25767862268E+02  0.26273211310E+02  0.54367140392E+02  0.40000128151E+02 0.  0.
        -12    1    3    3    0    0  0.12293672759E+01  0.25767862268E+02 -0.26273211310E+02  0.36820859608E+02  0.00000000000E+00 0.  1.
         11    1    4    4    0    0  0.22415490055E+01 -0.14457431481E+02  0.75738330172E+01  0.16474368388E+02  0.51100000000E-03 0.  1.
        -11    1    4    4    0    0  0.21421528763E+01 -0.93587303750E+01  0.26442828234E+02  0.28131793730E+02  0.51100000000E-03 0. -1.
        -12    1    4    4    0    0 -0.56130691578E+01 -0.19517004122E+01 -0.77434499413E+01  0.97609782739E+01  0.00000000000E+00 0.  1.
</event>
<event>
 8    1  0.2521748E-006  0.9118800E+02  0.7816164E-02  0.1184000E+00
        -11   -1    0    0    0    0  0.00000000000E+00  0.00000000000E+00  0.45593999997E+02  0.45594000000E+02  0.51100000000E-03 0.  1.
         11   -1    0    0    0    0 -0.00000000000E+00 -0.00000000000E+00 -0.45593999997E+02  0.45594000000E+02  0.51100000000E-03 0. -1.
         23    2    1    2    0    0  0.71054273576E-14  0.00000000000E+00  0.00000000000E+00  0.91188000000E+02  0.91188000000E+02 0.  0.
    9900012    2    3    3    0    0 -0.26321459929E+02  0.18098001580E+02  0.18314573141E+02  0.54367075198E+02  0.39999979528E+02 0.  0.
        -12    1    3    3    0    0  0.26321459929E+02 -0.18098001580E+02 -0.18314573141E+02  0.36820924802E+02  0.00000000000E+00 0.  1.
         11    1    4    4    0    0 -0.32684882303E+02  0.83828522016E+01  0.13512316888E+02  0.36347715886E+02  0.51100000000E-03 0.  1.
        -11    1    4    4    0    0  0.13140425819E+00  0.10878307769E+02  0.18869276348E+01  0.11041528117E+02  0.51100000000E-03 0. -1.
        -12    1    4    4    0    0  0.62320181156E+01 -0.11631583905E+01  0.29153286182E+01  0.69778311951E+01  0.00000000000E+00 0.  1.
</event>
<event>
 8    1  0.2521748E-006  0.9118800E+02  0.7816164E-02  0.1184000E+00
        -11   -1    0    0    0    0  0.00000000000E+00  0.00000000000E+00  0.45593999997E+02  0.45594000000E+02  0.51100000000E-03 0. -1.
         11   -1    0    0    0    0 -0.00000000000E+00 -0.00000000000E+00 -0.45593999997E+02  0.45594000000E+02  0.51100000000E-03 0.  1.
         23    2    1    2    0    0 -0.17763568394E-14  0.00000000000E+00  0.00000000000E+00  0.91188000000E+02  0.91188000000E+02 0.  0.
    9900012    2    3    3    0    0 -0.41643588735E+01 -0.57492926617E+01 -0.36130096257E+02  0.54367080586E+02  0.39999991813E+02 0.  0.
         12    1    3    3    0    0  0.41643588735E+01  0.57492926617E+01  0.36130096257E+02  0.36820919414E+02  0.00000000000E+00 0. -1.
         11    1    4    4    0    0 -0.34928474443E+01 -0.14896998365E+02 -0.14963940781E+01  0.15373995546E+02  0.51100000000E-03 0. -1.
        -11    1    4    4    0    0  0.56885954748E+01  0.48950112701E+01 -0.68008928005E+01  0.10127852534E+02  0.51100000000E-03 0.  1.
        -12    1    4    4    0    0 -0.63601069040E+01  0.42526944328E+01 -0.27832809378E+02  0.28865232506E+02  0.00000000000E+00 0.  1.
</event>
<event>
 8    1  0.2521748E-006  0.9118800E+02  0.7816164E-02  0.1184000E+00
        -11   -1    0    0    0    0  0.00000000000E+00  0.00000000000E+00  0.45593999997E+02  0.45594000000E+02  0.51100000000E-03 0. -1.
         11   -1    0    0    0    0 -0.00000000000E+00 -0.00000000000E+00 -0.45593999997E+02  0.45594000000E+02  0.51100000000E-03 0.  1.
         23    2    1    2    0    0  0.00000000000E+00  0.00000000000E+00  0.35527136788E-14  0.91188000000E+02  0.91188000000E+02 0.  0.
    9900012    2    3    3    0    0 -0.13587568956E+02 -0.28769716302E+02  0.18532691122E+02  0.54367092265E+02  0.40000018435E+02 0.  0.
         12    1    3    3    0    0  0.13587568956E+02  0.28769716302E+02 -0.18532691122E+02  0.36820907735E+02  0.00000000000E+00 0. -1.
         11    1    4    4    0    0 -0.37448503600E+01  0.10363452916E+01  0.88704211311E+01  0.96841255200E+01  0.51100000000E-03 0. -1.
        -11    1    4    4    0    0  0.35166165038E+01 -0.22126440731E+02  0.16500269555E+02  0.27824537134E+02  0.51100000000E-03 0.  1.
        -12    1    4    4    0    0 -0.13359335099E+02 -0.76796208624E+01 -0.68379995640E+01  0.16858429610E+02  0.00000000000E+00 0.  1.
</event>
<event>
 8    1  0.2521748E-006  0.9118800E+02  0.7816164E-02  0.1184000E+00
        -11   -1    0    0    0    0  0.00000000000E+00  0.00000000000E+00  0.45593999997E+02  0.45594000000E+02  0.51100000000E-03 0. -1.
         11   -1    0    0    0    0 -0.00000000000E+00 -0.00000000000E+00 -0.45593999997E+02  0.45594000000E+02  0.51100000000E-03 0.  1.
         23    2    1    2    0    0  0.00000000000E+00 -0.17763568394E-14 -0.35527136788E-14  0.91188000000E+02  0.91188000000E+02 0.  0.
    9900012    2    3    3    0    0  0.27548953528E+02 -0.15442067741E+02 -0.18930885000E+02  0.54367072479E+02  0.39999973330E+02 0.  0.
         12    1    3    3    0    0 -0.27548953528E+02  0.15442067741E+02  0.18930885000E+02  0.36820927521E+02  0.00000000000E+00 0. -1.
         11    1    4    4    0    0  0.67561215409E+00 -0.12056268507E+02  0.16402285898E+01  0.12186074519E+02  0.51100000000E-03 0. -1.
        -11    1    4    4    0    0  0.94144360280E+01 -0.10388087611E+02 -0.18564673053E+02  0.23263513401E+02  0.51100000000E-03 0.  1.
        -12    1    4    4    0    0  0.17458905346E+02  0.70022883772E+01 -0.20064405371E+01  0.18917484559E+02  0.00000000000E+00 0.  1.
</event>
<event>
 8    1  0.2521748E-006  0.9118800E+02  0.7816164E-02  0.1184000E+00
        -11   -1    0    0    0    0  0.00000000000E+00  0.00000000000E+00  0.45593999997E+02  0.45594000000E+02  0.51100000000E-03 0.  1.
         11   -1    0    0    0    0 -0.00000000000E+00 -0.00000000000E+00 -0.45593999997E+02  0.45594000000E+02  0.51100000000E-03 0. -1.
         23    2    1    2    0    0  0.00000000000E+00  0.00000000000E+00  0.00000000000E+00  0.91188000000E+02  0.91188000000E+02 0.  0.
    9900012    2    3    3    0    0  0.25922559988E+02 -0.29724170627E+01  0.25980149048E+02  0.54367047757E+02  0.39999916972E+02 0.  0.
         12    1    3    3    0    0 -0.25922559988E+02  0.29724170627E+01 -0.25980149048E+02  0.36820952243E+02  0.00000000000E+00 0. -1.
         11    1    4    4    0    0  0.11807786454E+02 -0.35631587232E+01  0.33284099545E+01  0.12774906423E+02  0.51100000000E-03 0. -1.
        -11    1    4    4    0    0  0.16822821381E+02  0.89243850027E+01  0.25985817562E+02  0.32216683279E+02  0.51100000000E-03 0.  1.
        -12    1    4    4    0    0 -0.27080478476E+01 -0.83336433421E+01 -0.33340784684E+01  0.93754580544E+01  0.00000000000E+00 0.  1.
</event>
<event>
 8    1  0.2521748E-006  0.9118800E+02  0.7816164E-02  0.1184000E+00
        -11   -1    0    0    0    0  0.00000000000E+00  0.00000000000E+00  0.45593999997E+02  0.45594000000E+02  0.51100000000E-03 0. -1.
         11   -1    0    0    0    0 -0.00000000000E+00 -0.00000000000E+00 -0.45593999997E+02  0.45594000000E+02  0.51100000000E-03 0.  1.
         23    2    1    2    0    0  0.00000000000E+00  0.00000000000E+00  0.00000000000E+00  0.91188000000E+02  0.91188000000E+02 0.  0.
    9900012    2    3    3    0    0  0.27066655003E+02  0.74338632205E+01  0.23830930280E+02  0.54367090540E+02  0.40000014505E+02 0.  0.
        -12    1    3    3    0    0 -0.27066655003E+02 -0.74338632205E+01 -0.23830930280E+02  0.36820909460E+02  0.00000000000E+00 0.  1.
         11    1    4    4    0    0  0.23510983890E+02  0.33865751715E+01 -0.21626362403E+00  0.23754621131E+02  0.51100000000E-03 0. -1.
        -11    1    4    4    0    0 -0.25560668864E+01  0.34451564871E+01 -0.13390422193E+01  0.44939532123E+01  0.51100000000E-03 0.  1.
         12    1    4    4    0    0  0.61117379989E+01  0.60213156191E+00  0.25386236124E+02  0.26118516196E+02  0.00000000000E+00 0. -1.
</event>
<event>
 8    1  0.2521748E-006  0.9118800E+02  0.7816164E-02  0.1184000E+00
        -11   -1    0    0    0    0  0.00000000000E+00  0.00000000000E+00  0.45593999997E+02  0.45594000000E+02  0.51100000000E-03 0. -1.
         11   -1    0    0    0    0 -0.00000000000E+00 -0.00000000000E+00 -0.45593999997E+02  0.45594000000E+02  0.51100000000E-03 0.  1.
         23    2    1    2    0    0 -0.35527136788E-14 -0.17763568394E-14  0.35527136788E-14  0.91188000000E+02  0.91188000000E+02 0.  0.
    9900012    2    3    3    0    0 -0.31328784030E+02 -0.14899831768E+02  0.12340253535E+02  0.54367088104E+02  0.40000008951E+02 0.  0.
        -12    1    3    3    0    0  0.31328784030E+02  0.14899831768E+02 -0.12340253535E+02  0.36820911896E+02  0.00000000000E+00 0.  1.
         11    1    4    4    0    0  0.38131250812E+01  0.37496377049E+01 -0.54893114821E+00  0.53759679565E+01  0.51100000000E-03 0. -1.
        -11    1    4    4    0    0 -0.52345153965E+01 -0.54892476693E+00 -0.70100601557E+01  0.87659804633E+01  0.51100000000E-03 0.  1.
        -12    1    4    4    0    0 -0.29907393715E+02 -0.18100544706E+02  0.19899244838E+02  0.40225139684E+02  0.00000000000E+00 0.  1.
</event>
<event>
 8    1  0.2521748E-006  0.9118800E+02  0.7816164E-02  0.1184000E+00
        -11   -1    0    0    0    0  0.00000000000E+00  0.00000000000E+00  0.45593999997E+02  0.45594000000E+02  0.51100000000E-03 0. -1.
         11   -1    0    0    0    0 -0.00000000000E+00 -0.00000000000E+00 -0.45593999997E+02  0.45594000000E+02  0.51100000000E-03 0.  1.
         23    2    1    2    0    0  0.00000000000E+00  0.00000000000E+00 -0.44408920985E-15  0.91188000000E+02  0.91188000000E+02 0.  0.
    9900012    2    3    3    0    0  0.16578173831E+02  0.32731297700E+02  0.30992859967E+01  0.54367091940E+02  0.40000017695E+02 0.  0.
        -12    1    3    3    0    0 -0.16578173831E+02 -0.32731297700E+02 -0.30992859967E+01  0.36820908060E+02  0.00000000000E+00 0.  1.
         11    1    4    4    0    0  0.13928297782E+01 -0.29459108151E+01  0.92230062554E+01  0.97817283733E+01  0.51100000000E-03 0. -1.
        -11    1    4    4    0    0  0.67693331136E+00 -0.20088356706E+01  0.25151631888E+01  0.32893320883E+01  0.51100000000E-03 0.  1.
         12    1    4    4    0    0  0.14508410741E+02  0.37686044186E+02 -0.86388834474E+01  0.41296031478E+02  0.00000000000E+00 0. -1.
</event>
<event>
 8    1  0.2521748E-006  0.9118800E+02  0.7816164E-02  0.1184000E+00
        -11   -1    0    0    0    0  0.00000000000E+00  0.00000000000E+00  0.45593999997E+02  0.45594000000E+02  0.51100000000E-03 0. -1.
         11   -1    0    0    0    0 -0.00000000000E+00 -0.00000000000E+00 -0.45593999997E+02  0.45594000000E+02  0.51100000000E-03 0.  1.
         23    2    1    2    0    0 -0.17763568394E-14 -0.17763568394E-14  0.00000000000E+00  0.91188000000E+02  0.91188000000E+02 0.  0.
    9900012    2    3    3    0    0  0.38650029083E+01  0.92317782627E+01 -0.35434675485E+02  0.54367079261E+02  0.39999988790E+02 0.  0.
         12    1    3    3    0    0 -0.38650029083E+01 -0.92317782627E+01  0.35434675485E+02  0.36820920739E+02  0.00000000000E+00 0. -1.
         11    1    4    4    0    0 -0.70253202960E+01  0.13259766915E+01 -0.35697257554E+02  0.36406146962E+02  0.51100000000E-03 0.  1.
        -11    1    4    4    0    0  0.25842587924E+01 -0.27387917491E+01  0.21369697324E+01  0.43296666903E+01  0.51100000000E-03 0. -1.
        -12    1    4    4    0    0  0.83060644119E+01  0.10644593320E+02 -0.18743876630E+01  0.13631265608E+02  0.00000000000E+00 0.  1.
</event>
<event>
 8    1  0.2521748E-006  0.9118800E+02  0.7816164E-02  0.1184000E+00
        -11   -1    0    0    0    0  0.00000000000E+00  0.00000000000E+00  0.45593999997E+02  0.45594000000E+02  0.51100000000E-03 0.  1.
         11   -1    0    0    0    0 -0.00000000000E+00 -0.00000000000E+00 -0.45593999997E+02  0.45594000000E+02  0.51100000000E-03 0. -1.
         23    2    1    2    0    0  0.00000000000E+00 -0.17763568394E-14 -0.18873791419E-14  0.91188000000E+02  0.91188000000E+02 0.  0.
    9900012    2    3    3    0    0  0.36531735059E+02  0.45882474366E+01 -0.39997650338E+00  0.54367086619E+02  0.40000005566E+02 0.  0.
         12    1    3    3    0    0 -0.36531735059E+02 -0.45882474366E+01  0.39997650338E+00  0.36820913381E+02  0.00000000000E+00 0. -1.
         11    1    4    4    0    0  0.23560490808E+02  0.16045233896E+02 -0.13689283923E+02  0.31621871426E+02  0.51100000000E-03 0. -1.
        -11    1    4    4    0    0  0.10248712301E+02 -0.87448113713E+01  0.65340367591E+01  0.14973358554E+02  0.51100000000E-03 0.  1.
         12    1    4    4    0    0  0.27225319503E+01 -0.27121750886E+01  0.67552706601E+01  0.77718566394E+01  0.00000000000E+00 0. -1.
</event>
<event>
 8    1  0.2521748E-006  0.9118800E+02  0.7816164E-02  0.1184000E+00
        -11   -1    0    0    0    0  0.00000000000E+00  0.00000000000E+00  0.45593999997E+02  0.45594000000E+02  0.51100000000E-03 0.  1.
         11   -1    0    0    0    0 -0.00000000000E+00 -0.00000000000E+00 -0.45593999997E+02  0.45594000000E+02  0.51100000000E-03 0. -1.
         23    2    1    2    0    0  0.13322676296E-14 -0.35527136788E-14  0.00000000000E+00  0.91188000000E+02  0.91188000000E+02 0.  0.
    9900012    2    3    3    0    0 -0.38215030522E+01  0.17783388279E+02 -0.32014493127E+02  0.54367074503E+02  0.39999977945E+02 0.  0.
        -12    1    3    3    0    0  0.38215030522E+01 -0.17783388279E+02  0.32014493127E+02  0.36820925497E+02  0.00000000000E+00 0.  1.
         11    1    4    4    0    0  0.48037294102E-02  0.24124257339E+01 -0.17899252581E+02  0.18061092553E+02  0.51100000000E-03 0. -1.
        -11    1    4    4    0    0  0.73500195837E+01  0.18307647696E+02 -0.14901703821E+02  0.24723542000E+02  0.51100000000E-03 0.  1.
        -12    1    4    4    0    0 -0.11176326365E+02 -0.29366851501E+01  0.78646327507E+00  0.11582439949E+02  0.00000000000E+00 0.  1.
</event>
<event>
 8    1  0.2521748E-006  0.9118800E+02  0.7816164E-02  0.1184000E+00
        -11   -1    0    0    0    0  0.00000000000E+00  0.00000000000E+00  0.45593999997E+02  0.45594000000E+02  0.51100000000E-03 0.  1.
         11   -1    0    0    0    0 -0.00000000000E+00 -0.00000000000E+00 -0.45593999997E+02  0.45594000000E+02  0.51100000000E-03 0. -1.
         23    2    1    2    0    0 -0.12212453271E-14  0.00000000000E+00  0.00000000000E+00  0.91188000000E+02  0.91188000000E+02 0.  0.
    9900012    2    3    3    0    0  0.76111645002E+00 -0.36589725366E+02  0.40487216253E+01  0.54367089535E+02  0.40000012214E+02 0.  0.
        -12    1    3    3    0    0 -0.76111645002E+00  0.36589725366E+02 -0.40487216253E+01  0.36820910465E+02  0.00000000000E+00 0.  1.
         11    1    4    4    0    0  0.96484168779E+01 -0.18353605502E+00 -0.72451244722E+01  0.12067206081E+02  0.51100000000E-03 0. -1.
        -11    1    4    4    0    0  0.10801017333E+01 -0.22636312580E+02  0.11250495024E+02  0.25301045542E+02  0.51100000000E-03 0.  1.
        -12    1    4    4    0    0 -0.99674021612E+01 -0.13769876732E+02  0.43351073271E-01  0.16998837912E+02  0.00000000000E+00 0.  1.
</event>
<event>
 8    1  0.2521748E-006  0.9118800E+02  0.7816164E-02  0.1184000E+00
        -11   -1    0    0    0    0  0.00000000000E+00  0.00000000000E+00  0.45593999997E+02  0.45594000000E+02  0.51100000000E-03 0. -1.
         11   -1    0    0    0    0 -0.00000000000E+00 -0.00000000000E+00 -0.45593999997E+02  0.45594000000E+02  0.51100000000E-03 0.  1.
         23    2    1    2    0    0  0.35527136788E-14 -0.35527136788E-14  0.35527136788E-14  0.91188000000E+02  0.91188000000E+02 0.  0.
    9900012    2    3    3    0    0 -0.13763913085E+02  0.25352002564E+02 -0.22882509073E+02  0.54367101601E+02  0.40000039720E+02 0.  0.
         12    1    3    3    0    0  0.13763913085E+02 -0.25352002564E+02  0.22882509073E+02  0.36820898399E+02  0.00000000000E+00 0. -1.
         11    1    4    4    0    0  0.12178224275E+01 -0.30584541663E+01 -0.61454980015E+01  0.69716841078E+01  0.51100000000E-03 0. -1.
        -11    1    4    4    0    0  0.24350558757E+01  0.25783786371E+02 -0.14384946114E+02  0.29625323824E+02  0.51100000000E-03 0.  1.
        -12    1    4    4    0    0 -0.17416791388E+02  0.26266703601E+01 -0.23520649566E+01  0.17770093669E+02  0.00000000000E+00 0.  1.
</event>
<event>
 8    1  0.2521748E-006  0.9118800E+02  0.7816164E-02  0.1184000E+00
        -11   -1    0    0    0    0  0.00000000000E+00  0.00000000000E+00  0.45593999997E+02  0.45594000000E+02  0.51100000000E-03 0. -1.
         11   -1    0    0    0    0 -0.00000000000E+00 -0.00000000000E+00 -0.45593999997E+02  0.45594000000E+02  0.51100000000E-03 0.  1.
         23    2    1    2    0    0  0.00000000000E+00  0.17763568394E-14  0.17763568394E-14  0.91188000000E+02  0.91188000000E+02 0.  0.
    9900012    2    3    3    0    0  0.33426014153E+02  0.76479518642E+01 -0.13416051435E+02  0.54367081679E+02  0.39999994305E+02 0.  0.
         12    1    3    3    0    0 -0.33426014153E+02 -0.76479518642E+01  0.13416051435E+02  0.36820918321E+02  0.00000000000E+00 0. -1.
         11    1    4    4    0    0  0.43497686960E+01 -0.46631589862E+01  0.97864571631E+01  0.11680765536E+02  0.51100000000E-03 0. -1.
        -11    1    4    4    0    0  0.22831494978E+02  0.12159697196E+01 -0.12524567545E+02  0.26069532749E+02  0.51100000000E-03 0.  1.
         12    1    4    4    0    0  0.62447504791E+01  0.11095141131E+02 -0.10677941053E+02  0.16616783395E+02  0.00000000000E+00 0. -1.
</event>
<event>
 8    1  0.2521748E-006  0.9118800E+02  0.7816164E-02  0.1184000E+00
        -11   -1    0    0    0    0  0.00000000000E+00  0.00000000000E+00  0.45593999997E+02  0.45594000000E+02  0.51100000000E-03 0.  1.
         11   -1    0    0    0    0 -0.00000000000E+00 -0.00000000000E+00 -0.45593999997E+02  0.45594000000E+02  0.51100000000E-03 0. -1.
         23    2    1    2    0    0  0.00000000000E+00  0.17763568394E-14  0.71054273576E-14  0.91188000000E+02  0.91188000000E+02 0.  0.
    9900012    2    3    3    0    0 -0.17507057850E+02 -0.14646050935E+02 -0.28892488232E+02  0.54367085307E+02  0.40000002575E+02 0.  0.
        -12    1    3    3    0    0  0.17507057850E+02  0.14646050935E+02  0.28892488232E+02  0.36820914693E+02  0.00000000000E+00 0.  1.
         11    1    4    4    0    0  0.20401361764E+01  0.25594860437E+01 -0.21218851877E+02  0.21469811356E+02  0.51100000000E-03 0. -1.
        -11    1    4    4    0    0 -0.18908959033E+02 -0.54440090106E+01 -0.76682834890E+01  0.21118440703E+02  0.51100000000E-03 0.  1.
        -12    1    4    4    0    0 -0.63823499396E+00 -0.11761527968E+02 -0.53528667379E-02  0.11778833248E+02  0.00000000000E+00 0.  1.
</event>
<event>
 8    1  0.2521748E-006  0.9118800E+02  0.7816164E-02  0.1184000E+00
        -11   -1    0    0    0    0  0.00000000000E+00  0.00000000000E+00  0.45593999997E+02  0.45594000000E+02  0.51100000000E-03 0. -1.
         11   -1    0    0    0    0 -0.00000000000E+00 -0.00000000000E+00 -0.45593999997E+02  0.45594000000E+02  0.51100000000E-03 0.  1.
         23    2    1    2    0    0  0.00000000000E+00 -0.35527136788E-14  0.00000000000E+00  0.91188000000E+02  0.91188000000E+02 0.  0.
    9900012    2    3    3    0    0  0.15777287112E+02 -0.19114251618E+02 -0.27230544782E+02  0.54367082404E+02  0.39999995955E+02 0.  0.
         12    1    3    3    0    0 -0.15777287112E+02  0.19114251618E+02  0.27230544782E+02  0.36820917596E+02  0.00000000000E+00 0. -1.
         11    1    4    4    0    0 -0.39886121837E+01  0.48962757748E+01 -0.37894121543E+01  0.73649296230E+01  0.51100000000E-03 0. -1.
        -11    1    4    4    0    0 -0.21961919958E+01 -0.73755124178E+01 -0.17069432711E+02  0.18723967957E+02  0.51100000000E-03 0.  1.
         12    1    4    4    0    0  0.21962091292E+02 -0.16635014975E+02 -0.63716999166E+01  0.28278184824E+02  0.00000000000E+00 0. -1.
</event>
<event>
 8    1  0.2521748E-006  0.9118800E+02  0.7816164E-02  0.1184000E+00
        -11   -1    0    0    0    0  0.00000000000E+00  0.00000000000E+00  0.45593999997E+02  0.45594000000E+02  0.51100000000E-03 0. -1.
         11   -1    0    0    0    0 -0.00000000000E+00 -0.00000000000E+00 -0.45593999997E+02  0.45594000000E+02  0.51100000000E-03 0.  1.
         23    2    1    2    0    0  0.00000000000E+00  0.00000000000E+00  0.71054273576E-14  0.91188000000E+02  0.91188000000E+02 0.  0.
    9900012    2    3    3    0    0 -0.21834194750E+01 -0.83477755717E+01 -0.35795627528E+02  0.54367087087E+02  0.40000006633E+02 0.  0.
         12    1    3    3    0    0  0.21834194750E+01  0.83477755717E+01  0.35795627528E+02  0.36820912913E+02  0.00000000000E+00 0. -1.
         11    1    4    4    0    0  0.34915711546E+01  0.86122991804E+01 -0.94900629251E+01  0.13282471942E+02  0.51100000000E-03 0.  1.
        -11    1    4    4    0    0  0.19313677654E+01  0.65139265130E+01 -0.44506724420E+01  0.81221860056E+01  0.51100000000E-03 0. -1.
        -12    1    4    4    0    0 -0.76063583950E+01 -0.23474001265E+02 -0.21854892161E+02  0.32962429140E+02  0.00000000000E+00 0.  1.
</event>
<event>
 8    1  0.2521748E-006  0.9118800E+02  0.7816164E-02  0.1184000E+00
        -11   -1    0    0    0    0  0.00000000000E+00  0.00000000000E+00  0.45593999997E+02  0.45594000000E+02  0.51100000000E-03 0.  1.
         11   -1    0    0    0    0 -0.00000000000E+00 -0.00000000000E+00 -0.45593999997E+02  0.45594000000E+02  0.51100000000E-03 0. -1.
         23    2    1    2    0    0  0.35527136788E-14 -0.17763568394E-14  0.71054273576E-14  0.91188000000E+02  0.91188000000E+02 0.  0.
    9900012    2    3    3    0    0 -0.20736274544E+02  0.85815890314E+01 -0.29191484567E+02  0.54367088503E+02  0.40000009860E+02 0.  0.
        -12    1    3    3    0    0  0.20736274544E+02 -0.85815890314E+01  0.29191484567E+02  0.36820911497E+02  0.00000000000E+00 0.  1.
         11    1    4    4    0    0 -0.62337717983E+00  0.29508097914E+01  0.25986003869E+01  0.39810302392E+01  0.51100000000E-03 0. -1.
        -11    1    4    4    0    0 -0.20701632624E+02  0.10699319218E+02 -0.59550439105E+01  0.24051934918E+02  0.51100000000E-03 0.  1.
         12    1    4    4    0    0  0.58873526007E+00 -0.50685399783E+01 -0.25835041043E+02  0.26334123346E+02  0.00000000000E+00 0. -1.
</event>
<event>
 8    1  0.2521748E-006  0.9118800E+02  0.7816164E-02  0.1184000E+00
        -11   -1    0    0    0    0  0.00000000000E+00  0.00000000000E+00  0.45593999997E+02  0.45594000000E+02  0.51100000000E-03 0.  1.
         11   -1    0    0    0    0 -0.00000000000E+00 -0.00000000000E+00 -0.45593999997E+02  0.45594000000E+02  0.51100000000E-03 0. -1.
         23    2    1    2    0    0  0.00000000000E+00  0.00000000000E+00  0.00000000000E+00  0.91188000000E+02  0.91188000000E+02 0.  0.
    9900012    2    3    3    0    0 -0.57076269487E+01 -0.13222295235E+02 -0.33887465796E+02  0.54367266238E+02  0.40000415041E+02 0.  0.
         12    1    3    3    0    0  0.57076269487E+01  0.13222295235E+02  0.33887465796E+02  0.36820733762E+02  0.00000000000E+00 0. -1.
         11    1    4    4    0    0 -0.57054413830E+01 -0.22706487574E+02 -0.24290174092E+02  0.33736466872E+02  0.51100000000E-03 0. -1.
        -11    1    4    4    0    0 -0.36462479288E+01  0.81175178437E+00  0.30821279979E+01  0.48428894447E+01  0.51100000000E-03 0.  1.
         12    1    4    4    0    0  0.36440623630E+01  0.86724405556E+01 -0.12679419702E+02  0.15787909921E+02  0.00000000000E+00 0. -1.
</event>
<event>
 8    1  0.2521748E-006  0.9118800E+02  0.7816164E-02  0.1184000E+00
        -11   -1    0    0    0    0  0.00000000000E+00  0.00000000000E+00  0.45593999997E+02  0.45594000000E+02  0.51100000000E-03 0. -1.
         11   -1    0    0    0    0 -0.00000000000E+00 -0.00000000000E+00 -0.45593999997E+02  0.45594000000E+02  0.51100000000E-03 0.  1.
         23    2    1    2    0    0  0.00000000000E+00 -0.44408920985E-15  0.00000000000E+00  0.91188000000E+02  0.91188000000E+02 0.  0.
    9900012    2    3    3    0    0 -0.16415992721E+02 -0.31827295957E+01 -0.32804978818E+02  0.54367065467E+02  0.39999957344E+02 0.  0.
         12    1    3    3    0    0  0.16415992721E+02  0.31827295957E+01  0.32804978818E+02  0.36820934533E+02  0.00000000000E+00 0. -1.
         11    1    4    4    0    0  0.43542979425E+01 -0.15529725471E+01 -0.23603699950E+02  0.24052157614E+02  0.51100000000E-03 0. -1.
        -11    1    4    4    0    0 -0.66024098122E+01  0.65977508768E+01 -0.10293165265E+02  0.13895012897E+02  0.51100000000E-03 0.  1.
         12    1    4    4    0    0 -0.14167880851E+02 -0.82275079255E+01  0.10918863970E+01  0.16419894956E+02  0.00000000000E+00 0. -1.
</event>
<event>
 8    1  0.2521748E-006  0.9118800E+02  0.7816164E-02  0.1184000E+00
        -11   -1    0    0    0    0  0.00000000000E+00  0.00000000000E+00  0.45593999997E+02  0.45594000000E+02  0.51100000000E-03 0.  1.
         11   -1    0    0    0    0 -0.00000000000E+00 -0.00000000000E+00 -0.45593999997E+02  0.45594000000E+02  0.51100000000E-03 0. -1.
         23    2    1    2    0    0  0.00000000000E+00 -0.22204460493E-15  0.00000000000E+00  0.91188000000E+02  0.91188000000E+02 0.  0.
    9900012    2    3    3    0    0 -0.67787930504E+01  0.19436372762E+01  0.36139325069E+02  0.54367074190E+02  0.39999977230E+02 0.  0.
         12    1    3    3    0    0  0.67787930504E+01 -0.19436372762E+01 -0.36139325069E+02  0.36820925810E+02  0.00000000000E+00 0. -1.
         11    1    4    4    0    0  0.27864498090E+01 -0.89234355445E+01 -0.93648071767E-01  0.93488381459E+01  0.51100000000E-03 0. -1.
        -11    1    4    4    0    0  0.33208479992E+01  0.25521087662E+01  0.26556485310E+02  0.26884720621E+02  0.51100000000E-03 0.  1.
        -12    1    4    4    0    0 -0.12886090859E+02  0.83149640545E+01  0.96764878313E+01  0.18133515423E+02  0.00000000000E+00 0.  1.
</event>
<event>
 8    1  0.2521748E-006  0.9118800E+02  0.7816164E-02  0.1184000E+00
        -11   -1    0    0    0    0  0.00000000000E+00  0.00000000000E+00  0.45593999997E+02  0.45594000000E+02  0.51100000000E-03 0.  1.
         11   -1    0    0    0    0 -0.00000000000E+00 -0.00000000000E+00 -0.45593999997E+02  0.45594000000E+02  0.51100000000E-03 0. -1.
         23    2    1    2    0    0 -0.35527136788E-14 -0.71054273576E-14 -0.17763568394E-14  0.91188000000E+02  0.91188000000E+02 0.  0.
    9900012    2    3    3    0    0 -0.19553761208E+02 -0.29361144056E+02 -0.10552461429E+02  0.54367071171E+02  0.39999970348E+02 0.  0.
        -12    1    3    3    0    0  0.19553761208E+02  0.29361144056E+02  0.10552461429E+02  0.36820928829E+02  0.00000000000E+00 0.  1.
         11    1    4    4    0    0 -0.10311327581E+02 -0.13349870070E+02 -0.57670498613E+01  0.17826984370E+02  0.51100000000E-03 0. -1.
        -11    1    4    4    0    0 -0.16682055769E+02 -0.91179539894E+01  0.76503654481E+01  0.20492831951E+02  0.51100000000E-03 0.  1.
         12    1    4    4    0    0  0.74396221427E+01 -0.68933199966E+01 -0.12435777015E+02  0.16047254849E+02  0.00000000000E+00 0. -1.
</event>
<event>
 8    1  0.2521748E-006  0.9118800E+02  0.7816164E-02  0.1184000E+00
        -11   -1    0    0    0    0  0.00000000000E+00  0.00000000000E+00  0.45593999997E+02  0.45594000000E+02  0.51100000000E-03 0. -1.
         11   -1    0    0    0    0 -0.00000000000E+00 -0.00000000000E+00 -0.45593999997E+02  0.45594000000E+02  0.51100000000E-03 0.  1.
         23    2    1    2    0    0  0.00000000000E+00  0.00000000000E+00  0.00000000000E+00  0.91188000000E+02  0.91188000000E+02 0.  0.
    9900012    2    3    3    0    0  0.50777355284E+01  0.34387300134E+02 -0.12145232387E+02  0.54367129853E+02  0.40000104127E+02 0.  0.
         12    1    3    3    0    0 -0.50777355284E+01 -0.34387300134E+02  0.12145232387E+02  0.36820870147E+02  0.00000000000E+00 0. -1.
         11    1    4    4    0    0  0.11486859412E+02  0.13498604078E+02 -0.65138896226E+01  0.18883617489E+02  0.51100000000E-03 0. -1.
        -11    1    4    4    0    0  0.10542140605E+01 -0.51085814173E+01 -0.66077739597E+01  0.84185300586E+01  0.51100000000E-03 0.  1.
        -12    1    4    4    0    0 -0.74633379444E+01  0.25997277474E+02  0.97643119486E+00  0.27064982306E+02  0.00000000000E+00 0.  1.
</event>
