<event>
 8    1  0.2466538E-006  0.9118800E+02  0.7816164E-02  0.1184000E+00
        -11   -1    0    0    0    0  0.00000000000E+00  0.00000000000E+00  0.45593999997E+02  0.45594000000E+02  0.51100000000E-03 0.  1.
         11   -1    0    0    0    0 -0.00000000000E+00 -0.00000000000E+00 -0.45593999997E+02  0.45594000000E+02  0.51100000000E-03 0. -1.
         23    2    1    2    0    0 -0.35527136788E-14 -0.35527136788E-14 -0.24424906542E-14  0.91188000000E+02  0.91188000000E+02 0.  0.
    9900012    2    3    3    0    0 -0.29657170211E+02 -0.21775326792E+02  0.14379881559E+01  0.54367076440E+02  0.39999982361E+02 0.  0.
         12    1    3    3    0    0  0.29657170211E+02  0.21775326792E+02 -0.14379881559E+01  0.36820923560E+02  0.00000000000E+00 0. -1.
         11    1    4    4    0    0 -0.18672544540E+02  0.20577428736E+01 -0.11534226526E+02  0.22043969859E+02  0.51100000000E-03 0. -1.
        -11    1    4    4    0    0 -0.11644396638E+02 -0.89460239580E+01  0.70331343236E+01  0.16281532372E+02  0.51100000000E-03 0.  1.
         12    1    4    4    0    0  0.65977096586E+00 -0.14887045707E+02  0.59390803581E+01  0.16041574210E+02  0.00000000000E+00 0. -1.
</event>
<event>
 8    1  0.2466538E-006  0.9118800E+02  0.7816164E-02  0.1184000E+00
        -11   -1    0    0    0    0  0.00000000000E+00  0.00000000000E+00  0.45593999997E+02  0.45594000000E+02  0.51100000000E-03 0.  1.
         11   -1    0    0    0    0 -0.00000000000E+00 -0.00000000000E+00 -0.45593999997E+02  0.45594000000E+02  0.51100000000E-03 0. -1.
         23    2    1    2    0    0  0.00000000000E+00 -0.35527136788E-14  0.35527136788E-14  0.91188000000E+02  0.91188000000E+02 0.  0.
    9900012    2    3    3    0    0 -0.10620007531E+02  0.30302633963E+02  0.18020713615E+02  0.54367077901E+02  0.39999985691E+02 0.  0.
         12    1    3    3    0    0  0.10620007531E+02 -0.30302633963E+02 -0.18020713615E+02  0.36820922099E+02  0.00000000000E+00 0. -1.
         11    1    4    4    0    0 -0.89744427125E+01  0.12183264537E+02  0.21447922257E+01  0.15283085118E+02  0.51100000000E-03 0. -1.
        -11    1    4    4    0    0  0.95427270080E+00 -0.40184319304E+01  0.16274583573E+02  0.16790488448E+02  0.51100000000E-03 0.  1.
        -12    1    4    4    0    0 -0.25998375191E+01  0.22137801356E+02 -0.39866218405E+00  0.22293504335E+02  0.00000000000E+00 0.  1.
</event>
<event>
 8    1  0.2466538E-006  0.9118800E+02  0.7816164E-02  0.1184000E+00
        -11   -1    0    0    0    0  0.00000000000E+00  0.00000000000E+00  0.45593999997E+02  0.45594000000E+02  0.51100000000E-03 0.  1.
         11   -1    0    0    0    0 -0.00000000000E+00 -0.00000000000E+00 -0.45593999997E+02  0.45594000000E+02  0.51100000000E-03 0. -1.
         23    2    1    2    0    0  0.22204460493E-15  0.27755575616E-15  0.00000000000E+00  0.91188000000E+02  0.91188000000E+02 0.  0.
    9900012    2    3    3    0    0  0.10495698483E+01 -0.36565232683E+00 -0.36804133094E+02  0.54367088668E+02  0.40000010236E+02 0.  0.
        -12    1    3    3    0    0 -0.10495698483E+01  0.36565232683E+00  0.36804133094E+02  0.36820911332E+02  0.00000000000E+00 0.  1.
         11    1    4    4    0    0 -0.20834647000E+01 -0.11531995234E+02 -0.24576876663E+02  0.27227754332E+02  0.51100000000E-03 0. -1.
        -11    1    4    4    0    0  0.66822624224E+01 -0.44766373991E+01 -0.27079921633E+01  0.84868212720E+01  0.51100000000E-03 0.  1.
        -12    1    4    4    0    0 -0.35492278740E+01  0.15642980307E+02 -0.95192642685E+01  0.18652513064E+02  0.00000000000E+00 0.  1.
</event>
<event>
 8    1  0.2466538E-006  0.9118800E+02  0.7816164E-02  0.1184000E+00
        -11   -1    0    0    0    0  0.00000000000E+00  0.00000000000E+00  0.45593999997E+02  0.45594000000E+02  0.51100000000E-03 0. -1.
         11   -1    0    0    0    0 -0.00000000000E+00 -0.00000000000E+00 -0.45593999997E+02  0.45594000000E+02  0.51100000000E-03 0.  1.
         23    2    1    2    0    0  0.00000000000E+00  0.17763568394E-14  0.00000000000E+00  0.91188000000E+02  0.91188000000E+02 0.  0.
    9900012    2    3    3    0    0 -0.20294019458E+02 -0.15802490507E+02 -0.26347932484E+02  0.54367089118E+02  0.40000011263E+02 0.  0.
         12    1    3    3    0    0  0.20294019458E+02  0.15802490507E+02  0.26347932484E+02  0.36820910882E+02  0.00000000000E+00 0. -1.
         11    1    4    4    0    0  0.27620554134E+01  0.55585400276E+01  0.95288849003E+00  0.62796746796E+01  0.51100000000E-03 0. -1.
        -11    1    4    4    0    0  0.10269447884E+01 -0.24029903702E+01 -0.14730007675E+02  0.14960016868E+02  0.51100000000E-03 0.  1.
        -12    1    4    4    0    0 -0.24083019659E+02 -0.18958040165E+02 -0.12570813299E+02  0.33127397571E+02  0.00000000000E+00 0.  1.
</event>
<event>
 8    1  0.2466538E-006  0.9118800E+02  0.7816164E-02  0.1184000E+00
        -11   -1    0    0    0    0  0.00000000000E+00  0.00000000000E+00  0.45593999997E+02  0.45594000000E+02  0.51100000000E-03 0. -1.
         11   -1    0    0    0    0 -0.00000000000E+00 -0.00000000000E+00 -0.45593999997E+02  0.45594000000E+02  0.51100000000E-03 0.  1.
         23    2    1    2    0    0 -0.17763568394E-14 -0.35527136788E-14  0.00000000000E+00  0.91188000000E+02  0.91188000000E+02 0.  0.
    9900012    2    3    3    0    0 -0.15957103994E+02  0.24462669958E+02 -0.22421745955E+02  0.54366999456E+02  0.39999806859E+02 0.  0.
         12    1    3    3    0    0  0.15957103994E+02 -0.24462669958E+02  0.22421745955E+02  0.36821000544E+02  0.00000000000E+00 0. -1.
         11    1    4    4    0    0 -0.42775812148E+01  0.80882521119E+01  0.56303085875E+01  0.10743272236E+02  0.51100000000E-03 0. -1.
        -11    1    4    4    0    0 -0.20898773622E+01  0.12884784916E+02  0.74256606729E+00  0.13074275289E+02  0.51100000000E-03 0.  1.
        -12    1    4    4    0    0 -0.95896454171E+01  0.34896329307E+01 -0.28794620610E+02  0.30549451931E+02  0.00000000000E+00 0.  1.
</event>
<event>
 8    1  0.2466538E-006  0.9118800E+02  0.7816164E-02  0.1184000E+00
        -11   -1    0    0    0    0  0.00000000000E+00  0.00000000000E+00  0.45593999997E+02  0.45594000000E+02  0.51100000000E-03 0.  1.
         11   -1    0    0    0    0 -0.00000000000E+00 -0.00000000000E+00 -0.45593999997E+02  0.45594000000E+02  0.51100000000E-03 0. -1.
         23    2    1    2    0    0 -0.22204460493E-15  0.35527136788E-14 -0.35527136788E-14  0.91188000000E+02  0.91188000000E+02 0.  0.
    9900012    2    3    3    0    0  0.19084146377E+01 -0.22866422858E+02  0.28796956176E+02  0.54367081682E+02  0.39999994311E+02 0.  0.
         12    1    3    3    0    0 -0.19084146377E+01  0.22866422858E+02 -0.28796956176E+02  0.36820918318E+02  0.00000000000E+00 0. -1.
         11    1    4    4    0    0 -0.81702375739E+01 -0.15846551553E+02  0.35613435787E+02  0.39826910336E+02  0.51100000000E-03 0. -1.
        -11    1    4    4    0    0  0.75230396863E+01 -0.35783244381E+01 -0.31736890848E+01  0.89147537585E+01  0.51100000000E-03 0.  1.
         12    1    4    4    0    0  0.25556125253E+01 -0.34415468668E+01 -0.36427905263E+01  0.56254175875E+01  0.00000000000E+00 0. -1.
</event>
<event>
 8    1  0.2466538E-006  0.9118800E+02  0.7816164E-02  0.1184000E+00
        -11   -1    0    0    0    0  0.00000000000E+00  0.00000000000E+00  0.45593999997E+02  0.45594000000E+02  0.51100000000E-03 0.  1.
         11   -1    0    0    0    0 -0.00000000000E+00 -0.00000000000E+00 -0.45593999997E+02  0.45594000000E+02  0.51100000000E-03 0. -1.
         23    2    1    2    0    0  0.00000000000E+00  0.00000000000E+00  0.00000000000E+00  0.91188000000E+02  0.91188000000E+02 0.  0.
    9900012    2    3    3    0    0 -0.33706691737E+02 -0.44482260730E+01 -0.14136909281E+02  0.54367082208E+02  0.39999995509E+02 0.  0.
        -12    1    3    3    0    0  0.33706691737E+02  0.44482260730E+01  0.14136909281E+02  0.36820917792E+02  0.00000000000E+00 0.  1.
         11    1    4    4    0    0 -0.89396711278E+01  0.56813881243E+01 -0.10851218697E+02  0.15163932154E+02  0.51100000000E-03 0. -1.
        -11    1    4    4    0    0 -0.22722685402E+01 -0.12457697483E+02 -0.94064086566E+01  0.15774598409E+02  0.51100000000E-03 0.  1.
         12    1    4    4    0    0 -0.22494752069E+02  0.23280832858E+01  0.61207180730E+01  0.23428551645E+02  0.00000000000E+00 0. -1.
</event>
<event>
 8    1  0.2466538E-006  0.9118800E+02  0.7816164E-02  0.1184000E+00
        -11   -1    0    0    0    0  0.00000000000E+00  0.00000000000E+00  0.45593999997E+02  0.45594000000E+02  0.51100000000E-03 0. -1.
         11   -1    0    0    0    0 -0.00000000000E+00 -0.00000000000E+00 -0.45593999997E+02  0.45594000000E+02  0.51100000000E-03 0.  1.
         23    2    1    2    0    0 -0.35527136788E-14  0.00000000000E+00  0.00000000000E+00  0.91188000000E+02  0.91188000000E+02 0.  0.
    9900012    2    3    3    0    0  0.17188063432E+02  0.52575559743E+01 -0.32135784939E+02  0.54367080769E+02  0.39999992228E+02 0.  0.
         12    1    3    3    0    0 -0.17188063432E+02 -0.52575559743E+01  0.32135784939E+02  0.36820919231E+02  0.00000000000E+00 0. -1.
         11    1    4    4    0    0 -0.30544582381E+00 -0.79988346626E+01 -0.51565858851E+01  0.95218187004E+01  0.51100000000E-03 0. -1.
        -11    1    4    4    0    0  0.21647977788E+02  0.81341581950E+01 -0.75496464624E+01  0.24326870613E+02  0.51100000000E-03 0.  1.
         12    1    4    4    0    0 -0.41544685324E+01  0.51222324419E+01 -0.19429552592E+02  0.20518391455E+02  0.00000000000E+00 0. -1.
</event>
<event>
 8    1  0.2466538E-006  0.9118800E+02  0.7816164E-02  0.1184000E+00
        -11   -1    0    0    0    0  0.00000000000E+00  0.00000000000E+00  0.45593999997E+02  0.45594000000E+02  0.51100000000E-03 0.  1.
         11   -1    0    0    0    0 -0.00000000000E+00 -0.00000000000E+00 -0.45593999997E+02  0.45594000000E+02  0.51100000000E-03 0. -1.
         23    2    1    2    0    0  0.00000000000E+00 -0.35527136788E-14 -0.17763568394E-14  0.91188000000E+02  0.91188000000E+02 0.  0.
    9900012    2    3    3    0    0 -0.21121605529E+02 -0.29305300866E+02 -0.71313959902E+01  0.54367086272E+02  0.40000004774E+02 0.  0.
         12    1    3    3    0    0  0.21121605529E+02  0.29305300866E+02  0.71313959902E+01  0.36820913728E+02  0.00000000000E+00 0. -1.
         11    1    4    4    0    0 -0.72324013622E+01 -0.11950455591E+02 -0.51577893651E+01  0.14890393202E+02  0.51100000000E-03 0. -1.
        -11    1    4    4    0    0 -0.10816408500E+02  0.14538798522E+00  0.12520898068E+02  0.16546562157E+02  0.51100000000E-03 0.  1.
        -12    1    4    4    0    0 -0.30727956668E+01 -0.17500233260E+02 -0.14494504694E+02  0.22930130913E+02  0.00000000000E+00 0.  1.
</event>
<event>
 8    1  0.2466538E-006  0.9118800E+02  0.7816164E-02  0.1184000E+00
        -11   -1    0    0    0    0  0.00000000000E+00  0.00000000000E+00  0.45593999997E+02  0.45594000000E+02  0.51100000000E-03 0.  1.
         11   -1    0    0    0    0 -0.00000000000E+00 -0.00000000000E+00 -0.45593999997E+02  0.45594000000E+02  0.51100000000E-03 0. -1.
         23    2    1    2    0    0  0.17763568394E-14  0.00000000000E+00  0.00000000000E+00  0.91188000000E+02  0.91188000000E+02 0.  0.
    9900012    2    3    3    0    0 -0.96250501782E+01 -0.25660492769E+02 -0.24590187946E+02  0.54367084432E+02  0.40000000579E+02 0.  0.
        -12    1    3    3    0    0  0.96250501782E+01  0.25660492769E+02  0.24590187946E+02  0.36820915568E+02  0.00000000000E+00 0.  1.
         11    1    4    4    0    0 -0.75022237392E+00  0.67669855954E+01  0.11413259861E+01  0.69034450042E+01  0.51100000000E-03 0. -1.
        -11    1    4    4    0    0  0.49725284011E+01 -0.16150615303E+02 -0.18123345603E+02  0.24779509065E+02  0.51100000000E-03 0.  1.
        -12    1    4    4    0    0 -0.13847356205E+02 -0.16276863061E+02 -0.76081683287E+01  0.22684130362E+02  0.00000000000E+00 0.  1.
</event>
<event>
 8    1  0.2466538E-006  0.9118800E+02  0.7816164E-02  0.1184000E+00
        -11   -1    0    0    0    0  0.00000000000E+00  0.00000000000E+00  0.45593999997E+02  0.45594000000E+02  0.51100000000E-03 0.  1.
         11   -1    0    0    0    0 -0.00000000000E+00 -0.00000000000E+00 -0.45593999997E+02  0.45594000000E+02  0.51100000000E-03 0. -1.
         23    2    1    2    0    0  0.00000000000E+00  0.88817841970E-15 -0.39968028887E-14  0.91188000000E+02  0.91188000000E+02 0.  0.
    9900012    2    3    3    0    0  0.36261924686E+02  0.59621344178E+01 -0.23033578921E+01  0.54367086292E+02  0.40000004819E+02 0.  0.
         12    1    3    3    0    0 -0.36261924686E+02 -0.59621344178E+01  0.23033578921E+01  0.36820913708E+02  0.00000000000E+00 0. -1.
         11    1    4    4    0    0  0.79625831571E+01  0.85405592489E+01 -0.12139373885E+02  0.16843642165E+02  0.51100000000E-03 0. -1.
        -11    1    4    4    0    0  0.24469577745E+02  0.69566994054E+00  0.16238810754E+02  0.29375894312E+02  0.51100000000E-03 0.  1.
        -12    1    4    4    0    0  0.38297637840E+01 -0.32740947717E+01 -0.64027947616E+01  0.81475498142E+01  0.00000000000E+00 0.  1.
</event>
<event>
 8    1  0.2466538E-006  0.9118800E+02  0.7816164E-02  0.1184000E+00
        -11   -1    0    0    0    0  0.00000000000E+00  0.00000000000E+00  0.45593999997E+02  0.45594000000E+02  0.51100000000E-03 0.  1.
         11   -1    0    0    0    0 -0.00000000000E+00 -0.00000000000E+00 -0.45593999997E+02  0.45594000000E+02  0.51100000000E-03 0. -1.
         23    2    1    2    0    0  0.00000000000E+00  0.00000000000E+00 -0.35527136788E-14  0.91188000000E+02  0.91188000000E+02 0.  0.
    9900012    2    3    3    0    0  0.20620846087E+02  0.12924159260E+02  0.27631983453E+02  0.54367086168E+02  0.40000004536E+02 0.  0.
         12    1    3    3    0    0 -0.20620846087E+02 -0.12924159260E+02 -0.27631983453E+02  0.36820913832E+02  0.00000000000E+00 0. -1.
         11    1    4    4    0    0 -0.49245532047E+01  0.44166038575E+01  0.96580149747E+01  0.11706189278E+02  0.51100000000E-03 0. -1.
        -11    1    4    4    0    0  0.15069660306E+02 -0.93403747512E+01  0.58182552768E+01  0.18659832715E+02  0.51100000000E-03 0.  1.
        -12    1    4    4    0    0  0.10475738985E+02  0.17847930154E+02  0.12155713201E+02  0.24001064174E+02  0.00000000000E+00 0.  1.
</event>
<event>
 8    1  0.2466538E-006  0.9118800E+02  0.7816164E-02  0.1184000E+00
        -11   -1    0    0    0    0  0.00000000000E+00  0.00000000000E+00  0.45593999997E+02  0.45594000000E+02  0.51100000000E-03 0. -1.
         11   -1    0    0    0    0 -0.00000000000E+00 -0.00000000000E+00 -0.45593999997E+02  0.45594000000E+02  0.51100000000E-03 0.  1.
         23    2    1    2    0    0  0.71054273576E-14  0.00000000000E+00  0.44408920985E-15  0.91188000000E+02  0.91188000000E+02 0.  0.
    9900012    2    3    3    0    0  0.31512020101E+02 -0.19005423948E+02 -0.12526852256E+01  0.54367044410E+02  0.39999909341E+02 0.  0.
         12    1    3    3    0    0 -0.31512020101E+02  0.19005423948E+02  0.12526852256E+01  0.36820955590E+02  0.00000000000E+00 0. -1.
         11    1    4    4    0    0  0.14862897176E+00  0.61857397680E+01 -0.16206196362E+01  0.63962391540E+01  0.51100000000E-03 0. -1.
        -11    1    4    4    0    0  0.71498919548E+00 -0.83476953230E+01 -0.84551869951E+01  0.11903168240E+02  0.51100000000E-03 0.  1.
        -12    1    4    4    0    0  0.30648401934E+02 -0.16843468393E+02  0.88231214057E+01  0.36067637016E+02  0.00000000000E+00 0.  1.
</event>
<event>
 8    1  0.2466538E-006  0.9118800E+02  0.7816164E-02  0.1184000E+00
        -11   -1    0    0    0    0  0.00000000000E+00  0.00000000000E+00  0.45593999997E+02  0.45594000000E+02  0.51100000000E-03 0.  1.
         11   -1    0    0    0    0 -0.00000000000E+00 -0.00000000000E+00 -0.45593999997E+02  0.45594000000E+02  0.51100000000E-03 0. -1.
         23    2    1    2    0    0  0.00000000000E+00 -0.35527136788E-14  0.00000000000E+00  0.91188000000E+02  0.91188000000E+02 0.  0.
    9900012    2    3    3    0    0  0.66934380129E+01 -0.25338816743E+02  0.25863539222E+02  0.54367076499E+02  0.39999982495E+02 0.  0.
         12    1    3    3    0    0 -0.66934380129E+01  0.25338816743E+02 -0.25863539222E+02  0.36820923501E+02  0.00000000000E+00 0. -1.
         11    1    4    4    0    0  0.13660137968E+01 -0.10694832693E+02  0.16251666822E+02  0.19502874526E+02  0.51100000000E-03 0.  1.
        -11    1    4    4    0    0  0.42251805882E+01 -0.18696530378E+02 -0.48771771252E+01  0.19778757700E+02  0.51100000000E-03 0. -1.
         12    1    4    4    0    0  0.11022436279E+01  0.40525463282E+01  0.14489049526E+02  0.15085444273E+02  0.00000000000E+00 0. -1.
</event>
<event>
 8    1  0.2466538E-006  0.9118800E+02  0.7816164E-02  0.1184000E+00
        -11   -1    0    0    0    0  0.00000000000E+00  0.00000000000E+00  0.45593999997E+02  0.45594000000E+02  0.51100000000E-03 0.  1.
         11   -1    0    0    0    0 -0.00000000000E+00 -0.00000000000E+00 -0.45593999997E+02  0.45594000000E+02  0.51100000000E-03 0. -1.
         23    2    1    2    0    0  0.00000000000E+00  0.00000000000E+00  0.00000000000E+00  0.91188000000E+02  0.91188000000E+02 0.  0.
    9900012    2    3    3    0    0  0.33103552327E+02 -0.13681611633E+02 -0.85292100057E+01  0.54367094297E+02  0.40000023068E+02 0.  0.
        -12    1    3    3    0    0 -0.33103552327E+02  0.13681611633E+02  0.85292100057E+01  0.36820905703E+02  0.00000000000E+00 0.  1.
         11    1    4    4    0    0  0.21102035455E+01 -0.17183129667E+02 -0.24587144902E+01  0.17485942393E+02  0.51100000000E-03 0. -1.
        -11    1    4    4    0    0 -0.10479462241E+01  0.25763256588E+01  0.24575170646E+01  0.37114735043E+01  0.51100000000E-03 0.  1.
        -12    1    4    4    0    0  0.32041295005E+02  0.92519237596E+00 -0.85280125801E+01  0.33169678399E+02  0.00000000000E+00 0.  1.
</event>
<event>
 8    1  0.2466538E-006  0.9118800E+02  0.7816164E-02  0.1184000E+00
        -11   -1    0    0    0    0  0.00000000000E+00  0.00000000000E+00  0.45593999997E+02  0.45594000000E+02  0.51100000000E-03 0.  1.
         11   -1    0    0    0    0 -0.00000000000E+00 -0.00000000000E+00 -0.45593999997E+02  0.45594000000E+02  0.51100000000E-03 0. -1.
         23    2    1    2    0    0 -0.88817841970E-15 -0.71054273576E-14  0.66613381478E-15  0.91188000000E+02  0.91188000000E+02 0.  0.
    9900012    2    3    3    0    0 -0.43354832468E+01  0.36550591182E+02 -0.10185990860E+01  0.54367086448E+02  0.40000005176E+02 0.  0.
        -12    1    3    3    0    0  0.43354832468E+01 -0.36550591182E+02  0.10185990860E+01  0.36820913552E+02  0.00000000000E+00 0.  1.
         11    1    4    4    0    0  0.57570182242E+01 -0.19821535909E+01 -0.31149766791E+00  0.60966566863E+01  0.51100000000E-03 0.  1.
        -11    1    4    4    0    0  0.72002973798E+01  0.45080797449E+01 -0.50087860674E+01  0.98617951446E+01  0.51100000000E-03 0. -1.
        -12    1    4    4    0    0 -0.17292798851E+02  0.34024665028E+02  0.43016846492E+01  0.38408634617E+02  0.00000000000E+00 0.  1.
</event>
<event>
 8    1  0.2466538E-006  0.9118800E+02  0.7816164E-02  0.1184000E+00
        -11   -1    0    0    0    0  0.00000000000E+00  0.00000000000E+00  0.45593999997E+02  0.45594000000E+02  0.51100000000E-03 0.  1.
         11   -1    0    0    0    0 -0.00000000000E+00 -0.00000000000E+00 -0.45593999997E+02  0.45594000000E+02  0.51100000000E-03 0. -1.
         23    2    1    2    0    0 -0.71054273576E-14  0.17763568394E-14  0.35527136788E-14  0.91188000000E+02  0.91188000000E+02 0.  0.
    9900012    2    3    3    0    0  0.33426462172E+02  0.98302965996E+01 -0.11908666065E+02  0.54367089745E+02  0.40000012691E+02 0.  0.
        -12    1    3    3    0    0 -0.33426462172E+02 -0.98302965996E+01  0.11908666065E+02  0.36820910255E+02  0.00000000000E+00 0.  1.
         11    1    4    4    0    0  0.41815345236E+01  0.44775770051E+01  0.37203268646E+01  0.71676187852E+01  0.51100000000E-03 0. -1.
        -11    1    4    4    0    0 -0.23684031274E+01 -0.71356686392E+01 -0.10363409158E+02  0.12803411652E+02  0.51100000000E-03 0.  1.
         12    1    4    4    0    0  0.31613330776E+02  0.12488388234E+02 -0.52655837719E+01  0.34396059307E+02  0.00000000000E+00 0. -1.
</event>
<event>
 8    1  0.2466538E-006  0.9118800E+02  0.7816164E-02  0.1184000E+00
        -11   -1    0    0    0    0  0.00000000000E+00  0.00000000000E+00  0.45593999997E+02  0.45594000000E+02  0.51100000000E-03 0.  1.
         11   -1    0    0    0    0 -0.00000000000E+00 -0.00000000000E+00 -0.45593999997E+02  0.45594000000E+02  0.51100000000E-03 0. -1.
         23    2    1    2    0    0  0.35527136788E-14  0.00000000000E+00  0.00000000000E+00  0.91188000000E+02  0.91188000000E+02 0.  0.
    9900012    2    3    3    0    0 -0.24670596096E+02  0.18285552334E+02 -0.20316991719E+02  0.54367083548E+02  0.39999998564E+02 0.  0.
        -12    1    3    3    0    0  0.24670596096E+02 -0.18285552334E+02  0.20316991719E+02  0.36820916452E+02  0.00000000000E+00 0.  1.
         11    1    4    4    0    0 -0.70042076035E+01  0.13222068947E+02 -0.16853564654E+02  0.22537184234E+02  0.51100000000E-03 0. -1.
        -11    1    4    4    0    0 -0.15186077794E+02  0.11069302917E+02  0.65431334066E+01  0.19898719076E+02  0.51100000000E-03 0.  1.
        -12    1    4    4    0    0 -0.24803106983E+01 -0.60058195304E+01 -0.10006560471E+02  0.11931180238E+02  0.00000000000E+00 0.  1.
</event>
<event>
 8    1  0.2466538E-006  0.9118800E+02  0.7816164E-02  0.1184000E+00
        -11   -1    0    0    0    0  0.00000000000E+00  0.00000000000E+00  0.45593999997E+02  0.45594000000E+02  0.51100000000E-03 0. -1.
         11   -1    0    0    0    0 -0.00000000000E+00 -0.00000000000E+00 -0.45593999997E+02  0.45594000000E+02  0.51100000000E-03 0.  1.
         23    2    1    2    0    0  0.00000000000E+00  0.00000000000E+00  0.00000000000E+00  0.91188000000E+02  0.91188000000E+02 0.  0.
    9900012    2    3    3    0    0  0.24579060717E+02 -0.20030585276E+02  0.18719659354E+02  0.54367079064E+02  0.39999988343E+02 0.  0.
        -12    1    3    3    0    0 -0.24579060717E+02  0.20030585276E+02 -0.18719659354E+02  0.36820920936E+02  0.00000000000E+00 0.  1.
         11    1    4    4    0    0  0.31861894302E+01 -0.21356336931E+02 -0.26388166996E+01  0.21753351099E+02  0.51100000000E-03 0. -1.
        -11    1    4    4    0    0  0.51571726013E+01  0.55625606986E+01  0.44586081298E+01  0.87987327202E+01  0.51100000000E-03 0.  1.
         12    1    4    4    0    0  0.16235698686E+02 -0.42368090433E+01  0.16899867923E+02  0.23814995245E+02  0.00000000000E+00 0. -1.
</event>
<event>
 8    1  0.2466538E-006  0.9118800E+02  0.7816164E-02  0.1184000E+00
        -11   -1    0    0    0    0  0.00000000000E+00  0.00000000000E+00  0.45593999997E+02  0.45594000000E+02  0.51100000000E-03 0.  1.
         11   -1    0    0    0    0 -0.00000000000E+00 -0.00000000000E+00 -0.45593999997E+02  0.45594000000E+02  0.51100000000E-03 0. -1.
         23    2    1    2    0    0  0.00000000000E+00 -0.71054273576E-14  0.72164496601E-15  0.91188000000E+02  0.91188000000E+02 0.  0.
    9900012    2    3    3    0    0  0.26915129575E+02  0.25126732719E+02  0.51227208856E-01  0.54367088531E+02  0.40000009924E+02 0.  0.
        -12    1    3    3    0    0 -0.26915129575E+02 -0.25126732719E+02 -0.51227208856E-01  0.36820911469E+02  0.00000000000E+00 0.  1.
         11    1    4    4    0    0  0.11435416240E+02  0.73312071224E+01 -0.34539806203E+01  0.14015895435E+02  0.51100000000E-03 0. -1.
        -11    1    4    4    0    0  0.60826372201E+01 -0.74381130066E+01  0.86604851265E+01  0.12935532596E+02  0.51100000000E-03 0.  1.
        -12    1    4    4    0    0  0.93970761151E+01  0.25233638603E+02 -0.51552772974E+01  0.27415660500E+02  0.00000000000E+00 0.  1.
</event>
<event>
 8    1  0.2466538E-006  0.9118800E+02  0.7816164E-02  0.1184000E+00
        -11   -1    0    0    0    0  0.00000000000E+00  0.00000000000E+00  0.45593999997E+02  0.45594000000E+02  0.51100000000E-03 0. -1.
         11   -1    0    0    0    0 -0.00000000000E+00 -0.00000000000E+00 -0.45593999997E+02  0.45594000000E+02  0.51100000000E-03 0.  1.
         23    2    1    2    0    0  0.35527136788E-14  0.17763568394E-14 -0.35527136788E-14  0.91188000000E+02  0.91188000000E+02 0.  0.
    9900012    2    3    3    0    0 -0.22718183533E+02 -0.14051722885E+02  0.25341815497E+02  0.54367158188E+02  0.40000168722E+02 0.  0.
        -12    1    3    3    0    0  0.22718183533E+02  0.14051722885E+02 -0.25341815497E+02  0.36820841812E+02  0.00000000000E+00 0.  1.
         11    1    4    4    0    0 -0.26785700480E+01 -0.21305130445E+01  0.96138866010E+01  0.10204932100E+02  0.51100000000E-03 0.  1.
        -11    1    4    4    0    0 -0.24230558327E+02 -0.20205755330E+02  0.93779127603E+01  0.32914096574E+02  0.51100000000E-03 0. -1.
        -12    1    4    4    0    0  0.41909448428E+01  0.82845454895E+01  0.63500161353E+01  0.11248129514E+02  0.00000000000E+00 0.  1.
</event>
<event>
 8    1  0.2466538E-006  0.9118800E+02  0.7816164E-02  0.1184000E+00
        -11   -1    0    0    0    0  0.00000000000E+00  0.00000000000E+00  0.45593999997E+02  0.45594000000E+02  0.51100000000E-03 0.  1.
         11   -1    0    0    0    0 -0.00000000000E+00 -0.00000000000E+00 -0.45593999997E+02  0.45594000000E+02  0.51100000000E-03 0. -1.
         23    2    1    2    0    0  0.00000000000E+00  0.00000000000E+00  0.00000000000E+00  0.91188000000E+02  0.91188000000E+02 0.  0.
    9900012    2    3    3    0    0 -0.15150781755E+02 -0.29757379884E+02  0.15515617195E+02  0.54367051855E+02  0.39999926314E+02 0.  0.
         12    1    3    3    0    0  0.15150781755E+02  0.29757379884E+02 -0.15515617195E+02  0.36820948145E+02  0.00000000000E+00 0. -1.
         11    1    4    4    0    0  0.70323556674E+01 -0.12302023566E+02 -0.14347908277E+00  0.14170899638E+02  0.51100000000E-03 0. -1.
        -11    1    4    4    0    0 -0.15162684885E+02 -0.21976501926E+02  0.58846093844E+01  0.27340487883E+02  0.51100000000E-03 0.  1.
         12    1    4    4    0    0 -0.70204525384E+01  0.45211456075E+01  0.97744868930E+01  0.12855664334E+02  0.00000000000E+00 0. -1.
</event>
<event>
 8    1  0.2466538E-006  0.9118800E+02  0.7816164E-02  0.1184000E+00
        -11   -1    0    0    0    0  0.00000000000E+00  0.00000000000E+00  0.45593999997E+02  0.45594000000E+02  0.51100000000E-03 0. -1.
         11   -1    0    0    0    0 -0.00000000000E+00 -0.00000000000E+00 -0.45593999997E+02  0.45594000000E+02  0.51100000000E-03 0.  1.
         23    2    1    2    0    0  0.00000000000E+00  0.00000000000E+00  0.71054273576E-14  0.91188000000E+02  0.91188000000E+02 0.  0.
    9900012    2    3    3    0    0 -0.18951355843E+02  0.19060395065E+02  0.25165989880E+02  0.54367087532E+02  0.40000007648E+02 0.  0.
        -12    1    3    3    0    0  0.18951355843E+02 -0.19060395065E+02 -0.25165989880E+02  0.36820912468E+02  0.00000000000E+00 0.  1.
         11    1    4    4    0    0 -0.19140482762E+02  0.16197733143E+02  0.29862609309E+02  0.38993590169E+02  0.51100000000E-03 0. -1.
        -11    1    4    4    0    0  0.13095524575E+01  0.84708297897E+01 -0.11607037392E+01  0.86496889191E+01  0.51100000000E-03 0.  1.
        -12    1    4    4    0    0 -0.11204255390E+01 -0.56081678682E+01 -0.35359156896E+01  0.67238084439E+01  0.00000000000E+00 0.  1.
</event>
<event>
 8    1  0.2466538E-006  0.9118800E+02  0.7816164E-02  0.1184000E+00
        -11   -1    0    0    0    0  0.00000000000E+00  0.00000000000E+00  0.45593999997E+02  0.45594000000E+02  0.51100000000E-03 0.  1.
         11   -1    0    0    0    0 -0.00000000000E+00 -0.00000000000E+00 -0.45593999997E+02  0.45594000000E+02  0.51100000000E-03 0. -1.
         23    2    1    2    0    0  0.71054273576E-14  0.22204460493E-15  0.26645352591E-14  0.91188000000E+02  0.91188000000E+02 0.  0.
    9900012    2    3    3    0    0  0.36343836197E+02 -0.13453417218E+01  0.57529020987E+01  0.54367078550E+02  0.39999987170E+02 0.  0.
        -12    1    3    3    0    0 -0.36343836197E+02  0.13453417218E+01 -0.57529020987E+01  0.36820921450E+02  0.00000000000E+00 0.  1.
         11    1    4    4    0    0  0.11966483579E+02  0.26377288028E+01  0.62301750169E+01  0.13746614983E+02  0.51100000000E-03 0. -1.
        -11    1    4    4    0    0  0.15291141547E+02 -0.35912941044E+01  0.15607254019E+02  0.22142781700E+02  0.51100000000E-03 0.  1.
         12    1    4    4    0    0  0.90862110714E+01 -0.39177642021E+00 -0.16084526937E+02  0.18477681867E+02  0.00000000000E+00 0. -1.
</event>
<event>
 8    1  0.2466538E-006  0.9118800E+02  0.7816164E-02  0.1184000E+00
        -11   -1    0    0    0    0  0.00000000000E+00  0.00000000000E+00  0.45593999997E+02  0.45594000000E+02  0.51100000000E-03 0.  1.
         11   -1    0    0    0    0 -0.00000000000E+00 -0.00000000000E+00 -0.45593999997E+02  0.45594000000E+02  0.51100000000E-03 0. -1.
         23    2    1    2    0    0  0.00000000000E+00 -0.17763568394E-14  0.00000000000E+00  0.91188000000E+02  0.91188000000E+02 0.  0.
    9900012    2    3    3    0    0 -0.25602855315E+02  0.10553476783E+02 -0.24267207943E+02  0.54367089448E+02  0.40000012015E+02 0.  0.
        -12    1    3    3    0    0  0.25602855315E+02 -0.10553476783E+02  0.24267207943E+02  0.36820910552E+02  0.00000000000E+00 0.  1.
         11    1    4    4    0    0 -0.18728822012E+01  0.12017843883E+02 -0.85293552263E+01  0.14855509421E+02  0.51100000000E-03 0. -1.
        -11    1    4    4    0    0  0.41794514537E+01 -0.26138415220E+01 -0.97772091887E+01  0.10949602812E+02  0.51100000000E-03 0.  1.
        -12    1    4    4    0    0 -0.27909424568E+02  0.11494744228E+01 -0.59606435284E+01  0.28561977215E+02  0.00000000000E+00 0.  1.
</event>
<event>
 8    1  0.2466538E-006  0.9118800E+02  0.7816164E-02  0.1184000E+00
        -11   -1    0    0    0    0  0.00000000000E+00  0.00000000000E+00  0.45593999997E+02  0.45594000000E+02  0.51100000000E-03 0.  1.
         11   -1    0    0    0    0 -0.00000000000E+00 -0.00000000000E+00 -0.45593999997E+02  0.45594000000E+02  0.51100000000E-03 0. -1.
         23    2    1    2    0    0  0.00000000000E+00  0.00000000000E+00 -0.35527136788E-14  0.91188000000E+02  0.91188000000E+02 0.  0.
    9900012    2    3    3    0    0  0.12191737855E+02  0.18645973248E+02 -0.29316707973E+02  0.54367079904E+02  0.39999990258E+02 0.  0.
        -12    1    3    3    0    0 -0.12191737855E+02 -0.18645973248E+02  0.29316707973E+02  0.36820920096E+02  0.00000000000E+00 0.  1.
         11    1    4    4    0    0  0.87203629847E+01  0.10474891666E+02 -0.16614830860E+02  0.21490013745E+02  0.51100000000E-03 0. -1.
        -11    1    4    4    0    0 -0.32603030182E+01  0.11561815401E+02  0.54733810427E+01  0.13200873132E+02  0.51100000000E-03 0.  1.
         12    1    4    4    0    0  0.67316778881E+01 -0.33907338188E+01 -0.18175258156E+02  0.19676193028E+02  0.00000000000E+00 0. -1.
</event>
<event>
 8    1  0.2466538E-006  0.9118800E+02  0.7816164E-02  0.1184000E+00
        -11   -1    0    0    0    0  0.00000000000E+00  0.00000000000E+00  0.45593999997E+02  0.45594000000E+02  0.51100000000E-03 0. -1.
         11   -1    0    0    0    0 -0.00000000000E+00 -0.00000000000E+00 -0.45593999997E+02  0.45594000000E+02  0.51100000000E-03 0.  1.
         23    2    1    2    0    0  0.00000000000E+00  0.00000000000E+00  0.00000000000E+00  0.91188000000E+02  0.91188000000E+02 0.  0.
    9900012    2    3    3    0    0  0.13274977604E+02  0.19929677125E+02  0.27970758221E+02  0.54367076924E+02  0.39999983463E+02 0.  0.
        -12    1    3    3    0    0 -0.13274977604E+02 -0.19929677125E+02 -0.27970758221E+02  0.36820923076E+02  0.00000000000E+00 0.  1.
         11    1    4    4    0    0 -0.34778834146E+01 -0.44731813389E+01 -0.24321797133E+01  0.61660783935E+01  0.51100000000E-03 0. -1.
        -11    1    4    4    0    0 -0.85131300187E+00  0.11909281135E+02  0.13639684364E+01  0.12017325873E+02  0.51100000000E-03 0.  1.
         12    1    4    4    0    0  0.17604174021E+02  0.12493577329E+02  0.29038969498E+02  0.36183672657E+02  0.00000000000E+00 0. -1.
</event>
<event>
 8    1  0.2466538E-006  0.9118800E+02  0.7816164E-02  0.1184000E+00
        -11   -1    0    0    0    0  0.00000000000E+00  0.00000000000E+00  0.45593999997E+02  0.45594000000E+02  0.51100000000E-03 0. -1.
         11   -1    0    0    0    0 -0.00000000000E+00 -0.00000000000E+00 -0.45593999997E+02  0.45594000000E+02  0.51100000000E-03 0.  1.
         23    2    1    2    0    0  0.71054273576E-14  0.00000000000E+00  0.55511151231E-15  0.91188000000E+02  0.91188000000E+02 0.  0.
    9900012    2    3    3    0    0  0.34005179498E+02  0.14117123640E+02 -0.36704962447E+00  0.54367080158E+02  0.39999990836E+02 0.  0.
         12    1    3    3    0    0 -0.34005179498E+02 -0.14117123640E+02  0.36704962447E+00  0.36820919842E+02  0.00000000000E+00 0. -1.
         11    1    4    4    0    0 -0.50570844268E+01  0.69519007827E+01 -0.75709726056E+01  0.11455245691E+02  0.51100000000E-03 0.  1.
        -11    1    4    4    0    0  0.11258036071E+01 -0.28321925043E+01  0.15291935338E+00  0.30515787279E+01  0.51100000000E-03 0. -1.
        -12    1    4    4    0    0  0.37936460318E+02  0.99974153620E+01  0.70510036277E+01  0.39860255739E+02  0.00000000000E+00 0.  1.
</event>
<event>
 8    1  0.2466538E-006  0.9118800E+02  0.7816164E-02  0.1184000E+00
        -11   -1    0    0    0    0  0.00000000000E+00  0.00000000000E+00  0.45593999997E+02  0.45594000000E+02  0.51100000000E-03 0.  1.
         11   -1    0    0    0    0 -0.00000000000E+00 -0.00000000000E+00 -0.45593999997E+02  0.45594000000E+02  0.51100000000E-03 0. -1.
         23    2    1    2    0    0  0.00000000000E+00  0.00000000000E+00  0.35527136788E-14  0.91188000000E+02  0.91188000000E+02 0.  0.
    9900012    2    3    3    0    0  0.25736546148E+02  0.16576722988E+02 -0.20460260587E+02  0.54367084531E+02  0.40000000805E+02 0.  0.
        -12    1    3    3    0    0 -0.25736546148E+02 -0.16576722988E+02  0.20460260587E+02  0.36820915469E+02  0.00000000000E+00 0.  1.
         11    1    4    4    0    0  0.10286377842E+01 -0.29625196998E+01 -0.87926334317E+01  0.93351497893E+01  0.51100000000E-03 0. -1.
        -11    1    4    4    0    0  0.25606605430E+02  0.23456920389E+02 -0.16747741868E+02  0.38554016830E+02  0.51100000000E-03 0.  1.
        -12    1    4    4    0    0 -0.89869706593E+00 -0.39176777010E+01  0.50801147119E+01  0.64779179118E+01  0.00000000000E+00 0.  1.
</event>
<event>
 8    1  0.2466538E-006  0.9118800E+02  0.7816164E-02  0.1184000E+00
        -11   -1    0    0    0    0  0.00000000000E+00  0.00000000000E+00  0.45593999997E+02  0.45594000000E+02  0.51100000000E-03 0. -1.
         11   -1    0    0    0    0 -0.00000000000E+00 -0.00000000000E+00 -0.45593999997E+02  0.45594000000E+02  0.51100000000E-03 0.  1.
         23    2    1    2    0    0  0.00000000000E+00 -0.17763568394E-14  0.35527136788E-14  0.91188000000E+02  0.91188000000E+02 0.  0.
    9900012    2    3    3    0    0  0.22663578289E+02 -0.11701508651E+02  0.26555971514E+02  0.54367045251E+02  0.39999911259E+02 0.  0.
        -12    1    3    3    0    0 -0.22663578289E+02  0.11701508651E+02 -0.26555971514E+02  0.36820954749E+02  0.00000000000E+00 0.  1.
         11    1    4    4    0    0  0.56821582948E+01 -0.76585078450E+01  0.12812350099E+02  0.15971724410E+02  0.51100000000E-03 0. -1.
        -11    1    4    4    0    0  0.13149318976E+02  0.12035532719E+02  0.16247442399E+01  0.17899676853E+02  0.51100000000E-03 0.  1.
        -12    1    4    4    0    0  0.38321010184E+01 -0.16078533524E+02  0.12118877175E+02  0.20495643988E+02  0.00000000000E+00 0.  1.
</event>
<event>
 8    1  0.2466538E-006  0.9118800E+02  0.7816164E-02  0.1184000E+00
        -11   -1    0    0    0    0  0.00000000000E+00  0.00000000000E+00  0.45593999997E+02  0.45594000000E+02  0.51100000000E-03 0.  1.
         11   -1    0    0    0    0 -0.00000000000E+00 -0.00000000000E+00 -0.45593999997E+02  0.45594000000E+02  0.51100000000E-03 0. -1.
         23    2    1    2    0    0  0.35527136788E-14 -0.17763568394E-14  0.00000000000E+00  0.91188000000E+02  0.91188000000E+02 0.  0.
    9900012    2    3    3    0    0 -0.18043449561E+02 -0.89413438005E+01 -0.30826427745E+02  0.54367050141E+02  0.39999922406E+02 0.  0.
        -12    1    3    3    0    0  0.18043449561E+02  0.89413438005E+01  0.30826427745E+02  0.36820949859E+02  0.00000000000E+00 0.  1.
         11    1    4    4    0    0 -0.43698973723E+01 -0.17040862421E+02 -0.42036621149E+00  0.17597264080E+02  0.51100000000E-03 0. -1.
        -11    1    4    4    0    0  0.26549756449E+01  0.84940356950E+00 -0.35412060451E+01  0.45067197177E+01  0.51100000000E-03 0.  1.
        -12    1    4    4    0    0 -0.16328527834E+02  0.72501150509E+01 -0.26864855488E+02  0.32263066343E+02  0.00000000000E+00 0.  1.
</event>
<event>
 8    1  0.2466538E-006  0.9118800E+02  0.7816164E-02  0.1184000E+00
        -11   -1    0    0    0    0  0.00000000000E+00  0.00000000000E+00  0.45593999997E+02  0.45594000000E+02  0.51100000000E-03 0. -1.
         11   -1    0    0    0    0 -0.00000000000E+00 -0.00000000000E+00 -0.45593999997E+02  0.45594000000E+02  0.51100000000E-03 0.  1.
         23    2    1    2    0    0  0.17763568394E-14  0.00000000000E+00  0.00000000000E+00  0.91188000000E+02  0.91188000000E+02 0.  0.
    9900012    2    3    3    0    0 -0.77384192509E+01  0.34298416583E+02 -0.10932258173E+02  0.54367098581E+02  0.40000032834E+02 0.  0.
         12    1    3    3    0    0  0.77384192509E+01 -0.34298416583E+02  0.10932258173E+02  0.36820901419E+02  0.00000000000E+00 0. -1.
         11    1    4    4    0    0 -0.14399938039E+02  0.36844790724E+01 -0.71329252505E+01  0.16486728737E+02  0.51100000000E-03 0. -1.
        -11    1    4    4    0    0 -0.46309397202E+01  0.16142424034E+02  0.50029835002E+01  0.17522936413E+02  0.51100000000E-03 0.  1.
        -12    1    4    4    0    0  0.11292458508E+02  0.14471513476E+02 -0.88023164229E+01  0.20357433430E+02  0.00000000000E+00 0.  1.
</event>
<event>
 8    1  0.2466538E-006  0.9118800E+02  0.7816164E-02  0.1184000E+00
        -11   -1    0    0    0    0  0.00000000000E+00  0.00000000000E+00  0.45593999997E+02  0.45594000000E+02  0.51100000000E-03 0. -1.
         11   -1    0    0    0    0 -0.00000000000E+00 -0.00000000000E+00 -0.45593999997E+02  0.45594000000E+02  0.51100000000E-03 0.  1.
         23    2    1    2    0    0  0.00000000000E+00  0.17763568394E-14  0.00000000000E+00  0.91188000000E+02  0.91188000000E+02 0.  0.
    9900012    2    3    3    0    0 -0.27878484618E+02  0.95932665071E+01  0.22057639247E+02  0.54367080456E+02  0.39999991516E+02 0.  0.
        -12    1    3    3    0    0  0.27878484618E+02 -0.95932665071E+01 -0.22057639247E+02  0.36820919544E+02  0.00000000000E+00 0.  1.
         11    1    4    4    0    0 -0.70750318345E+01  0.12748295310E+02  0.19836478490E+02  0.24618305951E+02  0.51100000000E-03 0. -1.
        -11    1    4    4    0    0 -0.17667126469E+02 -0.10448568520E+02  0.53561750933E+01  0.21212933642E+02  0.51100000000E-03 0.  1.
        -12    1    4    4    0    0 -0.31363263149E+01  0.72935397168E+01 -0.31350143367E+01  0.85358408634E+01  0.00000000000E+00 0.  1.
</event>
<event>
 8    1  0.2466538E-006  0.9118800E+02  0.7816164E-02  0.1184000E+00
        -11   -1    0    0    0    0  0.00000000000E+00  0.00000000000E+00  0.45593999997E+02  0.45594000000E+02  0.51100000000E-03 0. -1.
         11   -1    0    0    0    0 -0.00000000000E+00 -0.00000000000E+00 -0.45593999997E+02  0.45594000000E+02  0.51100000000E-03 0.  1.
         23    2    1    2    0    0  0.00000000000E+00  0.00000000000E+00  0.00000000000E+00  0.91188000000E+02  0.91188000000E+02 0.  0.
    9900012    2    3    3    0    0 -0.12025132655E+02  0.29419017424E+02  0.18592974685E+02  0.54367066970E+02  0.39999960771E+02 0.  0.
         12    1    3    3    0    0  0.12025132655E+02 -0.29419017424E+02 -0.18592974685E+02  0.36820933030E+02  0.00000000000E+00 0. -1.
         11    1    4    4    0    0 -0.20907584301E+02  0.18736283658E+02  0.14023104386E+02  0.31381887507E+02  0.51100000000E-03 0. -1.
        -11    1    4    4    0    0 -0.36540671594E+01 -0.23563245445E+01  0.17111006403E+01  0.46725087295E+01  0.51100000000E-03 0.  1.
         12    1    4    4    0    0  0.12536518806E+02  0.13039058310E+02  0.28587696589E+01  0.18312670733E+02  0.00000000000E+00 0. -1.
</event>
<event>
 8    1  0.2466538E-006  0.9118800E+02  0.7816164E-02  0.1184000E+00
        -11   -1    0    0    0    0  0.00000000000E+00  0.00000000000E+00  0.45593999997E+02  0.45594000000E+02  0.51100000000E-03 0. -1.
         11   -1    0    0    0    0 -0.00000000000E+00 -0.00000000000E+00 -0.45593999997E+02  0.45594000000E+02  0.51100000000E-03 0.  1.
         23    2    1    2    0    0  0.00000000000E+00  0.00000000000E+00  0.00000000000E+00  0.91188000000E+02  0.91188000000E+02 0.  0.
    9900012    2    3    3    0    0  0.25579042235E+02  0.89467293106E+01  0.24928859025E+02  0.54367090461E+02  0.40000014323E+02 0.  0.
        -12    1    3    3    0    0 -0.25579042235E+02 -0.89467293106E+01 -0.24928859025E+02  0.36820909539E+02  0.00000000000E+00 0.  1.
         11    1    4    4    0    0  0.21415024014E+02  0.88268770678E+01  0.88684068889E+01  0.24802533203E+02  0.51100000000E-03 0.  1.
        -11    1    4    4    0    0 -0.84524763495E+01  0.45309751109E+01  0.12458649461E+02  0.15722342018E+02  0.51100000000E-03 0. -1.
        -12    1    4    4    0    0  0.12616494571E+02 -0.44111228681E+01  0.36018026749E+01  0.13842215239E+02  0.00000000000E+00 0.  1.
</event>
<event>
 8    1  0.2466538E-006  0.9118800E+02  0.7816164E-02  0.1184000E+00
        -11   -1    0    0    0    0  0.00000000000E+00  0.00000000000E+00  0.45593999997E+02  0.45594000000E+02  0.51100000000E-03 0.  1.
         11   -1    0    0    0    0 -0.00000000000E+00 -0.00000000000E+00 -0.45593999997E+02  0.45594000000E+02  0.51100000000E-03 0. -1.
         23    2    1    2    0    0 -0.71054273576E-14 -0.44408920985E-15  0.27755575616E-16  0.91188000000E+02  0.91188000000E+02 0.  0.
    9900012    2    3    3    0    0  0.36759166872E+02  0.21200444513E+01 -0.22133526639E+00  0.54367083024E+02  0.39999997370E+02 0.  0.
        -12    1    3    3    0    0 -0.36759166872E+02 -0.21200444513E+01  0.22133526639E+00  0.36820916976E+02  0.00000000000E+00 0.  1.
         11    1    4    4    0    0  0.25422493674E+02 -0.66101210566E+00  0.83351656025E+01  0.26762195491E+02  0.51100000000E-03 0. -1.
        -11    1    4    4    0    0  0.56947569687E+01 -0.34578736734E+00  0.80058574427E+01  0.98307466395E+01  0.51100000000E-03 0.  1.
        -12    1    4    4    0    0  0.56419162294E+01  0.31268439243E+01 -0.16562358312E+02  0.17774140894E+02  0.00000000000E+00 0.  1.
</event>
<event>
 8    1  0.2466538E-006  0.9118800E+02  0.7816164E-02  0.1184000E+00
        -11   -1    0    0    0    0  0.00000000000E+00  0.00000000000E+00  0.45593999997E+02  0.45594000000E+02  0.51100000000E-03 0. -1.
         11   -1    0    0    0    0 -0.00000000000E+00 -0.00000000000E+00 -0.45593999997E+02  0.45594000000E+02  0.51100000000E-03 0.  1.
         23    2    1    2    0    0 -0.35527136788E-14  0.00000000000E+00  0.00000000000E+00  0.91188000000E+02  0.91188000000E+02 0.  0.
    9900012    2    3    3    0    0  0.21010589628E+02  0.17323245856E+02  0.24783853506E+02  0.54367094007E+02  0.40000022409E+02 0.  0.
        -12    1    3    3    0    0 -0.21010589628E+02 -0.17323245856E+02 -0.24783853506E+02  0.36820905993E+02  0.00000000000E+00 0.  1.
         11    1    4    4    0    0 -0.23304381442E+01  0.21274003601E+01  0.75496901737E+00  0.32444957565E+01  0.51100000000E-03 0. -1.
        -11    1    4    4    0    0 -0.15459045144E+01  0.15788450741E+02 -0.90397385895E+00  0.15889687429E+02  0.51100000000E-03 0.  1.
         12    1    4    4    0    0  0.24886932287E+02 -0.59260524587E+00  0.24932858348E+02  0.35232910822E+02  0.00000000000E+00 0. -1.
</event>
<event>
 8    1  0.2466538E-006  0.9118800E+02  0.7816164E-02  0.1184000E+00
        -11   -1    0    0    0    0  0.00000000000E+00  0.00000000000E+00  0.45593999997E+02  0.45594000000E+02  0.51100000000E-03 0.  1.
         11   -1    0    0    0    0 -0.00000000000E+00 -0.00000000000E+00 -0.45593999997E+02  0.45594000000E+02  0.51100000000E-03 0. -1.
         23    2    1    2    0    0 -0.17763568394E-14  0.35527136788E-14  0.35527136788E-14  0.91188000000E+02  0.91188000000E+02 0.  0.
    9900012    2    3    3    0    0 -0.10268338498E+02 -0.19636265699E+02  0.29406766871E+02  0.54367086868E+02  0.40000006133E+02 0.  0.
         12    1    3    3    0    0  0.10268338498E+02  0.19636265699E+02 -0.29406766871E+02  0.36820913132E+02  0.00000000000E+00 0. -1.
         11    1    4    4    0    0 -0.12640197021E+02  0.24419284351E+01  0.95439451683E+01  0.16025744440E+02  0.51100000000E-03 0. -1.
        -11    1    4    4    0    0 -0.63611996964E+01 -0.76260339295E+00  0.12689395968E+02  0.14215034147E+02  0.51100000000E-03 0.  1.
        -12    1    4    4    0    0  0.87330582196E+01 -0.21315590741E+02  0.71734257348E+01  0.24126308281E+02  0.00000000000E+00 0.  1.
</event>
<event>
 8    1  0.2466538E-006  0.9118800E+02  0.7816164E-02  0.1184000E+00
        -11   -1    0    0    0    0  0.00000000000E+00  0.00000000000E+00  0.45593999997E+02  0.45594000000E+02  0.51100000000E-03 0. -1.
         11   -1    0    0    0    0 -0.00000000000E+00 -0.00000000000E+00 -0.45593999997E+02  0.45594000000E+02  0.51100000000E-03 0.  1.
         23    2    1    2    0    0  0.00000000000E+00  0.00000000000E+00  0.00000000000E+00  0.91188000000E+02  0.91188000000E+02 0.  0.
    9900012    2    3    3    0    0 -0.12507261245E+02  0.30858668975E+02 -0.15719116042E+02  0.54367086868E+02  0.40000006132E+02 0.  0.
         12    1    3    3    0    0  0.12507261245E+02 -0.30858668975E+02  0.15719116042E+02  0.36820913132E+02  0.00000000000E+00 0. -1.
         11    1    4    4    0    0  0.25925162714E+00  0.51574565766E+01 -0.11112913558E+02  0.12254118400E+02  0.51100000000E-03 0. -1.
        -11    1    4    4    0    0 -0.16032599526E+02  0.28791937101E+02 -0.10602091615E+02  0.34618264492E+02  0.51100000000E-03 0.  1.
        -12    1    4    4    0    0  0.32660866536E+01 -0.30907247026E+01  0.59958891308E+01  0.74947039758E+01  0.00000000000E+00 0.  1.
</event>
<event>
 8    1  0.2466538E-006  0.9118800E+02  0.7816164E-02  0.1184000E+00
        -11   -1    0    0    0    0  0.00000000000E+00  0.00000000000E+00  0.45593999997E+02  0.45594000000E+02  0.51100000000E-03 0.  1.
         11   -1    0    0    0    0 -0.00000000000E+00 -0.00000000000E+00 -0.45593999997E+02  0.45594000000E+02  0.51100000000E-03 0. -1.
         23    2    1    2    0    0  0.00000000000E+00 -0.35527136788E-14  0.17763568394E-14  0.91188000000E+02  0.91188000000E+02 0.  0.
    9900012    2    3    3    0    0 -0.19479995872E+02 -0.29584578838E+02 -0.10053257882E+02  0.54367006827E+02  0.39999823662E+02 0.  0.
         12    1    3    3    0    0  0.19479995872E+02  0.29584578838E+02  0.10053257882E+02  0.36820993173E+02  0.00000000000E+00 0. -1.
         11    1    4    4    0    0 -0.22004368165E+01  0.55714963093E+01 -0.98514481661E+01  0.11529723524E+02  0.51100000000E-03 0. -1.
        -11    1    4    4    0    0  0.12084232267E+01  0.13258317585E+01 -0.72494463446E+00  0.19348543952E+01  0.51100000000E-03 0.  1.
        -12    1    4    4    0    0 -0.18487982283E+02 -0.36481906906E+02  0.52313491899E+00  0.40902428908E+02  0.00000000000E+00 0.  1.
</event>
<event>
 8    1  0.2466538E-006  0.9118800E+02  0.7816164E-02  0.1184000E+00
        -11   -1    0    0    0    0  0.00000000000E+00  0.00000000000E+00  0.45593999997E+02  0.45594000000E+02  0.51100000000E-03 0.  1.
         11   -1    0    0    0    0 -0.00000000000E+00 -0.00000000000E+00 -0.45593999997E+02  0.45594000000E+02  0.51100000000E-03 0. -1.
         23    2    1    2    0    0  0.26645352591E-14  0.88817841970E-15  0.00000000000E+00  0.91188000000E+02  0.91188000000E+02 0.  0.
    9900012    2    3    3    0    0 -0.44575411619E+01 -0.78630364971E+01  0.35694299134E+02  0.54367081939E+02  0.39999994897E+02 0.  0.
         12    1    3    3    0    0  0.44575411619E+01  0.78630364971E+01 -0.35694299134E+02  0.36820918061E+02  0.00000000000E+00 0. -1.
         11    1    4    4    0    0  0.19780634220E+01  0.28791531361E+01 -0.34733394311E+01  0.49260881790E+01  0.51100000000E-03 0. -1.
        -11    1    4    4    0    0  0.43895260652E+01 -0.15723932529E+02  0.13656826968E+02  0.21284241033E+02  0.51100000000E-03 0.  1.
        -12    1    4    4    0    0 -0.10825130649E+02  0.49817428954E+01  0.25510811597E+02  0.28156752728E+02  0.00000000000E+00 0.  1.
</event>
<event>
 8    1  0.2466538E-006  0.9118800E+02  0.7816164E-02  0.1184000E+00
        -11   -1    0    0    0    0  0.00000000000E+00  0.00000000000E+00  0.45593999997E+02  0.45594000000E+02  0.51100000000E-03 0.  1.
         11   -1    0    0    0    0 -0.00000000000E+00 -0.00000000000E+00 -0.45593999997E+02  0.45594000000E+02  0.51100000000E-03 0. -1.
         23    2    1    2    0    0  0.88817841970E-15  0.17763568394E-14 -0.71054273576E-14  0.91188000000E+02  0.91188000000E+02 0.  0.
    9900012    2    3    3    0    0  0.44200334432E+01 -0.12219061085E+02  0.34451967828E+02  0.54367078818E+02  0.39999987782E+02 0.  0.
         12    1    3    3    0    0 -0.44200334432E+01  0.12219061085E+02 -0.34451967828E+02  0.36820921182E+02  0.00000000000E+00 0. -1.
         11    1    4    4    0    0  0.87245625160E+01 -0.33309892909E+00 -0.42984252413E+01  0.97316702476E+01  0.51100000000E-03 0. -1.
        -11    1    4    4    0    0 -0.40171513476E+01 -0.10993564976E+02  0.40765694261E+02  0.42412708056E+02  0.51100000000E-03 0.  1.
         12    1    4    4    0    0 -0.28737772517E+00 -0.89239717950E+00 -0.20153011915E+01  0.22227005141E+01  0.00000000000E+00 0. -1.
</event>
<event>
 8    1  0.2466538E-006  0.9118800E+02  0.7816164E-02  0.1184000E+00
        -11   -1    0    0    0    0  0.00000000000E+00  0.00000000000E+00  0.45593999997E+02  0.45594000000E+02  0.51100000000E-03 0. -1.
         11   -1    0    0    0    0 -0.00000000000E+00 -0.00000000000E+00 -0.45593999997E+02  0.45594000000E+02  0.51100000000E-03 0.  1.
         23    2    1    2    0    0  0.00000000000E+00  0.00000000000E+00 -0.35527136788E-14  0.91188000000E+02  0.91188000000E+02 0.  0.
    9900012    2    3    3    0    0  0.30402551217E+02  0.24555962814E+00  0.20770369749E+02  0.54367032066E+02  0.39999881202E+02 0.  0.
         12    1    3    3    0    0 -0.30402551217E+02 -0.24555962814E+00 -0.20770369749E+02  0.36820967934E+02  0.00000000000E+00 0. -1.
         11    1    4    4    0    0  0.15432676929E+01 -0.95274428714E+00  0.12489178462E+02  0.12620181289E+02  0.51100000000E-03 0. -1.
        -11    1    4    4    0    0  0.26170236988E+02  0.59773888607E+00  0.17919155635E+02  0.31722779429E+02  0.51100000000E-03 0.  1.
         12    1    4    4    0    0  0.26890465364E+01  0.60056502921E+00 -0.96379643477E+01  0.10024071348E+02  0.00000000000E+00 0. -1.
</event>
<event>
 8    1  0.2466538E-006  0.9118800E+02  0.7816164E-02  0.1184000E+00
        -11   -1    0    0    0    0  0.00000000000E+00  0.00000000000E+00  0.45593999997E+02  0.45594000000E+02  0.51100000000E-03 0. -1.
         11   -1    0    0    0    0 -0.00000000000E+00 -0.00000000000E+00 -0.45593999997E+02  0.45594000000E+02  0.51100000000E-03 0.  1.
         23    2    1    2    0    0  0.17763568394E-14  0.11102230246E-14  0.00000000000E+00  0.91188000000E+02  0.91188000000E+02 0.  0.
    9900012    2    3    3    0    0 -0.13177051673E+02  0.95215311040E+00  0.34369146837E+02  0.54367088270E+02  0.40000009328E+02 0.  0.
        -12    1    3    3    0    0  0.13177051673E+02 -0.95215311040E+00 -0.34369146837E+02  0.36820911730E+02  0.00000000000E+00 0.  1.
         11    1    4    4    0    0  0.52570922569E+01 -0.88341982359E+01  0.14869268912E+02  0.18076925505E+02  0.51100000000E-03 0. -1.
        -11    1    4    4    0    0 -0.97669886483E+01  0.21386822026E+01  0.22263489049E+02  0.24405552109E+02  0.51100000000E-03 0.  1.
        -12    1    4    4    0    0 -0.86671552813E+01  0.76476691437E+01 -0.27636111241E+01  0.11884610656E+02  0.00000000000E+00 0.  1.
</event>
<event>
 8    1  0.2466538E-006  0.9118800E+02  0.7816164E-02  0.1184000E+00
        -11   -1    0    0    0    0  0.00000000000E+00  0.00000000000E+00  0.45593999997E+02  0.45594000000E+02  0.51100000000E-03 0.  1.
         11   -1    0    0    0    0 -0.00000000000E+00 -0.00000000000E+00 -0.45593999997E+02  0.45594000000E+02  0.51100000000E-03 0. -1.
         23    2    1    2    0    0  0.00000000000E+00 -0.35527136788E-14  0.88817841970E-15  0.91188000000E+02  0.91188000000E+02 0.  0.
    9900012    2    3    3    0    0 -0.19426287234E+02 -0.31201484790E+02  0.22050067252E+01  0.54367145265E+02  0.40000139260E+02 0.  0.
        -12    1    3    3    0    0  0.19426287234E+02  0.31201484790E+02 -0.22050067252E+01  0.36820854735E+02  0.00000000000E+00 0.  1.
         11    1    4    4    0    0  0.36971873476E+01 -0.42566219978E+00 -0.67689186012E+01  0.77245480050E+01  0.51100000000E-03 0.  1.
        -11    1    4    4    0    0 -0.46566980757E+01 -0.10579635303E+02  0.14683253094E+02  0.18687199945E+02  0.51100000000E-03 0. -1.
         12    1    4    4    0    0 -0.18466776506E+02 -0.20196187287E+02 -0.57093277675E+01  0.27955397315E+02  0.00000000000E+00 0. -1.
</event>
<event>
 8    1  0.2466538E-006  0.9118800E+02  0.7816164E-02  0.1184000E+00
        -11   -1    0    0    0    0  0.00000000000E+00  0.00000000000E+00  0.45593999997E+02  0.45594000000E+02  0.51100000000E-03 0.  1.
         11   -1    0    0    0    0 -0.00000000000E+00 -0.00000000000E+00 -0.45593999997E+02  0.45594000000E+02  0.51100000000E-03 0. -1.
         23    2    1    2    0    0  0.00000000000E+00  0.00000000000E+00  0.35527136788E-14  0.91188000000E+02  0.91188000000E+02 0.  0.
    9900012    2    3    3    0    0 -0.27441559096E+02  0.13301201930E+02  0.20635181307E+02  0.54367192758E+02  0.40000247529E+02 0.  0.
         12    1    3    3    0    0  0.27441559096E+02 -0.13301201930E+02 -0.20635181307E+02  0.36820807242E+02  0.00000000000E+00 0. -1.
         11    1    4    4    0    0 -0.10868793644E+02  0.70280556888E+01 -0.16462548484E+01  0.13047390441E+02  0.51100000000E-03 0. -1.
        -11    1    4    4    0    0 -0.12235726167E+02  0.18082629584E+02  0.11121927037E+02  0.24502892661E+02  0.51100000000E-03 0.  1.
         12    1    4    4    0    0 -0.43370392848E+01 -0.11809483342E+02  0.11159509119E+02  0.16816909655E+02  0.00000000000E+00 0. -1.
</event>
<event>
 8    1  0.2466538E-006  0.9118800E+02  0.7816164E-02  0.1184000E+00
        -11   -1    0    0    0    0  0.00000000000E+00  0.00000000000E+00  0.45593999997E+02  0.45594000000E+02  0.51100000000E-03 0.  1.
         11   -1    0    0    0    0 -0.00000000000E+00 -0.00000000000E+00 -0.45593999997E+02  0.45594000000E+02  0.51100000000E-03 0. -1.
         23    2    1    2    0    0  0.88817841970E-15 -0.44408920985E-15  0.00000000000E+00  0.91188000000E+02  0.91188000000E+02 0.  0.
    9900012    2    3    3    0    0  0.77529761331E+01  0.10313247387E+01  0.35980670634E+02  0.54367069418E+02  0.39999966353E+02 0.  0.
         12    1    3    3    0    0 -0.77529761331E+01 -0.10313247387E+01 -0.35980670634E+02  0.36820930582E+02  0.00000000000E+00 0. -1.
         11    1    4    4    0    0 -0.58278190472E+01 -0.69025604949E+01  0.33402508384E+02  0.34602548791E+02  0.51100000000E-03 0. -1.
        -11    1    4    4    0    0  0.98958689127E+01  0.53606472219E+01  0.71657972734E+01  0.13342166653E+02  0.51100000000E-03 0.  1.
         12    1    4    4    0    0  0.36849262676E+01  0.25732380116E+01 -0.45876350233E+01  0.64223539742E+01  0.00000000000E+00 0. -1.
</event>
<event>
 8    1  0.2466538E-006  0.9118800E+02  0.7816164E-02  0.1184000E+00
        -11   -1    0    0    0    0  0.00000000000E+00  0.00000000000E+00  0.45593999997E+02  0.45594000000E+02  0.51100000000E-03 0. -1.
         11   -1    0    0    0    0 -0.00000000000E+00 -0.00000000000E+00 -0.45593999997E+02  0.45594000000E+02  0.51100000000E-03 0.  1.
         23    2    1    2    0    0  0.71054273576E-14  0.00000000000E+00  0.00000000000E+00  0.91188000000E+02  0.91188000000E+02 0.  0.
    9900012    2    3    3    0    0  0.33837291705E+02 -0.10471182070E+02  0.10058300905E+02  0.54367117597E+02  0.40000076185E+02 0.  0.
        -12    1    3    3    0    0 -0.33837291705E+02  0.10471182070E+02 -0.10058300905E+02  0.36820882403E+02  0.00000000000E+00 0.  1.
         11    1    4    4    0    0  0.37656278428E+02 -0.48212286982E+01 -0.10220389890E+01  0.37977415857E+02  0.51100000000E-03 0. -1.
        -11    1    4    4    0    0  0.81552758860E+00 -0.50176346886E+01  0.10513551733E+02  0.11678035512E+02  0.51100000000E-03 0.  1.
         12    1    4    4    0    0 -0.46345143117E+01 -0.63231868329E+00  0.56678816086E+00  0.47116662277E+01  0.00000000000E+00 0. -1.
</event>
<event>
 8    1  0.2466538E-006  0.9118800E+02  0.7816164E-02  0.1184000E+00
        -11   -1    0    0    0    0  0.00000000000E+00  0.00000000000E+00  0.45593999997E+02  0.45594000000E+02  0.51100000000E-03 0. -1.
         11   -1    0    0    0    0 -0.00000000000E+00 -0.00000000000E+00 -0.45593999997E+02  0.45594000000E+02  0.51100000000E-03 0.  1.
         23    2    1    2    0    0  0.71054273576E-14  0.17763568394E-14  0.17763568394E-14  0.91188000000E+02  0.91188000000E+02 0.  0.
    9900012    2    3    3    0    0 -0.33545262883E+02 -0.10703524247E+02 -0.10767091424E+02  0.54367077266E+02  0.39999984244E+02 0.  0.
        -12    1    3    3    0    0  0.33545262883E+02  0.10703524247E+02  0.10767091424E+02  0.36820922734E+02  0.00000000000E+00 0.  1.
         11    1    4    4    0    0 -0.18459151503E+02  0.57965569018E+01  0.14819726873E+01  0.19404550741E+02  0.51100000000E-03 0. -1.
        -11    1    4    4    0    0 -0.11991814464E+02  0.34607191666E+01 -0.57634680536E+01  0.13747645455E+02  0.51100000000E-03 0.  1.
        -12    1    4    4    0    0 -0.30942969160E+01 -0.19960800315E+02 -0.64855960576E+01  0.21214881071E+02  0.00000000000E+00 0.  1.
</event>
<event>
 8    1  0.2466538E-006  0.9118800E+02  0.7816164E-02  0.1184000E+00
        -11   -1    0    0    0    0  0.00000000000E+00  0.00000000000E+00  0.45593999997E+02  0.45594000000E+02  0.51100000000E-03 0. -1.
         11   -1    0    0    0    0 -0.00000000000E+00 -0.00000000000E+00 -0.45593999997E+02  0.45594000000E+02  0.51100000000E-03 0.  1.
         23    2    1    2    0    0  0.00000000000E+00  0.00000000000E+00 -0.35527136788E-14  0.91188000000E+02  0.91188000000E+02 0.  0.
    9900012    2    3    3    0    0  0.18737128292E+02 -0.26107366212E+01 -0.31589312897E+02  0.54367073726E+02  0.39999976174E+02 0.  0.
         12    1    3    3    0    0 -0.18737128292E+02  0.26107366212E+01  0.31589312897E+02  0.36820926274E+02  0.00000000000E+00 0. -1.
         11    1    4    4    0    0 -0.40267646182E+01 -0.25075243566E+01 -0.32315972614E+00  0.47546760309E+01  0.51100000000E-03 0. -1.
        -11    1    4    4    0    0  0.91115917300E+01 -0.59452598186E+01 -0.32919642741E+02  0.34670882548E+02  0.51100000000E-03 0.  1.
        -12    1    4    4    0    0  0.13652301180E+02  0.58420475541E+01  0.16534895705E+01  0.14941515148E+02  0.00000000000E+00 0.  1.
</event>
<event>
 8    1  0.2466538E-006  0.9118800E+02  0.7816164E-02  0.1184000E+00
        -11   -1    0    0    0    0  0.00000000000E+00  0.00000000000E+00  0.45593999997E+02  0.45594000000E+02  0.51100000000E-03 0.  1.
         11   -1    0    0    0    0 -0.00000000000E+00 -0.00000000000E+00 -0.45593999997E+02  0.45594000000E+02  0.51100000000E-03 0. -1.
         23    2    1    2    0    0  0.00000000000E+00  0.17763568394E-14  0.44408920985E-15  0.91188000000E+02  0.91188000000E+02 0.  0.
    9900012    2    3    3    0    0 -0.34417635583E+02  0.12692749446E+02  0.31781708402E+01  0.54367077992E+02  0.39999985898E+02 0.  0.
        -12    1    3    3    0    0  0.34417635583E+02 -0.12692749446E+02 -0.31781708402E+01  0.36820922008E+02  0.00000000000E+00 0.  1.
         11    1    4    4    0    0 -0.26345119680E+01  0.97845997457E+01 -0.12256705438E+02  0.15903014618E+02  0.51100000000E-03 0. -1.
        -11    1    4    4    0    0 -0.27023050930E+02 -0.20537042371E+01  0.78252644173E+01  0.28208114898E+02  0.51100000000E-03 0.  1.
         12    1    4    4    0    0 -0.47600726853E+01  0.49618539373E+01  0.76096118604E+01  0.10255948475E+02  0.00000000000E+00 0. -1.
</event>
<event>
 8    1  0.2466538E-006  0.9118800E+02  0.7816164E-02  0.1184000E+00
        -11   -1    0    0    0    0  0.00000000000E+00  0.00000000000E+00  0.45593999997E+02  0.45594000000E+02  0.51100000000E-03 0.  1.
         11   -1    0    0    0    0 -0.00000000000E+00 -0.00000000000E+00 -0.45593999997E+02  0.45594000000E+02  0.51100000000E-03 0. -1.
         23    2    1    2    0    0  0.13322676296E-14 -0.35527136788E-14  0.00000000000E+00  0.91188000000E+02  0.91188000000E+02 0.  0.
    9900012    2    3    3    0    0  0.33214133239E+01 -0.30407781904E+02  0.20496705203E+02  0.54367083241E+02  0.39999997864E+02 0.  0.
         12    1    3    3    0    0 -0.33214133239E+01  0.30407781904E+02 -0.20496705203E+02  0.36820916759E+02  0.00000000000E+00 0. -1.
         11    1    4    4    0    0 -0.10784363975E+02 -0.18108669549E+02  0.20511549941E+02  0.29410034009E+02  0.51100000000E-03 0. -1.
        -11    1    4    4    0    0  0.18285229893E+01  0.24693786303E+01  0.42884781828E+01  0.52756395373E+01  0.51100000000E-03 0.  1.
        -12    1    4    4    0    0  0.12277254310E+02 -0.14768490986E+02 -0.43033229211E+01  0.19681409694E+02  0.00000000000E+00 0.  1.
</event>
<event>
 8    1  0.2466538E-006  0.9118800E+02  0.7816164E-02  0.1184000E+00
        -11   -1    0    0    0    0  0.00000000000E+00  0.00000000000E+00  0.45593999997E+02  0.45594000000E+02  0.51100000000E-03 0.  1.
         11   -1    0    0    0    0 -0.00000000000E+00 -0.00000000000E+00 -0.45593999997E+02  0.45594000000E+02  0.51100000000E-03 0. -1.
         23    2    1    2    0    0  0.00000000000E+00  0.35527136788E-14  0.00000000000E+00  0.91188000000E+02  0.91188000000E+02 0.  0.
    9900012    2    3    3    0    0 -0.23360362539E+02  0.24195771261E+02  0.14987887682E+02  0.54367100201E+02  0.40000036527E+02 0.  0.
         12    1    3    3    0    0  0.23360362539E+02 -0.24195771261E+02 -0.14987887682E+02  0.36820899799E+02  0.00000000000E+00 0. -1.
         11    1    4    4    0    0  0.44283142609E+01 -0.97674093422E+00  0.42558778595E+01  0.62190422625E+01  0.51100000000E-03 0. -1.
        -11    1    4    4    0    0 -0.22851909971E+02  0.31001907835E+02  0.55369408062E+01  0.38909970348E+02  0.51100000000E-03 0.  1.
        -12    1    4    4    0    0 -0.49367668280E+01 -0.58293956393E+01  0.51950690162E+01  0.92380875898E+01  0.00000000000E+00 0.  1.
</event>
<event>
 8    1  0.2466538E-006  0.9118800E+02  0.7816164E-02  0.1184000E+00
        -11   -1    0    0    0    0  0.00000000000E+00  0.00000000000E+00  0.45593999997E+02  0.45594000000E+02  0.51100000000E-03 0. -1.
         11   -1    0    0    0    0 -0.00000000000E+00 -0.00000000000E+00 -0.45593999997E+02  0.45594000000E+02  0.51100000000E-03 0.  1.
         23    2    1    2    0    0  0.17763568394E-14  0.00000000000E+00 -0.71054273576E-14  0.91188000000E+02  0.91188000000E+02 0.  0.
    9900012    2    3    3    0    0  0.10720214896E+02 -0.46796040990E+01  0.34913579573E+02  0.54367085555E+02  0.40000003140E+02 0.  0.
        -12    1    3    3    0    0 -0.10720214896E+02  0.46796040990E+01 -0.34913579573E+02  0.36820914445E+02  0.00000000000E+00 0.  1.
         11    1    4    4    0    0  0.10079743770E+02 -0.10014493857E+02  0.72977071343E+01  0.15973348158E+02  0.51100000000E-03 0. -1.
        -11    1    4    4    0    0  0.10949661831E+01  0.37330971215E+01 -0.46625361177E+01  0.60724137187E+01  0.51100000000E-03 0.  1.
        -12    1    4    4    0    0 -0.45449505690E+00  0.16017926367E+01  0.32278408557E+02  0.32321323679E+02  0.00000000000E+00 0.  1.
</event>
<event>
 8    1  0.2466538E-006  0.9118800E+02  0.7816164E-02  0.1184000E+00
        -11   -1    0    0    0    0  0.00000000000E+00  0.00000000000E+00  0.45593999997E+02  0.45594000000E+02  0.51100000000E-03 0.  1.
         11   -1    0    0    0    0 -0.00000000000E+00 -0.00000000000E+00 -0.45593999997E+02  0.45594000000E+02  0.51100000000E-03 0. -1.
         23    2    1    2    0    0  0.00000000000E+00  0.00000000000E+00 -0.35527136788E-14  0.91188000000E+02  0.91188000000E+02 0.  0.
    9900012    2    3    3    0    0  0.20160095980E+02 -0.23057976794E+02  0.20437234085E+02  0.54367077948E+02  0.39999985798E+02 0.  0.
         12    1    3    3    0    0 -0.20160095980E+02  0.23057976794E+02 -0.20437234085E+02  0.36820922052E+02  0.00000000000E+00 0. -1.
         11    1    4    4    0    0  0.12726192720E+02 -0.10736608121E+02 -0.21333671358E+01  0.16786363236E+02  0.51100000000E-03 0. -1.
        -11    1    4    4    0    0 -0.38668161518E+01 -0.84305787680E+01 -0.26714547363E+01  0.96521291011E+01  0.51100000000E-03 0.  1.
        -12    1    4    4    0    0  0.11300719412E+02 -0.38907899048E+01  0.25242055957E+02  0.27928585611E+02  0.00000000000E+00 0.  1.
</event>
<event>
 8    1  0.2466538E-006  0.9118800E+02  0.7816164E-02  0.1184000E+00
        -11   -1    0    0    0    0  0.00000000000E+00  0.00000000000E+00  0.45593999997E+02  0.45594000000E+02  0.51100000000E-03 0.  1.
         11   -1    0    0    0    0 -0.00000000000E+00 -0.00000000000E+00 -0.45593999997E+02  0.45594000000E+02  0.51100000000E-03 0. -1.
         23    2    1    2    0    0 -0.22204460493E-15  0.00000000000E+00 -0.71054273576E-14  0.91188000000E+02  0.91188000000E+02 0.  0.
    9900012    2    3    3    0    0  0.18141413989E+01  0.19465629444E+02  0.31202210027E+02  0.54367085437E+02  0.40000002871E+02 0.  0.
         12    1    3    3    0    0 -0.18141413989E+01 -0.19465629444E+02 -0.31202210027E+02  0.36820914563E+02  0.00000000000E+00 0. -1.
         11    1    4    4    0    0 -0.11780276438E+01  0.17014816146E+02  0.58252069550E+01  0.18022895270E+02  0.51100000000E-03 0. -1.
        -11    1    4    4    0    0 -0.49808698514E+01  0.21889425016E+01  0.27545265683E+02  0.28077432140E+02  0.51100000000E-03 0.  1.
        -12    1    4    4    0    0  0.79730388940E+01  0.26187079686E+00 -0.21682626110E+01  0.82667580266E+01  0.00000000000E+00 0.  1.
</event>
<event>
 8    1  0.2466538E-006  0.9118800E+02  0.7816164E-02  0.1184000E+00
        -11   -1    0    0    0    0  0.00000000000E+00  0.00000000000E+00  0.45593999997E+02  0.45594000000E+02  0.51100000000E-03 0. -1.
         11   -1    0    0    0    0 -0.00000000000E+00 -0.00000000000E+00 -0.45593999997E+02  0.45594000000E+02  0.51100000000E-03 0.  1.
         23    2    1    2    0    0 -0.35527136788E-14  0.35527136788E-14  0.17763568394E-14  0.91188000000E+02  0.91188000000E+02 0.  0.
    9900012    2    3    3    0    0 -0.16700161524E+02  0.30316001456E+02  0.12563103965E+02  0.54366988058E+02  0.39999780874E+02 0.  0.
        -12    1    3    3    0    0  0.16700161524E+02 -0.30316001456E+02 -0.12563103965E+02  0.36821011942E+02  0.00000000000E+00 0.  1.
         11    1    4    4    0    0 -0.14039203628E+01 -0.33112737232E+01  0.18331419666E+00  0.36012678893E+01  0.51100000000E-03 0. -1.
        -11    1    4    4    0    0 -0.44952056804E+01 -0.16500735871E+01 -0.74684606658E+01  0.88717259837E+01  0.51100000000E-03 0.  1.
         12    1    4    4    0    0 -0.10801035481E+02  0.35277348767E+02  0.19848250434E+02  0.41893994185E+02  0.00000000000E+00 0. -1.
</event>
<event>
 8    1  0.2466538E-006  0.9118800E+02  0.7816164E-02  0.1184000E+00
        -11   -1    0    0    0    0  0.00000000000E+00  0.00000000000E+00  0.45593999997E+02  0.45594000000E+02  0.51100000000E-03 0. -1.
         11   -1    0    0    0    0 -0.00000000000E+00 -0.00000000000E+00 -0.45593999997E+02  0.45594000000E+02  0.51100000000E-03 0.  1.
         23    2    1    2    0    0  0.88817841970E-15  0.00000000000E+00  0.00000000000E+00  0.91188000000E+02  0.91188000000E+02 0.  0.
    9900012    2    3    3    0    0 -0.24041955221E+01  0.35762465753E+02  0.84288714030E+01  0.54367082222E+02  0.39999995542E+02 0.  0.
         12    1    3    3    0    0  0.24041955221E+01 -0.35762465753E+02 -0.84288714030E+01  0.36820917778E+02  0.00000000000E+00 0. -1.
         11    1    4    4    0    0 -0.10716469878E+02  0.11576230793E+02  0.35084610951E+01  0.16160480981E+02  0.51100000000E-03 0. -1.
        -11    1    4    4    0    0  0.45375023006E+01  0.28253290941E+02 -0.27415847235E+01  0.28746367826E+02  0.51100000000E-03 0.  1.
         12    1    4    4    0    0  0.37747720549E+01 -0.40670559809E+01  0.76619950315E+01  0.94602334158E+01  0.00000000000E+00 0. -1.
</event>
<event>
 8    1  0.2466538E-006  0.9118800E+02  0.7816164E-02  0.1184000E+00
        -11   -1    0    0    0    0  0.00000000000E+00  0.00000000000E+00  0.45593999997E+02  0.45594000000E+02  0.51100000000E-03 0. -1.
         11   -1    0    0    0    0 -0.00000000000E+00 -0.00000000000E+00 -0.45593999997E+02  0.45594000000E+02  0.51100000000E-03 0.  1.
         23    2    1    2    0    0  0.35527136788E-14  0.00000000000E+00 -0.44408920985E-15  0.91188000000E+02  0.91188000000E+02 0.  0.
    9900012    2    3    3    0    0 -0.31576735739E+02 -0.18539629202E+02 -0.38693217769E+01  0.54367085537E+02  0.40000003099E+02 0.  0.
         12    1    3    3    0    0  0.31576735739E+02  0.18539629202E+02  0.38693217769E+01  0.36820914463E+02  0.00000000000E+00 0. -1.
         11    1    4    4    0    0 -0.38272883900E+01  0.24308262657E+01 -0.42922987107E+01  0.62434670846E+01  0.51100000000E-03 0. -1.
        -11    1    4    4    0    0 -0.24521957736E+02 -0.22647805429E+02  0.12397960396E+02  0.35608410863E+02  0.51100000000E-03 0.  1.
        -12    1    4    4    0    0 -0.32274896132E+01  0.16773499612E+01 -0.11974983462E+02  0.12515207590E+02  0.00000000000E+00 0.  1.
</event>
<event>
 8    1  0.2466538E-006  0.9118800E+02  0.7816164E-02  0.1184000E+00
        -11   -1    0    0    0    0  0.00000000000E+00  0.00000000000E+00  0.45593999997E+02  0.45594000000E+02  0.51100000000E-03 0. -1.
         11   -1    0    0    0    0 -0.00000000000E+00 -0.00000000000E+00 -0.45593999997E+02  0.45594000000E+02  0.51100000000E-03 0.  1.
         23    2    1    2    0    0  0.71054273576E-14  0.00000000000E+00 -0.17763568394E-14  0.91188000000E+02  0.91188000000E+02 0.  0.
    9900012    2    3    3    0    0 -0.30814757556E+02 -0.12416144898E+02  0.15876683684E+02  0.54367095310E+02  0.40000025379E+02 0.  0.
        -12    1    3    3    0    0  0.30814757556E+02  0.12416144898E+02 -0.15876683684E+02  0.36820904690E+02  0.00000000000E+00 0.  1.
         11    1    4    4    0    0 -0.17879175434E+02 -0.14146032090E+02 -0.78210703431E+01  0.24102785724E+02  0.51100000000E-03 0.  1.
        -11    1    4    4    0    0 -0.15674845061E+01 -0.25695564153E+01  0.15049396867E+02  0.15347441942E+02  0.51100000000E-03 0. -1.
         12    1    4    4    0    0 -0.11368097616E+02  0.42994436075E+01  0.86483571597E+01  0.14916867644E+02  0.00000000000E+00 0. -1.
</event>
<event>
 8    1  0.2466538E-006  0.9118800E+02  0.7816164E-02  0.1184000E+00
        -11   -1    0    0    0    0  0.00000000000E+00  0.00000000000E+00  0.45593999997E+02  0.45594000000E+02  0.51100000000E-03 0.  1.
         11   -1    0    0    0    0 -0.00000000000E+00 -0.00000000000E+00 -0.45593999997E+02  0.45594000000E+02  0.51100000000E-03 0. -1.
         23    2    1    2    0    0  0.00000000000E+00  0.00000000000E+00  0.35527136788E-14  0.91188000000E+02  0.91188000000E+02 0.  0.
    9900012    2    3    3    0    0  0.16358525066E+02 -0.20758324969E+02 -0.25637167371E+02  0.54367166921E+02  0.40000188628E+02 0.  0.
        -12    1    3    3    0    0 -0.16358525066E+02  0.20758324969E+02  0.25637167371E+02  0.36820833079E+02  0.00000000000E+00 0.  1.
         11    1    4    4    0    0 -0.81066256078E+01 -0.22864688644E+01  0.11785168383E+00  0.84237288592E+01  0.51100000000E-03 0. -1.
        -11    1    4    4    0    0 -0.48849722349E+00 -0.73864301489E+00  0.34935096119E+01  0.36040023183E+01  0.51100000000E-03 0.  1.
         12    1    4    4    0    0  0.24953647898E+02 -0.17733213090E+02 -0.29248528667E+02  0.42339435743E+02  0.00000000000E+00 0. -1.
</event>
<event>
 8    1  0.2466538E-006  0.9118800E+02  0.7816164E-02  0.1184000E+00
        -11   -1    0    0    0    0  0.00000000000E+00  0.00000000000E+00  0.45593999997E+02  0.45594000000E+02  0.51100000000E-03 0. -1.
         11   -1    0    0    0    0 -0.00000000000E+00 -0.00000000000E+00 -0.45593999997E+02  0.45594000000E+02  0.51100000000E-03 0.  1.
         23    2    1    2    0    0  0.00000000000E+00 -0.88817841970E-15  0.00000000000E+00  0.91188000000E+02  0.91188000000E+02 0.  0.
    9900012    2    3    3    0    0 -0.27731527529E+02  0.61601513611E+01 -0.23426313758E+02  0.54367119237E+02  0.40000079924E+02 0.  0.
         12    1    3    3    0    0  0.27731527529E+02 -0.61601513611E+01  0.23426313758E+02  0.36820880763E+02  0.00000000000E+00 0. -1.
         11    1    4    4    0    0 -0.11837220815E+02 -0.16395402699E+02 -0.13496777712E+02  0.24312384399E+02  0.51100000000E-03 0. -1.
        -11    1    4    4    0    0 -0.14179788350E+02  0.15153236382E+02 -0.68214659645E+01  0.21845351191E+02  0.51100000000E-03 0.  1.
         12    1    4    4    0    0 -0.17145183641E+01  0.74023176778E+01 -0.31080700808E+01  0.82093836463E+01  0.00000000000E+00 0. -1.
</event>
<event>
 8    1  0.2466538E-006  0.9118800E+02  0.7816164E-02  0.1184000E+00
        -11   -1    0    0    0    0  0.00000000000E+00  0.00000000000E+00  0.45593999997E+02  0.45594000000E+02  0.51100000000E-03 0. -1.
         11   -1    0    0    0    0 -0.00000000000E+00 -0.00000000000E+00 -0.45593999997E+02  0.45594000000E+02  0.51100000000E-03 0.  1.
         23    2    1    2    0    0  0.00000000000E+00  0.00000000000E+00  0.17763568394E-14  0.91188000000E+02  0.91188000000E+02 0.  0.
    9900012    2    3    3    0    0  0.34821165487E+02 -0.69937763148E+01  0.97136128798E+01  0.54367071873E+02  0.39999971948E+02 0.  0.
        -12    1    3    3    0    0 -0.34821165487E+02  0.69937763148E+01 -0.97136128798E+01  0.36820928127E+02  0.00000000000E+00 0.  1.
         11    1    4    4    0    0  0.88286710380E+01 -0.11241743278E+02 -0.20448101410E+01  0.14439649338E+02  0.51100000000E-03 0. -1.
        -11    1    4    4    0    0  0.99170888674E+01 -0.11032028749E+02  0.20844023826E-01  0.14834242301E+02  0.51100000000E-03 0.  1.
         12    1    4    4    0    0  0.16075405581E+02  0.15279995711E+02  0.11737578997E+02  0.25093180234E+02  0.00000000000E+00 0. -1.
</event>
<event>
 8    1  0.2466538E-006  0.9118800E+02  0.7816164E-02  0.1184000E+00
        -11   -1    0    0    0    0  0.00000000000E+00  0.00000000000E+00  0.45593999997E+02  0.45594000000E+02  0.51100000000E-03 0.  1.
         11   -1    0    0    0    0 -0.00000000000E+00 -0.00000000000E+00 -0.45593999997E+02  0.45594000000E+02  0.51100000000E-03 0. -1.
         23    2    1    2    0    0  0.00000000000E+00  0.00000000000E+00  0.00000000000E+00  0.91188000000E+02  0.91188000000E+02 0.  0.
    9900012    2    3    3    0    0  0.24937980742E+02  0.23684595360E+02 -0.13149820352E+02  0.54367072307E+02  0.39999972939E+02 0.  0.
        -12    1    3    3    0    0 -0.24937980742E+02 -0.23684595360E+02  0.13149820352E+02  0.36820927693E+02  0.00000000000E+00 0.  1.
         11    1    4    4    0    0  0.28095228782E+02  0.25853660284E+02 -0.11303653138E+02  0.39818666539E+02  0.51100000000E-03 0. -1.
        -11    1    4    4    0    0  0.11865227308E+01 -0.64737680354E+01 -0.44044713752E+01  0.79193987855E+01  0.51100000000E-03 0.  1.
         12    1    4    4    0    0 -0.43437707714E+01  0.43047031116E+01  0.25583041617E+01  0.66290069828E+01  0.00000000000E+00 0. -1.
</event>
<event>
 8    1  0.2466538E-006  0.9118800E+02  0.7816164E-02  0.1184000E+00
        -11   -1    0    0    0    0  0.00000000000E+00  0.00000000000E+00  0.45593999997E+02  0.45594000000E+02  0.51100000000E-03 0.  1.
         11   -1    0    0    0    0 -0.00000000000E+00 -0.00000000000E+00 -0.45593999997E+02  0.45594000000E+02  0.51100000000E-03 0. -1.
         23    2    1    2    0    0  0.00000000000E+00  0.00000000000E+00  0.00000000000E+00  0.91188000000E+02  0.91188000000E+02 0.  0.
    9900012    2    3    3    0    0  0.32143678165E+02  0.17670779933E+02  0.32107159747E+01  0.54367065650E+02  0.39999957761E+02 0.  0.
        -12    1    3    3    0    0 -0.32143678165E+02 -0.17670779933E+02 -0.32107159747E+01  0.36820934350E+02  0.00000000000E+00 0.  1.
         11    1    4    4    0    0  0.29075329146E+02  0.16028586972E+02 -0.66621066421E+01  0.33862575662E+02  0.51100000000E-03 0. -1.
        -11    1    4    4    0    0 -0.76328456943E+00 -0.23448040918E+01 -0.44852406066E+01  0.51184072839E+01  0.51100000000E-03 0.  1.
         12    1    4    4    0    0  0.38316335880E+01  0.39869970520E+01  0.14358063223E+02  0.15386082704E+02  0.00000000000E+00 0. -1.
</event>
<event>
 8    1  0.2466538E-006  0.9118800E+02  0.7816164E-02  0.1184000E+00
        -11   -1    0    0    0    0  0.00000000000E+00  0.00000000000E+00  0.45593999997E+02  0.45594000000E+02  0.51100000000E-03 0. -1.
         11   -1    0    0    0    0 -0.00000000000E+00 -0.00000000000E+00 -0.45593999997E+02  0.45594000000E+02  0.51100000000E-03 0.  1.
         23    2    1    2    0    0  0.00000000000E+00  0.00000000000E+00  0.22204460493E-15  0.91188000000E+02  0.91188000000E+02 0.  0.
    9900012    2    3    3    0    0  0.29349006550E+02  0.22188798004E+02 -0.14404344088E+01  0.54367057676E+02  0.39999939583E+02 0.  0.
         12    1    3    3    0    0 -0.29349006550E+02 -0.22188798004E+02  0.14404344088E+01  0.36820942324E+02  0.00000000000E+00 0. -1.
         11    1    4    4    0    0  0.31419051200E+00  0.16946006272E+02 -0.10164842468E+02  0.19763346551E+02  0.51100000000E-03 0. -1.
        -11    1    4    4    0    0  0.26183960245E+02 -0.20198924495E+00  0.10492073283E+02  0.28208583371E+02  0.51100000000E-03 0.  1.
        -12    1    4    4    0    0  0.28508557936E+01  0.54447809776E+01 -0.17676652229E+01  0.63951277540E+01  0.00000000000E+00 0.  1.
</event>
<event>
 8    1  0.2466538E-006  0.9118800E+02  0.7816164E-02  0.1184000E+00
        -11   -1    0    0    0    0  0.00000000000E+00  0.00000000000E+00  0.45593999997E+02  0.45594000000E+02  0.51100000000E-03 0.  1.
         11   -1    0    0    0    0 -0.00000000000E+00 -0.00000000000E+00 -0.45593999997E+02  0.45594000000E+02  0.51100000000E-03 0. -1.
         23    2    1    2    0    0  0.00000000000E+00  0.00000000000E+00  0.88817841970E-15  0.91188000000E+02  0.91188000000E+02 0.  0.
    9900012    2    3    3    0    0 -0.35830557873E+02 -0.83220801436E+01 -0.16416940402E+01  0.54367067710E+02  0.39999962459E+02 0.  0.
        -12    1    3    3    0    0  0.35830557873E+02  0.83220801436E+01  0.16416940402E+01  0.36820932290E+02  0.00000000000E+00 0.  1.
         11    1    4    4    0    0 -0.12643431617E+02 -0.22312503545E+01 -0.28265197739E+01  0.13146256330E+02  0.51100000000E-03 0. -1.
        -11    1    4    4    0    0 -0.26437218414E+02 -0.13981763813E+01  0.11941983636E+02  0.29042940417E+02  0.51100000000E-03 0.  1.
        -12    1    4    4    0    0  0.32500921588E+01 -0.46926534078E+01 -0.10757157902E+02  0.12177870962E+02  0.00000000000E+00 0.  1.
</event>
<event>
 8    1  0.2466538E-006  0.9118800E+02  0.7816164E-02  0.1184000E+00
        -11   -1    0    0    0    0  0.00000000000E+00  0.00000000000E+00  0.45593999997E+02  0.45594000000E+02  0.51100000000E-03 0.  1.
         11   -1    0    0    0    0 -0.00000000000E+00 -0.00000000000E+00 -0.45593999997E+02  0.45594000000E+02  0.51100000000E-03 0. -1.
         23    2    1    2    0    0 -0.88817841970E-15  0.00000000000E+00 -0.71054273576E-14  0.91188000000E+02  0.91188000000E+02 0.  0.
    9900012    2    3    3    0    0  0.60291838043E+01 -0.20356763411E+02 -0.30083724622E+02  0.54367090708E+02  0.40000014888E+02 0.  0.
        -12    1    3    3    0    0 -0.60291838043E+01  0.20356763411E+02  0.30083724622E+02  0.36820909292E+02  0.00000000000E+00 0.  1.
         11    1    4    4    0    0  0.45744300524E+01 -0.17897820815E+01 -0.23440200990E+02  0.23949358090E+02  0.51100000000E-03 0. -1.
        -11    1    4    4    0    0  0.85687724849E+01 -0.39540664286E+01 -0.10077507892E+02  0.13806327129E+02  0.51100000000E-03 0.  1.
        -12    1    4    4    0    0 -0.71140187331E+01 -0.14612914901E+02  0.34339842598E+01  0.16611405490E+02  0.00000000000E+00 0.  1.
</event>
<event>
 8    1  0.2466538E-006  0.9118800E+02  0.7816164E-02  0.1184000E+00
        -11   -1    0    0    0    0  0.00000000000E+00  0.00000000000E+00  0.45593999997E+02  0.45594000000E+02  0.51100000000E-03 0.  1.
         11   -1    0    0    0    0 -0.00000000000E+00 -0.00000000000E+00 -0.45593999997E+02  0.45594000000E+02  0.51100000000E-03 0. -1.
         23    2    1    2    0    0  0.00000000000E+00  0.00000000000E+00  0.71054273576E-14  0.91188000000E+02  0.91188000000E+02 0.  0.
    9900012    2    3    3    0    0  0.15911783702E+02 -0.20119427172E+02 -0.26415970606E+02  0.54367085924E+02  0.40000003981E+02 0.  0.
        -12    1    3    3    0    0 -0.15911783702E+02  0.20119427172E+02  0.26415970606E+02  0.36820914076E+02  0.00000000000E+00 0.  1.
         11    1    4    4    0    0  0.12212768217E+02 -0.19179134384E+02 -0.90839126574E+01  0.24484860071E+02  0.51100000000E-03 0. -1.
        -11    1    4    4    0    0  0.79059003442E+01 -0.27897014302E+01 -0.21871204933E+02  0.23422965223E+02  0.51100000000E-03 0.  1.
        -12    1    4    4    0    0 -0.42068848590E+01  0.18494086423E+01  0.45391469848E+01  0.64592606305E+01  0.00000000000E+00 0.  1.
</event>
<event>
 8    1  0.2466538E-006  0.9118800E+02  0.7816164E-02  0.1184000E+00
        -11   -1    0    0    0    0  0.00000000000E+00  0.00000000000E+00  0.45593999997E+02  0.45594000000E+02  0.51100000000E-03 0. -1.
         11   -1    0    0    0    0 -0.00000000000E+00 -0.00000000000E+00 -0.45593999997E+02  0.45594000000E+02  0.51100000000E-03 0.  1.
         23    2    1    2    0    0  0.35527136788E-14  0.00000000000E+00  0.00000000000E+00  0.91188000000E+02  0.91188000000E+02 0.  0.
    9900012    2    3    3    0    0 -0.26302845548E+02  0.22312345428E+02  0.12887981744E+02  0.54367075028E+02  0.39999979141E+02 0.  0.
         12    1    3    3    0    0  0.26302845548E+02 -0.22312345428E+02 -0.12887981744E+02  0.36820924972E+02  0.00000000000E+00 0. -1.
         11    1    4    4    0    0 -0.82695352438E+01  0.10398845561E+02  0.16958998562E+02  0.21543649520E+02  0.51100000000E-03 0. -1.
        -11    1    4    4    0    0  0.15246343238E+00  0.83076086980E+01  0.73118474726E+01  0.11068094737E+02  0.51100000000E-03 0.  1.
         12    1    4    4    0    0 -0.18185773736E+02  0.36058911686E+01 -0.11382864291E+02  0.21755330771E+02  0.00000000000E+00 0. -1.
</event>
<event>
 8    1  0.2466538E-006  0.9118800E+02  0.7816164E-02  0.1184000E+00
        -11   -1    0    0    0    0  0.00000000000E+00  0.00000000000E+00  0.45593999997E+02  0.45594000000E+02  0.51100000000E-03 0. -1.
         11   -1    0    0    0    0 -0.00000000000E+00 -0.00000000000E+00 -0.45593999997E+02  0.45594000000E+02  0.51100000000E-03 0.  1.
         23    2    1    2    0    0  0.00000000000E+00 -0.88817841970E-15 -0.35527136788E-14  0.91188000000E+02  0.91188000000E+02 0.  0.
    9900012    2    3    3    0    0  0.31151705912E+02  0.31801865214E+01  0.19371043142E+02  0.54367086378E+02  0.40000005016E+02 0.  0.
        -12    1    3    3    0    0 -0.31151705912E+02 -0.31801865214E+01 -0.19371043142E+02  0.36820913622E+02  0.00000000000E+00 0.  1.
         11    1    4    4    0    0  0.16442346001E+02  0.55232778649E+01 -0.82737523260E+01  0.19217500311E+02  0.51100000000E-03 0.  1.
        -11    1    4    4    0    0  0.10041093178E+02  0.62135741589E+01  0.13051249750E+02  0.17600203872E+02  0.51100000000E-03 0. -1.
         12    1    4    4    0    0  0.46682667334E+01 -0.85566655025E+01  0.14593545718E+02  0.17549382195E+02  0.00000000000E+00 0. -1.
</event>
<event>
 8    1  0.2466538E-006  0.9118800E+02  0.7816164E-02  0.1184000E+00
        -11   -1    0    0    0    0  0.00000000000E+00  0.00000000000E+00  0.45593999997E+02  0.45594000000E+02  0.51100000000E-03 0. -1.
         11   -1    0    0    0    0 -0.00000000000E+00 -0.00000000000E+00 -0.45593999997E+02  0.45594000000E+02  0.51100000000E-03 0.  1.
         23    2    1    2    0    0  0.88817841970E-15 -0.35527136788E-14  0.00000000000E+00  0.91188000000E+02  0.91188000000E+02 0.  0.
    9900012    2    3    3    0    0 -0.61975165980E+01 -0.24888496014E+02 -0.26418433171E+02  0.54367081258E+02  0.39999993344E+02 0.  0.
         12    1    3    3    0    0  0.61975165980E+01  0.24888496014E+02  0.26418433171E+02  0.36820918742E+02  0.00000000000E+00 0. -1.
         11    1    4    4    0    0  0.12707593024E+01  0.35253299993E+01  0.20849619126E+01  0.42883385182E+01  0.51100000000E-03 0. -1.
        -11    1    4    4    0    0 -0.15703182286E+02 -0.10543396340E+02 -0.22734795368E+02  0.29574043704E+02  0.51100000000E-03 0.  1.
         12    1    4    4    0    0  0.82349063860E+01 -0.17870429673E+02 -0.57685997154E+01  0.20504699036E+02  0.00000000000E+00 0. -1.
</event>
<event>
 8    1  0.2466538E-006  0.9118800E+02  0.7816164E-02  0.1184000E+00
        -11   -1    0    0    0    0  0.00000000000E+00  0.00000000000E+00  0.45593999997E+02  0.45594000000E+02  0.51100000000E-03 0. -1.
         11   -1    0    0    0    0 -0.00000000000E+00 -0.00000000000E+00 -0.45593999997E+02  0.45594000000E+02  0.51100000000E-03 0.  1.
         23    2    1    2    0    0 -0.35527136788E-14  0.00000000000E+00  0.00000000000E+00  0.91188000000E+02  0.91188000000E+02 0.  0.
    9900012    2    3    3    0    0 -0.30281792512E+02  0.17188105759E+02  0.11973361819E+02  0.54367091122E+02  0.40000015831E+02 0.  0.
        -12    1    3    3    0    0  0.30281792512E+02 -0.17188105759E+02 -0.11973361819E+02  0.36820908878E+02  0.00000000000E+00 0.  1.
         11    1    4    4    0    0  0.38432950321E+01  0.34435997168E+01  0.86516486846E+00  0.52323805504E+01  0.51100000000E-03 0. -1.
        -11    1    4    4    0    0 -0.20781137320E+02  0.21373435798E+02  0.14865130700E+02  0.33311432529E+02  0.51100000000E-03 0.  1.
        -12    1    4    4    0    0 -0.13343950224E+02 -0.76289297564E+01 -0.37569337497E+01  0.15823278043E+02  0.00000000000E+00 0.  1.
</event>
<event>
 8    1  0.2466538E-006  0.9118800E+02  0.7816164E-02  0.1184000E+00
        -11   -1    0    0    0    0  0.00000000000E+00  0.00000000000E+00  0.45593999997E+02  0.45594000000E+02  0.51100000000E-03 0.  1.
         11   -1    0    0    0    0 -0.00000000000E+00 -0.00000000000E+00 -0.45593999997E+02  0.45594000000E+02  0.51100000000E-03 0. -1.
         23    2    1    2    0    0  0.00000000000E+00 -0.88817841970E-15 -0.71054273576E-14  0.91188000000E+02  0.91188000000E+02 0.  0.
    9900012    2    3    3    0    0 -0.52434839862E+01 -0.55447768986E+01  0.36021398818E+02  0.54367084096E+02  0.39999999815E+02 0.  0.
         12    1    3    3    0    0  0.52434839862E+01  0.55447768986E+01 -0.36021398818E+02  0.36820915904E+02  0.00000000000E+00 0. -1.
         11    1    4    4    0    0  0.12046951632E+01  0.55639154901E+01 -0.40468366798E+01  0.69846498403E+01  0.51100000000E-03 0. -1.
        -11    1    4    4    0    0 -0.27103267031E+01 -0.11410796496E+01 -0.22772294276E+01  0.37193692653E+01  0.51100000000E-03 0.  1.
        -12    1    4    4    0    0 -0.37378524463E+01 -0.99676127391E+01  0.42345464926E+02  0.43663064991E+02  0.00000000000E+00 0.  1.
</event>
<event>
 8    1  0.2466538E-006  0.9118800E+02  0.7816164E-02  0.1184000E+00
        -11   -1    0    0    0    0  0.00000000000E+00  0.00000000000E+00  0.45593999997E+02  0.45594000000E+02  0.51100000000E-03 0. -1.
         11   -1    0    0    0    0 -0.00000000000E+00 -0.00000000000E+00 -0.45593999997E+02  0.45594000000E+02  0.51100000000E-03 0.  1.
         23    2    1    2    0    0 -0.88817841970E-15  0.00000000000E+00  0.17763568394E-14  0.91188000000E+02  0.91188000000E+02 0.  0.
    9900012    2    3    3    0    0  0.55141076302E+01  0.33037959832E+02 -0.15292892686E+02  0.54367017673E+02  0.39999848390E+02 0.  0.
         12    1    3    3    0    0 -0.55141076302E+01 -0.33037959832E+02  0.15292892686E+02  0.36820982327E+02  0.00000000000E+00 0. -1.
         11    1    4    4    0    0  0.15401695325E+01  0.17555450154E+02  0.72891855227E+01  0.19070872506E+02  0.51100000000E-03 0. -1.
        -11    1    4    4    0    0 -0.44787445737E+01  0.17272150189E+02 -0.18625230988E+02  0.25793129991E+02  0.51100000000E-03 0.  1.
        -12    1    4    4    0    0  0.84526826714E+01 -0.17896405118E+01 -0.39568472205E+01  0.95030151758E+01  0.00000000000E+00 0.  1.
</event>
<event>
 8    1  0.2466538E-006  0.9118800E+02  0.7816164E-02  0.1184000E+00
        -11   -1    0    0    0    0  0.00000000000E+00  0.00000000000E+00  0.45593999997E+02  0.45594000000E+02  0.51100000000E-03 0. -1.
         11   -1    0    0    0    0 -0.00000000000E+00 -0.00000000000E+00 -0.45593999997E+02  0.45594000000E+02  0.51100000000E-03 0.  1.
         23    2    1    2    0    0  0.00000000000E+00  0.00000000000E+00  0.00000000000E+00  0.91188000000E+02  0.91188000000E+02 0.  0.
    9900012    2    3    3    0    0 -0.17469171647E+02  0.19142629238E+02 -0.26156566694E+02  0.54367106565E+02  0.40000051035E+02 0.  0.
        -12    1    3    3    0    0  0.17469171647E+02 -0.19142629238E+02  0.26156566694E+02  0.36820893435E+02  0.00000000000E+00 0.  1.
         11    1    4    4    0    0 -0.16481190453E+02  0.16352308289E+02  0.38069747746E+01  0.23527020260E+02  0.51100000000E-03 0. -1.
        -11    1    4    4    0    0  0.25306236948E+01  0.41028105209E+00 -0.63586348184E+01  0.68559918204E+01  0.51100000000E-03 0.  1.
         12    1    4    4    0    0 -0.35186048894E+01  0.23800398966E+01 -0.23604906650E+02  0.23984094484E+02  0.00000000000E+00 0. -1.
</event>
<event>
 8    1  0.2466538E-006  0.9118800E+02  0.7816164E-02  0.1184000E+00
        -11   -1    0    0    0    0  0.00000000000E+00  0.00000000000E+00  0.45593999997E+02  0.45594000000E+02  0.51100000000E-03 0.  1.
         11   -1    0    0    0    0 -0.00000000000E+00 -0.00000000000E+00 -0.45593999997E+02  0.45594000000E+02  0.51100000000E-03 0. -1.
         23    2    1    2    0    0  0.00000000000E+00  0.11102230246E-14  0.88817841970E-15  0.91188000000E+02  0.91188000000E+02 0.  0.
    9900012    2    3    3    0    0  0.36236930236E+02 -0.13622270139E+01  0.63882596820E+01  0.54367073380E+02  0.39999975384E+02 0.  0.
         12    1    3    3    0    0 -0.36236930236E+02  0.13622270139E+01 -0.63882596820E+01  0.36820926620E+02  0.00000000000E+00 0. -1.
         11    1    4    4    0    0 -0.17972745519E+01  0.36199526185E+00 -0.16590985921E+01  0.24726190131E+01  0.51100000000E-03 0. -1.
        -11    1    4    4    0    0 -0.52673808736E+01  0.50321219739E+01 -0.25617514341E+00  0.72892509075E+01  0.51100000000E-03 0.  1.
        -12    1    4    4    0    0  0.43301585662E+02 -0.67563442496E+01  0.83035334174E+01  0.44605203459E+02  0.00000000000E+00 0.  1.
</event>
<event>
 8    1  0.2466538E-006  0.9118800E+02  0.7816164E-02  0.1184000E+00
        -11   -1    0    0    0    0  0.00000000000E+00  0.00000000000E+00  0.45593999997E+02  0.45594000000E+02  0.51100000000E-03 0.  1.
         11   -1    0    0    0    0 -0.00000000000E+00 -0.00000000000E+00 -0.45593999997E+02  0.45594000000E+02  0.51100000000E-03 0. -1.
         23    2    1    2    0    0  0.00000000000E+00  0.00000000000E+00  0.00000000000E+00  0.91188000000E+02  0.91188000000E+02 0.  0.
    9900012    2    3    3    0    0 -0.12494933610E+02 -0.26411864557E+02  0.22406910780E+02  0.54367087382E+02  0.40000007305E+02 0.  0.
         12    1    3    3    0    0  0.12494933610E+02  0.26411864557E+02 -0.22406910780E+02  0.36820912618E+02  0.00000000000E+00 0. -1.
         11    1    4    4    0    0 -0.10222443101E+02  0.74551547431E+01  0.68031404830E+01  0.14365249594E+02  0.51100000000E-03 0. -1.
        -11    1    4    4    0    0  0.13162029126E+01 -0.48754524719E+01  0.85810262996E+01  0.99567283547E+01  0.51100000000E-03 0.  1.
        -12    1    4    4    0    0 -0.35886934216E+01 -0.28991566828E+02  0.70227439978E+01  0.30045109434E+02  0.00000000000E+00 0.  1.
</event>
<event>
 8    1  0.2466538E-006  0.9118800E+02  0.7816164E-02  0.1184000E+00
        -11   -1    0    0    0    0  0.00000000000E+00  0.00000000000E+00  0.45593999997E+02  0.45594000000E+02  0.51100000000E-03 0. -1.
         11   -1    0    0    0    0 -0.00000000000E+00 -0.00000000000E+00 -0.45593999997E+02  0.45594000000E+02  0.51100000000E-03 0.  1.
         23    2    1    2    0    0 -0.26645352591E-14  0.00000000000E+00  0.35527136788E-14  0.91188000000E+02  0.91188000000E+02 0.  0.
    9900012    2    3    3    0    0 -0.65660119836E+01  0.29823050082E+02  0.20573043147E+02  0.54367123667E+02  0.40000090025E+02 0.  0.
        -12    1    3    3    0    0  0.65660119836E+01 -0.29823050082E+02 -0.20573043147E+02  0.36820876333E+02  0.00000000000E+00 0.  1.
         11    1    4    4    0    0  0.27745787411E+01  0.17046625232E+02  0.13531273577E+02  0.21940398444E+02  0.51100000000E-03 0. -1.
        -11    1    4    4    0    0  0.76739248833E+01 -0.30932988786E+01  0.30604734758E+01  0.88217979587E+01  0.51100000000E-03 0.  1.
         12    1    4    4    0    0 -0.17014515608E+02  0.15869723729E+02  0.39812960943E+01  0.23604927265E+02  0.00000000000E+00 0. -1.
</event>
<event>
 8    1  0.2466538E-006  0.9118800E+02  0.7816164E-02  0.1184000E+00
        -11   -1    0    0    0    0  0.00000000000E+00  0.00000000000E+00  0.45593999997E+02  0.45594000000E+02  0.51100000000E-03 0. -1.
         11   -1    0    0    0    0 -0.00000000000E+00 -0.00000000000E+00 -0.45593999997E+02  0.45594000000E+02  0.51100000000E-03 0.  1.
         23    2    1    2    0    0  0.00000000000E+00 -0.17763568394E-14  0.00000000000E+00  0.91188000000E+02  0.91188000000E+02 0.  0.
    9900012    2    3    3    0    0 -0.29114740988E+01  0.87393215421E+01 -0.35650065806E+02  0.54367087268E+02  0.40000007045E+02 0.  0.
         12    1    3    3    0    0  0.29114740988E+01 -0.87393215421E+01  0.35650065806E+02  0.36820912732E+02  0.00000000000E+00 0. -1.
         11    1    4    4    0    0 -0.32744798048E+01  0.12089054864E+02  0.51140018060E+00  0.12535110526E+02  0.51100000000E-03 0. -1.
        -11    1    4    4    0    0  0.23027851558E+01 -0.10161463792E+02 -0.31917906644E+02  0.33575451310E+02  0.51100000000E-03 0.  1.
        -12    1    4    4    0    0 -0.19397794498E+01  0.68117304701E+01 -0.42435593429E+01  0.82565254319E+01  0.00000000000E+00 0.  1.
</event>
<event>
 8    1  0.2466538E-006  0.9118800E+02  0.7816164E-02  0.1184000E+00
        -11   -1    0    0    0    0  0.00000000000E+00  0.00000000000E+00  0.45593999997E+02  0.45594000000E+02  0.51100000000E-03 0. -1.
         11   -1    0    0    0    0 -0.00000000000E+00 -0.00000000000E+00 -0.45593999997E+02  0.45594000000E+02  0.51100000000E-03 0.  1.
         23    2    1    2    0    0  0.00000000000E+00  0.00000000000E+00  0.00000000000E+00  0.91188000000E+02  0.91188000000E+02 0.  0.
    9900012    2    3    3    0    0  0.11717718287E+02 -0.83543658298E+01  0.33892186070E+02  0.54367073519E+02  0.39999975702E+02 0.  0.
        -12    1    3    3    0    0 -0.11717718287E+02  0.83543658298E+01 -0.33892186070E+02  0.36820926481E+02  0.00000000000E+00 0.  1.
         11    1    4    4    0    0 -0.14159236189E+02 -0.33272627365E+01  0.13825126048E+02  0.20067106350E+02  0.51100000000E-03 0.  1.
        -11    1    4    4    0    0  0.10714792888E+02 -0.65248914429E+01  0.81942070463E+01  0.14984192483E+02  0.51100000000E-03 0. -1.
        -12    1    4    4    0    0  0.15162161588E+02  0.14977883496E+01  0.11872852976E+02  0.19315774686E+02  0.00000000000E+00 0.  1.
</event>
<event>
 8    1  0.2466538E-006  0.9118800E+02  0.7816164E-02  0.1184000E+00
        -11   -1    0    0    0    0  0.00000000000E+00  0.00000000000E+00  0.45593999997E+02  0.45594000000E+02  0.51100000000E-03 0.  1.
         11   -1    0    0    0    0 -0.00000000000E+00 -0.00000000000E+00 -0.45593999997E+02  0.45594000000E+02  0.51100000000E-03 0. -1.
         23    2    1    2    0    0  0.00000000000E+00 -0.71054273576E-14 -0.35527136788E-14  0.91188000000E+02  0.91188000000E+02 0.  0.
    9900012    2    3    3    0    0  0.21351155575E+02 -0.20255515547E+02 -0.22127395254E+02  0.54367090516E+02  0.40000014450E+02 0.  0.
        -12    1    3    3    0    0 -0.21351155575E+02  0.20255515547E+02  0.22127395254E+02  0.36820909484E+02  0.00000000000E+00 0.  1.
         11    1    4    4    0    0  0.18224189050E+02 -0.12175688945E+01 -0.12566523466E+02  0.22170274081E+02  0.51100000000E-03 0. -1.
        -11    1    4    4    0    0  0.77731079086E+01 -0.30170880525E+01 -0.12729830686E+02  0.15217510191E+02  0.51100000000E-03 0.  1.
        -12    1    4    4    0    0 -0.46461413836E+01 -0.16020858600E+02  0.31689588971E+01  0.16979306244E+02  0.00000000000E+00 0.  1.
</event>
<event>
 8    1  0.2466538E-006  0.9118800E+02  0.7816164E-02  0.1184000E+00
        -11   -1    0    0    0    0  0.00000000000E+00  0.00000000000E+00  0.45593999997E+02  0.45594000000E+02  0.51100000000E-03 0. -1.
         11   -1    0    0    0    0 -0.00000000000E+00 -0.00000000000E+00 -0.45593999997E+02  0.45594000000E+02  0.51100000000E-03 0.  1.
         23    2    1    2    0    0 -0.71054273576E-14 -0.35527136788E-14  0.35527136788E-14  0.91188000000E+02  0.91188000000E+02 0.  0.
    9900012    2    3    3    0    0  0.21361518810E+02  0.20768709014E+02 -0.21636225239E+02  0.54367081997E+02  0.39999995029E+02 0.  0.
         12    1    3    3    0    0 -0.21361518810E+02 -0.20768709014E+02  0.21636225239E+02  0.36820918003E+02  0.00000000000E+00 0. -1.
         11    1    4    4    0    0 -0.67370080052E+01  0.88936826570E+01 -0.11455151265E+01  0.11215929441E+02  0.51100000000E-03 0. -1.
        -11    1    4    4    0    0  0.20890122687E+01  0.66793475945E+01  0.31002375075E+01  0.76543536246E+01  0.51100000000E-03 0.  1.
        -12    1    4    4    0    0  0.26009514546E+02  0.51956787631E+01 -0.23590947620E+02  0.35496798931E+02  0.00000000000E+00 0.  1.
</event>
<event>
 8    1  0.2466538E-006  0.9118800E+02  0.7816164E-02  0.1184000E+00
        -11   -1    0    0    0    0  0.00000000000E+00  0.00000000000E+00  0.45593999997E+02  0.45594000000E+02  0.51100000000E-03 0.  1.
         11   -1    0    0    0    0 -0.00000000000E+00 -0.00000000000E+00 -0.45593999997E+02  0.45594000000E+02  0.51100000000E-03 0. -1.
         23    2    1    2    0    0 -0.17763568394E-14  0.00000000000E+00  0.35527136788E-14  0.91188000000E+02  0.91188000000E+02 0.  0.
    9900012    2    3    3    0    0  0.17275219790E+01 -0.29270965609E+02 -0.22271194448E+02  0.54367083906E+02  0.39999999381E+02 0.  0.
        -12    1    3    3    0    0 -0.17275219790E+01  0.29270965609E+02  0.22271194448E+02  0.36820916094E+02  0.00000000000E+00 0.  1.
         11    1    4    4    0    0 -0.98189289496E+00 -0.13970331025E+02 -0.13400243535E+02  0.19383002596E+02  0.51100000000E-03 0. -1.
        -11    1    4    4    0    0 -0.61166455844E+01  0.73316578590E+01 -0.24510078890E+01  0.98576873606E+01  0.51100000000E-03 0.  1.
        -12    1    4    4    0    0  0.88260604583E+01 -0.22632292443E+02 -0.64199430236E+01  0.25126393949E+02  0.00000000000E+00 0.  1.
</event>
<event>
 8    1  0.2466538E-006  0.9118800E+02  0.7816164E-02  0.1184000E+00
        -11   -1    0    0    0    0  0.00000000000E+00  0.00000000000E+00  0.45593999997E+02  0.45594000000E+02  0.51100000000E-03 0. -1.
         11   -1    0    0    0    0 -0.00000000000E+00 -0.00000000000E+00 -0.45593999997E+02  0.45594000000E+02  0.51100000000E-03 0.  1.
         23    2    1    2    0    0  0.88817841970E-15 -0.17763568394E-14  0.00000000000E+00  0.91188000000E+02  0.91188000000E+02 0.  0.
    9900012    2    3    3    0    0 -0.66366636462E+01 -0.86867837029E+01 -0.35160694284E+02  0.54367082874E+02  0.39999997028E+02 0.  0.
         12    1    3    3    0    0  0.66366636462E+01  0.86867837029E+01  0.35160694284E+02  0.36820917126E+02  0.00000000000E+00 0. -1.
         11    1    4    4    0    0 -0.36547520808E+01  0.47098565807E+01  0.69770118076E+00  0.60022286678E+01  0.51100000000E-03 0. -1.
        -11    1    4    4    0    0  0.27664350245E+01 -0.20129006202E+02 -0.13705357043E+02  0.24508505980E+02  0.51100000000E-03 0.  1.
        -12    1    4    4    0    0 -0.57483465899E+01  0.67323659182E+01 -0.22153038422E+02  0.23856348226E+02  0.00000000000E+00 0.  1.
</event>
<event>
 8    1  0.2466538E-006  0.9118800E+02  0.7816164E-02  0.1184000E+00
        -11   -1    0    0    0    0  0.00000000000E+00  0.00000000000E+00  0.45593999997E+02  0.45594000000E+02  0.51100000000E-03 0.  1.
         11   -1    0    0    0    0 -0.00000000000E+00 -0.00000000000E+00 -0.45593999997E+02  0.45594000000E+02  0.51100000000E-03 0. -1.
         23    2    1    2    0    0 -0.35527136788E-14 -0.35527136788E-14  0.00000000000E+00  0.91188000000E+02  0.91188000000E+02 0.  0.
    9900012    2    3    3    0    0 -0.29652941124E+02 -0.13109011652E+02 -0.17453964047E+02  0.54367028194E+02  0.39999872373E+02 0.  0.
        -12    1    3    3    0    0  0.29652941124E+02  0.13109011652E+02  0.17453964047E+02  0.36820971806E+02  0.00000000000E+00 0.  1.
         11    1    4    4    0    0 -0.89794302126E+01 -0.65160221189E+01 -0.69301861856E+01  0.13081138789E+02  0.51100000000E-03 0. -1.
        -11    1    4    4    0    0 -0.12433155834E+02  0.13201287576E+02 -0.75350670447E+01  0.19637581147E+02  0.51100000000E-03 0.  1.
        -12    1    4    4    0    0 -0.82403550772E+01 -0.19794277109E+02 -0.29887108169E+01  0.21648308258E+02  0.00000000000E+00 0.  1.
</event>
<event>
 8    1  0.2466538E-006  0.9118800E+02  0.7816164E-02  0.1184000E+00
        -11   -1    0    0    0    0  0.00000000000E+00  0.00000000000E+00  0.45593999997E+02  0.45594000000E+02  0.51100000000E-03 0. -1.
         11   -1    0    0    0    0 -0.00000000000E+00 -0.00000000000E+00 -0.45593999997E+02  0.45594000000E+02  0.51100000000E-03 0.  1.
         23    2    1    2    0    0 -0.35527136788E-14  0.17763568394E-14  0.00000000000E+00  0.91188000000E+02  0.91188000000E+02 0.  0.
    9900012    2    3    3    0    0  0.29933447766E+02 -0.14098988604E+02 -0.16155073079E+02  0.54367093425E+02  0.40000021080E+02 0.  0.
         12    1    3    3    0    0 -0.29933447766E+02  0.14098988604E+02  0.16155073079E+02  0.36820906575E+02  0.00000000000E+00 0. -1.
         11    1    4    4    0    0  0.89144989195E+01  0.13573349194E+01  0.52483717969E+01  0.10433410557E+02  0.51100000000E-03 0. -1.
        -11    1    4    4    0    0  0.21708588767E+02  0.77016103714E+00 -0.90673952755E+01  0.23538768694E+02  0.51100000000E-03 0.  1.
        -12    1    4    4    0    0 -0.68963992036E+00 -0.16226484560E+02 -0.12336049601E+02  0.20394914174E+02  0.00000000000E+00 0.  1.
</event>
<event>
 8    1  0.2466538E-006  0.9118800E+02  0.7816164E-02  0.1184000E+00
        -11   -1    0    0    0    0  0.00000000000E+00  0.00000000000E+00  0.45593999997E+02  0.45594000000E+02  0.51100000000E-03 0. -1.
         11   -1    0    0    0    0 -0.00000000000E+00 -0.00000000000E+00 -0.45593999997E+02  0.45594000000E+02  0.51100000000E-03 0.  1.
         23    2    1    2    0    0  0.00000000000E+00 -0.26645352591E-14 -0.35527136788E-14  0.91188000000E+02  0.91188000000E+02 0.  0.
    9900012    2    3    3    0    0  0.24710035146E+02  0.78004155220E+01  0.26160046182E+02  0.54367077477E+02  0.39999984724E+02 0.  0.
         12    1    3    3    0    0 -0.24710035146E+02 -0.78004155220E+01 -0.26160046182E+02  0.36820922523E+02  0.00000000000E+00 0. -1.
         11    1    4    4    0    0  0.27424378495E+01 -0.19270512312E+01 -0.32725754873E+01  0.46844682075E+01  0.51100000000E-03 0. -1.
        -11    1    4    4    0    0  0.51087873922E+00 -0.10507721853E+02  0.82916234231E+01  0.13394933179E+02  0.51100000000E-03 0.  1.
        -12    1    4    4    0    0  0.21456718557E+02  0.20235188606E+02  0.21140998246E+02  0.36287676090E+02  0.00000000000E+00 0.  1.
</event>
<event>
 8    1  0.2466538E-006  0.9118800E+02  0.7816164E-02  0.1184000E+00
        -11   -1    0    0    0    0  0.00000000000E+00  0.00000000000E+00  0.45593999997E+02  0.45594000000E+02  0.51100000000E-03 0. -1.
         11   -1    0    0    0    0 -0.00000000000E+00 -0.00000000000E+00 -0.45593999997E+02  0.45594000000E+02  0.51100000000E-03 0.  1.
         23    2    1    2    0    0  0.00000000000E+00  0.35527136788E-14  0.00000000000E+00  0.91188000000E+02  0.91188000000E+02 0.  0.
    9900012    2    3    3    0    0 -0.28282759581E+02 -0.20886583345E+02 -0.10936854475E+02  0.54367100512E+02  0.40000037236E+02 0.  0.
         12    1    3    3    0    0  0.28282759581E+02  0.20886583345E+02  0.10936854475E+02  0.36820899488E+02  0.00000000000E+00 0. -1.
         11    1    4    4    0    0 -0.56855551773E+01 -0.26632796420E+01  0.10945705618E+02  0.12618520827E+02  0.51100000000E-03 0. -1.
        -11    1    4    4    0    0 -0.68406603681E+01  0.39939562649E+01 -0.24564480220E+01  0.82933984629E+01  0.51100000000E-03 0.  1.
        -12    1    4    4    0    0 -0.15756544035E+02 -0.22217259968E+02 -0.19426112070E+02  0.33455181222E+02  0.00000000000E+00 0.  1.
</event>
<event>
 8    1  0.2466538E-006  0.9118800E+02  0.7816164E-02  0.1184000E+00
        -11   -1    0    0    0    0  0.00000000000E+00  0.00000000000E+00  0.45593999997E+02  0.45594000000E+02  0.51100000000E-03 0. -1.
         11   -1    0    0    0    0 -0.00000000000E+00 -0.00000000000E+00 -0.45593999997E+02  0.45594000000E+02  0.51100000000E-03 0.  1.
         23    2    1    2    0    0  0.44408920985E-15  0.00000000000E+00  0.00000000000E+00  0.91188000000E+02  0.91188000000E+02 0.  0.
    9900012    2    3    3    0    0  0.13239309593E+01  0.70394819024E+01 -0.36117478776E+02  0.54367090563E+02  0.40000014556E+02 0.  0.
         12    1    3    3    0    0 -0.13239309593E+01 -0.70394819024E+01  0.36117478776E+02  0.36820909437E+02  0.00000000000E+00 0. -1.
         11    1    4    4    0    0  0.70048482287E+01 -0.49096051096E+01 -0.11444869136E+02  0.14288357178E+02  0.51100000000E-03 0. -1.
        -11    1    4    4    0    0  0.90784200053E+00 -0.84497026403E+00 -0.25626221622E+02  0.25656215362E+02  0.51100000000E-03 0.  1.
        -12    1    4    4    0    0 -0.65887592699E+01  0.12794057276E+02  0.95361198192E+00  0.14422518023E+02  0.00000000000E+00 0.  1.
</event>
<event>
 8    1  0.2466538E-006  0.9118800E+02  0.7816164E-02  0.1184000E+00
        -11   -1    0    0    0    0  0.00000000000E+00  0.00000000000E+00  0.45593999997E+02  0.45594000000E+02  0.51100000000E-03 0.  1.
         11   -1    0    0    0    0 -0.00000000000E+00 -0.00000000000E+00 -0.45593999997E+02  0.45594000000E+02  0.51100000000E-03 0. -1.
         23    2    1    2    0    0 -0.88817841970E-15  0.71054273576E-14  0.49960036108E-15  0.91188000000E+02  0.91188000000E+02 0.  0.
    9900012    2    3    3    0    0  0.47386783061E+01 -0.36514022885E+02  0.21823042069E+00  0.54367128693E+02  0.40000101480E+02 0.  0.
        -12    1    3    3    0    0 -0.47386783061E+01  0.36514022885E+02 -0.21823042069E+00  0.36820871307E+02  0.00000000000E+00 0.  1.
         11    1    4    4    0    0 -0.44462482937E+01  0.45279702073E+01  0.73845263132E+01  0.97366763949E+01  0.51100000000E-03 0.  1.
        -11    1    4    4    0    0 -0.22873659103E+01 -0.10914117648E+02 -0.52773312006E+01  0.12336945801E+02  0.51100000000E-03 0. -1.
        -12    1    4    4    0    0  0.11472292510E+02 -0.30127875444E+02 -0.18889646920E+01  0.32293506497E+02  0.00000000000E+00 0.  1.
</event>
<event>
 8    1  0.2466538E-006  0.9118800E+02  0.7816164E-02  0.1184000E+00
        -11   -1    0    0    0    0  0.00000000000E+00  0.00000000000E+00  0.45593999997E+02  0.45594000000E+02  0.51100000000E-03 0.  1.
         11   -1    0    0    0    0 -0.00000000000E+00 -0.00000000000E+00 -0.45593999997E+02  0.45594000000E+02  0.51100000000E-03 0. -1.
         23    2    1    2    0    0  0.71054273576E-14  0.00000000000E+00  0.35527136788E-14  0.91188000000E+02  0.91188000000E+02 0.  0.
    9900012    2    3    3    0    0  0.30971421318E+02 -0.35347989687E+01 -0.19597362535E+02  0.54367077136E+02  0.39999983948E+02 0.  0.
        -12    1    3    3    0    0 -0.30971421318E+02  0.35347989687E+01  0.19597362535E+02  0.36820922864E+02  0.00000000000E+00 0.  1.
         11    1    4    4    0    0  0.17475252837E+02  0.36959875351E+01 -0.58987321569E+01  0.18810630689E+02  0.51100000000E-03 0. -1.
        -11    1    4    4    0    0  0.10365916168E+02  0.36752424803E+00 -0.21721969903E+02  0.24071378623E+02  0.51100000000E-03 0.  1.
        -12    1    4    4    0    0  0.31302523126E+01 -0.75983107518E+01  0.80233395247E+01  0.11485067825E+02  0.00000000000E+00 0.  1.
</event>
<event>
 8    1  0.2466538E-006  0.9118800E+02  0.7816164E-02  0.1184000E+00
        -11   -1    0    0    0    0  0.00000000000E+00  0.00000000000E+00  0.45593999997E+02  0.45594000000E+02  0.51100000000E-03 0.  1.
         11   -1    0    0    0    0 -0.00000000000E+00 -0.00000000000E+00 -0.45593999997E+02  0.45594000000E+02  0.51100000000E-03 0. -1.
         23    2    1    2    0    0  0.35527136788E-14  0.00000000000E+00 -0.17763568394E-14  0.91188000000E+02  0.91188000000E+02 0.  0.
    9900012    2    3    3    0    0 -0.15831417553E+02  0.30606447215E+02 -0.12976322911E+02  0.54367172346E+02  0.40000200996E+02 0.  0.
        -12    1    3    3    0    0  0.15831417553E+02 -0.30606447215E+02  0.12976322911E+02  0.36820827654E+02  0.00000000000E+00 0.  1.
         11    1    4    4    0    0  0.43818004857E+01  0.33832725355E+01 -0.67744483270E+01  0.87487061296E+01  0.51100000000E-03 0. -1.
        -11    1    4    4    0    0 -0.30421182011E+01  0.23646158632E+02  0.55846648205E+01  0.24486399952E+02  0.51100000000E-03 0.  1.
         12    1    4    4    0    0 -0.17171099838E+02  0.35770160473E+01 -0.11786539404E+02  0.21132066263E+02  0.00000000000E+00 0. -1.
</event>
<event>
 8    1  0.2466538E-006  0.9118800E+02  0.7816164E-02  0.1184000E+00
        -11   -1    0    0    0    0  0.00000000000E+00  0.00000000000E+00  0.45593999997E+02  0.45594000000E+02  0.51100000000E-03 0. -1.
         11   -1    0    0    0    0 -0.00000000000E+00 -0.00000000000E+00 -0.45593999997E+02  0.45594000000E+02  0.51100000000E-03 0.  1.
         23    2    1    2    0    0  0.35527136788E-14  0.35527136788E-14 -0.99920072216E-15  0.91188000000E+02  0.91188000000E+02 0.  0.
    9900012    2    3    3    0    0 -0.20218271343E+02 -0.30767252356E+02  0.61439749084E+00  0.54367084776E+02  0.40000001365E+02 0.  0.
         12    1    3    3    0    0  0.20218271343E+02  0.30767252356E+02 -0.61439749084E+00  0.36820915224E+02  0.00000000000E+00 0. -1.
         11    1    4    4    0    0  0.17332460131E+01 -0.89202911707E+01 -0.15712275803E+02  0.18150794679E+02  0.51100000000E-03 0. -1.
        -11    1    4    4    0    0 -0.93772168976E+01 -0.14812601009E+02  0.11726368912E+02  0.21091540331E+02  0.51100000000E-03 0.  1.
        -12    1    4    4    0    0 -0.12574300459E+02 -0.70343601754E+01  0.46003043814E+01  0.15124749767E+02  0.00000000000E+00 0.  1.
</event>
<event>
 8    1  0.2466538E-006  0.9118800E+02  0.7816164E-02  0.1184000E+00
        -11   -1    0    0    0    0  0.00000000000E+00  0.00000000000E+00  0.45593999997E+02  0.45594000000E+02  0.51100000000E-03 0.  1.
         11   -1    0    0    0    0 -0.00000000000E+00 -0.00000000000E+00 -0.45593999997E+02  0.45594000000E+02  0.51100000000E-03 0. -1.
         23    2    1    2    0    0  0.00000000000E+00  0.00000000000E+00  0.00000000000E+00  0.91188000000E+02  0.91188000000E+02 0.  0.
    9900012    2    3    3    0    0 -0.26846736372E+02 -0.88472685803E+01 -0.23595734693E+02  0.54367080527E+02  0.39999991677E+02 0.  0.
        -12    1    3    3    0    0  0.26846736372E+02  0.88472685803E+01  0.23595734693E+02  0.36820919473E+02  0.00000000000E+00 0.  1.
         11    1    4    4    0    0 -0.48591362315E+01 -0.10710369284E+01 -0.21294668149E+02  0.21868269636E+02  0.51100000000E-03 0. -1.
        -11    1    4    4    0    0 -0.22431078800E+02 -0.47416340219E+01 -0.93898187541E+01  0.24775090027E+02  0.51100000000E-03 0.  1.
        -12    1    4    4    0    0  0.44347866029E+00 -0.30345976299E+01  0.70887522097E+01  0.77237208642E+01  0.00000000000E+00 0.  1.
</event>
<event>
 8    1  0.2466538E-006  0.9118800E+02  0.7816164E-02  0.1184000E+00
        -11   -1    0    0    0    0  0.00000000000E+00  0.00000000000E+00  0.45593999997E+02  0.45594000000E+02  0.51100000000E-03 0.  1.
         11   -1    0    0    0    0 -0.00000000000E+00 -0.00000000000E+00 -0.45593999997E+02  0.45594000000E+02  0.51100000000E-03 0. -1.
         23    2    1    2    0    0  0.00000000000E+00  0.35527136788E-14 -0.35527136788E-14  0.91188000000E+02  0.91188000000E+02 0.  0.
    9900012    2    3    3    0    0 -0.16940317889E+02  0.28217283248E+02 -0.16510254368E+02  0.54367109960E+02  0.40000058775E+02 0.  0.
         12    1    3    3    0    0  0.16940317889E+02 -0.28217283248E+02  0.16510254368E+02  0.36820890040E+02  0.00000000000E+00 0. -1.
         11    1    4    4    0    0 -0.10952256818E+01 -0.36423224984E+01  0.13012393216E+01  0.40198577723E+01  0.51100000000E-03 0. -1.
        -11    1    4    4    0    0 -0.11523343518E+01  0.19073562627E+02  0.55819263886E+01  0.19906947738E+02  0.51100000000E-03 0.  1.
        -12    1    4    4    0    0 -0.14692757855E+02  0.12786043119E+02 -0.23393420078E+02  0.30440304450E+02  0.00000000000E+00 0.  1.
</event>
<event>
 8    1  0.2466538E-006  0.9118800E+02  0.7816164E-02  0.1184000E+00
        -11   -1    0    0    0    0  0.00000000000E+00  0.00000000000E+00  0.45593999997E+02  0.45594000000E+02  0.51100000000E-03 0.  1.
         11   -1    0    0    0    0 -0.00000000000E+00 -0.00000000000E+00 -0.45593999997E+02  0.45594000000E+02  0.51100000000E-03 0. -1.
         23    2    1    2    0    0  0.35527136788E-14  0.15543122345E-14  0.00000000000E+00  0.91188000000E+02  0.91188000000E+02 0.  0.
    9900012    2    3    3    0    0  0.30109084083E+02  0.78805398872E+00  0.21180264798E+02  0.54367060436E+02  0.39999945876E+02 0.  0.
         12    1    3    3    0    0 -0.30109084083E+02 -0.78805398872E+00 -0.21180264798E+02  0.36820939564E+02  0.00000000000E+00 0. -1.
         11    1    4    4    0    0  0.54957619150E+01 -0.57005210993E+01 -0.73982217400E+01  0.10836651928E+02  0.51100000000E-03 0. -1.
        -11    1    4    4    0    0  0.52086266107E+01  0.11457556153E+02  0.13513690259E+02  0.18466867868E+02  0.51100000000E-03 0.  1.
        -12    1    4    4    0    0  0.19404695558E+02 -0.49689810649E+01  0.15064796279E+02  0.25063540641E+02  0.00000000000E+00 0.  1.
</event>
<event>
 8    1  0.2466538E-006  0.9118800E+02  0.7816164E-02  0.1184000E+00
        -11   -1    0    0    0    0  0.00000000000E+00  0.00000000000E+00  0.45593999997E+02  0.45594000000E+02  0.51100000000E-03 0. -1.
         11   -1    0    0    0    0 -0.00000000000E+00 -0.00000000000E+00 -0.45593999997E+02  0.45594000000E+02  0.51100000000E-03 0.  1.
         23    2    1    2    0    0  0.00000000000E+00 -0.35527136788E-14  0.00000000000E+00  0.91188000000E+02  0.91188000000E+02 0.  0.
    9900012    2    3    3    0    0  0.45324543020E+01 -0.28796687280E+02 -0.22494170143E+02  0.54367081615E+02  0.39999994157E+02 0.  0.
         12    1    3    3    0    0 -0.45324543020E+01  0.28796687280E+02  0.22494170143E+02  0.36820918385E+02  0.00000000000E+00 0. -1.
         11    1    4    4    0    0  0.13602746474E+02 -0.25505125025E+02 -0.58801409921E+01  0.29497833353E+02  0.51100000000E-03 0. -1.
        -11    1    4    4    0    0  0.29718041941E+01 -0.36913683071E+01 -0.52381152856E+00  0.47678295822E+01  0.51100000000E-03 0.  1.
        -12    1    4    4    0    0 -0.12042096367E+02  0.39980605151E+00 -0.16090217623E+02  0.20101418679E+02  0.00000000000E+00 0.  1.
</event>
<event>
 8    1  0.2466538E-006  0.9118800E+02  0.7816164E-02  0.1184000E+00
        -11   -1    0    0    0    0  0.00000000000E+00  0.00000000000E+00  0.45593999997E+02  0.45594000000E+02  0.51100000000E-03 0. -1.
         11   -1    0    0    0    0 -0.00000000000E+00 -0.00000000000E+00 -0.45593999997E+02  0.45594000000E+02  0.51100000000E-03 0.  1.
         23    2    1    2    0    0  0.88817841970E-15  0.35527136788E-14 -0.35527136788E-14  0.91188000000E+02  0.91188000000E+02 0.  0.
    9900012    2    3    3    0    0  0.73270593941E+01 -0.27484984403E+02  0.23380983895E+02  0.54367074225E+02  0.39999977312E+02 0.  0.
        -12    1    3    3    0    0 -0.73270593941E+01  0.27484984403E+02 -0.23380983895E+02  0.36820925775E+02  0.00000000000E+00 0.  1.
         11    1    4    4    0    0  0.16294226060E+02 -0.71135414027E+01  0.72174005424E+01  0.19188411738E+02  0.51100000000E-03 0. -1.
        -11    1    4    4    0    0 -0.44187729853E-01 -0.41126023336E+01 -0.53668884419E+01  0.67615783896E+01  0.51100000000E-03 0.  1.
         12    1    4    4    0    0 -0.89229789360E+01 -0.16258840667E+02  0.21530471795E+02  0.28417084098E+02  0.00000000000E+00 0. -1.
</event>
<event>
 8    1  0.2466538E-006  0.9118800E+02  0.7816164E-02  0.1184000E+00
        -11   -1    0    0    0    0  0.00000000000E+00  0.00000000000E+00  0.45593999997E+02  0.45594000000E+02  0.51100000000E-03 0.  1.
         11   -1    0    0    0    0 -0.00000000000E+00 -0.00000000000E+00 -0.45593999997E+02  0.45594000000E+02  0.51100000000E-03 0. -1.
         23    2    1    2    0    0 -0.88817841970E-15 -0.35527136788E-14  0.35527136788E-14  0.91188000000E+02  0.91188000000E+02 0.  0.
    9900012    2    3    3    0    0 -0.70629478455E+01 -0.31997090438E+02  0.16795204584E+02  0.54367110198E+02  0.40000059318E+02 0.  0.
         12    1    3    3    0    0  0.70629478455E+01  0.31997090438E+02 -0.16795204584E+02  0.36820889802E+02  0.00000000000E+00 0. -1.
         11    1    4    4    0    0 -0.21722305365E+02 -0.10734201529E+02  0.74349637534E+01  0.25344828252E+02  0.51100000000E-03 0. -1.
        -11    1    4    4    0    0  0.10285397531E+02 -0.16812295259E+02  0.26958418591E+01  0.19892466862E+02  0.51100000000E-03 0.  1.
         12    1    4    4    0    0  0.43739599889E+01 -0.44505936499E+01  0.66643989720E+01  0.91298150846E+01  0.00000000000E+00 0. -1.
</event>
<event>
 8    1  0.2466538E-006  0.9118800E+02  0.7816164E-02  0.1184000E+00
        -11   -1    0    0    0    0  0.00000000000E+00  0.00000000000E+00  0.45593999997E+02  0.45594000000E+02  0.51100000000E-03 0.  1.
         11   -1    0    0    0    0 -0.00000000000E+00 -0.00000000000E+00 -0.45593999997E+02  0.45594000000E+02  0.51100000000E-03 0. -1.
         23    2    1    2    0    0  0.00000000000E+00 -0.17763568394E-14  0.00000000000E+00  0.91188000000E+02  0.91188000000E+02 0.  0.
    9900012    2    3    3    0    0 -0.23581722830E+02  0.41757401898E+01  0.27968676083E+02  0.54367064385E+02  0.39999954879E+02 0.  0.
         12    1    3    3    0    0  0.23581722830E+02 -0.41757401898E+01 -0.27968676083E+02  0.36820935615E+02  0.00000000000E+00 0. -1.
         11    1    4    4    0    0 -0.10374409594E+02  0.10036333437E+02 -0.65041134949E+01  0.15832241026E+02  0.51100000000E-03 0. -1.
        -11    1    4    4    0    0 -0.13446433416E+02 -0.56594029551E+01  0.24200178309E+02  0.28257459969E+02  0.51100000000E-03 0.  1.
         12    1    4    4    0    0  0.23912018077E+00 -0.20119029169E+00  0.10272611269E+02  0.10277363391E+02  0.00000000000E+00 0. -1.
</event>
<event>
 8    1  0.2466538E-006  0.9118800E+02  0.7816164E-02  0.1184000E+00
        -11   -1    0    0    0    0  0.00000000000E+00  0.00000000000E+00  0.45593999997E+02  0.45594000000E+02  0.51100000000E-03 0.  1.
         11   -1    0    0    0    0 -0.00000000000E+00 -0.00000000000E+00 -0.45593999997E+02  0.45594000000E+02  0.51100000000E-03 0. -1.
         23    2    1    2    0    0 -0.35527136788E-14  0.35527136788E-14  0.00000000000E+00  0.91188000000E+02  0.91188000000E+02 0.  0.
    9900012    2    3    3    0    0 -0.18291670062E+02  0.30754467628E+02 -0.86810240037E+01  0.54367046041E+02  0.39999913059E+02 0.  0.
        -12    1    3    3    0    0  0.18291670062E+02 -0.30754467628E+02  0.86810240037E+01  0.36820953959E+02  0.00000000000E+00 0.  1.
         11    1    4    4    0    0 -0.40570454474E+01  0.36939474890E+01  0.72854181685E+01  0.91204267425E+01  0.51100000000E-03 0. -1.
        -11    1    4    4    0    0 -0.44824271024E+01 -0.15466535162E+01  0.61712574371E+01  0.77825900858E+01  0.51100000000E-03 0.  1.
         12    1    4    4    0    0 -0.97521975125E+01  0.28607173655E+02 -0.22137699609E+02  0.37464029212E+02  0.00000000000E+00 0. -1.
</event>
<event>
 8    1  0.2466538E-006  0.9118800E+02  0.7816164E-02  0.1184000E+00
        -11   -1    0    0    0    0  0.00000000000E+00  0.00000000000E+00  0.45593999997E+02  0.45594000000E+02  0.51100000000E-03 0.  1.
         11   -1    0    0    0    0 -0.00000000000E+00 -0.00000000000E+00 -0.45593999997E+02  0.45594000000E+02  0.51100000000E-03 0. -1.
         23    2    1    2    0    0  0.35527136788E-14  0.00000000000E+00 -0.17763568394E-14  0.91188000000E+02  0.91188000000E+02 0.  0.
    9900012    2    3    3    0    0 -0.16056933050E+02  0.32622314492E+02  0.58086984331E+01  0.54367061944E+02  0.39999949314E+02 0.  0.
        -12    1    3    3    0    0  0.16056933050E+02 -0.32622314492E+02 -0.58086984331E+01  0.36820938056E+02  0.00000000000E+00 0.  1.
         11    1    4    4    0    0 -0.16012420484E+02  0.16295295214E+02 -0.34487197042E+01  0.23104716483E+02  0.51100000000E-03 0. -1.
        -11    1    4    4    0    0  0.10201654464E+02  0.35684271696E+01 -0.25243322663E+01  0.11098634147E+02  0.51100000000E-03 0.  1.
        -12    1    4    4    0    0 -0.10246167030E+02  0.12758592109E+02  0.11781750404E+02  0.20163711315E+02  0.00000000000E+00 0.  1.
</event>
<event>
 8    1  0.2466538E-006  0.9118800E+02  0.7816164E-02  0.1184000E+00
        -11   -1    0    0    0    0  0.00000000000E+00  0.00000000000E+00  0.45593999997E+02  0.45594000000E+02  0.51100000000E-03 0. -1.
         11   -1    0    0    0    0 -0.00000000000E+00 -0.00000000000E+00 -0.45593999997E+02  0.45594000000E+02  0.51100000000E-03 0.  1.
         23    2    1    2    0    0  0.00000000000E+00  0.00000000000E+00  0.00000000000E+00  0.91188000000E+02  0.91188000000E+02 0.  0.
    9900012    2    3    3    0    0  0.92240268187E+01  0.32953242625E+02  0.13593421629E+02  0.54367082278E+02  0.39999995670E+02 0.  0.
         12    1    3    3    0    0 -0.92240268187E+01 -0.32953242625E+02 -0.13593421629E+02  0.36820917722E+02  0.00000000000E+00 0. -1.
         11    1    4    4    0    0  0.63393224928E+01  0.12365032108E+02  0.18934224919E+02  0.23485866010E+02  0.51100000000E-03 0. -1.
        -11    1    4    4    0    0  0.93818331044E+00  0.20098665040E+01  0.77563110749E+01  0.80672246181E+01  0.51100000000E-03 0.  1.
        -12    1    4    4    0    0  0.19465210154E+01  0.18578344013E+02 -0.13097114365E+02  0.22813991650E+02  0.00000000000E+00 0.  1.
</event>
<event>
 8    1  0.2466538E-006  0.9118800E+02  0.7816164E-02  0.1184000E+00
        -11   -1    0    0    0    0  0.00000000000E+00  0.00000000000E+00  0.45593999997E+02  0.45594000000E+02  0.51100000000E-03 0. -1.
         11   -1    0    0    0    0 -0.00000000000E+00 -0.00000000000E+00 -0.45593999997E+02  0.45594000000E+02  0.51100000000E-03 0.  1.
         23    2    1    2    0    0  0.00000000000E+00  0.00000000000E+00  0.00000000000E+00  0.91188000000E+02  0.91188000000E+02 0.  0.
    9900012    2    3    3    0    0 -0.19583945454E+02  0.30855217051E+02 -0.44949483155E+01  0.54367083401E+02  0.39999998230E+02 0.  0.
         12    1    3    3    0    0  0.19583945454E+02 -0.30855217051E+02  0.44949483155E+01  0.36820916599E+02  0.00000000000E+00 0. -1.
         11    1    4    4    0    0 -0.68576438812E+01 -0.34969602914E+01 -0.24969242062E+01  0.80926288456E+01  0.51100000000E-03 0. -1.
        -11    1    4    4    0    0 -0.15342007093E+02  0.69902160522E+01  0.55858778163E+01  0.17760696308E+02  0.51100000000E-03 0.  1.
        -12    1    4    4    0    0  0.26157055199E+01  0.27361961290E+02 -0.75839019256E+01  0.28513758248E+02  0.00000000000E+00 0.  1.
</event>
<event>
 8    1  0.2466538E-006  0.9118800E+02  0.7816164E-02  0.1184000E+00
        -11   -1    0    0    0    0  0.00000000000E+00  0.00000000000E+00  0.45593999997E+02  0.45594000000E+02  0.51100000000E-03 0.  1.
         11   -1    0    0    0    0 -0.00000000000E+00 -0.00000000000E+00 -0.45593999997E+02  0.45594000000E+02  0.51100000000E-03 0. -1.
         23    2    1    2    0    0  0.00000000000E+00 -0.35527136788E-14  0.00000000000E+00  0.91188000000E+02  0.91188000000E+02 0.  0.
    9900012    2    3    3    0    0 -0.22603725728E+02  0.24758792612E+02 -0.15226727084E+02  0.54367089554E+02  0.40000012256E+02 0.  0.
        -12    1    3    3    0    0  0.22603725728E+02 -0.24758792612E+02  0.15226727084E+02  0.36820910446E+02  0.00000000000E+00 0.  1.
         11    1    4    4    0    0 -0.16713140120E+02  0.12195803040E+02 -0.13028676396E+02  0.24450216223E+02  0.51100000000E-03 0. -1.
        -11    1    4    4    0    0 -0.13231522849E+02  0.10943510259E+02 -0.93409607506E+01  0.19547049949E+02  0.51100000000E-03 0.  1.
        -12    1    4    4    0    0  0.73409372413E+01  0.16194793130E+01  0.71429100621E+01  0.10369823382E+02  0.00000000000E+00 0.  1.
</event>
<event>
 8    1  0.2466538E-006  0.9118800E+02  0.7816164E-02  0.1184000E+00
        -11   -1    0    0    0    0  0.00000000000E+00  0.00000000000E+00  0.45593999997E+02  0.45594000000E+02  0.51100000000E-03 0.  1.
         11   -1    0    0    0    0 -0.00000000000E+00 -0.00000000000E+00 -0.45593999997E+02  0.45594000000E+02  0.51100000000E-03 0. -1.
         23    2    1    2    0    0  0.00000000000E+00  0.35527136788E-14  0.35527136788E-14  0.91188000000E+02  0.91188000000E+02 0.  0.
    9900012    2    3    3    0    0 -0.74760557213E+01  0.31325332633E+02  0.17849704989E+02  0.54367084178E+02  0.40000000001E+02 0.  0.
         12    1    3    3    0    0  0.74760557213E+01 -0.31325332633E+02 -0.17849704989E+02  0.36820915822E+02  0.00000000000E+00 0. -1.
         11    1    4    4    0    0 -0.23613625656E+01  0.18698092304E+00  0.11132187103E+02  0.11381414015E+02  0.51100000000E-03 0. -1.
        -11    1    4    4    0    0 -0.10175813479E+02  0.37431794149E+00  0.59604564964E+01  0.11798912483E+02  0.51100000000E-03 0.  1.
         12    1    4    4    0    0  0.50611203228E+01  0.30764033769E+02  0.75706138983E+00  0.31186757680E+02  0.00000000000E+00 0. -1.
</event>
<event>
 8    1  0.2466538E-006  0.9118800E+02  0.7816164E-02  0.1184000E+00
        -11   -1    0    0    0    0  0.00000000000E+00  0.00000000000E+00  0.45593999997E+02  0.45594000000E+02  0.51100000000E-03 0. -1.
         11   -1    0    0    0    0 -0.00000000000E+00 -0.00000000000E+00 -0.45593999997E+02  0.45594000000E+02  0.51100000000E-03 0.  1.
         23    2    1    2    0    0  0.73552275381E-15  0.00000000000E+00  0.00000000000E+00  0.91188000000E+02  0.91188000000E+02 0.  0.
    9900012    2    3    3    0    0 -0.11797763309E+00 -0.15541852904E+02 -0.33380047826E+02  0.54366936690E+02  0.39999663771E+02 0.  0.
         12    1    3    3    0    0  0.11797763309E+00  0.15541852904E+02  0.33380047826E+02  0.36821063310E+02  0.00000000000E+00 0. -1.
         11    1    4    4    0    0  0.48284501229E+01  0.42930940303E+01 -0.56609611496E+01  0.85901727772E+01  0.51100000000E-03 0. -1.
        -11    1    4    4    0    0 -0.17569758246E+02 -0.91535570880E+01 -0.13564631115E+02  0.24010065175E+02  0.51100000000E-03 0.  1.
         12    1    4    4    0    0  0.12623330490E+02 -0.10681389846E+02 -0.14154455562E+02  0.21766698738E+02  0.00000000000E+00 0. -1.
</event>
<event>
 8    1  0.2466538E-006  0.9118800E+02  0.7816164E-02  0.1184000E+00
        -11   -1    0    0    0    0  0.00000000000E+00  0.00000000000E+00  0.45593999997E+02  0.45594000000E+02  0.51100000000E-03 0.  1.
         11   -1    0    0    0    0 -0.00000000000E+00 -0.00000000000E+00 -0.45593999997E+02  0.45594000000E+02  0.51100000000E-03 0. -1.
         23    2    1    2    0    0  0.00000000000E+00  0.00000000000E+00 -0.71054273576E-14  0.91188000000E+02  0.91188000000E+02 0.  0.
    9900012    2    3    3    0    0 -0.21171201384E+02  0.18031024618E+02 -0.24133806367E+02  0.54367106114E+02  0.40000050007E+02 0.  0.
        -12    1    3    3    0    0  0.21171201384E+02 -0.18031024618E+02  0.24133806367E+02  0.36820893886E+02  0.00000000000E+00 0.  1.
         11    1    4    4    0    0  0.54755805307E+01  0.23851738623E+01 -0.60871581072E+01  0.85278678804E+01  0.51100000000E-03 0. -1.
        -11    1    4    4    0    0  0.19300103958E+01  0.13225672414E+02 -0.71652107348E+01  0.15165210057E+02  0.51100000000E-03 0.  1.
        -12    1    4    4    0    0 -0.28576792310E+02  0.24201783419E+01 -0.10881437525E+02  0.30674028176E+02  0.00000000000E+00 0.  1.
</event>
<event>
 8    1  0.2466538E-006  0.9118800E+02  0.7816164E-02  0.1184000E+00
        -11   -1    0    0    0    0  0.00000000000E+00  0.00000000000E+00  0.45593999997E+02  0.45594000000E+02  0.51100000000E-03 0.  1.
         11   -1    0    0    0    0 -0.00000000000E+00 -0.00000000000E+00 -0.45593999997E+02  0.45594000000E+02  0.51100000000E-03 0. -1.
         23    2    1    2    0    0 -0.35527136788E-14  0.00000000000E+00  0.00000000000E+00  0.91188000000E+02  0.91188000000E+02 0.  0.
    9900012    2    3    3    0    0  0.25940775806E+02 -0.24160683633E+02  0.99558380865E+01  0.54367065805E+02  0.39999958115E+02 0.  0.
         12    1    3    3    0    0 -0.25940775806E+02  0.24160683633E+02 -0.99558380865E+01  0.36820934195E+02  0.00000000000E+00 0. -1.
         11    1    4    4    0    0 -0.59487320974E+01 -0.29353392660E+01 -0.32187283512E+00  0.66413276200E+01  0.51100000000E-03 0. -1.
        -11    1    4    4    0    0  0.16793410904E+02 -0.22914981188E+02  0.14587218269E+02  0.31935903772E+02  0.51100000000E-03 0.  1.
        -12    1    4    4    0    0  0.15096096999E+02  0.16896368216E+01 -0.43095073470E+01  0.15789834413E+02  0.00000000000E+00 0.  1.
</event>
<event>
 8    1  0.2466538E-006  0.9118800E+02  0.7816164E-02  0.1184000E+00
        -11   -1    0    0    0    0  0.00000000000E+00  0.00000000000E+00  0.45593999997E+02  0.45594000000E+02  0.51100000000E-03 0. -1.
         11   -1    0    0    0    0 -0.00000000000E+00 -0.00000000000E+00 -0.45593999997E+02  0.45594000000E+02  0.51100000000E-03 0.  1.
         23    2    1    2    0    0 -0.35527136788E-14  0.35527136788E-14  0.17763568394E-14  0.91188000000E+02  0.91188000000E+02 0.  0.
    9900012    2    3    3    0    0  0.30729854371E+02 -0.14285816545E+02 -0.14400481487E+02  0.54367049834E+02  0.39999921706E+02 0.  0.
         12    1    3    3    0    0 -0.30729854371E+02  0.14285816545E+02  0.14400481487E+02  0.36820950166E+02  0.00000000000E+00 0. -1.
         11    1    4    4    0    0  0.10000257519E+02  0.97854922640E+01  0.43462406785E+01  0.14650966439E+02  0.51100000000E-03 0. -1.
        -11    1    4    4    0    0 -0.38549806285E+00 -0.83258468068E+01 -0.69643751446E+01  0.10861438911E+02  0.51100000000E-03 0.  1.
        -12    1    4    4    0    0  0.21115094915E+02 -0.15745462003E+02 -0.11782347021E+02  0.28854644484E+02  0.00000000000E+00 0.  1.
</event>
<event>
 8    1  0.2466538E-006  0.9118800E+02  0.7816164E-02  0.1184000E+00
        -11   -1    0    0    0    0  0.00000000000E+00  0.00000000000E+00  0.45593999997E+02  0.45594000000E+02  0.51100000000E-03 0.  1.
         11   -1    0    0    0    0 -0.00000000000E+00 -0.00000000000E+00 -0.45593999997E+02  0.45594000000E+02  0.51100000000E-03 0. -1.
         23    2    1    2    0    0  0.00000000000E+00 -0.35527136788E-14  0.71054273576E-14  0.91188000000E+02  0.91188000000E+02 0.  0.
    9900012    2    3    3    0    0 -0.13989138882E+01  0.26363452214E+02 -0.25666911739E+02  0.54367096549E+02  0.40000028204E+02 0.  0.
        -12    1    3    3    0    0  0.13989138882E+01 -0.26363452214E+02  0.25666911739E+02  0.36820903451E+02  0.00000000000E+00 0.  1.
         11    1    4    4    0    0 -0.51271630778E-01  0.12722053174E+02  0.38120547589E+01  0.13281002503E+02  0.51100000000E-03 0.  1.
        -11    1    4    4    0    0  0.99827672265E+01 -0.10814248027E+01 -0.10297788491E+02  0.14382961071E+02  0.51100000000E-03 0. -1.
        -12    1    4    4    0    0 -0.11330409484E+02  0.14722823843E+02 -0.19181178007E+02  0.26703132976E+02  0.00000000000E+00 0.  1.
</event>
<event>
 8    1  0.2466538E-006  0.9118800E+02  0.7816164E-02  0.1184000E+00
        -11   -1    0    0    0    0  0.00000000000E+00  0.00000000000E+00  0.45593999997E+02  0.45594000000E+02  0.51100000000E-03 0. -1.
         11   -1    0    0    0    0 -0.00000000000E+00 -0.00000000000E+00 -0.45593999997E+02  0.45594000000E+02  0.51100000000E-03 0.  1.
         23    2    1    2    0    0 -0.44408920985E-15 -0.55511151231E-15  0.00000000000E+00  0.91188000000E+02  0.91188000000E+02 0.  0.
    9900012    2    3    3    0    0  0.26362336339E+01  0.74742957154E+00 -0.36718790429E+02  0.54367109879E+02  0.40000058592E+02 0.  0.
         12    1    3    3    0    0 -0.26362336339E+01 -0.74742957154E+00  0.36718790429E+02  0.36820890121E+02  0.00000000000E+00 0. -1.
         11    1    4    4    0    0 -0.36914928738E+00  0.68227202953E+00 -0.94960349870E+01  0.95276674508E+01  0.51100000000E-03 0. -1.
        -11    1    4    4    0    0  0.50720991890E+01 -0.80708716832E+01 -0.33195492275E+02  0.34537021695E+02  0.51100000000E-03 0.  1.
         12    1    4    4    0    0 -0.20667162677E+01  0.81360292252E+01  0.59727368335E+01  0.10302420733E+02  0.00000000000E+00 0. -1.
</event>
<event>
 8    1  0.2466538E-006  0.9118800E+02  0.7816164E-02  0.1184000E+00
        -11   -1    0    0    0    0  0.00000000000E+00  0.00000000000E+00  0.45593999997E+02  0.45594000000E+02  0.51100000000E-03 0.  1.
         11   -1    0    0    0    0 -0.00000000000E+00 -0.00000000000E+00 -0.45593999997E+02  0.45594000000E+02  0.51100000000E-03 0. -1.
         23    2    1    2    0    0  0.00000000000E+00  0.00000000000E+00  0.17763568394E-14  0.91188000000E+02  0.91188000000E+02 0.  0.
    9900012    2    3    3    0    0  0.21881113473E+02  0.27321709352E+02 -0.11424639843E+02  0.54367064049E+02  0.39999954113E+02 0.  0.
        -12    1    3    3    0    0 -0.21881113473E+02 -0.27321709352E+02  0.11424639843E+02  0.36820935951E+02  0.00000000000E+00 0.  1.
         11    1    4    4    0    0  0.21230706834E+02  0.20130681469E+02 -0.15367724544E+02  0.33047756459E+02  0.51100000000E-03 0. -1.
        -11    1    4    4    0    0  0.36817055621E+01  0.13445367223E+02  0.33932835409E+01  0.14347377079E+02  0.51100000000E-03 0.  1.
        -12    1    4    4    0    0 -0.30312989227E+01 -0.62543393395E+01  0.54980115972E+00  0.69719305108E+01  0.00000000000E+00 0.  1.
</event>
<event>
 8    1  0.2466538E-006  0.9118800E+02  0.7816164E-02  0.1184000E+00
        -11   -1    0    0    0    0  0.00000000000E+00  0.00000000000E+00  0.45593999997E+02  0.45594000000E+02  0.51100000000E-03 0. -1.
         11   -1    0    0    0    0 -0.00000000000E+00 -0.00000000000E+00 -0.45593999997E+02  0.45594000000E+02  0.51100000000E-03 0.  1.
         23    2    1    2    0    0  0.00000000000E+00  0.00000000000E+00  0.00000000000E+00  0.91188000000E+02  0.91188000000E+02 0.  0.
    9900012    2    3    3    0    0  0.25879191775E+02 -0.61503328477E+01 -0.25460178926E+02  0.54367083771E+02  0.39999999072E+02 0.  0.
         12    1    3    3    0    0 -0.25879191775E+02  0.61503328477E+01  0.25460178926E+02  0.36820916229E+02  0.00000000000E+00 0. -1.
         11    1    4    4    0    0 -0.43790268093E+01 -0.47721517290E+01 -0.17789740375E+02  0.18932093671E+02  0.51100000000E-03 0. -1.
        -11    1    4    4    0    0  0.94994720604E+01 -0.14725587832E+01 -0.10780952168E+02  0.14444283600E+02  0.51100000000E-03 0.  1.
         12    1    4    4    0    0  0.20758746524E+02  0.94377664555E-01  0.31105136175E+01  0.20990706499E+02  0.00000000000E+00 0. -1.
</event>
<event>
 8    1  0.2466538E-006  0.9118800E+02  0.7816164E-02  0.1184000E+00
        -11   -1    0    0    0    0  0.00000000000E+00  0.00000000000E+00  0.45593999997E+02  0.45594000000E+02  0.51100000000E-03 0. -1.
         11   -1    0    0    0    0 -0.00000000000E+00 -0.00000000000E+00 -0.45593999997E+02  0.45594000000E+02  0.51100000000E-03 0.  1.
         23    2    1    2    0    0 -0.17763568394E-14  0.00000000000E+00  0.00000000000E+00  0.91188000000E+02  0.91188000000E+02 0.  0.
    9900012    2    3    3    0    0 -0.13376421247E+02  0.81527310185E+01 -0.33322500824E+02  0.54367017808E+02  0.39999848697E+02 0.  0.
         12    1    3    3    0    0  0.13376421247E+02 -0.81527310185E+01  0.33322500824E+02  0.36820982192E+02  0.00000000000E+00 0. -1.
         11    1    4    4    0    0  0.13410184145E+01  0.38848725907E+01 -0.28873293041E+02  0.29164320954E+02  0.51100000000E-03 0. -1.
        -11    1    4    4    0    0 -0.10809278492E+02  0.66956844291E+01 -0.11259595068E+02  0.16983850354E+02  0.51100000000E-03 0.  1.
         12    1    4    4    0    0 -0.39081611691E+01 -0.24278260013E+01  0.68103872849E+01  0.82188464998E+01  0.00000000000E+00 0. -1.
</event>
<event>
 8    1  0.2466538E-006  0.9118800E+02  0.7816164E-02  0.1184000E+00
        -11   -1    0    0    0    0  0.00000000000E+00  0.00000000000E+00  0.45593999997E+02  0.45594000000E+02  0.51100000000E-03 0.  1.
         11   -1    0    0    0    0 -0.00000000000E+00 -0.00000000000E+00 -0.45593999997E+02  0.45594000000E+02  0.51100000000E-03 0. -1.
         23    2    1    2    0    0  0.35527136788E-14  0.00000000000E+00  0.00000000000E+00  0.91188000000E+02  0.91188000000E+02 0.  0.
    9900012    2    3    3    0    0  0.24289467634E+02  0.27265927712E+02 -0.47313616266E+01  0.54366880587E+02  0.39999535872E+02 0.  0.
         12    1    3    3    0    0 -0.24289467634E+02 -0.27265927712E+02  0.47313616266E+01  0.36821119413E+02  0.00000000000E+00 0. -1.
         11    1    4    4    0    0  0.33256538264E+02  0.18164809306E+02 -0.34192684959E+01  0.38047983281E+02  0.51100000000E-03 0.  1.
        -11    1    4    4    0    0 -0.61974492629E+01  0.10325867100E+02  0.15620377356E+01  0.12143799689E+02  0.51100000000E-03 0. -1.
         12    1    4    4    0    0 -0.27696213667E+01 -0.12247486942E+01 -0.28741308663E+01  0.41750976175E+01  0.00000000000E+00 0. -1.
</event>
<event>
 8    1  0.2466538E-006  0.9118800E+02  0.7816164E-02  0.1184000E+00
        -11   -1    0    0    0    0  0.00000000000E+00  0.00000000000E+00  0.45593999997E+02  0.45594000000E+02  0.51100000000E-03 0.  1.
         11   -1    0    0    0    0 -0.00000000000E+00 -0.00000000000E+00 -0.45593999997E+02  0.45594000000E+02  0.51100000000E-03 0. -1.
         23    2    1    2    0    0 -0.35527136788E-14  0.17763568394E-14  0.35527136788E-14  0.91188000000E+02  0.91188000000E+02 0.  0.
    9900012    2    3    3    0    0 -0.26036986561E+02  0.11797643348E+02  0.23209287002E+02  0.54367081205E+02  0.39999993224E+02 0.  0.
         12    1    3    3    0    0  0.26036986561E+02 -0.11797643348E+02 -0.23209287002E+02  0.36820918795E+02  0.00000000000E+00 0. -1.
         11    1    4    4    0    0 -0.63721242136E+01 -0.70929703919E+01  0.17374175935E+01  0.96918943519E+01  0.51100000000E-03 0. -1.
        -11    1    4    4    0    0 -0.86698669221E+01 -0.53546669757E+01 -0.43379457010E+00  0.10199373944E+02  0.51100000000E-03 0.  1.
        -12    1    4    4    0    0 -0.10994995425E+02  0.24245280716E+02  0.21905663979E+02  0.34475812909E+02  0.00000000000E+00 0.  1.
</event>
<event>
 8    1  0.2466538E-006  0.9118800E+02  0.7816164E-02  0.1184000E+00
        -11   -1    0    0    0    0  0.00000000000E+00  0.00000000000E+00  0.45593999997E+02  0.45594000000E+02  0.51100000000E-03 0.  1.
         11   -1    0    0    0    0 -0.00000000000E+00 -0.00000000000E+00 -0.45593999997E+02  0.45594000000E+02  0.51100000000E-03 0. -1.
         23    2    1    2    0    0  0.00000000000E+00 -0.35527136788E-14  0.71054273576E-14  0.91188000000E+02  0.91188000000E+02 0.  0.
    9900012    2    3    3    0    0 -0.20478674054E+02  0.15042698788E+02 -0.26648092164E+02  0.54367086190E+02  0.40000004587E+02 0.  0.
        -12    1    3    3    0    0  0.20478674054E+02 -0.15042698788E+02  0.26648092164E+02  0.36820913810E+02  0.00000000000E+00 0.  1.
         11    1    4    4    0    0 -0.49379017146E+01 -0.45378926525E+01  0.48120600536E+01  0.82541665412E+01  0.51100000000E-03 0. -1.
        -11    1    4    4    0    0  0.37689611865E+01 -0.17730472342E+01 -0.78239467871E+01  0.88635719949E+01  0.51100000000E-03 0.  1.
         12    1    4    4    0    0 -0.19309733526E+02  0.21353638675E+02 -0.23636205430E+02  0.37249347654E+02  0.00000000000E+00 0. -1.
</event>
<event>
 8    1  0.2466538E-006  0.9118800E+02  0.7816164E-02  0.1184000E+00
        -11   -1    0    0    0    0  0.00000000000E+00  0.00000000000E+00  0.45593999997E+02  0.45594000000E+02  0.51100000000E-03 0. -1.
         11   -1    0    0    0    0 -0.00000000000E+00 -0.00000000000E+00 -0.45593999997E+02  0.45594000000E+02  0.51100000000E-03 0.  1.
         23    2    1    2    0    0 -0.88817841970E-15 -0.17763568394E-14  0.71054273576E-14  0.91188000000E+02  0.91188000000E+02 0.  0.
    9900012    2    3    3    0    0  0.11973424888E+01  0.85882869259E+01 -0.35785289620E+02  0.54367092155E+02  0.40000018186E+02 0.  0.
         12    1    3    3    0    0 -0.11973424888E+01 -0.85882869259E+01  0.35785289620E+02  0.36820907845E+02  0.00000000000E+00 0. -1.
         11    1    4    4    0    0  0.14139556111E+01  0.89000694252E+00  0.40258639218E+01  0.43587800364E+01  0.51100000000E-03 0. -1.
        -11    1    4    4    0    0  0.13673650671E+02  0.87633579587E+01 -0.23362779160E+02  0.28453200448E+02  0.51100000000E-03 0.  1.
        -12    1    4    4    0    0 -0.13890263793E+02 -0.10650779754E+01 -0.16448374381E+02  0.21555111671E+02  0.00000000000E+00 0.  1.
</event>
<event>
 8    1  0.2466538E-006  0.9118800E+02  0.7816164E-02  0.1184000E+00
        -11   -1    0    0    0    0  0.00000000000E+00  0.00000000000E+00  0.45593999997E+02  0.45594000000E+02  0.51100000000E-03 0. -1.
         11   -1    0    0    0    0 -0.00000000000E+00 -0.00000000000E+00 -0.45593999997E+02  0.45594000000E+02  0.51100000000E-03 0.  1.
         23    2    1    2    0    0  0.00000000000E+00 -0.13322676296E-14  0.00000000000E+00  0.91188000000E+02  0.91188000000E+02 0.  0.
    9900012    2    3    3    0    0  0.13253491621E+02 -0.28120638167E+01  0.34237649892E+02  0.54367090001E+02  0.40000013276E+02 0.  0.
        -12    1    3    3    0    0 -0.13253491621E+02  0.28120638167E+01 -0.34237649892E+02  0.36820909999E+02  0.00000000000E+00 0.  1.
         11    1    4    4    0    0 -0.20357536931E+01 -0.62089440734E+01  0.10186952491E+02  0.12102449377E+02  0.51100000000E-03 0. -1.
        -11    1    4    4    0    0 -0.15092714574E+01  0.11648823928E+02 -0.54969688281E-01  0.11746319473E+02  0.51100000000E-03 0.  1.
        -12    1    4    4    0    0  0.16798516771E+02 -0.82519436715E+01  0.24105667089E+02  0.30518321151E+02  0.00000000000E+00 0.  1.
</event>
<event>
 8    1  0.2466538E-006  0.9118800E+02  0.7816164E-02  0.1184000E+00
        -11   -1    0    0    0    0  0.00000000000E+00  0.00000000000E+00  0.45593999997E+02  0.45594000000E+02  0.51100000000E-03 0.  1.
         11   -1    0    0    0    0 -0.00000000000E+00 -0.00000000000E+00 -0.45593999997E+02  0.45594000000E+02  0.51100000000E-03 0. -1.
         23    2    1    2    0    0  0.00000000000E+00 -0.28865798640E-14  0.00000000000E+00  0.91188000000E+02  0.91188000000E+02 0.  0.
    9900012    2    3    3    0    0  0.36551478482E+02  0.19312692250E+01 -0.40049199247E+01  0.54367085241E+02  0.40000002425E+02 0.  0.
        -12    1    3    3    0    0 -0.36551478482E+02 -0.19312692250E+01  0.40049199247E+01  0.36820914759E+02  0.00000000000E+00 0.  1.
         11    1    4    4    0    0  0.28761108091E+01  0.19963664630E+01 -0.98171821837E+00  0.36361055213E+01  0.51100000000E-03 0. -1.
        -11    1    4    4    0    0  0.16020388206E+02  0.17713867385E+02 -0.79956760356E+01  0.25186599046E+02  0.51100000000E-03 0.  1.
        -12    1    4    4    0    0  0.17654979467E+02 -0.17778964623E+02  0.49724743293E+01  0.25544380674E+02  0.00000000000E+00 0.  1.
</event>
<event>
 8    1  0.2466538E-006  0.9118800E+02  0.7816164E-02  0.1184000E+00
        -11   -1    0    0    0    0  0.00000000000E+00  0.00000000000E+00  0.45593999997E+02  0.45594000000E+02  0.51100000000E-03 0.  1.
         11   -1    0    0    0    0 -0.00000000000E+00 -0.00000000000E+00 -0.45593999997E+02  0.45594000000E+02  0.51100000000E-03 0. -1.
         23    2    1    2    0    0  0.00000000000E+00 -0.17763568394E-14  0.41633363423E-15  0.91188000000E+02  0.91188000000E+02 0.  0.
    9900012    2    3    3    0    0 -0.35045568121E+02 -0.11295078982E+02 -0.85669355534E-01  0.54367109281E+02  0.40000057228E+02 0.  0.
        -12    1    3    3    0    0  0.35045568121E+02  0.11295078982E+02  0.85669355534E-01  0.36820890719E+02  0.00000000000E+00 0.  1.
         11    1    4    4    0    0 -0.13544306210E+02 -0.81741834447E+01 -0.90728073919E+01  0.18236812768E+02  0.51100000000E-03 0. -1.
        -11    1    4    4    0    0 -0.32399649576E+01  0.11026031923E+02  0.44285019918E+00  0.11500733431E+02  0.51100000000E-03 0.  1.
        -12    1    4    4    0    0 -0.18261296953E+02 -0.14146927460E+02  0.85442878372E+01  0.24629563082E+02  0.00000000000E+00 0.  1.
</event>
<event>
 8    1  0.2466538E-006  0.9118800E+02  0.7816164E-02  0.1184000E+00
        -11   -1    0    0    0    0  0.00000000000E+00  0.00000000000E+00  0.45593999997E+02  0.45594000000E+02  0.51100000000E-03 0.  1.
         11   -1    0    0    0    0 -0.00000000000E+00 -0.00000000000E+00 -0.45593999997E+02  0.45594000000E+02  0.51100000000E-03 0. -1.
         23    2    1    2    0    0  0.17763568394E-14  0.71054273576E-14 -0.88817841970E-15  0.91188000000E+02  0.91188000000E+02 0.  0.
    9900012    2    3    3    0    0  0.15972465763E+02 -0.32643963417E+02  0.59183956362E+01  0.54367144265E+02  0.40000136981E+02 0.  0.
         12    1    3    3    0    0 -0.15972465763E+02  0.32643963417E+02 -0.59183956362E+01  0.36820855735E+02  0.00000000000E+00 0. -1.
         11    1    4    4    0    0 -0.30230213998E+01  0.27798072876E+00  0.19353509662E+01  0.36002104512E+01  0.51100000000E-03 0. -1.
        -11    1    4    4    0    0 -0.13832616960E+01 -0.10242792570E+00  0.11353868152E+02  0.11438279009E+02  0.51100000000E-03 0.  1.
         12    1    4    4    0    0  0.20378748859E+02 -0.32819516220E+02 -0.73708234822E+01  0.39328654805E+02  0.00000000000E+00 0. -1.
</event>
<event>
 8    1  0.2466538E-006  0.9118800E+02  0.7816164E-02  0.1184000E+00
        -11   -1    0    0    0    0  0.00000000000E+00  0.00000000000E+00  0.45593999997E+02  0.45594000000E+02  0.51100000000E-03 0.  1.
         11   -1    0    0    0    0 -0.00000000000E+00 -0.00000000000E+00 -0.45593999997E+02  0.45594000000E+02  0.51100000000E-03 0. -1.
         23    2    1    2    0    0  0.00000000000E+00  0.00000000000E+00  0.44408920985E-15  0.91188000000E+02  0.91188000000E+02 0.  0.
    9900012    2    3    3    0    0  0.10157191900E+02 -0.35216449617E+02  0.35231608171E+01  0.54367088373E+02  0.40000009564E+02 0.  0.
        -12    1    3    3    0    0 -0.10157191900E+02  0.35216449617E+02 -0.35231608171E+01  0.36820911627E+02  0.00000000000E+00 0.  1.
         11    1    4    4    0    0 -0.35408663478E+01 -0.16463704931E+01  0.14680144598E+02  0.15190619342E+02  0.51100000000E-03 0.  1.
        -11    1    4    4    0    0  0.68531157823E+01 -0.17172360665E+02 -0.58147624272E+00  0.18498467007E+02  0.51100000000E-03 0. -1.
        -12    1    4    4    0    0  0.68449424651E+01 -0.16397718459E+02 -0.10575507539E+02  0.20678002024E+02  0.00000000000E+00 0.  1.
</event>
<event>
 8    1  0.2466538E-006  0.9118800E+02  0.7816164E-02  0.1184000E+00
        -11   -1    0    0    0    0  0.00000000000E+00  0.00000000000E+00  0.45593999997E+02  0.45594000000E+02  0.51100000000E-03 0. -1.
         11   -1    0    0    0    0 -0.00000000000E+00 -0.00000000000E+00 -0.45593999997E+02  0.45594000000E+02  0.51100000000E-03 0.  1.
         23    2    1    2    0    0 -0.17763568394E-14  0.00000000000E+00 -0.17763568394E-14  0.91188000000E+02  0.91188000000E+02 0.  0.
    9900012    2    3    3    0    0  0.12592522975E+02 -0.33149215521E+02  0.99165601504E+01  0.54367078097E+02  0.39999986138E+02 0.  0.
        -12    1    3    3    0    0 -0.12592522975E+02  0.33149215521E+02 -0.99165601504E+01  0.36820921903E+02  0.00000000000E+00 0.  1.
         11    1    4    4    0    0  0.13629809527E+02 -0.88306673154E+01 -0.85415660128E+01  0.18349679648E+02  0.51100000000E-03 0.  1.
        -11    1    4    4    0    0  0.24752192818E+01 -0.90820812029E+01  0.18071856115E+02  0.20376527996E+02  0.51100000000E-03 0. -1.
        -12    1    4    4    0    0 -0.35125058339E+01 -0.15236467003E+02  0.38627004778E+00  0.15640870453E+02  0.00000000000E+00 0.  1.
</event>
<event>
 8    1  0.2466538E-006  0.9118800E+02  0.7816164E-02  0.1184000E+00
        -11   -1    0    0    0    0  0.00000000000E+00  0.00000000000E+00  0.45593999997E+02  0.45594000000E+02  0.51100000000E-03 0. -1.
         11   -1    0    0    0    0 -0.00000000000E+00 -0.00000000000E+00 -0.45593999997E+02  0.45594000000E+02  0.51100000000E-03 0.  1.
         23    2    1    2    0    0  0.35527136788E-14  0.00000000000E+00  0.00000000000E+00  0.91188000000E+02  0.91188000000E+02 0.  0.
    9900012    2    3    3    0    0 -0.29253020079E+02 -0.28514324847E+01  0.22179037276E+02  0.54367088205E+02  0.40000009180E+02 0.  0.
        -12    1    3    3    0    0  0.29253020079E+02  0.28514324847E+01 -0.22179037276E+02  0.36820911795E+02  0.00000000000E+00 0.  1.
         11    1    4    4    0    0 -0.17844615084E+02 -0.98884171405E+01  0.35227459165E+00  0.20404293143E+02  0.51100000000E-03 0. -1.
        -11    1    4    4    0    0 -0.15560397392E+02  0.93418681626E+01  0.89455838104E+01  0.20234128045E+02  0.51100000000E-03 0.  1.
        -12    1    4    4    0    0  0.41519923976E+01 -0.23048835068E+01  0.12881178874E+02  0.13728667016E+02  0.00000000000E+00 0.  1.
</event>
<event>
 8    1  0.2466538E-006  0.9118800E+02  0.7816164E-02  0.1184000E+00
        -11   -1    0    0    0    0  0.00000000000E+00  0.00000000000E+00  0.45593999997E+02  0.45594000000E+02  0.51100000000E-03 0. -1.
         11   -1    0    0    0    0 -0.00000000000E+00 -0.00000000000E+00 -0.45593999997E+02  0.45594000000E+02  0.51100000000E-03 0.  1.
         23    2    1    2    0    0  0.00000000000E+00  0.35527136788E-14  0.88817841970E-15  0.91188000000E+02  0.91188000000E+02 0.  0.
    9900012    2    3    3    0    0 -0.30258818904E+02  0.19910830560E+02  0.66138417459E+01  0.54367079348E+02  0.39999988989E+02 0.  0.
         12    1    3    3    0    0  0.30258818904E+02 -0.19910830560E+02 -0.66138417459E+01  0.36820920652E+02  0.00000000000E+00 0. -1.
         11    1    4    4    0    0  0.57457969253E+01  0.91913717186E+01  0.10725440060E+02  0.15248952788E+02  0.51100000000E-03 0. -1.
        -11    1    4    4    0    0 -0.85464370487E+01  0.41142737534E+00  0.27677479701E+01  0.89928464793E+01  0.51100000000E-03 0.  1.
         12    1    4    4    0    0 -0.27458178781E+02  0.10308031466E+02 -0.68793462845E+01  0.30125280081E+02  0.00000000000E+00 0. -1.
</event>
<event>
 8    1  0.2466538E-006  0.9118800E+02  0.7816164E-02  0.1184000E+00
        -11   -1    0    0    0    0  0.00000000000E+00  0.00000000000E+00  0.45593999997E+02  0.45594000000E+02  0.51100000000E-03 0.  1.
         11   -1    0    0    0    0 -0.00000000000E+00 -0.00000000000E+00 -0.45593999997E+02  0.45594000000E+02  0.51100000000E-03 0. -1.
         23    2    1    2    0    0  0.00000000000E+00  0.00000000000E+00 -0.17763568394E-14  0.91188000000E+02  0.91188000000E+02 0.  0.
    9900012    2    3    3    0    0  0.28662626799E+02  0.19224247008E+02 -0.12832071061E+02  0.54367083447E+02  0.39999998335E+02 0.  0.
        -12    1    3    3    0    0 -0.28662626799E+02 -0.19224247008E+02  0.12832071061E+02  0.36820916553E+02  0.00000000000E+00 0.  1.
         11    1    4    4    0    0  0.95289184236E+01  0.17674321371E+02  0.10403646728E+00  0.20079660009E+02  0.51100000000E-03 0. -1.
        -11    1    4    4    0    0  0.91546690614E+01  0.47294911245E+01 -0.19409436349E+02  0.21975037465E+02  0.51100000000E-03 0.  1.
        -12    1    4    4    0    0  0.99790393142E+01 -0.31795654871E+01  0.64733288212E+01  0.12312385973E+02  0.00000000000E+00 0.  1.
</event>
<event>
 8    1  0.2466538E-006  0.9118800E+02  0.7816164E-02  0.1184000E+00
        -11   -1    0    0    0    0  0.00000000000E+00  0.00000000000E+00  0.45593999997E+02  0.45594000000E+02  0.51100000000E-03 0. -1.
         11   -1    0    0    0    0 -0.00000000000E+00 -0.00000000000E+00 -0.45593999997E+02  0.45594000000E+02  0.51100000000E-03 0.  1.
         23    2    1    2    0    0 -0.13322676296E-14  0.00000000000E+00  0.71054273576E-14  0.91188000000E+02  0.91188000000E+02 0.  0.
    9900012    2    3    3    0    0  0.12254218569E+01 -0.22476443706E+02  0.29139118405E+02  0.54367076576E+02  0.39999982669E+02 0.  0.
        -12    1    3    3    0    0 -0.12254218569E+01  0.22476443706E+02 -0.29139118405E+02  0.36820923424E+02  0.00000000000E+00 0.  1.
         11    1    4    4    0    0  0.24349761872E+01 -0.43412970650E+01  0.22358042141E+02  0.22905414597E+02  0.51100000000E-03 0. -1.
        -11    1    4    4    0    0  0.89423562636E+01  0.10623622955E+01  0.20669806199E+01  0.92394133113E+01  0.51100000000E-03 0.  1.
        -12    1    4    4    0    0 -0.10151910594E+02 -0.19197508936E+02  0.47140956444E+01  0.22222248667E+02  0.00000000000E+00 0.  1.
</event>
<event>
 8    1  0.2466538E-006  0.9118800E+02  0.7816164E-02  0.1184000E+00
        -11   -1    0    0    0    0  0.00000000000E+00  0.00000000000E+00  0.45593999997E+02  0.45594000000E+02  0.51100000000E-03 0. -1.
         11   -1    0    0    0    0 -0.00000000000E+00 -0.00000000000E+00 -0.45593999997E+02  0.45594000000E+02  0.51100000000E-03 0.  1.
         23    2    1    2    0    0  0.22204460493E-14  0.00000000000E+00  0.00000000000E+00  0.91188000000E+02  0.91188000000E+02 0.  0.
    9900012    2    3    3    0    0  0.26977888107E+01 -0.11441184600E+02 -0.34894120661E+02  0.54367103402E+02  0.40000043826E+02 0.  0.
         12    1    3    3    0    0 -0.26977888107E+01  0.11441184600E+02  0.34894120661E+02  0.36820896598E+02  0.00000000000E+00 0. -1.
         11    1    4    4    0    0 -0.49735065650E+01 -0.21418038660E+02 -0.15607717389E+02  0.26964216842E+02  0.51100000000E-03 0. -1.
        -11    1    4    4    0    0  0.80236545269E+01  0.27438016057E+01 -0.18202222340E+02  0.20080547244E+02  0.51100000000E-03 0.  1.
         12    1    4    4    0    0 -0.35235915122E+00  0.72330524539E+01 -0.10841809327E+01  0.73223393166E+01  0.00000000000E+00 0. -1.
</event>
<event>
 8    1  0.2466538E-006  0.9118800E+02  0.7816164E-02  0.1184000E+00
        -11   -1    0    0    0    0  0.00000000000E+00  0.00000000000E+00  0.45593999997E+02  0.45594000000E+02  0.51100000000E-03 0. -1.
         11   -1    0    0    0    0 -0.00000000000E+00 -0.00000000000E+00 -0.45593999997E+02  0.45594000000E+02  0.51100000000E-03 0.  1.
         23    2    1    2    0    0  0.17763568394E-14 -0.71054273576E-14 -0.26645352591E-14  0.91188000000E+02  0.91188000000E+02 0.  0.
    9900012    2    3    3    0    0  0.14449629110E+02 -0.33310372456E+02 -0.61162061741E+01  0.54367072899E+02  0.39999974288E+02 0.  0.
        -12    1    3    3    0    0 -0.14449629110E+02  0.33310372456E+02  0.61162061741E+01  0.36820927101E+02  0.00000000000E+00 0.  1.
         11    1    4    4    0    0  0.29873938208E+01 -0.58643523954E+01 -0.83884903737E+01  0.10662172474E+02  0.51100000000E-03 0. -1.
        -11    1    4    4    0    0  0.57293217013E+00 -0.13868525153E+02 -0.14117213257E+02  0.19797978472E+02  0.51100000000E-03 0.  1.
         12    1    4    4    0    0  0.10889303119E+02 -0.13577494908E+02  0.16389497456E+02  0.23906921953E+02  0.00000000000E+00 0. -1.
</event>
<event>
 8    1  0.2466538E-006  0.9118800E+02  0.7816164E-02  0.1184000E+00
        -11   -1    0    0    0    0  0.00000000000E+00  0.00000000000E+00  0.45593999997E+02  0.45594000000E+02  0.51100000000E-03 0.  1.
         11   -1    0    0    0    0 -0.00000000000E+00 -0.00000000000E+00 -0.45593999997E+02  0.45594000000E+02  0.51100000000E-03 0. -1.
         23    2    1    2    0    0 -0.44408920985E-15 -0.17763568394E-14  0.00000000000E+00  0.91188000000E+02  0.91188000000E+02 0.  0.
    9900012    2    3    3    0    0  0.36252690599E+01 -0.15057488599E+02 -0.33405224289E+02  0.54367088163E+02  0.40000009086E+02 0.  0.
        -12    1    3    3    0    0 -0.36252690599E+01  0.15057488599E+02  0.33405224289E+02  0.36820911837E+02  0.00000000000E+00 0.  1.
         11    1    4    4    0    0 -0.17988857250E+01 -0.78281982470E+00 -0.21475454134E+02  0.21564877168E+02  0.51100000000E-03 0. -1.
        -11    1    4    4    0    0 -0.82866459375E+01 -0.10433416344E+02 -0.12880321460E+02  0.18531793186E+02  0.51100000000E-03 0.  1.
        -12    1    4    4    0    0  0.13710800722E+02 -0.38412524296E+01  0.95055130485E+00  0.14270417810E+02  0.00000000000E+00 0.  1.
</event>
<event>
 8    1  0.2466538E-006  0.9118800E+02  0.7816164E-02  0.1184000E+00
        -11   -1    0    0    0    0  0.00000000000E+00  0.00000000000E+00  0.45593999997E+02  0.45594000000E+02  0.51100000000E-03 0.  1.
         11   -1    0    0    0    0 -0.00000000000E+00 -0.00000000000E+00 -0.45593999997E+02  0.45594000000E+02  0.51100000000E-03 0. -1.
         23    2    1    2    0    0  0.00000000000E+00  0.17763568394E-14 -0.88817841970E-15  0.91188000000E+02  0.91188000000E+02 0.  0.
    9900012    2    3    3    0    0  0.35567762905E+02 -0.73661900833E+01  0.60375900330E+01  0.54367095506E+02  0.40000025824E+02 0.  0.
         12    1    3    3    0    0 -0.35567762905E+02  0.73661900833E+01 -0.60375900330E+01  0.36820904494E+02  0.00000000000E+00 0. -1.
         11    1    4    4    0    0  0.55464424724E+01 -0.15188199136E+01 -0.32970469254E+01  0.66287522747E+01  0.51100000000E-03 0.  1.
        -11    1    4    4    0    0  0.33866922065E+01 -0.16059367287E+02  0.99747269659E+01  0.19205940229E+02  0.51100000000E-03 0. -1.
        -12    1    4    4    0    0  0.26634628226E+02  0.10211997118E+02 -0.64009000759E+00  0.28532403002E+02  0.00000000000E+00 0.  1.
</event>
<event>
 8    1  0.2466538E-006  0.9118800E+02  0.7816164E-02  0.1184000E+00
        -11   -1    0    0    0    0  0.00000000000E+00  0.00000000000E+00  0.45593999997E+02  0.45594000000E+02  0.51100000000E-03 0.  1.
         11   -1    0    0    0    0 -0.00000000000E+00 -0.00000000000E+00 -0.45593999997E+02  0.45594000000E+02  0.51100000000E-03 0. -1.
         23    2    1    2    0    0 -0.35527136788E-14 -0.35527136788E-14  0.88817841970E-15  0.91188000000E+02  0.91188000000E+02 0.  0.
    9900012    2    3    3    0    0  0.28036568092E+02 -0.23261336300E+02  0.53517131591E+01  0.54367085419E+02  0.40000002830E+02 0.  0.
         12    1    3    3    0    0 -0.28036568092E+02  0.23261336300E+02 -0.53517131591E+01  0.36820914581E+02  0.00000000000E+00 0. -1.
         11    1    4    4    0    0  0.18223988070E+01  0.25042627108E+01  0.66921141312E+01  0.73740667846E+01  0.51100000000E-03 0. -1.
        -11    1    4    4    0    0  0.47120884905E+01  0.49752485865E+01 -0.61044502879E+01  0.91772103614E+01  0.51100000000E-03 0.  1.
        -12    1    4    4    0    0  0.21502080794E+02 -0.30740847597E+02  0.47640493157E+01  0.37815808273E+02  0.00000000000E+00 0.  1.
</event>
<event>
 8    1  0.2466538E-006  0.9118800E+02  0.7816164E-02  0.1184000E+00
        -11   -1    0    0    0    0  0.00000000000E+00  0.00000000000E+00  0.45593999997E+02  0.45594000000E+02  0.51100000000E-03 0. -1.
         11   -1    0    0    0    0 -0.00000000000E+00 -0.00000000000E+00 -0.45593999997E+02  0.45594000000E+02  0.51100000000E-03 0.  1.
         23    2    1    2    0    0 -0.71054273576E-14 -0.17763568394E-14  0.00000000000E+00  0.91188000000E+02  0.91188000000E+02 0.  0.
    9900012    2    3    3    0    0 -0.25490113796E+02 -0.89164203135E+01 -0.25030681490E+02  0.54367034934E+02  0.39999887739E+02 0.  0.
         12    1    3    3    0    0  0.25490113796E+02  0.89164203135E+01  0.25030681490E+02  0.36820965066E+02  0.00000000000E+00 0. -1.
         11    1    4    4    0    0 -0.32204824675E+02 -0.16362619128E+02 -0.24312920800E+02  0.43543129827E+02  0.51100000000E-03 0. -1.
        -11    1    4    4    0    0  0.37084914537E+01  0.27701319130E+01 -0.21192048442E+01  0.50909300830E+01  0.51100000000E-03 0.  1.
         12    1    4    4    0    0  0.30062194255E+01  0.46760669019E+01  0.14014441544E+01  0.57329750238E+01  0.00000000000E+00 0. -1.
</event>
<event>
 8    1  0.2466538E-006  0.9118800E+02  0.7816164E-02  0.1184000E+00
        -11   -1    0    0    0    0  0.00000000000E+00  0.00000000000E+00  0.45593999997E+02  0.45594000000E+02  0.51100000000E-03 0. -1.
         11   -1    0    0    0    0 -0.00000000000E+00 -0.00000000000E+00 -0.45593999997E+02  0.45594000000E+02  0.51100000000E-03 0.  1.
         23    2    1    2    0    0  0.71054273576E-14  0.22204460493E-15 -0.35527136788E-14  0.91188000000E+02  0.91188000000E+02 0.  0.
    9900012    2    3    3    0    0 -0.32028519419E+02  0.71121111133E+00 -0.18150691207E+02  0.54367089246E+02  0.40000011555E+02 0.  0.
         12    1    3    3    0    0  0.32028519419E+02 -0.71121111133E+00  0.18150691207E+02  0.36820910754E+02  0.00000000000E+00 0. -1.
         11    1    4    4    0    0 -0.25765773479E+02 -0.32392674117E+01  0.42869506982E+01  0.26320066165E+02  0.51100000000E-03 0. -1.
        -11    1    4    4    0    0 -0.37071279610E+01  0.42082234769E+00  0.12708006375E+01  0.39414240687E+01  0.51100000000E-03 0.  1.
        -12    1    4    4    0    0 -0.25556179788E+01  0.35296561753E+01 -0.23708442543E+02  0.24105599013E+02  0.00000000000E+00 0.  1.
</event>
<event>
 8    1  0.2466538E-006  0.9118800E+02  0.7816164E-02  0.1184000E+00
        -11   -1    0    0    0    0  0.00000000000E+00  0.00000000000E+00  0.45593999997E+02  0.45594000000E+02  0.51100000000E-03 0. -1.
         11   -1    0    0    0    0 -0.00000000000E+00 -0.00000000000E+00 -0.45593999997E+02  0.45594000000E+02  0.51100000000E-03 0.  1.
         23    2    1    2    0    0  0.35527136788E-14  0.00000000000E+00  0.00000000000E+00  0.91188000000E+02  0.91188000000E+02 0.  0.
    9900012    2    3    3    0    0  0.27876590203E+02  0.23111111583E+02 -0.66747612634E+01  0.54367079346E+02  0.39999988984E+02 0.  0.
        -12    1    3    3    0    0 -0.27876590203E+02 -0.23111111583E+02  0.66747612634E+01  0.36820920654E+02  0.00000000000E+00 0.  1.
         11    1    4    4    0    0  0.25392881397E+02  0.18259693069E+02 -0.83061517155E+00  0.31287453371E+02  0.51100000000E-03 0. -1.
        -11    1    4    4    0    0 -0.50873298417E+01  0.25073889042E+01  0.63639026233E+01  0.85245047302E+01  0.51100000000E-03 0.  1.
         12    1    4    4    0    0  0.75710386471E+01  0.23440296094E+01 -0.12208048715E+02  0.14555121244E+02  0.00000000000E+00 0. -1.
</event>
<event>
 8    1  0.2466538E-006  0.9118800E+02  0.7816164E-02  0.1184000E+00
        -11   -1    0    0    0    0  0.00000000000E+00  0.00000000000E+00  0.45593999997E+02  0.45594000000E+02  0.51100000000E-03 0. -1.
         11   -1    0    0    0    0 -0.00000000000E+00 -0.00000000000E+00 -0.45593999997E+02  0.45594000000E+02  0.51100000000E-03 0.  1.
         23    2    1    2    0    0  0.71054273576E-14  0.17763568394E-14  0.88817841970E-15  0.91188000000E+02  0.91188000000E+02 0.  0.
    9900012    2    3    3    0    0  0.35232761392E+02  0.75410703249E+01  0.75875022627E+01  0.54367008602E+02  0.39999827710E+02 0.  0.
         12    1    3    3    0    0 -0.35232761392E+02 -0.75410703249E+01 -0.75875022627E+01  0.36820991398E+02  0.00000000000E+00 0. -1.
         11    1    4    4    0    0  0.70571920304E+01 -0.69173709044E+01  0.45523384997E+01  0.10880154671E+02  0.51100000000E-03 0. -1.
        -11    1    4    4    0    0  0.21333789385E+01 -0.55954046145E+01  0.82632394889E+01  0.10204949074E+02  0.51100000000E-03 0.  1.
        -12    1    4    4    0    0  0.26042190423E+02  0.20053845844E+02 -0.52280757258E+01  0.33281904857E+02  0.00000000000E+00 0.  1.
</event>
<event>
 8    1  0.2466538E-006  0.9118800E+02  0.7816164E-02  0.1184000E+00
        -11   -1    0    0    0    0  0.00000000000E+00  0.00000000000E+00  0.45593999997E+02  0.45594000000E+02  0.51100000000E-03 0.  1.
         11   -1    0    0    0    0 -0.00000000000E+00 -0.00000000000E+00 -0.45593999997E+02  0.45594000000E+02  0.51100000000E-03 0. -1.
         23    2    1    2    0    0  0.35527136788E-14  0.88817841970E-15  0.71054273576E-14  0.91188000000E+02  0.91188000000E+02 0.  0.
    9900012    2    3    3    0    0  0.20274987941E+02 -0.45672439272E+01  0.30394814859E+02  0.54367087146E+02  0.40000006767E+02 0.  0.
         12    1    3    3    0    0 -0.20274987941E+02  0.45672439272E+01 -0.30394814859E+02  0.36820912854E+02  0.00000000000E+00 0. -1.
         11    1    4    4    0    0  0.66342827879E+01 -0.12465347952E+02  0.19181379274E+02  0.23818562484E+02  0.51100000000E-03 0.  1.
        -11    1    4    4    0    0  0.13949005742E+02  0.15223970445E+02  0.10547297947E+02  0.23185977045E+02  0.51100000000E-03 0. -1.
         12    1    4    4    0    0 -0.30830058800E+00 -0.73258664203E+01  0.66613763788E+00  0.73625476170E+01  0.00000000000E+00 0. -1.
</event>
<event>
 8    1  0.2466538E-006  0.9118800E+02  0.7816164E-02  0.1184000E+00
        -11   -1    0    0    0    0  0.00000000000E+00  0.00000000000E+00  0.45593999997E+02  0.45594000000E+02  0.51100000000E-03 0. -1.
         11   -1    0    0    0    0 -0.00000000000E+00 -0.00000000000E+00 -0.45593999997E+02  0.45594000000E+02  0.51100000000E-03 0.  1.
         23    2    1    2    0    0 -0.33306690739E-15 -0.17763568394E-14  0.00000000000E+00  0.91188000000E+02  0.91188000000E+02 0.  0.
    9900012    2    3    3    0    0 -0.61341659599E+00 -0.12065370626E+02  0.34782615375E+02  0.54367085012E+02  0.40000001901E+02 0.  0.
        -12    1    3    3    0    0  0.61341659599E+00  0.12065370626E+02 -0.34782615375E+02  0.36820914988E+02  0.00000000000E+00 0.  1.
         11    1    4    4    0    0  0.34731207231E+01 -0.53753621293E+00  0.48771451598E+01  0.60114938167E+01  0.51100000000E-03 0. -1.
        -11    1    4    4    0    0  0.73745010874E+01 -0.18308548410E+02  0.53962404177E+01  0.20462297576E+02  0.51100000000E-03 0.  1.
        -12    1    4    4    0    0 -0.11461038406E+02  0.67807139971E+01  0.24509229798E+02  0.27893293619E+02  0.00000000000E+00 0.  1.
</event>
<event>
 8    1  0.2466538E-006  0.9118800E+02  0.7816164E-02  0.1184000E+00
        -11   -1    0    0    0    0  0.00000000000E+00  0.00000000000E+00  0.45593999997E+02  0.45594000000E+02  0.51100000000E-03 0. -1.
         11   -1    0    0    0    0 -0.00000000000E+00 -0.00000000000E+00 -0.45593999997E+02  0.45594000000E+02  0.51100000000E-03 0.  1.
         23    2    1    2    0    0  0.88817841970E-15 -0.17763568394E-14  0.71054273576E-14  0.91188000000E+02  0.91188000000E+02 0.  0.
    9900012    2    3    3    0    0 -0.43813410995E+01  0.10293531662E+02 -0.35080282502E+02  0.54367093380E+02  0.40000020978E+02 0.  0.
         12    1    3    3    0    0  0.43813410995E+01 -0.10293531662E+02  0.35080282502E+02  0.36820906620E+02  0.00000000000E+00 0. -1.
         11    1    4    4    0    0 -0.96010957916E+01  0.30073001573E+01 -0.71395872041E+01  0.12336879684E+02  0.51100000000E-03 0. -1.
        -11    1    4    4    0    0  0.10047215812E+02 -0.22199739519E+01 -0.29511080840E+02  0.31253459369E+02  0.51100000000E-03 0.  1.
        -12    1    4    4    0    0 -0.48274611199E+01  0.95062054571E+01  0.15703855425E+01  0.10776754326E+02  0.00000000000E+00 0.  1.
</event>
<event>
 8    1  0.2466538E-006  0.9118800E+02  0.7816164E-02  0.1184000E+00
        -11   -1    0    0    0    0  0.00000000000E+00  0.00000000000E+00  0.45593999997E+02  0.45594000000E+02  0.51100000000E-03 0.  1.
         11   -1    0    0    0    0 -0.00000000000E+00 -0.00000000000E+00 -0.45593999997E+02  0.45594000000E+02  0.51100000000E-03 0. -1.
         23    2    1    2    0    0  0.88817841970E-15 -0.17763568394E-14  0.71054273576E-14  0.91188000000E+02  0.91188000000E+02 0.  0.
    9900012    2    3    3    0    0  0.44316141495E+01 -0.44698266088E+01  0.36278960485E+02  0.54367061286E+02  0.39999947815E+02 0.  0.
         12    1    3    3    0    0 -0.44316141495E+01  0.44698266088E+01 -0.36278960485E+02  0.36820938714E+02  0.00000000000E+00 0. -1.
         11    1    4    4    0    0 -0.34820920547E+01 -0.13416886901E+02  0.20770951978E+02  0.24971388939E+02  0.51100000000E-03 0. -1.
        -11    1    4    4    0    0 -0.20726947867E+01  0.10613830708E+02  0.15939656335E+02  0.19261934231E+02  0.51100000000E-03 0.  1.
         12    1    4    4    0    0  0.99864009909E+01 -0.16667704155E+01 -0.43164782814E+00  0.10133738117E+02  0.00000000000E+00 0. -1.
</event>
<event>
 8    1  0.2466538E-006  0.9118800E+02  0.7816164E-02  0.1184000E+00
        -11   -1    0    0    0    0  0.00000000000E+00  0.00000000000E+00  0.45593999997E+02  0.45594000000E+02  0.51100000000E-03 0.  1.
         11   -1    0    0    0    0 -0.00000000000E+00 -0.00000000000E+00 -0.45593999997E+02  0.45594000000E+02  0.51100000000E-03 0. -1.
         23    2    1    2    0    0  0.00000000000E+00  0.88817841970E-15  0.00000000000E+00  0.91188000000E+02  0.91188000000E+02 0.  0.
    9900012    2    3    3    0    0  0.96082427023E+01  0.14505925094E+01 -0.35515604820E+02  0.54367072090E+02  0.39999972444E+02 0.  0.
        -12    1    3    3    0    0 -0.96082427023E+01 -0.14505925094E+01  0.35515604820E+02  0.36820927910E+02  0.00000000000E+00 0.  1.
         11    1    4    4    0    0  0.16084940665E+00 -0.40740233630E+01 -0.69963617529E+01  0.80976920744E+01  0.51100000000E-03 0. -1.
        -11    1    4    4    0    0 -0.29751070639E+01 -0.10348884766E+02 -0.22960924823E+02  0.25360495794E+02  0.51100000000E-03 0.  1.
        -12    1    4    4    0    0  0.12422500360E+02  0.15873500638E+02 -0.55583182441E+01  0.20908884222E+02  0.00000000000E+00 0.  1.
</event>
<event>
 8    1  0.2466538E-006  0.9118800E+02  0.7816164E-02  0.1184000E+00
        -11   -1    0    0    0    0  0.00000000000E+00  0.00000000000E+00  0.45593999997E+02  0.45594000000E+02  0.51100000000E-03 0.  1.
         11   -1    0    0    0    0 -0.00000000000E+00 -0.00000000000E+00 -0.45593999997E+02  0.45594000000E+02  0.51100000000E-03 0. -1.
         23    2    1    2    0    0  0.00000000000E+00  0.00000000000E+00  0.00000000000E+00  0.91188000000E+02  0.91188000000E+02 0.  0.
    9900012    2    3    3    0    0  0.11770604945E+02  0.32523300859E+02  0.12628036060E+02  0.54367088356E+02  0.40000009525E+02 0.  0.
        -12    1    3    3    0    0 -0.11770604945E+02 -0.32523300859E+02 -0.12628036060E+02  0.36820911644E+02  0.00000000000E+00 0.  1.
         11    1    4    4    0    0 -0.48811369407E+01  0.25946200260E+02 -0.61131082822E+01  0.27099832082E+02  0.51100000000E-03 0. -1.
        -11    1    4    4    0    0  0.11423209399E+02  0.84862680040E+01  0.13094066135E+02  0.19338071927E+02  0.51100000000E-03 0.  1.
        -12    1    4    4    0    0  0.52285324862E+01 -0.19091674040E+01  0.56470782072E+01  0.79291843473E+01  0.00000000000E+00 0.  1.
</event>
<event>
 8    1  0.2466538E-006  0.9118800E+02  0.7816164E-02  0.1184000E+00
        -11   -1    0    0    0    0  0.00000000000E+00  0.00000000000E+00  0.45593999997E+02  0.45594000000E+02  0.51100000000E-03 0.  1.
         11   -1    0    0    0    0 -0.00000000000E+00 -0.00000000000E+00 -0.45593999997E+02  0.45594000000E+02  0.51100000000E-03 0. -1.
         23    2    1    2    0    0 -0.44408920985E-15  0.00000000000E+00  0.35527136788E-14  0.91188000000E+02  0.91188000000E+02 0.  0.
    9900012    2    3    3    0    0  0.17243679297E+01 -0.21083868913E+02 -0.30137605333E+02  0.54367106090E+02  0.40000049954E+02 0.  0.
         12    1    3    3    0    0 -0.17243679297E+01  0.21083868913E+02  0.30137605333E+02  0.36820893910E+02  0.00000000000E+00 0. -1.
         11    1    4    4    0    0 -0.69787908250E+01 -0.25218854062E+02 -0.12632084254E+02  0.29056215763E+02  0.51100000000E-03 0. -1.
        -11    1    4    4    0    0 -0.28734968043E+01 -0.32025901193E+01 -0.24517701057E+01  0.49522463861E+01  0.51100000000E-03 0.  1.
        -12    1    4    4    0    0  0.11576655559E+02  0.73375752690E+01 -0.15053750973E+02  0.20358643941E+02  0.00000000000E+00 0.  1.
</event>
<event>
 8    1  0.2466538E-006  0.9118800E+02  0.7816164E-02  0.1184000E+00
        -11   -1    0    0    0    0  0.00000000000E+00  0.00000000000E+00  0.45593999997E+02  0.45594000000E+02  0.51100000000E-03 0. -1.
         11   -1    0    0    0    0 -0.00000000000E+00 -0.00000000000E+00 -0.45593999997E+02  0.45594000000E+02  0.51100000000E-03 0.  1.
         23    2    1    2    0    0 -0.17763568394E-14  0.00000000000E+00  0.71054273576E-14  0.91188000000E+02  0.91188000000E+02 0.  0.
    9900012    2    3    3    0    0  0.87047317105E+01 -0.47967155870E+01 -0.35454182517E+02  0.54367083492E+02  0.39999998436E+02 0.  0.
         12    1    3    3    0    0 -0.87047317105E+01  0.47967155870E+01  0.35454182517E+02  0.36820916508E+02  0.00000000000E+00 0. -1.
         11    1    4    4    0    0  0.79076060252E+01  0.11930053219E+00 -0.21748579134E+01  0.82021017350E+01  0.51100000000E-03 0. -1.
        -11    1    4    4    0    0 -0.29482002977E+01 -0.73686116958E+01 -0.38487398857E+02  0.39297177944E+02  0.51100000000E-03 0.  1.
         12    1    4    4    0    0  0.37453259831E+01  0.24525955766E+01  0.52080742537E+01  0.68678038130E+01  0.00000000000E+00 0. -1.
</event>
<event>
 8    1  0.2466538E-006  0.9118800E+02  0.7816164E-02  0.1184000E+00
        -11   -1    0    0    0    0  0.00000000000E+00  0.00000000000E+00  0.45593999997E+02  0.45594000000E+02  0.51100000000E-03 0.  1.
         11   -1    0    0    0    0 -0.00000000000E+00 -0.00000000000E+00 -0.45593999997E+02  0.45594000000E+02  0.51100000000E-03 0. -1.
         23    2    1    2    0    0  0.44408920985E-15 -0.35527136788E-14  0.35527136788E-14  0.91188000000E+02  0.91188000000E+02 0.  0.
    9900012    2    3    3    0    0  0.34410363225E+01 -0.28309404658E+02 -0.23291927034E+02  0.54367122932E+02  0.40000088348E+02 0.  0.
        -12    1    3    3    0    0 -0.34410363225E+01  0.28309404658E+02  0.23291927034E+02  0.36820877068E+02  0.00000000000E+00 0.  1.
         11    1    4    4    0    0 -0.49470130110E+01  0.46050961820E+01 -0.16203121047E+02  0.17556223412E+02  0.51100000000E-03 0. -1.
        -11    1    4    4    0    0  0.28249261385E+01 -0.28659925999E+02 -0.76120416701E+01  0.29787828800E+02  0.51100000000E-03 0.  1.
         12    1    4    4    0    0  0.55631231949E+01 -0.42545748416E+01  0.52323568268E+00  0.70230707204E+01  0.00000000000E+00 0. -1.
</event>
<event>
 8    1  0.2466538E-006  0.9118800E+02  0.7816164E-02  0.1184000E+00
        -11   -1    0    0    0    0  0.00000000000E+00  0.00000000000E+00  0.45593999997E+02  0.45594000000E+02  0.51100000000E-03 0. -1.
         11   -1    0    0    0    0 -0.00000000000E+00 -0.00000000000E+00 -0.45593999997E+02  0.45594000000E+02  0.51100000000E-03 0.  1.
         23    2    1    2    0    0  0.00000000000E+00 -0.35527136788E-14  0.35527136788E-14  0.91188000000E+02  0.91188000000E+02 0.  0.
    9900012    2    3    3    0    0 -0.53461274168E+01  0.20731297160E+02 -0.29956855172E+02  0.54367069375E+02  0.39999966254E+02 0.  0.
         12    1    3    3    0    0  0.53461274168E+01 -0.20731297160E+02  0.29956855172E+02  0.36820930625E+02  0.00000000000E+00 0. -1.
         11    1    4    4    0    0 -0.48320353507E+01  0.32069425344E+01 -0.69526840597E+01  0.90538865657E+01  0.51100000000E-03 0. -1.
        -11    1    4    4    0    0 -0.49775264968E+01  0.23031931721E+02 -0.28033426212E+02  0.36621286628E+02  0.51100000000E-03 0.  1.
         12    1    4    4    0    0  0.44634344308E+01 -0.55075770954E+01  0.50292550995E+01  0.86918961818E+01  0.00000000000E+00 0. -1.
</event>
<event>
 8    1  0.2466538E-006  0.9118800E+02  0.7816164E-02  0.1184000E+00
        -11   -1    0    0    0    0  0.00000000000E+00  0.00000000000E+00  0.45593999997E+02  0.45594000000E+02  0.51100000000E-03 0. -1.
         11   -1    0    0    0    0 -0.00000000000E+00 -0.00000000000E+00 -0.45593999997E+02  0.45594000000E+02  0.51100000000E-03 0.  1.
         23    2    1    2    0    0  0.17763568394E-14  0.00000000000E+00  0.00000000000E+00  0.91188000000E+02  0.91188000000E+02 0.  0.
    9900012    2    3    3    0    0  0.11524633538E+02  0.29317963900E+02  0.19063583181E+02  0.54367076748E+02  0.39999983062E+02 0.  0.
        -12    1    3    3    0    0 -0.11524633538E+02 -0.29317963900E+02 -0.19063583181E+02  0.36820923252E+02  0.00000000000E+00 0.  1.
         11    1    4    4    0    0 -0.11469530732E+02  0.61076258778E+01  0.13568673881E+02  0.18787286665E+02  0.51100000000E-03 0. -1.
        -11    1    4    4    0    0  0.68322312463E+01  0.14597517663E+02  0.61593581406E+01  0.17254118311E+02  0.51100000000E-03 0.  1.
        -12    1    4    4    0    0  0.16161933024E+02  0.86128203594E+01 -0.66444884072E+00  0.18325671772E+02  0.00000000000E+00 0.  1.
</event>
<event>
 8    1  0.2466538E-006  0.9118800E+02  0.7816164E-02  0.1184000E+00
        -11   -1    0    0    0    0  0.00000000000E+00  0.00000000000E+00  0.45593999997E+02  0.45594000000E+02  0.51100000000E-03 0.  1.
         11   -1    0    0    0    0 -0.00000000000E+00 -0.00000000000E+00 -0.45593999997E+02  0.45594000000E+02  0.51100000000E-03 0. -1.
         23    2    1    2    0    0  0.00000000000E+00  0.00000000000E+00  0.88817841970E-15  0.91188000000E+02  0.91188000000E+02 0.  0.
    9900012    2    3    3    0    0  0.34843487738E+02  0.10997555162E+02 -0.45570408640E+01  0.54367061952E+02  0.39999949332E+02 0.  0.
         12    1    3    3    0    0 -0.34843487738E+02 -0.10997555162E+02  0.45570408640E+01  0.36820938048E+02  0.00000000000E+00 0. -1.
         11    1    4    4    0    0 -0.27439264306E+01  0.78456048771E+01 -0.19659050944E+01  0.85409268376E+01  0.51100000000E-03 0. -1.
        -11    1    4    4    0    0  0.57573031353E+01 -0.97472917435E+01 -0.18701393710E+01  0.11474042760E+02  0.51100000000E-03 0.  1.
        -12    1    4    4    0    0  0.31830111033E+02  0.12899242029E+02 -0.72099639861E+00  0.34352092354E+02  0.00000000000E+00 0.  1.
</event>
<event>
 8    1  0.2466538E-006  0.9118800E+02  0.7816164E-02  0.1184000E+00
        -11   -1    0    0    0    0  0.00000000000E+00  0.00000000000E+00  0.45593999997E+02  0.45594000000E+02  0.51100000000E-03 0.  1.
         11   -1    0    0    0    0 -0.00000000000E+00 -0.00000000000E+00 -0.45593999997E+02  0.45594000000E+02  0.51100000000E-03 0. -1.
         23    2    1    2    0    0  0.53290705182E-14 -0.71054273576E-14  0.71054273576E-14  0.91188000000E+02  0.91188000000E+02 0.  0.
    9900012    2    3    3    0    0 -0.90776426280E+01  0.24302150105E+02 -0.26130089171E+02  0.54367086710E+02  0.40000005774E+02 0.  0.
        -12    1    3    3    0    0  0.90776426280E+01 -0.24302150105E+02  0.26130089171E+02  0.36820913290E+02  0.00000000000E+00 0.  1.
         11    1    4    4    0    0  0.93985075545E+01  0.81646369144E+01  0.19441470895E+01  0.12600513813E+02  0.51100000000E-03 0. -1.
        -11    1    4    4    0    0 -0.20232444219E+01  0.11795077111E+02 -0.47061504482E+01  0.12859440670E+02  0.51100000000E-03 0.  1.
         12    1    4    4    0    0 -0.16452905761E+02  0.43424360800E+01 -0.23368085812E+02  0.28907132227E+02  0.00000000000E+00 0. -1.
</event>
<event>
 8    1  0.2466538E-006  0.9118800E+02  0.7816164E-02  0.1184000E+00
        -11   -1    0    0    0    0  0.00000000000E+00  0.00000000000E+00  0.45593999997E+02  0.45594000000E+02  0.51100000000E-03 0. -1.
         11   -1    0    0    0    0 -0.00000000000E+00 -0.00000000000E+00 -0.45593999997E+02  0.45594000000E+02  0.51100000000E-03 0.  1.
         23    2    1    2    0    0 -0.35527136788E-14 -0.17763568394E-14  0.00000000000E+00  0.91188000000E+02  0.91188000000E+02 0.  0.
    9900012    2    3    3    0    0  0.25383322586E+02  0.70189493745E+01 -0.25733284299E+02  0.54367073387E+02  0.39999975401E+02 0.  0.
         12    1    3    3    0    0 -0.25383322586E+02 -0.70189493745E+01  0.25733284299E+02  0.36820926613E+02  0.00000000000E+00 0. -1.
         11    1    4    4    0    0 -0.13104719740E+01 -0.12512311944E+02 -0.68926534976E+01  0.14345171992E+02  0.51100000000E-03 0. -1.
        -11    1    4    4    0    0  0.15553010407E+02  0.68629673820E+01 -0.15109424330E+02  0.22744035655E+02  0.51100000000E-03 0.  1.
        -12    1    4    4    0    0  0.11140784152E+02  0.12668293937E+02 -0.37312064710E+01  0.17277865740E+02  0.00000000000E+00 0.  1.
</event>
<event>
 8    1  0.2466538E-006  0.9118800E+02  0.7816164E-02  0.1184000E+00
        -11   -1    0    0    0    0  0.00000000000E+00  0.00000000000E+00  0.45593999997E+02  0.45594000000E+02  0.51100000000E-03 0. -1.
         11   -1    0    0    0    0 -0.00000000000E+00 -0.00000000000E+00 -0.45593999997E+02  0.45594000000E+02  0.51100000000E-03 0.  1.
         23    2    1    2    0    0  0.00000000000E+00  0.00000000000E+00 -0.71054273576E-14  0.91188000000E+02  0.91188000000E+02 0.  0.
    9900012    2    3    3    0    0  0.53219563122E+01  0.85593102006E+01 -0.35414611638E+02  0.54367085732E+02  0.40000003542E+02 0.  0.
         12    1    3    3    0    0 -0.53219563122E+01 -0.85593102006E+01  0.35414611638E+02  0.36820914268E+02  0.00000000000E+00 0. -1.
         11    1    4    4    0    0  0.15557277217E+02  0.63408199384E+01 -0.25531299517E+02  0.30562757192E+02  0.51100000000E-03 0. -1.
        -11    1    4    4    0    0 -0.70434012334E+00  0.88947197774E+01 -0.80633630001E+01  0.12026219608E+02  0.51100000000E-03 0.  1.
         12    1    4    4    0    0 -0.95309807815E+01 -0.66762295152E+01 -0.18199491207E+01  0.11778108931E+02  0.00000000000E+00 0. -1.
</event>
<event>
 8    1  0.2466538E-006  0.9118800E+02  0.7816164E-02  0.1184000E+00
        -11   -1    0    0    0    0  0.00000000000E+00  0.00000000000E+00  0.45593999997E+02  0.45594000000E+02  0.51100000000E-03 0.  1.
         11   -1    0    0    0    0 -0.00000000000E+00 -0.00000000000E+00 -0.45593999997E+02  0.45594000000E+02  0.51100000000E-03 0. -1.
         23    2    1    2    0    0 -0.17763568394E-14 -0.35527136788E-14  0.35527136788E-14  0.91188000000E+02  0.91188000000E+02 0.  0.
    9900012    2    3    3    0    0 -0.94517059379E+01 -0.16023758520E+02  0.31775543255E+02  0.54367072100E+02  0.39999972467E+02 0.  0.
         12    1    3    3    0    0  0.94517059379E+01  0.16023758520E+02 -0.31775543255E+02  0.36820927900E+02  0.00000000000E+00 0. -1.
         11    1    4    4    0    0  0.21604223994E+01 -0.49724978284E+01 -0.71781032070E+01  0.89954613838E+01  0.51100000000E-03 0. -1.
        -11    1    4    4    0    0 -0.74412780095E+01 -0.45837414719E+01  0.40552367047E+01  0.96347417863E+01  0.51100000000E-03 0.  1.
        -12    1    4    4    0    0 -0.41708503278E+01 -0.64675192195E+01  0.34898409758E+02  0.35736868930E+02  0.00000000000E+00 0.  1.
</event>
<event>
 8    1  0.2466538E-006  0.9118800E+02  0.7816164E-02  0.1184000E+00
        -11   -1    0    0    0    0  0.00000000000E+00  0.00000000000E+00  0.45593999997E+02  0.45594000000E+02  0.51100000000E-03 0. -1.
         11   -1    0    0    0    0 -0.00000000000E+00 -0.00000000000E+00 -0.45593999997E+02  0.45594000000E+02  0.51100000000E-03 0.  1.
         23    2    1    2    0    0 -0.71054273576E-14  0.88817841970E-15 -0.71054273576E-14  0.91188000000E+02  0.91188000000E+02 0.  0.
    9900012    2    3    3    0    0  0.24179604402E+02 -0.61176735026E+01  0.27086903991E+02  0.54367087926E+02  0.40000008546E+02 0.  0.
        -12    1    3    3    0    0 -0.24179604402E+02  0.61176735026E+01 -0.27086903991E+02  0.36820912074E+02  0.00000000000E+00 0.  1.
         11    1    4    4    0    0  0.31993715645E+01 -0.25492082053E+01 -0.44219961017E+01  0.60239929172E+01  0.51100000000E-03 0. -1.
        -11    1    4    4    0    0  0.91334017242E+00 -0.39544876654E+01 -0.51454726041E+01  0.65534762948E+01  0.51100000000E-03 0.  1.
         12    1    4    4    0    0  0.20066892665E+02  0.38602236810E+00  0.36654372697E+02  0.41789618714E+02  0.00000000000E+00 0. -1.
</event>
<event>
 8    1  0.2466538E-006  0.9118800E+02  0.7816164E-02  0.1184000E+00
        -11   -1    0    0    0    0  0.00000000000E+00  0.00000000000E+00  0.45593999997E+02  0.45594000000E+02  0.51100000000E-03 0. -1.
         11   -1    0    0    0    0 -0.00000000000E+00 -0.00000000000E+00 -0.45593999997E+02  0.45594000000E+02  0.51100000000E-03 0.  1.
         23    2    1    2    0    0  0.44408920985E-15  0.00000000000E+00  0.00000000000E+00  0.91188000000E+02  0.91188000000E+02 0.  0.
    9900012    2    3    3    0    0 -0.31080403129E+01 -0.10800601621E+02  0.35063845742E+02  0.54366998001E+02  0.39999803544E+02 0.  0.
        -12    1    3    3    0    0  0.31080403129E+01  0.10800601621E+02 -0.35063845742E+02  0.36821001999E+02  0.00000000000E+00 0.  1.
         11    1    4    4    0    0 -0.59786859295E+01 -0.20990923516E+02  0.19139705242E+02  0.29029155559E+02  0.51100000000E-03 0. -1.
        -11    1    4    4    0    0 -0.23905663959E+00 -0.45541420802E+01  0.27731267754E+01  0.53373767468E+01  0.51100000000E-03 0.  1.
         12    1    4    4    0    0  0.31097022562E+01  0.14744463975E+02  0.13151013725E+02  0.20000465695E+02  0.00000000000E+00 0. -1.
</event>
<event>
 8    1  0.2466538E-006  0.9118800E+02  0.7816164E-02  0.1184000E+00
        -11   -1    0    0    0    0  0.00000000000E+00  0.00000000000E+00  0.45593999997E+02  0.45594000000E+02  0.51100000000E-03 0. -1.
         11   -1    0    0    0    0 -0.00000000000E+00 -0.00000000000E+00 -0.45593999997E+02  0.45594000000E+02  0.51100000000E-03 0.  1.
         23    2    1    2    0    0  0.00000000000E+00 -0.13322676296E-14  0.00000000000E+00  0.91188000000E+02  0.91188000000E+02 0.  0.
    9900012    2    3    3    0    0  0.34365597614E+02 -0.38226063369E+01 -0.12655964179E+02  0.54367081382E+02  0.39999993626E+02 0.  0.
         12    1    3    3    0    0 -0.34365597614E+02  0.38226063369E+01  0.12655964179E+02  0.36820918618E+02  0.00000000000E+00 0. -1.
         11    1    4    4    0    0  0.27669795199E+02  0.13027279424E+02 -0.32843509788E+01  0.30758974904E+02  0.51100000000E-03 0. -1.
        -11    1    4    4    0    0  0.92731426765E+01 -0.10213612586E+02 -0.90156679409E+01  0.16480028090E+02  0.51100000000E-03 0.  1.
         12    1    4    4    0    0 -0.25773402615E+01 -0.66362731744E+01 -0.35594525882E+00  0.71280783874E+01  0.00000000000E+00 0. -1.
</event>
<event>
 8    1  0.2466538E-006  0.9118800E+02  0.7816164E-02  0.1184000E+00
        -11   -1    0    0    0    0  0.00000000000E+00  0.00000000000E+00  0.45593999997E+02  0.45594000000E+02  0.51100000000E-03 0. -1.
         11   -1    0    0    0    0 -0.00000000000E+00 -0.00000000000E+00 -0.45593999997E+02  0.45594000000E+02  0.51100000000E-03 0.  1.
         23    2    1    2    0    0 -0.17763568394E-14 -0.88817841970E-15  0.00000000000E+00  0.91188000000E+02  0.91188000000E+02 0.  0.
    9900012    2    3    3    0    0  0.53865215828E+01  0.48845871412E+01  0.36095775162E+02  0.54367098452E+02  0.40000032541E+02 0.  0.
        -12    1    3    3    0    0 -0.53865215828E+01 -0.48845871412E+01 -0.36095775162E+02  0.36820901548E+02  0.00000000000E+00 0.  1.
         11    1    4    4    0    0  0.71562941879E+01  0.70569854285E+01  0.23199550212E+02  0.25283052034E+02  0.51100000000E-03 0. -1.
        -11    1    4    4    0    0  0.95417364412E+01  0.66225514146E+01  0.43630383880E+01  0.12407216682E+02  0.51100000000E-03 0.  1.
         12    1    4    4    0    0 -0.11311509046E+02 -0.87949497019E+01  0.85331865615E+01  0.16676829736E+02  0.00000000000E+00 0. -1.
</event>
<event>
 8    1  0.2466538E-006  0.9118800E+02  0.7816164E-02  0.1184000E+00
        -11   -1    0    0    0    0  0.00000000000E+00  0.00000000000E+00  0.45593999997E+02  0.45594000000E+02  0.51100000000E-03 0. -1.
         11   -1    0    0    0    0 -0.00000000000E+00 -0.00000000000E+00 -0.45593999997E+02  0.45594000000E+02  0.51100000000E-03 0.  1.
         23    2    1    2    0    0  0.00000000000E+00 -0.88817841970E-15  0.35527136788E-14  0.91188000000E+02  0.91188000000E+02 0.  0.
    9900012    2    3    3    0    0 -0.18670159070E+02 -0.44604491293E+01 -0.31421431462E+02  0.54367125469E+02  0.40000094131E+02 0.  0.
         12    1    3    3    0    0  0.18670159070E+02  0.44604491293E+01  0.31421431462E+02  0.36820874531E+02  0.00000000000E+00 0. -1.
         11    1    4    4    0    0  0.16960333282E+01 -0.10076694178E+02 -0.22426921775E+02  0.24645143846E+02  0.51100000000E-03 0. -1.
        -11    1    4    4    0    0 -0.75560998545E+01  0.63500143172E+01 -0.12961498245E+02  0.16291647058E+02  0.51100000000E-03 0.  1.
        -12    1    4    4    0    0 -0.12810092544E+02 -0.73376926829E+00  0.39669885577E+01  0.13430334565E+02  0.00000000000E+00 0.  1.
</event>
<event>
 8    1  0.2466538E-006  0.9118800E+02  0.7816164E-02  0.1184000E+00
        -11   -1    0    0    0    0  0.00000000000E+00  0.00000000000E+00  0.45593999997E+02  0.45594000000E+02  0.51100000000E-03 0. -1.
         11   -1    0    0    0    0 -0.00000000000E+00 -0.00000000000E+00 -0.45593999997E+02  0.45594000000E+02  0.51100000000E-03 0.  1.
         23    2    1    2    0    0 -0.44408920985E-15 -0.35527136788E-14 -0.35527136788E-14  0.91188000000E+02  0.91188000000E+02 0.  0.
    9900012    2    3    3    0    0 -0.28920585308E+01 -0.18698590291E+02 -0.31587645565E+02  0.54367073426E+02  0.39999975490E+02 0.  0.
         12    1    3    3    0    0  0.28920585308E+01  0.18698590291E+02  0.31587645565E+02  0.36820926574E+02  0.00000000000E+00 0. -1.
         11    1    4    4    0    0 -0.76540660447E+01  0.91881979073E+01 -0.13118668449E+02  0.17751258263E+02  0.51100000000E-03 0. -1.
        -11    1    4    4    0    0  0.64220110218E+01 -0.20199665699E+02 -0.19352904643E+02  0.28701979693E+02  0.51100000000E-03 0.  1.
        -12    1    4    4    0    0 -0.16600035079E+01 -0.76871224998E+01  0.88392752713E+00  0.79138354701E+01  0.00000000000E+00 0.  1.
</event>
<event>
 8    1  0.2466538E-006  0.9118800E+02  0.7816164E-02  0.1184000E+00
        -11   -1    0    0    0    0  0.00000000000E+00  0.00000000000E+00  0.45593999997E+02  0.45594000000E+02  0.51100000000E-03 0.  1.
         11   -1    0    0    0    0 -0.00000000000E+00 -0.00000000000E+00 -0.45593999997E+02  0.45594000000E+02  0.51100000000E-03 0. -1.
         23    2    1    2    0    0  0.71054273576E-14  0.00000000000E+00  0.88817841970E-15  0.91188000000E+02  0.91188000000E+02 0.  0.
    9900012    2    3    3    0    0 -0.36445661205E+02 -0.23409244442E+01 -0.46918666637E+01  0.54367085281E+02  0.40000002515E+02 0.  0.
        -12    1    3    3    0    0  0.36445661205E+02  0.23409244442E+01  0.46918666637E+01  0.36820914719E+02  0.00000000000E+00 0.  1.
         11    1    4    4    0    0  0.15556780565E+01  0.35785154445E-01  0.11164336052E+01  0.19151603193E+01  0.51100000000E-03 0. -1.
        -11    1    4    4    0    0  0.66281312928E+01 -0.21546171654E+01 -0.34060465696E+01  0.77572967624E+01  0.51100000000E-03 0.  1.
         12    1    4    4    0    0 -0.44629470555E+02 -0.22209243322E+00 -0.24022536992E+01  0.44694628199E+02  0.00000000000E+00 0. -1.
</event>
<event>
 8    1  0.2466538E-006  0.9118800E+02  0.7816164E-02  0.1184000E+00
        -11   -1    0    0    0    0  0.00000000000E+00  0.00000000000E+00  0.45593999997E+02  0.45594000000E+02  0.51100000000E-03 0.  1.
         11   -1    0    0    0    0 -0.00000000000E+00 -0.00000000000E+00 -0.45593999997E+02  0.45594000000E+02  0.51100000000E-03 0. -1.
         23    2    1    2    0    0 -0.35527136788E-14  0.00000000000E+00 -0.35527136788E-14  0.91188000000E+02  0.91188000000E+02 0.  0.
    9900012    2    3    3    0    0 -0.28614345305E+02 -0.17750394052E+02 -0.14897061130E+02  0.54367086424E+02  0.40000005120E+02 0.  0.
        -12    1    3    3    0    0  0.28614345305E+02  0.17750394052E+02  0.14897061130E+02  0.36820913576E+02  0.00000000000E+00 0.  1.
         11    1    4    4    0    0 -0.16510037434E+02  0.62829340620E+01 -0.11757141168E+02  0.21219966192E+02  0.51100000000E-03 0. -1.
        -11    1    4    4    0    0 -0.11296084022E+02 -0.18559321438E+02  0.59310052588E+01  0.22521695099E+02  0.51100000000E-03 0.  1.
        -12    1    4    4    0    0 -0.80822384978E+00 -0.54740066761E+01 -0.90709252210E+01  0.10625425132E+02  0.00000000000E+00 0.  1.
</event>
<event>
 8    1  0.2466538E-006  0.9118800E+02  0.7816164E-02  0.1184000E+00
        -11   -1    0    0    0    0  0.00000000000E+00  0.00000000000E+00  0.45593999997E+02  0.45594000000E+02  0.51100000000E-03 0. -1.
         11   -1    0    0    0    0 -0.00000000000E+00 -0.00000000000E+00 -0.45593999997E+02  0.45594000000E+02  0.51100000000E-03 0.  1.
         23    2    1    2    0    0  0.00000000000E+00 -0.44408920985E-15  0.00000000000E+00  0.91188000000E+02  0.91188000000E+02 0.  0.
    9900012    2    3    3    0    0  0.24098554716E+02 -0.35859821398E+01  0.27607607166E+02  0.54367087726E+02  0.40000008088E+02 0.  0.
        -12    1    3    3    0    0 -0.24098554716E+02  0.35859821398E+01 -0.27607607166E+02  0.36820912274E+02  0.00000000000E+00 0.  1.
         11    1    4    4    0    0 -0.26886476861E+01  0.21301928680E+01 -0.22720735581E+01  0.41144703851E+01  0.51100000000E-03 0. -1.
        -11    1    4    4    0    0 -0.34608529044E+01  0.56963707514E+01  0.69968030582E+00  0.67019172895E+01  0.51100000000E-03 0.  1.
         12    1    4    4    0    0  0.30248055307E+02 -0.11412545759E+02  0.29180000418E+02  0.43550700051E+02  0.00000000000E+00 0. -1.
</event>
<event>
 8    1  0.2466538E-006  0.9118800E+02  0.7816164E-02  0.1184000E+00
        -11   -1    0    0    0    0  0.00000000000E+00  0.00000000000E+00  0.45593999997E+02  0.45594000000E+02  0.51100000000E-03 0.  1.
         11   -1    0    0    0    0 -0.00000000000E+00 -0.00000000000E+00 -0.45593999997E+02  0.45594000000E+02  0.51100000000E-03 0. -1.
         23    2    1    2    0    0  0.00000000000E+00  0.00000000000E+00  0.00000000000E+00  0.91188000000E+02  0.91188000000E+02 0.  0.
    9900012    2    3    3    0    0  0.27851855276E+02  0.11655208323E+02 -0.21076307301E+02  0.54367075883E+02  0.39999981091E+02 0.  0.
        -12    1    3    3    0    0 -0.27851855276E+02 -0.11655208323E+02  0.21076307301E+02  0.36820924117E+02  0.00000000000E+00 0.  1.
         11    1    4    4    0    0  0.16858240042E+02  0.31608657031E+01 -0.63535385337E+01  0.18290948075E+02  0.51100000000E-03 0. -1.
        -11    1    4    4    0    0  0.26388247025E+01 -0.20761642629E+01  0.85493513669E+01  0.91850565003E+01  0.51100000000E-03 0.  1.
        -12    1    4    4    0    0  0.83547905321E+01  0.10570506882E+02 -0.23272120134E+02  0.26891071308E+02  0.00000000000E+00 0.  1.
</event>
<event>
 8    1  0.2466538E-006  0.9118800E+02  0.7816164E-02  0.1184000E+00
        -11   -1    0    0    0    0  0.00000000000E+00  0.00000000000E+00  0.45593999997E+02  0.45594000000E+02  0.51100000000E-03 0.  1.
         11   -1    0    0    0    0 -0.00000000000E+00 -0.00000000000E+00 -0.45593999997E+02  0.45594000000E+02  0.51100000000E-03 0. -1.
         23    2    1    2    0    0  0.88817841970E-15  0.00000000000E+00  0.00000000000E+00  0.91188000000E+02  0.91188000000E+02 0.  0.
    9900012    2    3    3    0    0 -0.53535100676E+01  0.33977562832E+02 -0.13139362081E+02  0.54367113510E+02  0.40000066868E+02 0.  0.
        -12    1    3    3    0    0  0.53535100676E+01 -0.33977562832E+02  0.13139362081E+02  0.36820886490E+02  0.00000000000E+00 0.  1.
         11    1    4    4    0    0 -0.16193486189E+02  0.65637999061E+01 -0.46218126049E+01  0.18074114534E+02  0.51100000000E-03 0. -1.
        -11    1    4    4    0    0  0.14424175519E+02  0.14582203856E+02 -0.10124615621E+02  0.22873682485E+02  0.51100000000E-03 0.  1.
        -12    1    4    4    0    0 -0.35841993968E+01  0.12831559070E+02  0.16070661449E+01  0.13419316491E+02  0.00000000000E+00 0.  1.
</event>
<event>
 8    1  0.2466538E-006  0.9118800E+02  0.7816164E-02  0.1184000E+00
        -11   -1    0    0    0    0  0.00000000000E+00  0.00000000000E+00  0.45593999997E+02  0.45594000000E+02  0.51100000000E-03 0.  1.
         11   -1    0    0    0    0 -0.00000000000E+00 -0.00000000000E+00 -0.45593999997E+02  0.45594000000E+02  0.51100000000E-03 0. -1.
         23    2    1    2    0    0  0.17763568394E-14  0.00000000000E+00 -0.31086244690E-14  0.91188000000E+02  0.91188000000E+02 0.  0.
    9900012    2    3    3    0    0 -0.14791109569E+02  0.33591018881E+02  0.29405160747E+01  0.54367080585E+02  0.39999991810E+02 0.  0.
         12    1    3    3    0    0  0.14791109569E+02 -0.33591018881E+02 -0.29405160747E+01  0.36820919415E+02  0.00000000000E+00 0. -1.
         11    1    4    4    0    0 -0.36988977565E+01  0.14157854736E+02  0.18776439221E+02  0.23805070162E+02  0.51100000000E-03 0. -1.
        -11    1    4    4    0    0  0.28716130073E+01  0.42226161133E+01 -0.53790065218E+01  0.74168968933E+01  0.51100000000E-03 0.  1.
         12    1    4    4    0    0 -0.13963824820E+02  0.15210548032E+02 -0.10456916624E+02  0.23145113530E+02  0.00000000000E+00 0. -1.
</event>
<event>
 8    1  0.2466538E-006  0.9118800E+02  0.7816164E-02  0.1184000E+00
        -11   -1    0    0    0    0  0.00000000000E+00  0.00000000000E+00  0.45593999997E+02  0.45594000000E+02  0.51100000000E-03 0. -1.
         11   -1    0    0    0    0 -0.00000000000E+00 -0.00000000000E+00 -0.45593999997E+02  0.45594000000E+02  0.51100000000E-03 0.  1.
         23    2    1    2    0    0  0.00000000000E+00  0.00000000000E+00  0.00000000000E+00  0.91188000000E+02  0.91188000000E+02 0.  0.
    9900012    2    3    3    0    0 -0.44476365872E+01 -0.26969077988E+02 -0.24671175737E+02  0.54367088129E+02  0.40000009008E+02 0.  0.
         12    1    3    3    0    0  0.44476365872E+01  0.26969077988E+02  0.24671175737E+02  0.36820911871E+02  0.00000000000E+00 0. -1.
         11    1    4    4    0    0 -0.28297950888E+01  0.32024246146E+01 -0.15678443827E+02  0.16250441986E+02  0.51100000000E-03 0. -1.
        -11    1    4    4    0    0 -0.22633468371E+01 -0.30825160995E+02 -0.13346773857E+02  0.33666744154E+02  0.51100000000E-03 0.  1.
        -12    1    4    4    0    0  0.64550533866E+00  0.65365839238E+00  0.43540419467E+01  0.44499019888E+01  0.00000000000E+00 0.  1.
</event>
<event>
 8    1  0.2466538E-006  0.9118800E+02  0.7816164E-02  0.1184000E+00
        -11   -1    0    0    0    0  0.00000000000E+00  0.00000000000E+00  0.45593999997E+02  0.45594000000E+02  0.51100000000E-03 0.  1.
         11   -1    0    0    0    0 -0.00000000000E+00 -0.00000000000E+00 -0.45593999997E+02  0.45594000000E+02  0.51100000000E-03 0. -1.
         23    2    1    2    0    0  0.00000000000E+00 -0.35527136788E-14 -0.44408920985E-15  0.91188000000E+02  0.91188000000E+02 0.  0.
    9900012    2    3    3    0    0 -0.32282730444E+02  0.17416240820E+02  0.32063293860E+01  0.54367072834E+02  0.39999974139E+02 0.  0.
        -12    1    3    3    0    0  0.32282730444E+02 -0.17416240820E+02 -0.32063293860E+01  0.36820927166E+02  0.00000000000E+00 0.  1.
         11    1    4    4    0    0 -0.22410781482E+02 -0.44939797160E+01  0.91056011399E+00  0.22875054105E+02  0.51100000000E-03 0. -1.
        -11    1    4    4    0    0 -0.69785697406E+01  0.23904667526E+02  0.67665540926E+01  0.25805422293E+02  0.51100000000E-03 0.  1.
         12    1    4    4    0    0 -0.28933792219E+01 -0.19944469900E+01 -0.44707848206E+01  0.56865964363E+01  0.00000000000E+00 0. -1.
</event>
<event>
 8    1  0.2466538E-006  0.9118800E+02  0.7816164E-02  0.1184000E+00
        -11   -1    0    0    0    0  0.00000000000E+00  0.00000000000E+00  0.45593999997E+02  0.45594000000E+02  0.51100000000E-03 0.  1.
         11   -1    0    0    0    0 -0.00000000000E+00 -0.00000000000E+00 -0.45593999997E+02  0.45594000000E+02  0.51100000000E-03 0. -1.
         23    2    1    2    0    0  0.00000000000E+00 -0.71054273576E-14  0.00000000000E+00  0.91188000000E+02  0.91188000000E+02 0.  0.
    9900012    2    3    3    0    0 -0.90870619773E+01  0.30982398835E+02  0.17700171098E+02  0.54367084886E+02  0.40000001614E+02 0.  0.
         12    1    3    3    0    0  0.90870619773E+01 -0.30982398835E+02 -0.17700171098E+02  0.36820915114E+02  0.00000000000E+00 0. -1.
         11    1    4    4    0    0  0.64791193408E+01  0.23367991974E+01  0.46515235515E+01  0.83112146846E+01  0.51100000000E-03 0. -1.
        -11    1    4    4    0    0 -0.14925543327E+02  0.13067648496E+02 -0.66600817359E+01  0.20925868436E+02  0.51100000000E-03 0.  1.
        -12    1    4    4    0    0 -0.64063799134E+00  0.15577951141E+02  0.19708729282E+02  0.25130001765E+02  0.00000000000E+00 0.  1.
</event>
<event>
 8    1  0.2466538E-006  0.9118800E+02  0.7816164E-02  0.1184000E+00
        -11   -1    0    0    0    0  0.00000000000E+00  0.00000000000E+00  0.45593999997E+02  0.45594000000E+02  0.51100000000E-03 0. -1.
         11   -1    0    0    0    0 -0.00000000000E+00 -0.00000000000E+00 -0.45593999997E+02  0.45594000000E+02  0.51100000000E-03 0.  1.
         23    2    1    2    0    0 -0.44408920985E-15 -0.35527136788E-14  0.00000000000E+00  0.91188000000E+02  0.91188000000E+02 0.  0.
    9900012    2    3    3    0    0  0.34861616389E+01  0.16189988414E+02 -0.32886325185E+02  0.54367089745E+02  0.40000012692E+02 0.  0.
         12    1    3    3    0    0 -0.34861616389E+01 -0.16189988414E+02  0.32886325185E+02  0.36820910255E+02  0.00000000000E+00 0. -1.
         11    1    4    4    0    0 -0.94053470218E+00 -0.11496548594E+02 -0.14358117205E+02  0.18417675343E+02  0.51100000000E-03 0. -1.
        -11    1    4    4    0    0  0.51985609780E+00  0.18404385727E+02 -0.18176681986E+02  0.25872445432E+02  0.51100000000E-03 0.  1.
         12    1    4    4    0    0  0.39068402433E+01  0.92821512819E+01 -0.35152599429E+00  0.10076968970E+02  0.00000000000E+00 0. -1.
</event>
<event>
 8    1  0.3281342E-006  0.9118800E+02  0.7816164E-02  0.1184000E+00
        -11   -1    0    0    0    0  0.00000000000E+00  0.00000000000E+00  0.45593999997E+02  0.45594000000E+02  0.51100000000E-03 0.  1.
         11   -1    0    0    0    0 -0.00000000000E+00 -0.00000000000E+00 -0.45593999997E+02  0.45594000000E+02  0.51100000000E-03 0. -1.
         23    2    1    2    0    0 -0.35527136788E-14  0.00000000000E+00 -0.35527136788E-14  0.91188000000E+02  0.91188000000E+02 0.  0.
    9900012    2    3    3    0    0 -0.22791242091E+02  0.12990079554E+02  0.25837899373E+02  0.54367083025E+02  0.39999997372E+02 0.  0.
         12    1    3    3    0    0  0.22791242091E+02 -0.12990079554E+02 -0.25837899373E+02  0.36820916975E+02  0.00000000000E+00 0. -1.
         11    1    4    4    0    0  0.27863285102E+01 -0.58724859928E+01  0.28582106431E+01  0.71006398757E+01  0.51100000000E-03 0. -1.
        -11    1    4    4    0    0  0.18226923506E+01 -0.36249298728E+01 -0.13470448156E+01  0.42751437384E+01  0.51100000000E-03 0.  1.
        -12    1    4    4    0    0 -0.27400262952E+02  0.22487495419E+02  0.24326733545E+02  0.42991299411E+02  0.00000000000E+00 0.  1.
</event>
<event>
 8    1  0.2466538E-006  0.9118800E+02  0.7816164E-02  0.1184000E+00
        -11   -1    0    0    0    0  0.00000000000E+00  0.00000000000E+00  0.45593999997E+02  0.45594000000E+02  0.51100000000E-03 0.  1.
         11   -1    0    0    0    0 -0.00000000000E+00 -0.00000000000E+00 -0.45593999997E+02  0.45594000000E+02  0.51100000000E-03 0. -1.
         23    2    1    2    0    0  0.88817841970E-15  0.00000000000E+00  0.00000000000E+00  0.91188000000E+02  0.91188000000E+02 0.  0.
    9900012    2    3    3    0    0 -0.48548056775E+01 -0.19373700561E+02  0.30933322698E+02  0.54367083869E+02  0.39999999295E+02 0.  0.
         12    1    3    3    0    0  0.48548056775E+01  0.19373700561E+02 -0.30933322698E+02  0.36820916131E+02  0.00000000000E+00 0. -1.
         11    1    4    4    0    0  0.57264124095E+01 -0.39744682894E+01  0.34136035775E+01  0.77615003004E+01  0.51100000000E-03 0. -1.
        -11    1    4    4    0    0 -0.17419342649E+02  0.13763135545E+01  0.21077208015E+02  0.27378393585E+02  0.51100000000E-03 0.  1.
        -12    1    4    4    0    0  0.68381245621E+01 -0.16775545827E+02  0.64425111057E+01  0.19227189983E+02  0.00000000000E+00 0.  1.
</event>
<event>
 8    1  0.2466538E-006  0.9118800E+02  0.7816164E-02  0.1184000E+00
        -11   -1    0    0    0    0  0.00000000000E+00  0.00000000000E+00  0.45593999997E+02  0.45594000000E+02  0.51100000000E-03 0. -1.
         11   -1    0    0    0    0 -0.00000000000E+00 -0.00000000000E+00 -0.45593999997E+02  0.45594000000E+02  0.51100000000E-03 0.  1.
         23    2    1    2    0    0 -0.35527136788E-14  0.00000000000E+00  0.35527136788E-14  0.91188000000E+02  0.91188000000E+02 0.  0.
    9900012    2    3    3    0    0  0.16489846526E+02  0.21857881983E+02 -0.24619038276E+02  0.54367094405E+02  0.40000023315E+02 0.  0.
         12    1    3    3    0    0 -0.16489846526E+02 -0.21857881983E+02  0.24619038276E+02  0.36820905595E+02  0.00000000000E+00 0. -1.
         11    1    4    4    0    0 -0.18905961020E+01  0.69363510928E+01  0.84985936057E+01  0.11131640204E+02  0.51100000000E-03 0. -1.
        -11    1    4    4    0    0  0.15089259508E+02  0.12857750295E+02 -0.15417056936E+02  0.25113604679E+02  0.51100000000E-03 0.  1.
        -12    1    4    4    0    0  0.32911831207E+01  0.20637805947E+01 -0.17700574946E+02  0.18121849521E+02  0.00000000000E+00 0.  1.
</event>
<event>
 8    1  0.2466538E-006  0.9118800E+02  0.7816164E-02  0.1184000E+00
        -11   -1    0    0    0    0  0.00000000000E+00  0.00000000000E+00  0.45593999997E+02  0.45594000000E+02  0.51100000000E-03 0. -1.
         11   -1    0    0    0    0 -0.00000000000E+00 -0.00000000000E+00 -0.45593999997E+02  0.45594000000E+02  0.51100000000E-03 0.  1.
         23    2    1    2    0    0  0.00000000000E+00  0.00000000000E+00  0.17763568394E-14  0.91188000000E+02  0.91188000000E+02 0.  0.
    9900012    2    3    3    0    0 -0.10254992091E+02  0.32098811350E+02 -0.14841893144E+02  0.54367077348E+02  0.39999984429E+02 0.  0.
         12    1    3    3    0    0  0.10254992091E+02 -0.32098811350E+02  0.14841893144E+02  0.36820922652E+02  0.00000000000E+00 0. -1.
         11    1    4    4    0    0  0.62354779256E+01  0.66596206630E+01  0.11587967047E+01  0.91964418336E+01  0.51100000000E-03 0. -1.
        -11    1    4    4    0    0  0.60517899897E+01 -0.22535546266E+01 -0.34491892179E+01  0.73211732022E+01  0.51100000000E-03 0.  1.
         12    1    4    4    0    0 -0.22542260006E+02  0.27692745314E+02 -0.12551500631E+02  0.37849462312E+02  0.00000000000E+00 0. -1.
</event>
<event>
 8    1  0.2466538E-006  0.9118800E+02  0.7816164E-02  0.1184000E+00
        -11   -1    0    0    0    0  0.00000000000E+00  0.00000000000E+00  0.45593999997E+02  0.45594000000E+02  0.51100000000E-03 0.  1.
         11   -1    0    0    0    0 -0.00000000000E+00 -0.00000000000E+00 -0.45593999997E+02  0.45594000000E+02  0.51100000000E-03 0. -1.
         23    2    1    2    0    0  0.00000000000E+00  0.17763568394E-14  0.00000000000E+00  0.91188000000E+02  0.91188000000E+02 0.  0.
    9900012    2    3    3    0    0  0.30327501338E+02 -0.98061746754E+01  0.18435307682E+02  0.54367096039E+02  0.40000027041E+02 0.  0.
         12    1    3    3    0    0 -0.30327501338E+02  0.98061746754E+01 -0.18435307682E+02  0.36820903961E+02  0.00000000000E+00 0. -1.
         11    1    4    4    0    0  0.21233432927E+02 -0.93322014527E+00 -0.43225075896E+01  0.21689021321E+02  0.51100000000E-03 0. -1.
        -11    1    4    4    0    0  0.88473079994E+00 -0.17592790401E+00 -0.36120135371E+01  0.37229479273E+01  0.51100000000E-03 0.  1.
        -12    1    4    4    0    0  0.82093376105E+01 -0.86970266262E+01  0.26369828808E+02  0.28955126792E+02  0.00000000000E+00 0.  1.
</event>
<event>
 8    1  0.2466538E-006  0.9118800E+02  0.7816164E-02  0.1184000E+00
        -11   -1    0    0    0    0  0.00000000000E+00  0.00000000000E+00  0.45593999997E+02  0.45594000000E+02  0.51100000000E-03 0.  1.
         11   -1    0    0    0    0 -0.00000000000E+00 -0.00000000000E+00 -0.45593999997E+02  0.45594000000E+02  0.51100000000E-03 0. -1.
         23    2    1    2    0    0  0.00000000000E+00  0.00000000000E+00  0.88817841970E-15  0.91188000000E+02  0.91188000000E+02 0.  0.
    9900012    2    3    3    0    0  0.88529915642E+01  0.35737925037E+02  0.45429353376E+00  0.54367066712E+02  0.39999960182E+02 0.  0.
        -12    1    3    3    0    0 -0.88529915642E+01 -0.35737925037E+02 -0.45429353376E+00  0.36820933288E+02  0.00000000000E+00 0.  1.
         11    1    4    4    0    0  0.32185853097E+01  0.10985520235E+02 -0.13942956581E+01  0.11531912542E+02  0.51100000000E-03 0. -1.
        -11    1    4    4    0    0  0.92914585499E+01  0.32411677787E+02  0.43256770766E+01  0.33993522050E+02  0.51100000000E-03 0.  1.
        -12    1    4    4    0    0 -0.36570522953E+01 -0.76592729847E+01 -0.24770878847E+01  0.88416321193E+01  0.00000000000E+00 0.  1.
</event>
<event>
 8    1  0.2466538E-006  0.9118800E+02  0.7816164E-02  0.1184000E+00
        -11   -1    0    0    0    0  0.00000000000E+00  0.00000000000E+00  0.45593999997E+02  0.45594000000E+02  0.51100000000E-03 0. -1.
         11   -1    0    0    0    0 -0.00000000000E+00 -0.00000000000E+00 -0.45593999997E+02  0.45594000000E+02  0.51100000000E-03 0.  1.
         23    2    1    2    0    0 -0.35527136788E-14  0.00000000000E+00  0.71054273576E-14  0.91188000000E+02  0.91188000000E+02 0.  0.
    9900012    2    3    3    0    0 -0.22029341839E+02 -0.14370784702E+02  0.25767592380E+02  0.54367079698E+02  0.39999989788E+02 0.  0.
        -12    1    3    3    0    0  0.22029341839E+02  0.14370784702E+02 -0.25767592380E+02  0.36820920302E+02  0.00000000000E+00 0.  1.
         11    1    4    4    0    0 -0.43717851638E-01 -0.17797936147E+02  0.14049311942E+02  0.22674911437E+02  0.51100000000E-03 0. -1.
        -11    1    4    4    0    0 -0.10374722636E+02 -0.54042078758E+00 -0.45282531461E+01  0.11332784354E+02  0.51100000000E-03 0.  1.
        -12    1    4    4    0    0 -0.11610901352E+02  0.39675722327E+01  0.16246533584E+02  0.20359383908E+02  0.00000000000E+00 0.  1.
</event>
<event>
 8    1  0.2466538E-006  0.9118800E+02  0.7816164E-02  0.1184000E+00
        -11   -1    0    0    0    0  0.00000000000E+00  0.00000000000E+00  0.45593999997E+02  0.45594000000E+02  0.51100000000E-03 0.  1.
         11   -1    0    0    0    0 -0.00000000000E+00 -0.00000000000E+00 -0.45593999997E+02  0.45594000000E+02  0.51100000000E-03 0. -1.
         23    2    1    2    0    0  0.00000000000E+00  0.00000000000E+00 -0.44408920985E-15  0.91188000000E+02  0.91188000000E+02 0.  0.
    9900012    2    3    3    0    0 -0.15248254041E+02 -0.33482983185E+02  0.14699333064E+01  0.54367080428E+02  0.39999991451E+02 0.  0.
         12    1    3    3    0    0  0.15248254041E+02  0.33482983185E+02 -0.14699333064E+01  0.36820919572E+02  0.00000000000E+00 0. -1.
         11    1    4    4    0    0 -0.11711437000E+02 -0.47994987196E+01  0.42951113010E+01  0.13365662195E+02  0.51100000000E-03 0. -1.
        -11    1    4    4    0    0  0.58650052281E+00 -0.16429799081E+02  0.12717022338E+02  0.20784728483E+02  0.51100000000E-03 0.  1.
         12    1    4    4    0    0 -0.41233175633E+01 -0.12253685384E+02 -0.15542200333E+02  0.20216689749E+02  0.00000000000E+00 0. -1.
</event>
<event>
 8    1  0.2466538E-006  0.9118800E+02  0.7816164E-02  0.1184000E+00
        -11   -1    0    0    0    0  0.00000000000E+00  0.00000000000E+00  0.45593999997E+02  0.45594000000E+02  0.51100000000E-03 0. -1.
         11   -1    0    0    0    0 -0.00000000000E+00 -0.00000000000E+00 -0.45593999997E+02  0.45594000000E+02  0.51100000000E-03 0.  1.
         23    2    1    2    0    0  0.53290705182E-14  0.88817841970E-15 -0.71054273576E-14  0.91188000000E+02  0.91188000000E+02 0.  0.
    9900012    2    3    3    0    0  0.13968666149E+02 -0.66558830297E+01  0.33411912223E+02  0.54367078077E+02  0.39999986092E+02 0.  0.
        -12    1    3    3    0    0 -0.13968666149E+02  0.66558830297E+01 -0.33411912223E+02  0.36820921923E+02  0.00000000000E+00 0.  1.
         11    1    4    4    0    0 -0.53329846145E+01 -0.90003266552E+01  0.21375577803E+01  0.10677816178E+02  0.51100000000E-03 0. -1.
        -11    1    4    4    0    0  0.17396537266E+02 -0.20691462387E+01  0.68733594537E+01  0.18819244019E+02  0.51100000000E-03 0.  1.
         12    1    4    4    0    0  0.19051134978E+01  0.44135898643E+01  0.24400994989E+02  0.24870017880E+02  0.00000000000E+00 0. -1.
</event>
<event>
 8    1  0.2466538E-006  0.9118800E+02  0.7816164E-02  0.1184000E+00
        -11   -1    0    0    0    0  0.00000000000E+00  0.00000000000E+00  0.45593999997E+02  0.45594000000E+02  0.51100000000E-03 0. -1.
         11   -1    0    0    0    0 -0.00000000000E+00 -0.00000000000E+00 -0.45593999997E+02  0.45594000000E+02  0.51100000000E-03 0.  1.
         23    2    1    2    0    0  0.00000000000E+00  0.00000000000E+00  0.00000000000E+00  0.91188000000E+02  0.91188000000E+02 0.  0.
    9900012    2    3    3    0    0  0.24725624980E+02  0.91788916772E+01  0.25693801288E+02  0.54367081927E+02  0.39999994870E+02 0.  0.
        -12    1    3    3    0    0 -0.24725624980E+02 -0.91788916772E+01 -0.25693801288E+02  0.36820918073E+02  0.00000000000E+00 0.  1.
         11    1    4    4    0    0  0.25755047946E+01 -0.68873674863E+01  0.55616106520E+01  0.92195753234E+01  0.51100000000E-03 0. -1.
        -11    1    4    4    0    0  0.27860651135E+02  0.16449876918E+02  0.22001622472E+02  0.39126534781E+02  0.51100000000E-03 0.  1.
        -12    1    4    4    0    0 -0.57105309493E+01 -0.38361775497E+00 -0.18694318359E+01  0.60209718230E+01  0.00000000000E+00 0.  1.
</event>
<event>
 8    1  0.2466538E-006  0.9118800E+02  0.7816164E-02  0.1184000E+00
        -11   -1    0    0    0    0  0.00000000000E+00  0.00000000000E+00  0.45593999997E+02  0.45594000000E+02  0.51100000000E-03 0.  1.
         11   -1    0    0    0    0 -0.00000000000E+00 -0.00000000000E+00 -0.45593999997E+02  0.45594000000E+02  0.51100000000E-03 0. -1.
         23    2    1    2    0    0 -0.35527136788E-14 -0.88817841970E-15  0.00000000000E+00  0.91188000000E+02  0.91188000000E+02 0.  0.
    9900012    2    3    3    0    0  0.14764887396E+02 -0.49538043572E+01  0.33365224995E+02  0.54367077736E+02  0.39999985315E+02 0.  0.
         12    1    3    3    0    0 -0.14764887396E+02  0.49538043572E+01 -0.33365224995E+02  0.36820922264E+02  0.00000000000E+00 0. -1.
         11    1    4    4    0    0  0.13882268091E+02  0.49533541571E+01  0.10469040598E+02  0.18079101085E+02  0.51100000000E-03 0. -1.
        -11    1    4    4    0    0  0.11478596365E+02 -0.12455329309E+02  0.11225279326E+02  0.20319948300E+02  0.51100000000E-03 0.  1.
        -12    1    4    4    0    0 -0.10595977059E+02  0.25481707952E+01  0.11670905071E+02  0.15968028351E+02  0.00000000000E+00 0.  1.
</event>
<event>
 8    1  0.2466538E-006  0.9118800E+02  0.7816164E-02  0.1184000E+00
        -11   -1    0    0    0    0  0.00000000000E+00  0.00000000000E+00  0.45593999997E+02  0.45594000000E+02  0.51100000000E-03 0.  1.
         11   -1    0    0    0    0 -0.00000000000E+00 -0.00000000000E+00 -0.45593999997E+02  0.45594000000E+02  0.51100000000E-03 0. -1.
         23    2    1    2    0    0  0.17763568394E-14  0.00000000000E+00  0.44408920985E-15  0.91188000000E+02  0.91188000000E+02 0.  0.
    9900012    2    3    3    0    0  0.74618259854E+01  0.35962625940E+02  0.26055279857E+01  0.54367108001E+02  0.40000054309E+02 0.  0.
         12    1    3    3    0    0 -0.74618259854E+01 -0.35962625940E+02 -0.26055279857E+01  0.36820891999E+02  0.00000000000E+00 0. -1.
         11    1    4    4    0    0 -0.71268478381E+01 -0.48891941896E+01  0.15699836013E+01  0.87841350571E+01  0.51100000000E-03 0. -1.
        -11    1    4    4    0    0  0.53642710722E+01  0.17076313688E+02  0.72872504987E+01  0.19325628409E+02  0.51100000000E-03 0.  1.
        -12    1    4    4    0    0  0.92244027513E+01  0.23775506441E+02 -0.62517061143E+01  0.26257344534E+02  0.00000000000E+00 0.  1.
</event>
<event>
 8    1  0.2466538E-006  0.9118800E+02  0.7816164E-02  0.1184000E+00
        -11   -1    0    0    0    0  0.00000000000E+00  0.00000000000E+00  0.45593999997E+02  0.45594000000E+02  0.51100000000E-03 0.  1.
         11   -1    0    0    0    0 -0.00000000000E+00 -0.00000000000E+00 -0.45593999997E+02  0.45594000000E+02  0.51100000000E-03 0. -1.
         23    2    1    2    0    0 -0.35527136788E-14  0.35527136788E-14  0.00000000000E+00  0.91188000000E+02  0.91188000000E+02 0.  0.
    9900012    2    3    3    0    0 -0.26223617500E+02  0.19733613869E+02  0.16693888262E+02  0.54367088327E+02  0.40000009460E+02 0.  0.
        -12    1    3    3    0    0  0.26223617500E+02 -0.19733613869E+02 -0.16693888262E+02  0.36820911673E+02  0.00000000000E+00 0.  1.
         11    1    4    4    0    0 -0.19351858910E+02  0.41528643019E+01 -0.23202500322E+01  0.19927977460E+02  0.51100000000E-03 0. -1.
        -11    1    4    4    0    0 -0.56297615670E+01 -0.46428416470E+01  0.10728048783E+01  0.73757104355E+01  0.51100000000E-03 0.  1.
        -12    1    4    4    0    0 -0.12419970235E+01  0.20223591214E+02  0.17941333416E+02  0.27063400432E+02  0.00000000000E+00 0.  1.
</event>
<event>
 8    1  0.2466538E-006  0.9118800E+02  0.7816164E-02  0.1184000E+00
        -11   -1    0    0    0    0  0.00000000000E+00  0.00000000000E+00  0.45593999997E+02  0.45594000000E+02  0.51100000000E-03 0.  1.
         11   -1    0    0    0    0 -0.00000000000E+00 -0.00000000000E+00 -0.45593999997E+02  0.45594000000E+02  0.51100000000E-03 0. -1.
         23    2    1    2    0    0  0.00000000000E+00 -0.35527136788E-14 -0.88817841970E-15  0.91188000000E+02  0.91188000000E+02 0.  0.
    9900012    2    3    3    0    0 -0.20206177930E+02 -0.30608670803E+02 -0.32555589352E+01  0.54367095355E+02  0.40000025482E+02 0.  0.
        -12    1    3    3    0    0  0.20206177930E+02  0.30608670803E+02  0.32555589352E+01  0.36820904645E+02  0.00000000000E+00 0.  1.
         11    1    4    4    0    0 -0.20872232412E+01 -0.40749506078E+01 -0.17195288579E+01  0.48906546667E+01  0.51100000000E-03 0. -1.
        -11    1    4    4    0    0 -0.23342522181E+02 -0.35769499498E+01 -0.82162791532E+01  0.25003502877E+02  0.51100000000E-03 0.  1.
         12    1    4    4    0    0  0.52235674920E+01 -0.22956770245E+02  0.66802490759E+01  0.24472937812E+02  0.00000000000E+00 0. -1.
</event>
<event>
 8    1  0.2466538E-006  0.9118800E+02  0.7816164E-02  0.1184000E+00
        -11   -1    0    0    0    0  0.00000000000E+00  0.00000000000E+00  0.45593999997E+02  0.45594000000E+02  0.51100000000E-03 0. -1.
         11   -1    0    0    0    0 -0.00000000000E+00 -0.00000000000E+00 -0.45593999997E+02  0.45594000000E+02  0.51100000000E-03 0.  1.
         23    2    1    2    0    0  0.00000000000E+00  0.00000000000E+00 -0.17763568394E-14  0.91188000000E+02  0.91188000000E+02 0.  0.
    9900012    2    3    3    0    0  0.11245237985E+02  0.32682009919E+02  0.12696848867E+02  0.54367093971E+02  0.40000022326E+02 0.  0.
        -12    1    3    3    0    0 -0.11245237985E+02 -0.32682009919E+02 -0.12696848867E+02  0.36820906029E+02  0.00000000000E+00 0.  1.
         11    1    4    4    0    0  0.13995789417E+02  0.28669773671E+02  0.12339923374E+02  0.34206896277E+02  0.51100000000E-03 0. -1.
        -11    1    4    4    0    0 -0.16122912899E+01 -0.43935803021E+01  0.76536318823E+01  0.89711265917E+01  0.51100000000E-03 0.  1.
         12    1    4    4    0    0 -0.11382601422E+01  0.84058165494E+01 -0.72967063892E+01  0.11189071103E+02  0.00000000000E+00 0. -1.
</event>
<event>
 8    1  0.2466538E-006  0.9118800E+02  0.7816164E-02  0.1184000E+00
        -11   -1    0    0    0    0  0.00000000000E+00  0.00000000000E+00  0.45593999997E+02  0.45594000000E+02  0.51100000000E-03 0.  1.
         11   -1    0    0    0    0 -0.00000000000E+00 -0.00000000000E+00 -0.45593999997E+02  0.45594000000E+02  0.51100000000E-03 0. -1.
         23    2    1    2    0    0  0.17763568394E-14  0.00000000000E+00 -0.71054273576E-14  0.91188000000E+02  0.91188000000E+02 0.  0.
    9900012    2    3    3    0    0  0.10180718656E+02  0.46948284217E+01 -0.35072618182E+02  0.54367122872E+02  0.40000088212E+02 0.  0.
        -12    1    3    3    0    0 -0.10180718656E+02 -0.46948284217E+01  0.35072618182E+02  0.36820877128E+02  0.00000000000E+00 0.  1.
         11    1    4    4    0    0  0.12735365365E+02 -0.38575595794E+01 -0.10399230384E+02  0.16888288538E+02  0.51100000000E-03 0. -1.
        -11    1    4    4    0    0  0.24930704089E+01  0.76233389320E+01  0.35654067728E+01  0.87774040725E+01  0.51100000000E-03 0.  1.
        -12    1    4    4    0    0 -0.50477171176E+01  0.92904906915E+00 -0.28238794571E+02  0.28701430262E+02  0.00000000000E+00 0.  1.
</event>
<event>
 8    1  0.2466538E-006  0.9118800E+02  0.7816164E-02  0.1184000E+00
        -11   -1    0    0    0    0  0.00000000000E+00  0.00000000000E+00  0.45593999997E+02  0.45594000000E+02  0.51100000000E-03 0.  1.
         11   -1    0    0    0    0 -0.00000000000E+00 -0.00000000000E+00 -0.45593999997E+02  0.45594000000E+02  0.51100000000E-03 0. -1.
         23    2    1    2    0    0  0.00000000000E+00  0.17763568394E-14 -0.44408920985E-15  0.91188000000E+02  0.91188000000E+02 0.  0.
    9900012    2    3    3    0    0 -0.36009053563E+02  0.70352936566E+01 -0.31035938295E+01  0.54367087600E+02  0.40000007802E+02 0.  0.
         12    1    3    3    0    0  0.36009053563E+02 -0.70352936566E+01  0.31035938295E+01  0.36820912400E+02  0.00000000000E+00 0. -1.
         11    1    4    4    0    0 -0.54670527434E+00  0.14208514481E+02 -0.80062911255E+01  0.16318133112E+02  0.51100000000E-03 0. -1.
        -11    1    4    4    0    0 -0.33368609848E+02 -0.47293456788E+01  0.20764901575E+01  0.33765998362E+02  0.51100000000E-03 0.  1.
        -12    1    4    4    0    0 -0.20937384407E+01 -0.24438751461E+01  0.28262071385E+01  0.42829561260E+01  0.00000000000E+00 0.  1.
</event>
<event>
 8    1  0.2466538E-006  0.9118800E+02  0.7816164E-02  0.1184000E+00
        -11   -1    0    0    0    0  0.00000000000E+00  0.00000000000E+00  0.45593999997E+02  0.45594000000E+02  0.51100000000E-03 0. -1.
         11   -1    0    0    0    0 -0.00000000000E+00 -0.00000000000E+00 -0.45593999997E+02  0.45594000000E+02  0.51100000000E-03 0.  1.
         23    2    1    2    0    0 -0.17763568394E-14  0.88817841970E-15  0.00000000000E+00  0.91188000000E+02  0.91188000000E+02 0.  0.
    9900012    2    3    3    0    0  0.85471110515E+01 -0.46756558482E+01  0.35508629460E+02  0.54367114200E+02  0.40000068443E+02 0.  0.
        -12    1    3    3    0    0 -0.85471110515E+01  0.46756558482E+01 -0.35508629460E+02  0.36820885800E+02  0.00000000000E+00 0.  1.
         11    1    4    4    0    0 -0.34302466734E+01 -0.75887725784E+01  0.15886832594E+02  0.17937321752E+02  0.51100000000E-03 0. -1.
        -11    1    4    4    0    0  0.11982155024E+02 -0.75348296552E+01 -0.51318537067E-01  0.14154445620E+02  0.51100000000E-03 0.  1.
        -12    1    4    4    0    0 -0.47972989991E-02  0.10447946385E+02  0.19673115403E+02  0.22275346829E+02  0.00000000000E+00 0.  1.
</event>
<event>
 8    1  0.2466538E-006  0.9118800E+02  0.7816164E-02  0.1184000E+00
        -11   -1    0    0    0    0  0.00000000000E+00  0.00000000000E+00  0.45593999997E+02  0.45594000000E+02  0.51100000000E-03 0.  1.
         11   -1    0    0    0    0 -0.00000000000E+00 -0.00000000000E+00 -0.45593999997E+02  0.45594000000E+02  0.51100000000E-03 0. -1.
         23    2    1    2    0    0 -0.44408920985E-15  0.17763568394E-14  0.00000000000E+00  0.91188000000E+02  0.91188000000E+02 0.  0.
    9900012    2    3    3    0    0  0.10440739637E+01  0.83303157466E+01 -0.35851005682E+02  0.54367097522E+02  0.40000030422E+02 0.  0.
        -12    1    3    3    0    0 -0.10440739637E+01 -0.83303157466E+01  0.35851005682E+02  0.36820902478E+02  0.00000000000E+00 0.  1.
         11    1    4    4    0    0 -0.59105107347E+01 -0.44518881718E+01 -0.94664143673E+01  0.12015258910E+02  0.51100000000E-03 0. -1.
        -11    1    4    4    0    0 -0.24019286087E+01  0.13490059282E+02  0.66765026776E+00  0.13718480879E+02  0.51100000000E-03 0.  1.
        -12    1    4    4    0    0  0.93565133072E+01 -0.70785536389E+00 -0.27052241582E+02  0.28633357734E+02  0.00000000000E+00 0.  1.
</event>
<event>
 8    1  0.2466538E-006  0.9118800E+02  0.7816164E-02  0.1184000E+00
        -11   -1    0    0    0    0  0.00000000000E+00  0.00000000000E+00  0.45593999997E+02  0.45594000000E+02  0.51100000000E-03 0.  1.
         11   -1    0    0    0    0 -0.00000000000E+00 -0.00000000000E+00 -0.45593999997E+02  0.45594000000E+02  0.51100000000E-03 0. -1.
         23    2    1    2    0    0  0.11102230246E-15  0.00000000000E+00  0.00000000000E+00  0.91188000000E+02  0.91188000000E+02 0.  0.
    9900012    2    3    3    0    0 -0.72911109093E+00  0.29970999701E+02  0.21377258926E+02  0.54367087121E+02  0.40000006710E+02 0.  0.
         12    1    3    3    0    0  0.72911109093E+00 -0.29970999701E+02 -0.21377258926E+02  0.36820912879E+02  0.00000000000E+00 0. -1.
         11    1    4    4    0    0  0.44390897234E+01  0.42714875154E+01  0.17290925328E+02  0.18355577412E+02  0.51100000000E-03 0. -1.
        -11    1    4    4    0    0 -0.20439232016E+01  0.62512187729E+01 -0.98772402596E+01  0.11866559468E+02  0.51100000000E-03 0.  1.
        -12    1    4    4    0    0 -0.31242776128E+01  0.19448293413E+02  0.13963573858E+02  0.24144950241E+02  0.00000000000E+00 0.  1.
</event>
<event>
 8    1  0.2466538E-006  0.9118800E+02  0.7816164E-02  0.1184000E+00
        -11   -1    0    0    0    0  0.00000000000E+00  0.00000000000E+00  0.45593999997E+02  0.45594000000E+02  0.51100000000E-03 0.  1.
         11   -1    0    0    0    0 -0.00000000000E+00 -0.00000000000E+00 -0.45593999997E+02  0.45594000000E+02  0.51100000000E-03 0. -1.
         23    2    1    2    0    0 -0.66613381478E-15  0.00000000000E+00  0.00000000000E+00  0.91188000000E+02  0.91188000000E+02 0.  0.
    9900012    2    3    3    0    0  0.14653406507E+01  0.34986398233E+02 -0.11383607951E+02  0.54367057392E+02  0.39999938938E+02 0.  0.
        -12    1    3    3    0    0 -0.14653406507E+01 -0.34986398233E+02  0.11383607951E+02  0.36820942608E+02  0.00000000000E+00 0.  1.
         11    1    4    4    0    0 -0.89237571022E+01  0.22006393429E+02 -0.37397813715E+01  0.24039566501E+02  0.51100000000E-03 0. -1.
        -11    1    4    4    0    0  0.30747228377E+01 -0.38133285193E+01 -0.10689940790E+02  0.11758836221E+02  0.51100000000E-03 0.  1.
        -12    1    4    4    0    0  0.73143749152E+01  0.16793333323E+02  0.30461142100E+01  0.18568654670E+02  0.00000000000E+00 0.  1.
</event>
<event>
 8    1  0.2466538E-006  0.9118800E+02  0.7816164E-02  0.1184000E+00
        -11   -1    0    0    0    0  0.00000000000E+00  0.00000000000E+00  0.45593999997E+02  0.45594000000E+02  0.51100000000E-03 0.  1.
         11   -1    0    0    0    0 -0.00000000000E+00 -0.00000000000E+00 -0.45593999997E+02  0.45594000000E+02  0.51100000000E-03 0. -1.
         23    2    1    2    0    0  0.35527136788E-14  0.88817841970E-15  0.35527136788E-14  0.91188000000E+02  0.91188000000E+02 0.  0.
    9900012    2    3    3    0    0  0.31455364407E+02  0.67232335816E+01 -0.17920330805E+02  0.54367081002E+02  0.39999992759E+02 0.  0.
        -12    1    3    3    0    0 -0.31455364407E+02 -0.67232335816E+01  0.17920330805E+02  0.36820918998E+02  0.00000000000E+00 0.  1.
         11    1    4    4    0    0  0.30778454338E+02  0.27430517417E+01 -0.63764564815E+01  0.31551494130E+02  0.51100000000E-03 0. -1.
        -11    1    4    4    0    0  0.14356196419E+01  0.88086753033E+01 -0.14555984835E+02  0.17074263063E+02  0.51100000000E-03 0.  1.
         12    1    4    4    0    0 -0.75870957358E+00 -0.48284934634E+01  0.30121105121E+01  0.57413238090E+01  0.00000000000E+00 0. -1.
</event>
<event>
 8    1  0.2466538E-006  0.9118800E+02  0.7816164E-02  0.1184000E+00
        -11   -1    0    0    0    0  0.00000000000E+00  0.00000000000E+00  0.45593999997E+02  0.45594000000E+02  0.51100000000E-03 0.  1.
         11   -1    0    0    0    0 -0.00000000000E+00 -0.00000000000E+00 -0.45593999997E+02  0.45594000000E+02  0.51100000000E-03 0. -1.
         23    2    1    2    0    0  0.00000000000E+00  0.00000000000E+00 -0.88817841970E-15  0.91188000000E+02  0.91188000000E+02 0.  0.
    9900012    2    3    3    0    0  0.16250133328E+02  0.32644192778E+02 -0.51058186676E+01  0.54367088284E+02  0.40000009362E+02 0.  0.
         12    1    3    3    0    0 -0.16250133328E+02 -0.32644192778E+02  0.51058186676E+01  0.36820911716E+02  0.00000000000E+00 0. -1.
         11    1    4    4    0    0  0.26123806502E+02  0.12962379725E+02 -0.42130928283E+01  0.29465686922E+02  0.51100000000E-03 0. -1.
        -11    1    4    4    0    0 -0.10074943772E+02  0.12561697707E+02 -0.47661802663E+01  0.16793368212E+02  0.51100000000E-03 0.  1.
         12    1    4    4    0    0  0.20127059758E+00  0.71201153453E+01  0.38734544270E+01  0.81080331513E+01  0.00000000000E+00 0. -1.
</event>
<event>
 8    1  0.2466538E-006  0.9118800E+02  0.7816164E-02  0.1184000E+00
        -11   -1    0    0    0    0  0.00000000000E+00  0.00000000000E+00  0.45593999997E+02  0.45594000000E+02  0.51100000000E-03 0.  1.
         11   -1    0    0    0    0 -0.00000000000E+00 -0.00000000000E+00 -0.45593999997E+02  0.45594000000E+02  0.51100000000E-03 0. -1.
         23    2    1    2    0    0  0.35527136788E-14  0.00000000000E+00  0.44408920985E-15  0.91188000000E+02  0.91188000000E+02 0.  0.
    9900012    2    3    3    0    0 -0.69484076770E+01 -0.36033307488E+02  0.30160638760E+01  0.54367132831E+02  0.40000110915E+02 0.  0.
        -12    1    3    3    0    0  0.69484076770E+01  0.36033307488E+02 -0.30160638760E+01  0.36820867169E+02  0.00000000000E+00 0.  1.
         11    1    4    4    0    0 -0.14545616668E+02 -0.22157646739E+02  0.27454492403E+01  0.26647209330E+02  0.51100000000E-03 0. -1.
        -11    1    4    4    0    0  0.15189090335E+02 -0.84003272967E+01 -0.33612147956E+01  0.17679698217E+02  0.51100000000E-03 0.  1.
        -12    1    4    4    0    0 -0.75918813433E+01 -0.54753334524E+01  0.36318294313E+01  0.10040225285E+02  0.00000000000E+00 0.  1.
</event>
<event>
 8    1  0.2466538E-006  0.9118800E+02  0.7816164E-02  0.1184000E+00
        -11   -1    0    0    0    0  0.00000000000E+00  0.00000000000E+00  0.45593999997E+02  0.45594000000E+02  0.51100000000E-03 0.  1.
         11   -1    0    0    0    0 -0.00000000000E+00 -0.00000000000E+00 -0.45593999997E+02  0.45594000000E+02  0.51100000000E-03 0. -1.
         23    2    1    2    0    0  0.00000000000E+00  0.35527136788E-14 -0.17763568394E-14  0.91188000000E+02  0.91188000000E+02 0.  0.
    9900012    2    3    3    0    0 -0.24221595066E+02  0.23968350176E+02 -0.13950405133E+02  0.54367064636E+02  0.39999955451E+02 0.  0.
         12    1    3    3    0    0  0.24221595066E+02 -0.23968350176E+02  0.13950405133E+02  0.36820935364E+02  0.00000000000E+00 0. -1.
         11    1    4    4    0    0 -0.16239088397E+02  0.11156097962E+02  0.94872192518E+01  0.21867186447E+02  0.51100000000E-03 0. -1.
        -11    1    4    4    0    0 -0.78781281124E+01 -0.16045563316E+01 -0.95242122384E+01  0.12463952928E+02  0.51100000000E-03 0.  1.
         12    1    4    4    0    0 -0.10437855651E+00  0.14416808545E+02 -0.13913412147E+02  0.20035925261E+02  0.00000000000E+00 0. -1.
</event>
<event>
 8    1  0.2466538E-006  0.9118800E+02  0.7816164E-02  0.1184000E+00
        -11   -1    0    0    0    0  0.00000000000E+00  0.00000000000E+00  0.45593999997E+02  0.45594000000E+02  0.51100000000E-03 0.  1.
         11   -1    0    0    0    0 -0.00000000000E+00 -0.00000000000E+00 -0.45593999997E+02  0.45594000000E+02  0.51100000000E-03 0. -1.
         23    2    1    2    0    0  0.00000000000E+00  0.00000000000E+00  0.00000000000E+00  0.91188000000E+02  0.91188000000E+02 0.  0.
    9900012    2    3    3    0    0  0.29159250290E+02  0.13136395117E+02 -0.18246990039E+02  0.54367090185E+02  0.40000013694E+02 0.  0.
        -12    1    3    3    0    0 -0.29159250290E+02 -0.13136395117E+02  0.18246990039E+02  0.36820909815E+02  0.00000000000E+00 0.  1.
         11    1    4    4    0    0  0.40068340276E+01 -0.62380887492E+01  0.71201000756E+01  0.10279313961E+02  0.51100000000E-03 0. -1.
        -11    1    4    4    0    0  0.20384264308E+02  0.13946275121E+02 -0.91586238816E+01  0.26341928798E+02  0.51100000000E-03 0.  1.
        -12    1    4    4    0    0  0.47681519545E+01  0.54282087456E+01 -0.16208466233E+02  0.17745847426E+02  0.00000000000E+00 0.  1.
</event>
<event>
 8    1  0.2466538E-006  0.9118800E+02  0.7816164E-02  0.1184000E+00
        -11   -1    0    0    0    0  0.00000000000E+00  0.00000000000E+00  0.45593999997E+02  0.45594000000E+02  0.51100000000E-03 0. -1.
         11   -1    0    0    0    0 -0.00000000000E+00 -0.00000000000E+00 -0.45593999997E+02  0.45594000000E+02  0.51100000000E-03 0.  1.
         23    2    1    2    0    0 -0.17763568394E-14  0.17208456882E-14  0.71054273576E-14  0.91188000000E+02  0.91188000000E+02 0.  0.
    9900012    2    3    3    0    0 -0.15414807487E+02 -0.46630903559E+00  0.33435703891E+02  0.54367081643E+02  0.39999994221E+02 0.  0.
        -12    1    3    3    0    0  0.15414807487E+02  0.46630903559E+00 -0.33435703891E+02  0.36820918357E+02  0.00000000000E+00 0.  1.
         11    1    4    4    0    0 -0.11989651922E+02  0.10299491597E+01  0.14694589468E+02  0.18993249021E+02  0.51100000000E-03 0. -1.
        -11    1    4    4    0    0  0.81265586144E+01 -0.81871267686E+01 -0.96041839024E+00  0.11575508774E+02  0.51100000000E-03 0.  1.
        -12    1    4    4    0    0 -0.11551714179E+02  0.66908685733E+01  0.19701532813E+02  0.23798323847E+02  0.00000000000E+00 0.  1.
</event>
<event>
 8    1  0.2466538E-006  0.9118800E+02  0.7816164E-02  0.1184000E+00
        -11   -1    0    0    0    0  0.00000000000E+00  0.00000000000E+00  0.45593999997E+02  0.45594000000E+02  0.51100000000E-03 0.  1.
         11   -1    0    0    0    0 -0.00000000000E+00 -0.00000000000E+00 -0.45593999997E+02  0.45594000000E+02  0.51100000000E-03 0. -1.
         23    2    1    2    0    0  0.00000000000E+00 -0.71054273576E-14 -0.66613381478E-15  0.91188000000E+02  0.91188000000E+02 0.  0.
    9900012    2    3    3    0    0 -0.94226046565E+01 -0.35557187964E+02  0.16372819601E+01  0.54367084930E+02  0.40000001715E+02 0.  0.
        -12    1    3    3    0    0  0.94226046565E+01  0.35557187964E+02 -0.16372819601E+01  0.36820915070E+02  0.00000000000E+00 0.  1.
         11    1    4    4    0    0 -0.12487017007E+01 -0.37520008958E+01  0.33596182672E+01  0.51888150692E+01  0.51100000000E-03 0. -1.
        -11    1    4    4    0    0 -0.88012251682E+01  0.59335305207E+01 -0.40540603571E+01  0.11362383313E+02  0.51100000000E-03 0.  1.
         12    1    4    4    0    0  0.62732221245E+00 -0.37738717588E+02  0.23317240500E+01  0.37815886548E+02  0.00000000000E+00 0. -1.
</event>
<event>
 8    1  0.2466538E-006  0.9118800E+02  0.7816164E-02  0.1184000E+00
        -11   -1    0    0    0    0  0.00000000000E+00  0.00000000000E+00  0.45593999997E+02  0.45594000000E+02  0.51100000000E-03 0. -1.
         11   -1    0    0    0    0 -0.00000000000E+00 -0.00000000000E+00 -0.45593999997E+02  0.45594000000E+02  0.51100000000E-03 0.  1.
         23    2    1    2    0    0  0.00000000000E+00  0.00000000000E+00  0.00000000000E+00  0.91188000000E+02  0.91188000000E+02 0.  0.
    9900012    2    3    3    0    0 -0.16144338157E+02 -0.28871857858E+01 -0.32966708198E+02  0.54367090917E+02  0.40000015364E+02 0.  0.
         12    1    3    3    0    0  0.16144338157E+02  0.28871857858E+01  0.32966708198E+02  0.36820909083E+02  0.00000000000E+00 0. -1.
         11    1    4    4    0    0 -0.78506886309E+01 -0.32915572650E+01 -0.66083385368E+01  0.10776724905E+02  0.51100000000E-03 0. -1.
        -11    1    4    4    0    0 -0.19280044549E+02  0.29665162784E+01 -0.25734163117E+02  0.32291910570E+02  0.51100000000E-03 0.  1.
         12    1    4    4    0    0  0.10986395023E+02 -0.25621447992E+01 -0.62420654414E+00  0.11298455442E+02  0.00000000000E+00 0. -1.
</event>
<event>
 8    1  0.2466538E-006  0.9118800E+02  0.7816164E-02  0.1184000E+00
        -11   -1    0    0    0    0  0.00000000000E+00  0.00000000000E+00  0.45593999997E+02  0.45594000000E+02  0.51100000000E-03 0. -1.
         11   -1    0    0    0    0 -0.00000000000E+00 -0.00000000000E+00 -0.45593999997E+02  0.45594000000E+02  0.51100000000E-03 0.  1.
         23    2    1    2    0    0  0.17763568394E-14 -0.35527136788E-14  0.35527136788E-14  0.91188000000E+02  0.91188000000E+02 0.  0.
    9900012    2    3    3    0    0 -0.11161308383E+02  0.18751678984E+02 -0.29657774695E+02  0.54367029488E+02  0.39999875324E+02 0.  0.
         12    1    3    3    0    0  0.11161308383E+02 -0.18751678984E+02  0.29657774695E+02  0.36820970512E+02  0.00000000000E+00 0. -1.
         11    1    4    4    0    0  0.13492409939E+01 -0.75313944170E+01 -0.24885126168E+01  0.80458093706E+01  0.51100000000E-03 0. -1.
        -11    1    4    4    0    0 -0.12613183221E+01  0.47018977764E+00 -0.15956530957E+02  0.16013209634E+02  0.51100000000E-03 0.  1.
         12    1    4    4    0    0 -0.11249231055E+02  0.25812883624E+02 -0.11212731122E+02  0.30308010484E+02  0.00000000000E+00 0. -1.
</event>
<event>
 8    1  0.2466538E-006  0.9118800E+02  0.7816164E-02  0.1184000E+00
        -11   -1    0    0    0    0  0.00000000000E+00  0.00000000000E+00  0.45593999997E+02  0.45594000000E+02  0.51100000000E-03 0. -1.
         11   -1    0    0    0    0 -0.00000000000E+00 -0.00000000000E+00 -0.45593999997E+02  0.45594000000E+02  0.51100000000E-03 0.  1.
         23    2    1    2    0    0 -0.17763568394E-14  0.00000000000E+00  0.17763568394E-14  0.91188000000E+02  0.91188000000E+02 0.  0.
    9900012    2    3    3    0    0 -0.14975664721E+02  0.32434610237E+02  0.89166082781E+01  0.54367076896E+02  0.39999983400E+02 0.  0.
        -12    1    3    3    0    0  0.14975664721E+02 -0.32434610237E+02 -0.89166082781E+01  0.36820923104E+02  0.00000000000E+00 0.  1.
         11    1    4    4    0    0  0.22068764415E+01  0.22849948014E+02  0.13455528709E+02  0.26609052613E+02  0.51100000000E-03 0. -1.
        -11    1    4    4    0    0 -0.19197223074E+02  0.11174901804E+02  0.37291973185E+00  0.22216004894E+02  0.51100000000E-03 0.  1.
        -12    1    4    4    0    0  0.20146819115E+01 -0.15902395808E+01 -0.49118401623E+01  0.55420193891E+01  0.00000000000E+00 0.  1.
</event>
<event>
 8    1  0.2466538E-006  0.9118800E+02  0.7816164E-02  0.1184000E+00
        -11   -1    0    0    0    0  0.00000000000E+00  0.00000000000E+00  0.45593999997E+02  0.45594000000E+02  0.51100000000E-03 0.  1.
         11   -1    0    0    0    0 -0.00000000000E+00 -0.00000000000E+00 -0.45593999997E+02  0.45594000000E+02  0.51100000000E-03 0. -1.
         23    2    1    2    0    0 -0.17763568394E-14  0.00000000000E+00 -0.88817841970E-15  0.91188000000E+02  0.91188000000E+02 0.  0.
    9900012    2    3    3    0    0 -0.13958722622E+02 -0.33338201362E+02  0.70354678907E+01  0.54367089966E+02  0.40000013195E+02 0.  0.
         12    1    3    3    0    0  0.13958722622E+02  0.33338201362E+02 -0.70354678907E+01  0.36820910034E+02  0.00000000000E+00 0. -1.
         11    1    4    4    0    0  0.45431865782E+01 -0.44197407288E+00  0.71336841028E+01  0.84690810897E+01  0.51100000000E-03 0. -1.
        -11    1    4    4    0    0 -0.20574444305E+02 -0.21602801998E+02  0.90959085560E+01  0.31188529388E+02  0.51100000000E-03 0.  1.
        -12    1    4    4    0    0  0.20725351049E+01 -0.11293425291E+02 -0.91941247681E+01  0.14709479488E+02  0.00000000000E+00 0.  1.
</event>
<event>
 8    1  0.2466538E-006  0.9118800E+02  0.7816164E-02  0.1184000E+00
        -11   -1    0    0    0    0  0.00000000000E+00  0.00000000000E+00  0.45593999997E+02  0.45594000000E+02  0.51100000000E-03 0. -1.
         11   -1    0    0    0    0 -0.00000000000E+00 -0.00000000000E+00 -0.45593999997E+02  0.45594000000E+02  0.51100000000E-03 0.  1.
         23    2    1    2    0    0  0.35527136788E-14 -0.88817841970E-15 -0.35527136788E-14  0.91188000000E+02  0.91188000000E+02 0.  0.
    9900012    2    3    3    0    0 -0.30770814732E+02  0.30861363375E+01  0.19985493482E+02  0.54366983902E+02  0.39999771400E+02 0.  0.
        -12    1    3    3    0    0  0.30770814732E+02 -0.30861363375E+01 -0.19985493482E+02  0.36821016098E+02  0.00000000000E+00 0.  1.
         11    1    4    4    0    0  0.51506465273E+01  0.30206846400E+01 -0.46584197332E+00  0.59892156706E+01  0.51100000000E-03 0. -1.
        -11    1    4    4    0    0 -0.23051475985E+01 -0.45479202878E+01  0.12539055494E+02  0.13536070232E+02  0.51100000000E-03 0.  1.
        -12    1    4    4    0    0 -0.33616313661E+02  0.46133719852E+01  0.79122799611E+01  0.34841697999E+02  0.00000000000E+00 0.  1.
</event>
<event>
 8    1  0.2466538E-006  0.9118800E+02  0.7816164E-02  0.1184000E+00
        -11   -1    0    0    0    0  0.00000000000E+00  0.00000000000E+00  0.45593999997E+02  0.45594000000E+02  0.51100000000E-03 0. -1.
         11   -1    0    0    0    0 -0.00000000000E+00 -0.00000000000E+00 -0.45593999997E+02  0.45594000000E+02  0.51100000000E-03 0.  1.
         23    2    1    2    0    0 -0.17763568394E-14  0.00000000000E+00  0.00000000000E+00  0.91188000000E+02  0.91188000000E+02 0.  0.
    9900012    2    3    3    0    0  0.88877567141E+01  0.30270028185E+02 -0.18987145753E+02  0.54367101999E+02  0.40000040627E+02 0.  0.
        -12    1    3    3    0    0 -0.88877567141E+01 -0.30270028185E+02  0.18987145753E+02  0.36820898001E+02  0.00000000000E+00 0.  1.
         11    1    4    4    0    0  0.16366161911E+02  0.97223145600E+01  0.26466986711E+01  0.19219252593E+02  0.51100000000E-03 0. -1.
        -11    1    4    4    0    0 -0.26992245421E+01  0.84789556316E+01 -0.20218967003E+02  0.22090385435E+02  0.51100000000E-03 0.  1.
        -12    1    4    4    0    0 -0.47791806549E+01  0.12068757994E+02 -0.14148774211E+01  0.13057463971E+02  0.00000000000E+00 0.  1.
</event>
<event>
 8    1  0.2466538E-006  0.9118800E+02  0.7816164E-02  0.1184000E+00
        -11   -1    0    0    0    0  0.00000000000E+00  0.00000000000E+00  0.45593999997E+02  0.45594000000E+02  0.51100000000E-03 0. -1.
         11   -1    0    0    0    0 -0.00000000000E+00 -0.00000000000E+00 -0.45593999997E+02  0.45594000000E+02  0.51100000000E-03 0.  1.
         23    2    1    2    0    0  0.35527136788E-14  0.00000000000E+00  0.00000000000E+00  0.91188000000E+02  0.91188000000E+02 0.  0.
    9900012    2    3    3    0    0 -0.31235260180E+02 -0.16444988627E+02 -0.10473803201E+02  0.54367086338E+02  0.40000004924E+02 0.  0.
         12    1    3    3    0    0  0.31235260180E+02  0.16444988627E+02  0.10473803201E+02  0.36820913662E+02  0.00000000000E+00 0. -1.
         11    1    4    4    0    0 -0.53386709088E+01  0.56175197882E+01 -0.30450084958E+01  0.83264645945E+01  0.51100000000E-03 0. -1.
        -11    1    4    4    0    0  0.50235927409E+01 -0.11352269347E+02  0.29978872564E+00  0.12417744436E+02  0.51100000000E-03 0.  1.
        -12    1    4    4    0    0 -0.30920182012E+02 -0.10710239069E+02 -0.77285834310E+01  0.33622877307E+02  0.00000000000E+00 0.  1.
</event>
<event>
 8    1  0.2466538E-006  0.9118800E+02  0.7816164E-02  0.1184000E+00
        -11   -1    0    0    0    0  0.00000000000E+00  0.00000000000E+00  0.45593999997E+02  0.45594000000E+02  0.51100000000E-03 0. -1.
         11   -1    0    0    0    0 -0.00000000000E+00 -0.00000000000E+00 -0.45593999997E+02  0.45594000000E+02  0.51100000000E-03 0.  1.
         23    2    1    2    0    0  0.00000000000E+00 -0.35527136788E-14  0.00000000000E+00  0.91188000000E+02  0.91188000000E+02 0.  0.
    9900012    2    3    3    0    0  0.23408746409E+02 -0.24848018297E+02 -0.13797900838E+02  0.54367143284E+02  0.40000134745E+02 0.  0.
         12    1    3    3    0    0 -0.23408746409E+02  0.24848018297E+02  0.13797900838E+02  0.36820856716E+02  0.00000000000E+00 0. -1.
         11    1    4    4    0    0  0.97329413164E+00 -0.13444798932E+02  0.68794388501E+01  0.15133955165E+02  0.51100000000E-03 0. -1.
        -11    1    4    4    0    0  0.12986783887E+02 -0.38444315805E+01 -0.23208314333E+02  0.26871212558E+02  0.51100000000E-03 0.  1.
        -12    1    4    4    0    0  0.94486683901E+01 -0.75587877852E+01  0.25309746448E+01  0.12361975561E+02  0.00000000000E+00 0.  1.
</event>
<event>
 8    1  0.2466538E-006  0.9118800E+02  0.7816164E-02  0.1184000E+00
        -11   -1    0    0    0    0  0.00000000000E+00  0.00000000000E+00  0.45593999997E+02  0.45594000000E+02  0.51100000000E-03 0.  1.
         11   -1    0    0    0    0 -0.00000000000E+00 -0.00000000000E+00 -0.45593999997E+02  0.45594000000E+02  0.51100000000E-03 0. -1.
         23    2    1    2    0    0  0.00000000000E+00 -0.35527136788E-14  0.00000000000E+00  0.91188000000E+02  0.91188000000E+02 0.  0.
    9900012    2    3    3    0    0  0.97546309135E+01  0.22786454775E+02 -0.27228788900E+02  0.54367050929E+02  0.39999924204E+02 0.  0.
         12    1    3    3    0    0 -0.97546309135E+01 -0.22786454775E+02  0.27228788900E+02  0.36820949071E+02  0.00000000000E+00 0. -1.
         11    1    4    4    0    0 -0.20130790887E+01 -0.52469751057E+01 -0.17029504430E+01  0.58722462185E+01  0.51100000000E-03 0. -1.
        -11    1    4    4    0    0  0.98638961023E+01 -0.27195178946E+01 -0.44101615293E+01  0.11141891620E+02  0.51100000000E-03 0.  1.
        -12    1    4    4    0    0  0.19038138999E+01  0.30752947776E+02 -0.21115676928E+02  0.37352913091E+02  0.00000000000E+00 0.  1.
</event>
<event>
 8    1  0.2466538E-006  0.9118800E+02  0.7816164E-02  0.1184000E+00
        -11   -1    0    0    0    0  0.00000000000E+00  0.00000000000E+00  0.45593999997E+02  0.45594000000E+02  0.51100000000E-03 0. -1.
         11   -1    0    0    0    0 -0.00000000000E+00 -0.00000000000E+00 -0.45593999997E+02  0.45594000000E+02  0.51100000000E-03 0.  1.
         23    2    1    2    0    0 -0.35527136788E-14 -0.35527136788E-14  0.00000000000E+00  0.91188000000E+02  0.91188000000E+02 0.  0.
    9900012    2    3    3    0    0  0.23428452236E+02 -0.27870678998E+02  0.54875551831E+01  0.54367076820E+02  0.39999983226E+02 0.  0.
        -12    1    3    3    0    0 -0.23428452236E+02  0.27870678998E+02 -0.54875551831E+01  0.36820923180E+02  0.00000000000E+00 0.  1.
         11    1    4    4    0    0  0.73919801192E+01 -0.11528735682E+02  0.20316861430E+01  0.13844885892E+02  0.51100000000E-03 0. -1.
        -11    1    4    4    0    0  0.26212056518E+02 -0.14742431006E+02  0.24781531738E+01  0.30175361179E+02  0.51100000000E-03 0.  1.
        -12    1    4    4    0    0 -0.10175584402E+02 -0.15995123094E+01  0.97771586627E+00  0.10346829749E+02  0.00000000000E+00 0.  1.
</event>
<event>
 8    1  0.2466538E-006  0.9118800E+02  0.7816164E-02  0.1184000E+00
        -11   -1    0    0    0    0  0.00000000000E+00  0.00000000000E+00  0.45593999997E+02  0.45594000000E+02  0.51100000000E-03 0.  1.
         11   -1    0    0    0    0 -0.00000000000E+00 -0.00000000000E+00 -0.45593999997E+02  0.45594000000E+02  0.51100000000E-03 0. -1.
         23    2    1    2    0    0  0.00000000000E+00  0.22204460493E-15  0.71054273576E-14  0.91188000000E+02  0.91188000000E+02 0.  0.
    9900012    2    3    3    0    0  0.12693506227E+02 -0.91703674373E+00 -0.34551608946E+02  0.54367085597E+02  0.40000003236E+02 0.  0.
        -12    1    3    3    0    0 -0.12693506227E+02  0.91703674373E+00  0.34551608946E+02  0.36820914403E+02  0.00000000000E+00 0.  1.
         11    1    4    4    0    0 -0.74983995287E+01  0.93408832247E+00 -0.67058679588E+00  0.75860532162E+01  0.51100000000E-03 0.  1.
        -11    1    4    4    0    0  0.18728850298E+02  0.37538584230E+01 -0.87842127756E+01  0.21024359227E+02  0.51100000000E-03 0. -1.
         12    1    4    4    0    0  0.14630554573E+01 -0.56049834892E+01 -0.25096809374E+02  0.25756673154E+02  0.00000000000E+00 0. -1.
</event>
<event>
 8    1  0.2466538E-006  0.9118800E+02  0.7816164E-02  0.1184000E+00
        -11   -1    0    0    0    0  0.00000000000E+00  0.00000000000E+00  0.45593999997E+02  0.45594000000E+02  0.51100000000E-03 0. -1.
         11   -1    0    0    0    0 -0.00000000000E+00 -0.00000000000E+00 -0.45593999997E+02  0.45594000000E+02  0.51100000000E-03 0.  1.
         23    2    1    2    0    0  0.00000000000E+00  0.71054273576E-14  0.00000000000E+00  0.91188000000E+02  0.91188000000E+02 0.  0.
    9900012    2    3    3    0    0  0.10416125689E+02  0.33712483039E+02 -0.10523888790E+02  0.54367089877E+02  0.40000012993E+02 0.  0.
         12    1    3    3    0    0 -0.10416125689E+02 -0.33712483039E+02  0.10523888790E+02  0.36820910123E+02  0.00000000000E+00 0. -1.
         11    1    4    4    0    0  0.69992676798E+01  0.69220563501E+01 -0.44049777024E+01  0.10784639122E+02  0.51100000000E-03 0. -1.
        -11    1    4    4    0    0 -0.89899960453E+01  0.36557070531E+01  0.90446653220E+01  0.13266129579E+02  0.51100000000E-03 0.  1.
        -12    1    4    4    0    0  0.12406854055E+02  0.23134719636E+02 -0.15163576410E+02  0.30316321177E+02  0.00000000000E+00 0.  1.
</event>
<event>
 8    1  0.2466538E-006  0.9118800E+02  0.7816164E-02  0.1184000E+00
        -11   -1    0    0    0    0  0.00000000000E+00  0.00000000000E+00  0.45593999997E+02  0.45594000000E+02  0.51100000000E-03 0.  1.
         11   -1    0    0    0    0 -0.00000000000E+00 -0.00000000000E+00 -0.45593999997E+02  0.45594000000E+02  0.51100000000E-03 0. -1.
         23    2    1    2    0    0  0.35527136788E-14  0.17763568394E-14  0.00000000000E+00  0.91188000000E+02  0.91188000000E+02 0.  0.
    9900012    2    3    3    0    0 -0.22458069571E+02  0.56055931138E+01 -0.28635504277E+02  0.54367086538E+02  0.40000005380E+02 0.  0.
        -12    1    3    3    0    0  0.22458069571E+02 -0.56055931138E+01  0.28635504277E+02  0.36820913462E+02  0.00000000000E+00 0.  1.
         11    1    4    4    0    0 -0.69749360201E+01  0.14680456008E+02 -0.13842352694E+02  0.21348916822E+02  0.51100000000E-03 0. -1.
        -11    1    4    4    0    0  0.31620122762E+01 -0.10316936880E+02 -0.45751278264E+01  0.11720465140E+02  0.51100000000E-03 0.  1.
        -12    1    4    4    0    0 -0.18645145827E+02  0.12420739856E+01 -0.10218023756E+02  0.21297704575E+02  0.00000000000E+00 0.  1.
</event>
<event>
 8    1  0.2466538E-006  0.9118800E+02  0.7816164E-02  0.1184000E+00
        -11   -1    0    0    0    0  0.00000000000E+00  0.00000000000E+00  0.45593999997E+02  0.45594000000E+02  0.51100000000E-03 0. -1.
         11   -1    0    0    0    0 -0.00000000000E+00 -0.00000000000E+00 -0.45593999997E+02  0.45594000000E+02  0.51100000000E-03 0.  1.
         23    2    1    2    0    0  0.00000000000E+00  0.00000000000E+00  0.71054273576E-14  0.91188000000E+02  0.91188000000E+02 0.  0.
    9900012    2    3    3    0    0  0.17122989969E+02 -0.16055261722E+02 -0.28369169013E+02  0.54367109666E+02  0.40000058106E+02 0.  0.
         12    1    3    3    0    0 -0.17122989969E+02  0.16055261722E+02  0.28369169013E+02  0.36820890334E+02  0.00000000000E+00 0. -1.
         11    1    4    4    0    0  0.22325817495E+02 -0.12321060445E+02 -0.10796069627E+02  0.27691258132E+02  0.51100000000E-03 0. -1.
        -11    1    4    4    0    0  0.32273288700E+01 -0.78005839604E+01 -0.22772758871E+01  0.87436118101E+01  0.51100000000E-03 0.  1.
         12    1    4    4    0    0 -0.84301563957E+01  0.40663826831E+01 -0.15295823499E+02  0.17932239724E+02  0.00000000000E+00 0. -1.
</event>
<event>
 8    1  0.2466538E-006  0.9118800E+02  0.7816164E-02  0.1184000E+00
        -11   -1    0    0    0    0  0.00000000000E+00  0.00000000000E+00  0.45593999997E+02  0.45594000000E+02  0.51100000000E-03 0.  1.
         11   -1    0    0    0    0 -0.00000000000E+00 -0.00000000000E+00 -0.45593999997E+02  0.45594000000E+02  0.51100000000E-03 0. -1.
         23    2    1    2    0    0  0.00000000000E+00  0.10658141036E-13 -0.35527136788E-14  0.91188000000E+02  0.91188000000E+02 0.  0.
    9900012    2    3    3    0    0 -0.13706181937E+02  0.21438690559E+02 -0.26613999807E+02  0.54367056749E+02  0.39999937470E+02 0.  0.
        -12    1    3    3    0    0  0.13706181937E+02 -0.21438690559E+02  0.26613999807E+02  0.36820943251E+02  0.00000000000E+00 0.  1.
         11    1    4    4    0    0  0.57648840780E+00 -0.63638567389E+01  0.14191579785E+01  0.65456108277E+01  0.51100000000E-03 0. -1.
        -11    1    4    4    0    0 -0.47818315639E+01  0.10098264184E+01  0.30012223346E+01  0.57352417790E+01  0.51100000000E-03 0.  1.
         12    1    4    4    0    0 -0.95008387812E+01  0.26792720880E+02 -0.31034380120E+02  0.42086204142E+02  0.00000000000E+00 0. -1.
</event>
<event>
 8    1  0.2466538E-006  0.9118800E+02  0.7816164E-02  0.1184000E+00
        -11   -1    0    0    0    0  0.00000000000E+00  0.00000000000E+00  0.45593999997E+02  0.45594000000E+02  0.51100000000E-03 0. -1.
         11   -1    0    0    0    0 -0.00000000000E+00 -0.00000000000E+00 -0.45593999997E+02  0.45594000000E+02  0.51100000000E-03 0.  1.
         23    2    1    2    0    0  0.00000000000E+00  0.00000000000E+00  0.00000000000E+00  0.91188000000E+02  0.91188000000E+02 0.  0.
    9900012    2    3    3    0    0  0.24799589499E+02 -0.24757990531E+02 -0.11305120544E+02  0.54367034709E+02  0.39999887226E+02 0.  0.
         12    1    3    3    0    0 -0.24799589499E+02  0.24757990531E+02  0.11305120544E+02  0.36820965291E+02  0.00000000000E+00 0. -1.
         11    1    4    4    0    0  0.63417093005E+01 -0.53556328873E+01  0.49309363781E+01  0.96547508669E+01  0.51100000000E-03 0. -1.
        -11    1    4    4    0    0  0.11697491386E+02 -0.64172505072E+01 -0.24502892033E+02  0.27899894750E+02  0.51100000000E-03 0.  1.
        -12    1    4    4    0    0  0.67603888128E+01 -0.12985107136E+02  0.82668351109E+01  0.16812389092E+02  0.00000000000E+00 0.  1.
</event>
<event>
 8    1  0.2466538E-006  0.9118800E+02  0.7816164E-02  0.1184000E+00
        -11   -1    0    0    0    0  0.00000000000E+00  0.00000000000E+00  0.45593999997E+02  0.45594000000E+02  0.51100000000E-03 0. -1.
         11   -1    0    0    0    0 -0.00000000000E+00 -0.00000000000E+00 -0.45593999997E+02  0.45594000000E+02  0.51100000000E-03 0.  1.
         23    2    1    2    0    0  0.22204460493E-15 -0.71054273576E-14  0.00000000000E+00  0.91188000000E+02  0.91188000000E+02 0.  0.
    9900012    2    3    3    0    0 -0.14582605941E+01 -0.35705816408E+02 -0.88740237222E+01  0.54367080045E+02  0.39999990578E+02 0.  0.
        -12    1    3    3    0    0  0.14582605941E+01  0.35705816408E+02  0.88740237222E+01  0.36820919955E+02  0.00000000000E+00 0.  1.
         11    1    4    4    0    0  0.54563239036E+01 -0.93272573488E+01  0.14052692012E+01  0.10896971230E+02  0.51100000000E-03 0.  1.
        -11    1    4    4    0    0 -0.18780539935E+01 -0.25388252723E+02  0.62068687549E+01  0.26203352517E+02  0.51100000000E-03 0. -1.
        -12    1    4    4    0    0 -0.50365305042E+01 -0.99030633595E+00 -0.16486161678E+02  0.17266756298E+02  0.00000000000E+00 0.  1.
</event>
<event>
 8    1  0.2466538E-006  0.9118800E+02  0.7816164E-02  0.1184000E+00
        -11   -1    0    0    0    0  0.00000000000E+00  0.00000000000E+00  0.45593999997E+02  0.45594000000E+02  0.51100000000E-03 0.  1.
         11   -1    0    0    0    0 -0.00000000000E+00 -0.00000000000E+00 -0.45593999997E+02  0.45594000000E+02  0.51100000000E-03 0. -1.
         23    2    1    2    0    0  0.00000000000E+00  0.00000000000E+00  0.17763568394E-14  0.91188000000E+02  0.91188000000E+02 0.  0.
    9900012    2    3    3    0    0 -0.17348999214E+02  0.30403651657E+02 -0.11419709588E+02  0.54367087805E+02  0.40000008269E+02 0.  0.
        -12    1    3    3    0    0  0.17348999214E+02 -0.30403651657E+02  0.11419709588E+02  0.36820912195E+02  0.00000000000E+00 0.  1.
         11    1    4    4    0    0 -0.15249064308E+02  0.16076008836E+02 -0.20756668910E+02  0.30361345933E+02  0.51100000000E-03 0. -1.
        -11    1    4    4    0    0 -0.31480215210E+01  0.91396372100E+01  0.13958697674E+02  0.16979053238E+02  0.51100000000E-03 0.  1.
        -12    1    4    4    0    0  0.10480866146E+01  0.51880056111E+01 -0.46217383518E+01  0.70266886344E+01  0.00000000000E+00 0.  1.
</event>
<event>
 8    1  0.2466538E-006  0.9118800E+02  0.7816164E-02  0.1184000E+00
        -11   -1    0    0    0    0  0.00000000000E+00  0.00000000000E+00  0.45593999997E+02  0.45594000000E+02  0.51100000000E-03 0. -1.
         11   -1    0    0    0    0 -0.00000000000E+00 -0.00000000000E+00 -0.45593999997E+02  0.45594000000E+02  0.51100000000E-03 0.  1.
         23    2    1    2    0    0  0.00000000000E+00  0.00000000000E+00  0.00000000000E+00  0.91188000000E+02  0.91188000000E+02 0.  0.
    9900012    2    3    3    0    0 -0.14065403696E+02 -0.27880432048E+02 -0.19509635527E+02  0.54367082701E+02  0.39999996634E+02 0.  0.
         12    1    3    3    0    0  0.14065403696E+02  0.27880432048E+02  0.19509635527E+02  0.36820917299E+02  0.00000000000E+00 0. -1.
         11    1    4    4    0    0  0.33925667494E+00  0.94734158688E+00  0.62065657177E+01  0.62876076088E+01  0.51100000000E-03 0. -1.
        -11    1    4    4    0    0  0.28224303727E+01 -0.14657794898E+02 -0.20172642919E+02  0.25094871728E+02  0.51100000000E-03 0.  1.
         12    1    4    4    0    0 -0.17227090743E+02 -0.14169978737E+02 -0.55435583266E+01  0.22984603364E+02  0.00000000000E+00 0. -1.
</event>
<event>
 8    1  0.2466538E-006  0.9118800E+02  0.7816164E-02  0.1184000E+00
        -11   -1    0    0    0    0  0.00000000000E+00  0.00000000000E+00  0.45593999997E+02  0.45594000000E+02  0.51100000000E-03 0. -1.
         11   -1    0    0    0    0 -0.00000000000E+00 -0.00000000000E+00 -0.45593999997E+02  0.45594000000E+02  0.51100000000E-03 0.  1.
         23    2    1    2    0    0  0.00000000000E+00 -0.55511151231E-15 -0.17763568394E-14  0.91188000000E+02  0.91188000000E+02 0.  0.
    9900012    2    3    3    0    0 -0.33246128021E+02  0.69207803758E+00  0.15811261766E+02  0.54367082046E+02  0.39999995140E+02 0.  0.
         12    1    3    3    0    0  0.33246128021E+02 -0.69207803758E+00 -0.15811261766E+02  0.36820917954E+02  0.00000000000E+00 0. -1.
         11    1    4    4    0    0 -0.20844015952E+00 -0.57855869908E+01  0.19478173154E+02  0.20320327108E+02  0.51100000000E-03 0. -1.
        -11    1    4    4    0    0 -0.19934682890E+02  0.47729879602E+01 -0.37215367931E+01  0.20833214643E+02  0.51100000000E-03 0.  1.
         12    1    4    4    0    0 -0.13103004971E+02  0.17046770682E+01  0.54625405530E-01  0.13213540295E+02  0.00000000000E+00 0. -1.
</event>
<event>
 8    1  0.2466538E-006  0.9118800E+02  0.7816164E-02  0.1184000E+00
        -11   -1    0    0    0    0  0.00000000000E+00  0.00000000000E+00  0.45593999997E+02  0.45594000000E+02  0.51100000000E-03 0.  1.
         11   -1    0    0    0    0 -0.00000000000E+00 -0.00000000000E+00 -0.45593999997E+02  0.45594000000E+02  0.51100000000E-03 0. -1.
         23    2    1    2    0    0  0.00000000000E+00  0.17763568394E-14  0.00000000000E+00  0.91188000000E+02  0.91188000000E+02 0.  0.
    9900012    2    3    3    0    0  0.29017570421E+02  0.13361872577E+02 -0.18309051282E+02  0.54367076726E+02  0.39999983013E+02 0.  0.
        -12    1    3    3    0    0 -0.29017570421E+02 -0.13361872577E+02  0.18309051282E+02  0.36820923274E+02  0.00000000000E+00 0.  1.
         11    1    4    4    0    0  0.35635490383E+01  0.82043439095E+01 -0.24863326301E+02  0.26423382367E+02  0.51100000000E-03 0. -1.
        -11    1    4    4    0    0  0.76659747380E+00 -0.13748556020E+01 -0.18908897754E-01  0.15742482081E+01  0.51100000000E-03 0.  1.
         12    1    4    4    0    0  0.24687423909E+02  0.65323842695E+01  0.65731839169E+01  0.26369446151E+02  0.00000000000E+00 0. -1.
</event>
<event>
 8    1  0.2466538E-006  0.9118800E+02  0.7816164E-02  0.1184000E+00
        -11   -1    0    0    0    0  0.00000000000E+00  0.00000000000E+00  0.45593999997E+02  0.45594000000E+02  0.51100000000E-03 0. -1.
         11   -1    0    0    0    0 -0.00000000000E+00 -0.00000000000E+00 -0.45593999997E+02  0.45594000000E+02  0.51100000000E-03 0.  1.
         23    2    1    2    0    0  0.00000000000E+00 -0.35527136788E-14  0.00000000000E+00  0.91188000000E+02  0.91188000000E+02 0.  0.
    9900012    2    3    3    0    0  0.16113098294E+02 -0.23941102290E+02 -0.22868609892E+02  0.54367059845E+02  0.39999944529E+02 0.  0.
         12    1    3    3    0    0 -0.16113098294E+02  0.23941102290E+02  0.22868609892E+02  0.36820940155E+02  0.00000000000E+00 0. -1.
         11    1    4    4    0    0 -0.76719791879E+01 -0.10989240487E+01 -0.99084781851E+00  0.78133653688E+01  0.51100000000E-03 0. -1.
        -11    1    4    4    0    0  0.11473339530E+02 -0.19068310216E+02 -0.24829269754E+02  0.33342624541E+02  0.51100000000E-03 0.  1.
        -12    1    4    4    0    0  0.12311737951E+02 -0.37738680257E+01  0.29515076812E+01  0.13211069936E+02  0.00000000000E+00 0.  1.
</event>
<event>
 8    1  0.2466538E-006  0.9118800E+02  0.7816164E-02  0.1184000E+00
        -11   -1    0    0    0    0  0.00000000000E+00  0.00000000000E+00  0.45593999997E+02  0.45594000000E+02  0.51100000000E-03 0. -1.
         11   -1    0    0    0    0 -0.00000000000E+00 -0.00000000000E+00 -0.45593999997E+02  0.45594000000E+02  0.51100000000E-03 0.  1.
         23    2    1    2    0    0  0.35527136788E-14  0.00000000000E+00  0.35527136788E-14  0.91188000000E+02  0.91188000000E+02 0.  0.
    9900012    2    3    3    0    0  0.22519837344E+02 -0.21552398812E+02  0.19599250930E+02  0.54367087389E+02  0.40000007320E+02 0.  0.
        -12    1    3    3    0    0 -0.22519837344E+02  0.21552398812E+02 -0.19599250930E+02  0.36820912611E+02  0.00000000000E+00 0.  1.
         11    1    4    4    0    0  0.28028938461E+02 -0.12721848316E+02  0.23251807132E+02  0.38576072260E+02  0.51100000000E-03 0. -1.
        -11    1    4    4    0    0 -0.95537078399E-01  0.11156720779E+01 -0.43049462394E+01  0.44481922063E+01  0.51100000000E-03 0.  1.
        -12    1    4    4    0    0 -0.54135640388E+01 -0.99462225741E+01  0.65239003726E+00  0.11342822923E+02  0.00000000000E+00 0.  1.
</event>
<event>
 8    1  0.2466538E-006  0.9118800E+02  0.7816164E-02  0.1184000E+00
        -11   -1    0    0    0    0  0.00000000000E+00  0.00000000000E+00  0.45593999997E+02  0.45594000000E+02  0.51100000000E-03 0. -1.
         11   -1    0    0    0    0 -0.00000000000E+00 -0.00000000000E+00 -0.45593999997E+02  0.45594000000E+02  0.51100000000E-03 0.  1.
         23    2    1    2    0    0  0.13322676296E-14 -0.35527136788E-14  0.35527136788E-14  0.91188000000E+02  0.91188000000E+02 0.  0.
    9900012    2    3    3    0    0 -0.30372830899E+01 -0.18603626174E+02 -0.31630050560E+02  0.54367080758E+02  0.39999992204E+02 0.  0.
         12    1    3    3    0    0  0.30372830899E+01  0.18603626174E+02  0.31630050560E+02  0.36820919242E+02  0.00000000000E+00 0. -1.
         11    1    4    4    0    0  0.83755993777E+01 -0.20922490373E+02 -0.10042506385E+02  0.24672924494E+02  0.51100000000E-03 0. -1.
        -11    1    4    4    0    0 -0.32979419249E+01  0.78565388324E+01 -0.16639183156E+02  0.18693957305E+02  0.51100000000E-03 0.  1.
         12    1    4    4    0    0 -0.81149405427E+01 -0.55376746341E+01 -0.49483610194E+01  0.11000198959E+02  0.00000000000E+00 0. -1.
</event>
<event>
 8    1  0.2466538E-006  0.9118800E+02  0.7816164E-02  0.1184000E+00
        -11   -1    0    0    0    0  0.00000000000E+00  0.00000000000E+00  0.45593999997E+02  0.45594000000E+02  0.51100000000E-03 0.  1.
         11   -1    0    0    0    0 -0.00000000000E+00 -0.00000000000E+00 -0.45593999997E+02  0.45594000000E+02  0.51100000000E-03 0. -1.
         23    2    1    2    0    0  0.88817841970E-15  0.00000000000E+00 -0.35527136788E-14  0.91188000000E+02  0.91188000000E+02 0.  0.
    9900012    2    3    3    0    0  0.56006800897E+01  0.32584543194E+02 -0.16206787733E+02  0.54367081472E+02  0.39999993831E+02 0.  0.
        -12    1    3    3    0    0 -0.56006800897E+01 -0.32584543194E+02  0.16206787733E+02  0.36820918528E+02  0.00000000000E+00 0.  1.
         11    1    4    4    0    0  0.17701688045E+02  0.21304393921E+02 -0.23713745015E+01  0.27800186641E+02  0.51100000000E-03 0. -1.
        -11    1    4    4    0    0 -0.70990376278E+00  0.10703429549E+02 -0.96150220064E+01  0.14405416200E+02  0.51100000000E-03 0.  1.
        -12    1    4    4    0    0 -0.11391104193E+02  0.57671972446E+00 -0.42203912255E+01  0.12161478630E+02  0.00000000000E+00 0.  1.
</event>
<event>
 8    1  0.2466538E-006  0.9118800E+02  0.7816164E-02  0.1184000E+00
        -11   -1    0    0    0    0  0.00000000000E+00  0.00000000000E+00  0.45593999997E+02  0.45594000000E+02  0.51100000000E-03 0.  1.
         11   -1    0    0    0    0 -0.00000000000E+00 -0.00000000000E+00 -0.45593999997E+02  0.45594000000E+02  0.51100000000E-03 0. -1.
         23    2    1    2    0    0 -0.28449465006E-15 -0.88817841970E-15 -0.71054273576E-14  0.91188000000E+02  0.91188000000E+02 0.  0.
    9900012    2    3    3    0    0 -0.52842207926E-01  0.71313102864E+01  0.36123704423E+02  0.54367076601E+02  0.39999982727E+02 0.  0.
         12    1    3    3    0    0  0.52842207926E-01 -0.71313102864E+01 -0.36123704423E+02  0.36820923399E+02  0.00000000000E+00 0. -1.
         11    1    4    4    0    0 -0.11840096514E+01  0.65523811483E+00 -0.38552191602E+01  0.40858207103E+01  0.51100000000E-03 0. -1.
        -11    1    4    4    0    0 -0.77233031172E+01  0.11854453594E+02  0.71420213453E+01  0.15848846968E+02  0.51100000000E-03 0.  1.
        -12    1    4    4    0    0  0.88544705607E+01 -0.53783814223E+01  0.32836902238E+02  0.34432408923E+02  0.00000000000E+00 0.  1.
</event>
<event>
 8    1  0.2466538E-006  0.9118800E+02  0.7816164E-02  0.1184000E+00
        -11   -1    0    0    0    0  0.00000000000E+00  0.00000000000E+00  0.45593999997E+02  0.45594000000E+02  0.51100000000E-03 0.  1.
         11   -1    0    0    0    0 -0.00000000000E+00 -0.00000000000E+00 -0.45593999997E+02  0.45594000000E+02  0.51100000000E-03 0. -1.
         23    2    1    2    0    0 -0.35527136788E-14 -0.35527136788E-14 -0.35527136788E-14  0.91188000000E+02  0.91188000000E+02 0.  0.
    9900012    2    3    3    0    0  0.18112264536E+02  0.22035254529E+02 -0.23284618892E+02  0.54367081411E+02  0.39999993694E+02 0.  0.
        -12    1    3    3    0    0 -0.18112264536E+02 -0.22035254529E+02  0.23284618892E+02  0.36820918589E+02  0.00000000000E+00 0.  1.
         11    1    4    4    0    0  0.19033912224E+01  0.27371224587E+01  0.58374158117E+01  0.67223627631E+01  0.51100000000E-03 0. -1.
        -11    1    4    4    0    0  0.12953483572E+02  0.28317210311E+00 -0.24640645847E+02  0.27839438771E+02  0.51100000000E-03 0.  1.
         12    1    4    4    0    0  0.32553897412E+01  0.19014959967E+02 -0.44813888565E+01  0.19805279877E+02  0.00000000000E+00 0. -1.
</event>
<event>
 8    1  0.2466538E-006  0.9118800E+02  0.7816164E-02  0.1184000E+00
        -11   -1    0    0    0    0  0.00000000000E+00  0.00000000000E+00  0.45593999997E+02  0.45594000000E+02  0.51100000000E-03 0.  1.
         11   -1    0    0    0    0 -0.00000000000E+00 -0.00000000000E+00 -0.45593999997E+02  0.45594000000E+02  0.51100000000E-03 0. -1.
         23    2    1    2    0    0  0.00000000000E+00  0.44408920985E-15  0.00000000000E+00  0.91188000000E+02  0.91188000000E+02 0.  0.
    9900012    2    3    3    0    0 -0.31452740991E+02  0.23091314003E+01  0.19004582994E+02  0.54367066030E+02  0.39999958628E+02 0.  0.
        -12    1    3    3    0    0  0.31452740991E+02 -0.23091314003E+01 -0.19004582994E+02  0.36820933970E+02  0.00000000000E+00 0.  1.
         11    1    4    4    0    0 -0.14808890123E+02 -0.39845989720E+01 -0.21452215792E+01  0.15484903342E+02  0.51100000000E-03 0. -1.
        -11    1    4    4    0    0  0.53986832777E+01  0.46194836560E+01  0.13911975451E+02  0.15621410678E+02  0.51100000000E-03 0.  1.
        -12    1    4    4    0    0 -0.22042534146E+02  0.16742467163E+01  0.72378291225E+01  0.23260752009E+02  0.00000000000E+00 0.  1.
</event>
<event>
 8    1  0.2466538E-006  0.9118800E+02  0.7816164E-02  0.1184000E+00
        -11   -1    0    0    0    0  0.00000000000E+00  0.00000000000E+00  0.45593999997E+02  0.45594000000E+02  0.51100000000E-03 0.  1.
         11   -1    0    0    0    0 -0.00000000000E+00 -0.00000000000E+00 -0.45593999997E+02  0.45594000000E+02  0.51100000000E-03 0. -1.
         23    2    1    2    0    0 -0.35527136788E-14  0.00000000000E+00  0.00000000000E+00  0.91188000000E+02  0.91188000000E+02 0.  0.
    9900012    2    3    3    0    0 -0.30447642324E+02  0.11987320615E+02  0.16882673501E+02  0.54367089594E+02  0.40000012346E+02 0.  0.
         12    1    3    3    0    0  0.30447642324E+02 -0.11987320615E+02 -0.16882673501E+02  0.36820910406E+02  0.00000000000E+00 0. -1.
         11    1    4    4    0    0 -0.11661566667E+02 -0.11074143519E+02  0.74088027416E+01  0.17706471985E+02  0.51100000000E-03 0. -1.
        -11    1    4    4    0    0 -0.85475900652E+01  0.13276896366E+02 -0.48492236532E+01  0.16518239717E+02  0.51100000000E-03 0.  1.
        -12    1    4    4    0    0 -0.10238485592E+02  0.97845677671E+01  0.14323094413E+02  0.20142377892E+02  0.00000000000E+00 0.  1.
</event>
<event>
 8    1  0.2466538E-006  0.9118800E+02  0.7816164E-02  0.1184000E+00
        -11   -1    0    0    0    0  0.00000000000E+00  0.00000000000E+00  0.45593999997E+02  0.45594000000E+02  0.51100000000E-03 0.  1.
         11   -1    0    0    0    0 -0.00000000000E+00 -0.00000000000E+00 -0.45593999997E+02  0.45594000000E+02  0.51100000000E-03 0. -1.
         23    2    1    2    0    0 -0.17763568394E-14  0.00000000000E+00 -0.88817841970E-15  0.91188000000E+02  0.91188000000E+02 0.  0.
    9900012    2    3    3    0    0 -0.11113769329E+02  0.34588288901E+02 -0.59923598131E+01  0.54367163862E+02  0.40000181655E+02 0.  0.
         12    1    3    3    0    0  0.11113769329E+02 -0.34588288901E+02  0.59923598131E+01  0.36820836138E+02  0.00000000000E+00 0. -1.
         11    1    4    4    0    0 -0.80524338389E+01 -0.18707409574E+01 -0.80803712639E+01  0.11560007028E+02  0.51100000000E-03 0. -1.
        -11    1    4    4    0    0 -0.32229697424E+01  0.38179492572E+02 -0.20015097741E+01  0.38367528310E+02  0.51100000000E-03 0.  1.
        -12    1    4    4    0    0  0.16163425185E+00 -0.17204627136E+01  0.40895212249E+01  0.44396285238E+01  0.00000000000E+00 0.  1.
</event>
<event>
 8    1  0.2466538E-006  0.9118800E+02  0.7816164E-02  0.1184000E+00
        -11   -1    0    0    0    0  0.00000000000E+00  0.00000000000E+00  0.45593999997E+02  0.45594000000E+02  0.51100000000E-03 0.  1.
         11   -1    0    0    0    0 -0.00000000000E+00 -0.00000000000E+00 -0.45593999997E+02  0.45594000000E+02  0.51100000000E-03 0. -1.
         23    2    1    2    0    0  0.00000000000E+00 -0.35527136788E-14  0.00000000000E+00  0.91188000000E+02  0.91188000000E+02 0.  0.
    9900012    2    3    3    0    0  0.17114036800E+02 -0.31923221536E+02 -0.66179518753E+01  0.54367087248E+02  0.40000007000E+02 0.  0.
        -12    1    3    3    0    0 -0.17114036800E+02  0.31923221536E+02  0.66179518753E+01  0.36820912752E+02  0.00000000000E+00 0.  1.
         11    1    4    4    0    0 -0.98463422819E+01 -0.19075534128E+02  0.15757709152E+01  0.21524625730E+02  0.51100000000E-03 0. -1.
        -11    1    4    4    0    0  0.98402331077E+01 -0.11589542461E+01  0.13885735117E+01  0.10005073674E+02  0.51100000000E-03 0.  1.
         12    1    4    4    0    0  0.17120145974E+02 -0.11688733162E+02 -0.95822963021E+01  0.22837387844E+02  0.00000000000E+00 0. -1.
</event>
<event>
 8    1  0.2466538E-006  0.9118800E+02  0.7816164E-02  0.1184000E+00
        -11   -1    0    0    0    0  0.00000000000E+00  0.00000000000E+00  0.45593999997E+02  0.45594000000E+02  0.51100000000E-03 0.  1.
         11   -1    0    0    0    0 -0.00000000000E+00 -0.00000000000E+00 -0.45593999997E+02  0.45594000000E+02  0.51100000000E-03 0. -1.
         23    2    1    2    0    0 -0.35527136788E-14  0.00000000000E+00  0.35527136788E-14  0.91188000000E+02  0.91188000000E+02 0.  0.
    9900012    2    3    3    0    0 -0.26595563083E+02  0.84060785865E+01  0.24037338152E+02  0.54367085313E+02  0.40000002589E+02 0.  0.
         12    1    3    3    0    0  0.26595563083E+02 -0.84060785865E+01 -0.24037338152E+02  0.36820914687E+02  0.00000000000E+00 0. -1.
         11    1    4    4    0    0 -0.35572696011E+02  0.67052310897E+01  0.10417945768E+02  0.37668427360E+02  0.51100000000E-03 0. -1.
        -11    1    4    4    0    0  0.11536646535E+01  0.41658446453E+00  0.42580434751E+01  0.44311871147E+01  0.51100000000E-03 0.  1.
         12    1    4    4    0    0  0.78234682745E+01  0.12842630323E+01  0.93613489097E+01  0.12267470839E+02  0.00000000000E+00 0. -1.
</event>
<event>
 8    1  0.2466538E-006  0.9118800E+02  0.7816164E-02  0.1184000E+00
        -11   -1    0    0    0    0  0.00000000000E+00  0.00000000000E+00  0.45593999997E+02  0.45594000000E+02  0.51100000000E-03 0.  1.
         11   -1    0    0    0    0 -0.00000000000E+00 -0.00000000000E+00 -0.45593999997E+02  0.45594000000E+02  0.51100000000E-03 0. -1.
         23    2    1    2    0    0 -0.44408920985E-15  0.00000000000E+00  0.35527136788E-14  0.91188000000E+02  0.91188000000E+02 0.  0.
    9900012    2    3    3    0    0 -0.80676853750E+00  0.33442965335E+02  0.15384983815E+02  0.54367074796E+02  0.39999978613E+02 0.  0.
         12    1    3    3    0    0  0.80676853750E+00 -0.33442965335E+02 -0.15384983815E+02  0.36820925204E+02  0.00000000000E+00 0. -1.
         11    1    4    4    0    0 -0.68640154955E+01  0.21977793571E+01  0.70625031653E-01  0.72076300530E+01  0.51100000000E-03 0. -1.
        -11    1    4    4    0    0  0.76041505892E+01  0.44896607494E+01  0.18175296265E+02  0.20206967967E+02  0.51100000000E-03 0.  1.
        -12    1    4    4    0    0 -0.15469036312E+01  0.26755525228E+02 -0.28609374819E+01  0.26952476776E+02  0.00000000000E+00 0.  1.
</event>
<event>
 8    1  0.2466538E-006  0.9118800E+02  0.7816164E-02  0.1184000E+00
        -11   -1    0    0    0    0  0.00000000000E+00  0.00000000000E+00  0.45593999997E+02  0.45594000000E+02  0.51100000000E-03 0.  1.
         11   -1    0    0    0    0 -0.00000000000E+00 -0.00000000000E+00 -0.45593999997E+02  0.45594000000E+02  0.51100000000E-03 0. -1.
         23    2    1    2    0    0  0.00000000000E+00  0.35527136788E-14  0.35527136788E-14  0.91188000000E+02  0.91188000000E+02 0.  0.
    9900012    2    3    3    0    0 -0.27916658933E+02  0.23959796641E+02  0.15386343793E+01  0.54367094297E+02  0.40000023068E+02 0.  0.
        -12    1    3    3    0    0  0.27916658933E+02 -0.23959796641E+02 -0.15386343793E+01  0.36820905703E+02  0.00000000000E+00 0.  1.
         11    1    4    4    0    0 -0.47466097350E+01  0.20332471802E+01 -0.16236069109E+02  0.17037439316E+02  0.51100000000E-03 0. -1.
        -11    1    4    4    0    0 -0.16266811140E+02  0.13227130233E+02  0.15291318551E+02  0.25949769597E+02  0.51100000000E-03 0.  1.
         12    1    4    4    0    0 -0.69032380584E+01  0.86994192273E+01  0.24833849375E+01  0.11379885383E+02  0.00000000000E+00 0. -1.
</event>
<event>
 8    1  0.2466538E-006  0.9118800E+02  0.7816164E-02  0.1184000E+00
        -11   -1    0    0    0    0  0.00000000000E+00  0.00000000000E+00  0.45593999997E+02  0.45594000000E+02  0.51100000000E-03 0. -1.
         11   -1    0    0    0    0 -0.00000000000E+00 -0.00000000000E+00 -0.45593999997E+02  0.45594000000E+02  0.51100000000E-03 0.  1.
         23    2    1    2    0    0 -0.26645352591E-14  0.00000000000E+00  0.71054273576E-14  0.91188000000E+02  0.91188000000E+02 0.  0.
    9900012    2    3    3    0    0  0.44665675801E+01  0.91547891821E+01  0.35383984778E+02  0.54366990105E+02  0.39999785542E+02 0.  0.
        -12    1    3    3    0    0 -0.44665675801E+01 -0.91547891821E+01 -0.35383984778E+02  0.36821009895E+02  0.00000000000E+00 0.  1.
         11    1    4    4    0    0 -0.70646722902E+01  0.10586458067E+02  0.19706594676E+02  0.23459167994E+02  0.51100000000E-03 0. -1.
        -11    1    4    4    0    0 -0.53984840779E+01 -0.39318691669E+01 -0.12976857653E+01  0.68034707386E+01  0.51100000000E-03 0.  1.
         12    1    4    4    0    0  0.16929723948E+02  0.25002002816E+01  0.16975075867E+02  0.24104351373E+02  0.00000000000E+00 0. -1.
</event>
<event>
 8    1  0.2466538E-006  0.9118800E+02  0.7816164E-02  0.1184000E+00
        -11   -1    0    0    0    0  0.00000000000E+00  0.00000000000E+00  0.45593999997E+02  0.45594000000E+02  0.51100000000E-03 0.  1.
         11   -1    0    0    0    0 -0.00000000000E+00 -0.00000000000E+00 -0.45593999997E+02  0.45594000000E+02  0.51100000000E-03 0. -1.
         23    2    1    2    0    0 -0.71054273576E-14  0.13322676296E-14  0.00000000000E+00  0.91188000000E+02  0.91188000000E+02 0.  0.
    9900012    2    3    3    0    0 -0.35678109738E+02 -0.38513366560E+01 -0.82473722392E+01  0.54367089400E+02  0.40000011906E+02 0.  0.
         12    1    3    3    0    0  0.35678109738E+02  0.38513366560E+01  0.82473722392E+01  0.36820910600E+02  0.00000000000E+00 0. -1.
         11    1    4    4    0    0 -0.61664987404E+01 -0.11237350164E-01 -0.88606556278E+01  0.10795232809E+02  0.51100000000E-03 0. -1.
        -11    1    4    4    0    0 -0.48072276726E+01  0.10556650791E+02 -0.75448995334E+01  0.13837551194E+02  0.51100000000E-03 0.  1.
        -12    1    4    4    0    0 -0.24704383325E+02 -0.14396750097E+02  0.81581829220E+01  0.29734305397E+02  0.00000000000E+00 0.  1.
</event>
<event>
 8    1  0.2466538E-006  0.9118800E+02  0.7816164E-02  0.1184000E+00
        -11   -1    0    0    0    0  0.00000000000E+00  0.00000000000E+00  0.45593999997E+02  0.45594000000E+02  0.51100000000E-03 0. -1.
         11   -1    0    0    0    0 -0.00000000000E+00 -0.00000000000E+00 -0.45593999997E+02  0.45594000000E+02  0.51100000000E-03 0.  1.
         23    2    1    2    0    0 -0.44408920985E-15  0.00000000000E+00  0.00000000000E+00  0.91188000000E+02  0.91188000000E+02 0.  0.
    9900012    2    3    3    0    0 -0.35134204045E+01  0.27497222732E+02  0.24235049906E+02  0.54367095273E+02  0.40000025295E+02 0.  0.
        -12    1    3    3    0    0  0.35134204045E+01 -0.27497222732E+02 -0.24235049906E+02  0.36820904727E+02  0.00000000000E+00 0.  1.
         11    1    4    4    0    0 -0.10384051085E+02  0.15457660480E+02  0.14305424270E+02  0.23482183635E+02  0.51100000000E-03 0. -1.
        -11    1    4    4    0    0 -0.18968449158E+01  0.17215306359E+02  0.10096006395E+01  0.17348892973E+02  0.51100000000E-03 0.  1.
        -12    1    4    4    0    0  0.87674755959E+01 -0.51757441069E+01  0.89200249966E+01  0.13536018666E+02  0.00000000000E+00 0.  1.
</event>
<event>
 8    1  0.2466538E-006  0.9118800E+02  0.7816164E-02  0.1184000E+00
        -11   -1    0    0    0    0  0.00000000000E+00  0.00000000000E+00  0.45593999997E+02  0.45594000000E+02  0.51100000000E-03 0. -1.
         11   -1    0    0    0    0 -0.00000000000E+00 -0.00000000000E+00 -0.45593999997E+02  0.45594000000E+02  0.51100000000E-03 0.  1.
         23    2    1    2    0    0  0.00000000000E+00  0.00000000000E+00  0.00000000000E+00  0.91188000000E+02  0.91188000000E+02 0.  0.
    9900012    2    3    3    0    0 -0.93826268683E+01 -0.19530271491E+02  0.29771119779E+02  0.54367017336E+02  0.39999847620E+02 0.  0.
        -12    1    3    3    0    0  0.93826268683E+01  0.19530271491E+02 -0.29771119779E+02  0.36820982664E+02  0.00000000000E+00 0.  1.
         11    1    4    4    0    0 -0.20368119330E+02 -0.16899862802E+02  0.14209891165E+02  0.30039751246E+02  0.51100000000E-03 0. -1.
        -11    1    4    4    0    0  0.39601885181E+01  0.46108488662E+01  0.36793297295E+00  0.60892031744E+01  0.51100000000E-03 0.  1.
         12    1    4    4    0    0  0.70253039432E+01 -0.72412575557E+01  0.15193295641E+02  0.18238062916E+02  0.00000000000E+00 0. -1.
</event>
<event>
 8    1  0.2466538E-006  0.9118800E+02  0.7816164E-02  0.1184000E+00
        -11   -1    0    0    0    0  0.00000000000E+00  0.00000000000E+00  0.45593999997E+02  0.45594000000E+02  0.51100000000E-03 0. -1.
         11   -1    0    0    0    0 -0.00000000000E+00 -0.00000000000E+00 -0.45593999997E+02  0.45594000000E+02  0.51100000000E-03 0.  1.
         23    2    1    2    0    0 -0.44408920985E-15  0.00000000000E+00  0.00000000000E+00  0.91188000000E+02  0.91188000000E+02 0.  0.
    9900012    2    3    3    0    0 -0.25339467773E+01 -0.17451073364E+02 -0.32323669624E+02  0.54367075707E+02  0.39999980689E+02 0.  0.
         12    1    3    3    0    0  0.25339467773E+01  0.17451073364E+02  0.32323669624E+02  0.36820924293E+02  0.00000000000E+00 0. -1.
         11    1    4    4    0    0 -0.54372160600E+01 -0.27028929692E+02 -0.19023644860E+02  0.33496647934E+02  0.51100000000E-03 0. -1.
        -11    1    4    4    0    0 -0.30929299833E+01  0.33755036385E+01 -0.11041118383E+02  0.11952679034E+02  0.51100000000E-03 0.  1.
         12    1    4    4    0    0  0.59961992660E+01  0.62023526893E+01 -0.22589063815E+01  0.89177487384E+01  0.00000000000E+00 0. -1.
</event>
<event>
 8    1  0.2466538E-006  0.9118800E+02  0.7816164E-02  0.1184000E+00
        -11   -1    0    0    0    0  0.00000000000E+00  0.00000000000E+00  0.45593999997E+02  0.45594000000E+02  0.51100000000E-03 0. -1.
         11   -1    0    0    0    0 -0.00000000000E+00 -0.00000000000E+00 -0.45593999997E+02  0.45594000000E+02  0.51100000000E-03 0.  1.
         23    2    1    2    0    0 -0.71054273576E-14  0.17763568394E-14  0.44408920985E-15  0.91188000000E+02  0.91188000000E+02 0.  0.
    9900012    2    3    3    0    0  0.35661141400E+02  0.90145106154E+01  0.16738945467E+01  0.54367077543E+02  0.39999984875E+02 0.  0.
        -12    1    3    3    0    0 -0.35661141400E+02 -0.90145106154E+01 -0.16738945467E+01  0.36820922457E+02  0.00000000000E+00 0.  1.
         11    1    4    4    0    0  0.53261185716E+01 -0.91053578020E+01 -0.82291953719E+01  0.13378891452E+02  0.51100000000E-03 0. -1.
        -11    1    4    4    0    0  0.90742976099E+01  0.96857856348E+01 -0.44342063206E+01  0.13993552316E+02  0.51100000000E-03 0.  1.
         12    1    4    4    0    0  0.21260725219E+02  0.84340827826E+01  0.14337296239E+02  0.26994633775E+02  0.00000000000E+00 0. -1.
</event>
<event>
 8    1  0.2466538E-006  0.9118800E+02  0.7816164E-02  0.1184000E+00
        -11   -1    0    0    0    0  0.00000000000E+00  0.00000000000E+00  0.45593999997E+02  0.45594000000E+02  0.51100000000E-03 0. -1.
         11   -1    0    0    0    0 -0.00000000000E+00 -0.00000000000E+00 -0.45593999997E+02  0.45594000000E+02  0.51100000000E-03 0.  1.
         23    2    1    2    0    0 -0.17763568394E-14  0.00000000000E+00  0.00000000000E+00  0.91188000000E+02  0.91188000000E+02 0.  0.
    9900012    2    3    3    0    0 -0.13575327399E+02 -0.29837817099E+01  0.34096744877E+02  0.54367075534E+02  0.39999980295E+02 0.  0.
        -12    1    3    3    0    0  0.13575327399E+02  0.29837817099E+01 -0.34096744877E+02  0.36820924466E+02  0.00000000000E+00 0.  1.
         11    1    4    4    0    0 -0.25097699197E+01  0.10876469527E+02  0.64398200395E+01  0.12886730261E+02  0.51100000000E-03 0. -1.
        -11    1    4    4    0    0 -0.34397725415E+01 -0.11526554940E+02 -0.67464794877E+00  0.12047765521E+02  0.51100000000E-03 0.  1.
         12    1    4    4    0    0 -0.76257849382E+01 -0.23336962961E+01  0.28331572787E+02  0.29432579752E+02  0.00000000000E+00 0. -1.
</event>
<event>
 8    1  0.2466538E-006  0.9118800E+02  0.7816164E-02  0.1184000E+00
        -11   -1    0    0    0    0  0.00000000000E+00  0.00000000000E+00  0.45593999997E+02  0.45594000000E+02  0.51100000000E-03 0. -1.
         11   -1    0    0    0    0 -0.00000000000E+00 -0.00000000000E+00 -0.45593999997E+02  0.45594000000E+02  0.51100000000E-03 0.  1.
         23    2    1    2    0    0 -0.44408920985E-15 -0.17763568394E-14  0.00000000000E+00  0.91188000000E+02  0.91188000000E+02 0.  0.
    9900012    2    3    3    0    0 -0.23032543744E+01 -0.14842261222E+02  0.33618181131E+02  0.54367084728E+02  0.40000001254E+02 0.  0.
        -12    1    3    3    0    0  0.23032543744E+01  0.14842261222E+02 -0.33618181131E+02  0.36820915272E+02  0.00000000000E+00 0.  1.
         11    1    4    4    0    0 -0.18549504841E+01 -0.25739414122E+02  0.20168918478E+02  0.32752764058E+02  0.51100000000E-03 0. -1.
        -11    1    4    4    0    0  0.35115280019E+01 -0.10518878411E+01  0.76642852514E+00  0.37449579281E+01  0.51100000000E-03 0.  1.
        -12    1    4    4    0    0 -0.39598318922E+01  0.11949040741E+02  0.12682834129E+02  0.17869362741E+02  0.00000000000E+00 0.  1.
</event>
<event>
 8    1  0.2466538E-006  0.9118800E+02  0.7816164E-02  0.1184000E+00
        -11   -1    0    0    0    0  0.00000000000E+00  0.00000000000E+00  0.45593999997E+02  0.45594000000E+02  0.51100000000E-03 0.  1.
         11   -1    0    0    0    0 -0.00000000000E+00 -0.00000000000E+00 -0.45593999997E+02  0.45594000000E+02  0.51100000000E-03 0. -1.
         23    2    1    2    0    0  0.35527136788E-14  0.17763568394E-14  0.17763568394E-14  0.91188000000E+02  0.91188000000E+02 0.  0.
    9900012    2    3    3    0    0 -0.30989207865E+02  0.15238565512E+02  0.12776297397E+02  0.54367100253E+02  0.40000036647E+02 0.  0.
         12    1    3    3    0    0  0.30989207865E+02 -0.15238565512E+02 -0.12776297397E+02  0.36820899747E+02  0.00000000000E+00 0. -1.
         11    1    4    4    0    0 -0.10283557198E+02  0.61671596426E+01  0.56654083749E+01  0.13262060889E+02  0.51100000000E-03 0. -1.
        -11    1    4    4    0    0 -0.13606527708E+02  0.15281103750E+02  0.17607141442E+02  0.26993724421E+02  0.51100000000E-03 0.  1.
         12    1    4    4    0    0 -0.70991229596E+01 -0.62096978805E+01 -0.10496252420E+02  0.14111314943E+02  0.00000000000E+00 0. -1.
</event>
<event>
 8    1  0.2466538E-006  0.9118800E+02  0.7816164E-02  0.1184000E+00
        -11   -1    0    0    0    0  0.00000000000E+00  0.00000000000E+00  0.45593999997E+02  0.45594000000E+02  0.51100000000E-03 0.  1.
         11   -1    0    0    0    0 -0.00000000000E+00 -0.00000000000E+00 -0.45593999997E+02  0.45594000000E+02  0.51100000000E-03 0. -1.
         23    2    1    2    0    0 -0.71054273576E-14 -0.35527136788E-14  0.35527136788E-14  0.91188000000E+02  0.91188000000E+02 0.  0.
    9900012    2    3    3    0    0 -0.27370320013E+02 -0.20731061879E+02  0.13299183306E+02  0.54367087180E+02  0.40000006845E+02 0.  0.
        -12    1    3    3    0    0  0.27370320013E+02  0.20731061879E+02 -0.13299183306E+02  0.36820912820E+02  0.00000000000E+00 0.  1.
         11    1    4    4    0    0 -0.55318435158E+01 -0.85162964768E+01  0.27832546160E+01  0.10529724825E+02  0.51100000000E-03 0. -1.
        -11    1    4    4    0    0 -0.11651926344E+02 -0.18548613539E+02  0.19119862439E+02  0.29075549723E+02  0.51100000000E-03 0.  1.
        -12    1    4    4    0    0 -0.10186550153E+02  0.63338481364E+01 -0.86039337490E+01  0.14761812632E+02  0.00000000000E+00 0.  1.
</event>
<event>
 8    1  0.2466538E-006  0.9118800E+02  0.7816164E-02  0.1184000E+00
        -11   -1    0    0    0    0  0.00000000000E+00  0.00000000000E+00  0.45593999997E+02  0.45594000000E+02  0.51100000000E-03 0. -1.
         11   -1    0    0    0    0 -0.00000000000E+00 -0.00000000000E+00 -0.45593999997E+02  0.45594000000E+02  0.51100000000E-03 0.  1.
         23    2    1    2    0    0  0.00000000000E+00  0.00000000000E+00  0.00000000000E+00  0.91188000000E+02  0.91188000000E+02 0.  0.
    9900012    2    3    3    0    0  0.25750690221E+02  0.84036621958E+01  0.24941136113E+02  0.54367083991E+02  0.39999999573E+02 0.  0.
        -12    1    3    3    0    0 -0.25750690221E+02 -0.84036621958E+01 -0.24941136113E+02  0.36820916009E+02  0.00000000000E+00 0.  1.
         11    1    4    4    0    0  0.25832577869E+02 -0.36614822429E+00  0.53599436682E+01  0.26385320545E+02  0.51100000000E-03 0. -1.
        -11    1    4    4    0    0 -0.57361119985E+01  0.34158783559E+01 -0.24558757106E+00  0.66806825488E+01  0.51100000000E-03 0.  1.
         12    1    4    4    0    0  0.56542243499E+01  0.53539320642E+01  0.19826780016E+02  0.21301080896E+02  0.00000000000E+00 0. -1.
</event>
<event>
 8    1  0.2466538E-006  0.9118800E+02  0.7816164E-02  0.1184000E+00
        -11   -1    0    0    0    0  0.00000000000E+00  0.00000000000E+00  0.45593999997E+02  0.45594000000E+02  0.51100000000E-03 0. -1.
         11   -1    0    0    0    0 -0.00000000000E+00 -0.00000000000E+00 -0.45593999997E+02  0.45594000000E+02  0.51100000000E-03 0.  1.
         23    2    1    2    0    0  0.00000000000E+00 -0.17763568394E-14  0.71054273576E-14  0.91188000000E+02  0.91188000000E+02 0.  0.
    9900012    2    3    3    0    0  0.28664148794E+02  0.12957866279E+02  0.19137413141E+02  0.54367077872E+02  0.39999985625E+02 0.  0.
        -12    1    3    3    0    0 -0.28664148794E+02 -0.12957866279E+02 -0.19137413141E+02  0.36820922128E+02  0.00000000000E+00 0.  1.
         11    1    4    4    0    0  0.12059683050E+02  0.11441716632E+02  0.34056986365E+00  0.16627231364E+02  0.51100000000E-03 0. -1.
        -11    1    4    4    0    0  0.26417479582E-01  0.97264362993E+01 -0.19741977358E+01  0.99248031682E+01  0.51100000000E-03 0.  1.
        -12    1    4    4    0    0  0.16578048265E+02 -0.82102866522E+01  0.20771041013E+02  0.27815043339E+02  0.00000000000E+00 0.  1.
</event>
<event>
 8    1  0.2466538E-006  0.9118800E+02  0.7816164E-02  0.1184000E+00
        -11   -1    0    0    0    0  0.00000000000E+00  0.00000000000E+00  0.45593999997E+02  0.45594000000E+02  0.51100000000E-03 0.  1.
         11   -1    0    0    0    0 -0.00000000000E+00 -0.00000000000E+00 -0.45593999997E+02  0.45594000000E+02  0.51100000000E-03 0. -1.
         23    2    1    2    0    0  0.00000000000E+00  0.00000000000E+00  0.00000000000E+00  0.91188000000E+02  0.91188000000E+02 0.  0.
    9900012    2    3    3    0    0  0.10732211626E+02 -0.28383873486E+02 -0.20855582546E+02  0.54367082523E+02  0.39999996229E+02 0.  0.
         12    1    3    3    0    0 -0.10732211626E+02  0.28383873486E+02  0.20855582546E+02  0.36820917477E+02  0.00000000000E+00 0. -1.
         11    1    4    4    0    0 -0.75044133058E+01 -0.12017817298E+02 -0.44534150709E+00  0.14175418194E+02  0.51100000000E-03 0. -1.
        -11    1    4    4    0    0  0.25112205511E+01 -0.18522158257E+02 -0.12207631170E+02  0.22324937496E+02  0.51100000000E-03 0.  1.
        -12    1    4    4    0    0  0.15725404381E+02  0.21561020685E+01 -0.82026098694E+01  0.17866726833E+02  0.00000000000E+00 0.  1.
</event>
<event>
 8    1  0.2466538E-006  0.9118800E+02  0.7816164E-02  0.1184000E+00
        -11   -1    0    0    0    0  0.00000000000E+00  0.00000000000E+00  0.45593999997E+02  0.45594000000E+02  0.51100000000E-03 0.  1.
         11   -1    0    0    0    0 -0.00000000000E+00 -0.00000000000E+00 -0.45593999997E+02  0.45594000000E+02  0.51100000000E-03 0. -1.
         23    2    1    2    0    0 -0.17763568394E-14  0.00000000000E+00 -0.88817841970E-15  0.91188000000E+02  0.91188000000E+02 0.  0.
    9900012    2    3    3    0    0 -0.93164655153E+01  0.35544008578E+02 -0.23679088392E+01  0.54367081111E+02  0.39999993010E+02 0.  0.
         12    1    3    3    0    0  0.93164655153E+01 -0.35544008578E+02  0.23679088392E+01  0.36820918889E+02  0.00000000000E+00 0. -1.
         11    1    4    4    0    0 -0.28606480154E+01  0.19093991677E+02 -0.43860281129E+01  0.19799016847E+02  0.51100000000E-03 0. -1.
        -11    1    4    4    0    0 -0.17014482951E+01  0.20844004410E+02  0.10895112128E+02  0.23581155924E+02  0.51100000000E-03 0.  1.
         12    1    4    4    0    0 -0.47543692047E+01 -0.43939875090E+01 -0.88769928540E+01  0.10986908341E+02  0.00000000000E+00 0. -1.
</event>
<event>
 8    1  0.2466538E-006  0.9118800E+02  0.7816164E-02  0.1184000E+00
        -11   -1    0    0    0    0  0.00000000000E+00  0.00000000000E+00  0.45593999997E+02  0.45594000000E+02  0.51100000000E-03 0.  1.
         11   -1    0    0    0    0 -0.00000000000E+00 -0.00000000000E+00 -0.45593999997E+02  0.45594000000E+02  0.51100000000E-03 0. -1.
         23    2    1    2    0    0  0.27755575616E-15  0.00000000000E+00  0.71054273576E-14  0.91188000000E+02  0.91188000000E+02 0.  0.
    9900012    2    3    3    0    0  0.24830222578E+00 -0.21047554233E+02  0.30211235859E+02  0.54367082503E+02  0.39999996183E+02 0.  0.
         12    1    3    3    0    0 -0.24830222578E+00  0.21047554233E+02 -0.30211235859E+02  0.36820917497E+02  0.00000000000E+00 0. -1.
         11    1    4    4    0    0 -0.67962378694E+01 -0.17544577748E+01 -0.11702941963E+01  0.71159370449E+01  0.51100000000E-03 0.  1.
        -11    1    4    4    0    0  0.46115588988E+00 -0.12982338758E+00 -0.53126172334E+01  0.53341748187E+01  0.51100000000E-03 0. -1.
        -12    1    4    4    0    0  0.65833842053E+01 -0.19163273071E+02  0.36694147289E+02  0.41916970640E+02  0.00000000000E+00 0.  1.
</event>
<event>
 8    1  0.2466538E-006  0.9118800E+02  0.7816164E-02  0.1184000E+00
        -11   -1    0    0    0    0  0.00000000000E+00  0.00000000000E+00  0.45593999997E+02  0.45594000000E+02  0.51100000000E-03 0.  1.
         11   -1    0    0    0    0 -0.00000000000E+00 -0.00000000000E+00 -0.45593999997E+02  0.45594000000E+02  0.51100000000E-03 0. -1.
         23    2    1    2    0    0  0.00000000000E+00  0.00000000000E+00 -0.17763568394E-14  0.91188000000E+02  0.91188000000E+02 0.  0.
    9900012    2    3    3    0    0  0.33787943304E+02 -0.11356420255E+02 -0.92295520800E+01  0.54367108847E+02  0.40000056238E+02 0.  0.
        -12    1    3    3    0    0 -0.33787943304E+02  0.11356420255E+02  0.92295520800E+01  0.36820891153E+02  0.00000000000E+00 0.  1.
         11    1    4    4    0    0  0.76307464939E+01 -0.12423619598E+02 -0.11118489333E+02  0.18335632557E+02  0.51100000000E-03 0. -1.
        -11    1    4    4    0    0  0.17884013439E+02 -0.39401242195E+01  0.12114529627E+02  0.21957330072E+02  0.51100000000E-03 0.  1.
        -12    1    4    4    0    0  0.82731833713E+01  0.50073235622E+01 -0.10225592374E+02  0.14074146218E+02  0.00000000000E+00 0.  1.
</event>
<event>
 8    1  0.2466538E-006  0.9118800E+02  0.7816164E-02  0.1184000E+00
        -11   -1    0    0    0    0  0.00000000000E+00  0.00000000000E+00  0.45593999997E+02  0.45594000000E+02  0.51100000000E-03 0.  1.
         11   -1    0    0    0    0 -0.00000000000E+00 -0.00000000000E+00 -0.45593999997E+02  0.45594000000E+02  0.51100000000E-03 0. -1.
         23    2    1    2    0    0  0.35527136788E-14 -0.17763568394E-14  0.00000000000E+00  0.91188000000E+02  0.91188000000E+02 0.  0.
    9900012    2    3    3    0    0  0.24114094015E+02 -0.11241490917E+02 -0.25454284086E+02  0.54367065377E+02  0.39999957140E+02 0.  0.
        -12    1    3    3    0    0 -0.24114094015E+02  0.11241490917E+02  0.25454284086E+02  0.36820934623E+02  0.00000000000E+00 0.  1.
         11    1    4    4    0    0  0.22173048941E+02 -0.55900817994E+01 -0.17126477736E+01  0.22930902218E+02  0.51100000000E-03 0. -1.
        -11    1    4    4    0    0  0.29105250820E+01  0.29547040007E+01  0.17589597891E+01  0.45050384888E+01  0.51100000000E-03 0.  1.
         12    1    4    4    0    0 -0.96948000796E+00 -0.86061131177E+01 -0.25500596101E+02  0.26931124670E+02  0.00000000000E+00 0. -1.
</event>
<event>
 8    1  0.2466538E-006  0.9118800E+02  0.7816164E-02  0.1184000E+00
        -11   -1    0    0    0    0  0.00000000000E+00  0.00000000000E+00  0.45593999997E+02  0.45594000000E+02  0.51100000000E-03 0.  1.
         11   -1    0    0    0    0 -0.00000000000E+00 -0.00000000000E+00 -0.45593999997E+02  0.45594000000E+02  0.51100000000E-03 0. -1.
         23    2    1    2    0    0 -0.17763568394E-14  0.00000000000E+00 -0.35527136788E-14  0.91188000000E+02  0.91188000000E+02 0.  0.
    9900012    2    3    3    0    0  0.10774730909E+02 -0.18101193605E+02  0.30199866036E+02  0.54367082783E+02  0.39999996821E+02 0.  0.
         12    1    3    3    0    0 -0.10774730909E+02  0.18101193605E+02 -0.30199866036E+02  0.36820917217E+02  0.00000000000E+00 0. -1.
         11    1    4    4    0    0 -0.19635570654E+01  0.74101064946E+00  0.30658190318E+01  0.37153599729E+01  0.51100000000E-03 0. -1.
        -11    1    4    4    0    0 -0.22171889322E+01  0.51430713926E+01  0.20991927861E+02  0.21726208728E+02  0.51100000000E-03 0.  1.
        -12    1    4    4    0    0  0.14955476907E+02 -0.23985275647E+02  0.61421191440E+01  0.28925514083E+02  0.00000000000E+00 0.  1.
</event>
<event>
 8    1  0.2466538E-006  0.9118800E+02  0.7816164E-02  0.1184000E+00
        -11   -1    0    0    0    0  0.00000000000E+00  0.00000000000E+00  0.45593999997E+02  0.45594000000E+02  0.51100000000E-03 0. -1.
         11   -1    0    0    0    0 -0.00000000000E+00 -0.00000000000E+00 -0.45593999997E+02  0.45594000000E+02  0.51100000000E-03 0.  1.
         23    2    1    2    0    0  0.35527136788E-14  0.00000000000E+00  0.00000000000E+00  0.91188000000E+02  0.91188000000E+02 0.  0.
    9900012    2    3    3    0    0  0.30700546379E+02  0.17800715670E+02  0.98179184435E+01  0.54367074579E+02  0.39999978117E+02 0.  0.
        -12    1    3    3    0    0 -0.30700546379E+02 -0.17800715670E+02 -0.98179184435E+01  0.36820925421E+02  0.00000000000E+00 0.  1.
         11    1    4    4    0    0  0.19675797842E+02 -0.22071247599E+01  0.57750430373E+01  0.20624246478E+02  0.51100000000E-03 0. -1.
        -11    1    4    4    0    0 -0.46795894250E+01 -0.16815286990E+01  0.48591429118E+01  0.69525078965E+01  0.51100000000E-03 0.  1.
        -12    1    4    4    0    0  0.15704337962E+02  0.21689369129E+02 -0.81626750559E+00  0.26790320205E+02  0.00000000000E+00 0.  1.
</event>
<event>
 8    1  0.2466538E-006  0.9118800E+02  0.7816164E-02  0.1184000E+00
        -11   -1    0    0    0    0  0.00000000000E+00  0.00000000000E+00  0.45593999997E+02  0.45594000000E+02  0.51100000000E-03 0.  1.
         11   -1    0    0    0    0 -0.00000000000E+00 -0.00000000000E+00 -0.45593999997E+02  0.45594000000E+02  0.51100000000E-03 0. -1.
         23    2    1    2    0    0  0.00000000000E+00 -0.17763568394E-14  0.00000000000E+00  0.91188000000E+02  0.91188000000E+02 0.  0.
    9900012    2    3    3    0    0 -0.16441825024E+02  0.18945615003E+01  0.32891615225E+02  0.54367064033E+02  0.39999954075E+02 0.  0.
         12    1    3    3    0    0  0.16441825024E+02 -0.18945615003E+01 -0.32891615225E+02  0.36820935967E+02  0.00000000000E+00 0. -1.
         11    1    4    4    0    0  0.18153621797E+01 -0.50441816780E+01  0.86977446582E+01  0.10217145934E+02  0.51100000000E-03 0. -1.
        -11    1    4    4    0    0  0.65975275616E+01 -0.54088331596E+01  0.94225311669E+01  0.12710898471E+02  0.51100000000E-03 0.  1.
        -12    1    4    4    0    0 -0.24854714765E+02  0.12347576338E+02  0.14771339400E+02  0.31439019628E+02  0.00000000000E+00 0.  1.
</event>
<event>
 8    1  0.2466538E-006  0.9118800E+02  0.7816164E-02  0.1184000E+00
        -11   -1    0    0    0    0  0.00000000000E+00  0.00000000000E+00  0.45593999997E+02  0.45594000000E+02  0.51100000000E-03 0.  1.
         11   -1    0    0    0    0 -0.00000000000E+00 -0.00000000000E+00 -0.45593999997E+02  0.45594000000E+02  0.51100000000E-03 0. -1.
         23    2    1    2    0    0  0.00000000000E+00  0.17763568394E-14  0.00000000000E+00  0.91188000000E+02  0.91188000000E+02 0.  0.
    9900012    2    3    3    0    0  0.22311508011E+02  0.14061594287E+02 -0.25695300749E+02  0.54367077901E+02  0.39999985691E+02 0.  0.
        -12    1    3    3    0    0 -0.22311508011E+02 -0.14061594287E+02  0.25695300749E+02  0.36820922099E+02  0.00000000000E+00 0.  1.
         11    1    4    4    0    0  0.12308298974E+02 -0.86004541209E+01 -0.14973482593E+02  0.21205358190E+02  0.51100000000E-03 0. -1.
        -11    1    4    4    0    0  0.99128410701E+00  0.10081587685E+02  0.48295374653E+01  0.11222543688E+02  0.51100000000E-03 0.  1.
         12    1    4    4    0    0  0.90119249302E+01  0.12580460723E+02 -0.15551355621E+02  0.21939176024E+02  0.00000000000E+00 0. -1.
</event>
<event>
 8    1  0.2466538E-006  0.9118800E+02  0.7816164E-02  0.1184000E+00
        -11   -1    0    0    0    0  0.00000000000E+00  0.00000000000E+00  0.45593999997E+02  0.45594000000E+02  0.51100000000E-03 0. -1.
         11   -1    0    0    0    0 -0.00000000000E+00 -0.00000000000E+00 -0.45593999997E+02  0.45594000000E+02  0.51100000000E-03 0.  1.
         23    2    1    2    0    0  0.35527136788E-14 -0.35527136788E-14  0.00000000000E+00  0.91188000000E+02  0.91188000000E+02 0.  0.
    9900012    2    3    3    0    0 -0.24295821798E+02 -0.19919745298E+02  0.19201471915E+02  0.54367085654E+02  0.40000003364E+02 0.  0.
        -12    1    3    3    0    0  0.24295821798E+02  0.19919745298E+02 -0.19201471915E+02  0.36820914346E+02  0.00000000000E+00 0.  1.
         11    1    4    4    0    0 -0.20562333404E+00 -0.14355351276E+02  0.61234817385E+01  0.15608184394E+02  0.51100000000E-03 0.  1.
        -11    1    4    4    0    0  0.48438805047E+01  0.34340941046E+01  0.38783294970E+01  0.70920815429E+01  0.51100000000E-03 0. -1.
        -12    1    4    4    0    0 -0.28934078969E+02 -0.89984881266E+01  0.91996606798E+01  0.31666819717E+02  0.00000000000E+00 0.  1.
</event>
<event>
 8    1  0.2466538E-006  0.9118800E+02  0.7816164E-02  0.1184000E+00
        -11   -1    0    0    0    0  0.00000000000E+00  0.00000000000E+00  0.45593999997E+02  0.45594000000E+02  0.51100000000E-03 0.  1.
         11   -1    0    0    0    0 -0.00000000000E+00 -0.00000000000E+00 -0.45593999997E+02  0.45594000000E+02  0.51100000000E-03 0. -1.
         23    2    1    2    0    0  0.00000000000E+00  0.00000000000E+00 -0.88817841970E-15  0.91188000000E+02  0.91188000000E+02 0.  0.
    9900012    2    3    3    0    0  0.48905794761E+01 -0.36144210023E+02  0.50455638825E+01  0.54367090170E+02  0.40000013661E+02 0.  0.
         12    1    3    3    0    0 -0.48905794761E+01  0.36144210023E+02 -0.50455638825E+01  0.36820909830E+02  0.00000000000E+00 0. -1.
         11    1    4    4    0    0 -0.37474950951E+01 -0.70526845536E+01 -0.92556571445E+01  0.12225026312E+02  0.51100000000E-03 0. -1.
        -11    1    4    4    0    0  0.87397978365E+01 -0.28683416732E+02  0.20247285879E+02  0.36181142151E+02  0.51100000000E-03 0.  1.
        -12    1    4    4    0    0 -0.10172326536E+00 -0.40810873791E+00 -0.59460648522E+01  0.59609217065E+01  0.00000000000E+00 0.  1.
</event>
<event>
 8    1  0.2466538E-006  0.9118800E+02  0.7816164E-02  0.1184000E+00
        -11   -1    0    0    0    0  0.00000000000E+00  0.00000000000E+00  0.45593999997E+02  0.45594000000E+02  0.51100000000E-03 0. -1.
         11   -1    0    0    0    0 -0.00000000000E+00 -0.00000000000E+00 -0.45593999997E+02  0.45594000000E+02  0.51100000000E-03 0.  1.
         23    2    1    2    0    0  0.44408920985E-15 -0.88817841970E-15 -0.71054273576E-14  0.91188000000E+02  0.91188000000E+02 0.  0.
    9900012    2    3    3    0    0  0.32949707288E+01 -0.79979732921E+01  0.35790515299E+02  0.54367008783E+02  0.39999828122E+02 0.  0.
        -12    1    3    3    0    0 -0.32949707288E+01  0.79979732921E+01 -0.35790515299E+02  0.36820991217E+02  0.00000000000E+00 0.  1.
         11    1    4    4    0    0 -0.28788806670E+01 -0.53689413483E+00  0.29446848777E+02  0.29592112333E+02  0.51100000000E-03 0. -1.
        -11    1    4    4    0    0  0.61831190608E+01  0.53713065870E+01  0.84532357283E+01  0.11770262967E+02  0.51100000000E-03 0.  1.
         12    1    4    4    0    0 -0.92676649727E-02 -0.12832385744E+02 -0.21095692063E+01  0.13004633483E+02  0.00000000000E+00 0. -1.
</event>
<event>
 8    1  0.2466538E-006  0.9118800E+02  0.7816164E-02  0.1184000E+00
        -11   -1    0    0    0    0  0.00000000000E+00  0.00000000000E+00  0.45593999997E+02  0.45594000000E+02  0.51100000000E-03 0.  1.
         11   -1    0    0    0    0 -0.00000000000E+00 -0.00000000000E+00 -0.45593999997E+02  0.45594000000E+02  0.51100000000E-03 0. -1.
         23    2    1    2    0    0 -0.22204460493E-15 -0.35527136788E-14 -0.35527136788E-14  0.91188000000E+02  0.91188000000E+02 0.  0.
    9900012    2    3    3    0    0 -0.31044493032E+00  0.23468465925E+02 -0.28371018005E+02  0.54367082961E+02  0.39999997226E+02 0.  0.
        -12    1    3    3    0    0  0.31044493032E+00 -0.23468465925E+02  0.28371018005E+02  0.36820917039E+02  0.00000000000E+00 0.  1.
         11    1    4    4    0    0 -0.55797671002E+01  0.72663896255E+01 -0.83980093677E+01  0.12428225162E+02  0.51100000000E-03 0. -1.
        -11    1    4    4    0    0  0.30374251244E+01  0.36164402214E+01  0.90598044922E+01  0.10216880588E+02  0.51100000000E-03 0.  1.
         12    1    4    4    0    0  0.22318970455E+01  0.12585636078E+02 -0.29032813130E+02  0.31721977210E+02  0.00000000000E+00 0. -1.
</event>
<event>
 8    1  0.2466538E-006  0.9118800E+02  0.7816164E-02  0.1184000E+00
        -11   -1    0    0    0    0  0.00000000000E+00  0.00000000000E+00  0.45593999997E+02  0.45594000000E+02  0.51100000000E-03 0.  1.
         11   -1    0    0    0    0 -0.00000000000E+00 -0.00000000000E+00 -0.45593999997E+02  0.45594000000E+02  0.51100000000E-03 0. -1.
         23    2    1    2    0    0  0.00000000000E+00  0.00000000000E+00 -0.88817841970E-15  0.91188000000E+02  0.91188000000E+02 0.  0.
    9900012    2    3    3    0    0 -0.12072724233E+02 -0.34128983833E+02 -0.67262999711E+01  0.54367064119E+02  0.39999954271E+02 0.  0.
        -12    1    3    3    0    0  0.12072724233E+02  0.34128983833E+02  0.67262999711E+01  0.36820935881E+02  0.00000000000E+00 0.  1.
         11    1    4    4    0    0 -0.11782324538E+02 -0.12733625247E+02  0.86399157843E+01  0.19380828890E+02  0.51100000000E-03 0. -1.
        -11    1    4    4    0    0  0.44796736758E+00 -0.36688061488E+01  0.61029046593E+01  0.71348622174E+01  0.51100000000E-03 0.  1.
         12    1    4    4    0    0 -0.73836706321E+00 -0.17726552437E+02 -0.21469120415E+02  0.27851373011E+02  0.00000000000E+00 0. -1.
</event>
<event>
 8    1  0.2466538E-006  0.9118800E+02  0.7816164E-02  0.1184000E+00
        -11   -1    0    0    0    0  0.00000000000E+00  0.00000000000E+00  0.45593999997E+02  0.45594000000E+02  0.51100000000E-03 0. -1.
         11   -1    0    0    0    0 -0.00000000000E+00 -0.00000000000E+00 -0.45593999997E+02  0.45594000000E+02  0.51100000000E-03 0.  1.
         23    2    1    2    0    0  0.00000000000E+00  0.35527136788E-14  0.00000000000E+00  0.91188000000E+02  0.91188000000E+02 0.  0.
    9900012    2    3    3    0    0  0.52616223869E+01  0.29462242089E+02  0.21449250488E+02  0.54367099338E+02  0.40000034560E+02 0.  0.
        -12    1    3    3    0    0 -0.52616223869E+01 -0.29462242089E+02 -0.21449250488E+02  0.36820900662E+02  0.00000000000E+00 0.  1.
         11    1    4    4    0    0  0.63897136457E+01  0.24667702350E+02  0.30174613866E+00  0.25483622794E+02  0.51100000000E-03 0. -1.
        -11    1    4    4    0    0 -0.73059613013E+01  0.42071597696E+01  0.18753114139E+01  0.86367851092E+01  0.51100000000E-03 0.  1.
        -12    1    4    4    0    0  0.61778700425E+01  0.58737996949E+00  0.19272192936E+02  0.20246691434E+02  0.00000000000E+00 0.  1.
</event>
<event>
 8    1  0.2466538E-006  0.9118800E+02  0.7816164E-02  0.1184000E+00
        -11   -1    0    0    0    0  0.00000000000E+00  0.00000000000E+00  0.45593999997E+02  0.45594000000E+02  0.51100000000E-03 0.  1.
         11   -1    0    0    0    0 -0.00000000000E+00 -0.00000000000E+00 -0.45593999997E+02  0.45594000000E+02  0.51100000000E-03 0. -1.
         23    2    1    2    0    0  0.00000000000E+00 -0.22204460493E-15  0.71054273576E-14  0.91188000000E+02  0.91188000000E+02 0.  0.
    9900012    2    3    3    0    0 -0.20055804966E+02  0.19148263325E+01  0.30820069096E+02  0.54367101970E+02  0.40000040560E+02 0.  0.
         12    1    3    3    0    0  0.20055804966E+02 -0.19148263325E+01 -0.30820069096E+02  0.36820898030E+02  0.00000000000E+00 0. -1.
         11    1    4    4    0    0 -0.35336050388E+01  0.54376401878E+01 -0.14303994904E+01  0.66408085612E+01  0.51100000000E-03 0. -1.
        -11    1    4    4    0    0 -0.12793676738E+02  0.78769646481E+01  0.32418901316E+02  0.35731077500E+02  0.51100000000E-03 0.  1.
        -12    1    4    4    0    0 -0.37285231890E+01 -0.11399778503E+02 -0.16843272971E+00  0.11995215908E+02  0.00000000000E+00 0.  1.
</event>
<event>
 8    1  0.2466538E-006  0.9118800E+02  0.7816164E-02  0.1184000E+00
        -11   -1    0    0    0    0  0.00000000000E+00  0.00000000000E+00  0.45593999997E+02  0.45594000000E+02  0.51100000000E-03 0. -1.
         11   -1    0    0    0    0 -0.00000000000E+00 -0.00000000000E+00 -0.45593999997E+02  0.45594000000E+02  0.51100000000E-03 0.  1.
         23    2    1    2    0    0 -0.71054273576E-14 -0.88817841970E-15  0.00000000000E+00  0.91188000000E+02  0.91188000000E+02 0.  0.
    9900012    2    3    3    0    0 -0.33178383243E+02 -0.60544670408E+01  0.14775599472E+02  0.54367081686E+02  0.39999994319E+02 0.  0.
        -12    1    3    3    0    0  0.33178383243E+02  0.60544670408E+01 -0.14775599472E+02  0.36820918314E+02  0.00000000000E+00 0.  1.
         11    1    4    4    0    0 -0.18035446151E+02 -0.55671232142E+01  0.17844199359E+01  0.18959280934E+02  0.51100000000E-03 0. -1.
        -11    1    4    4    0    0  0.43253594938E+01 -0.71134672043E+01 -0.35159509276E+01  0.90372596291E+01  0.51100000000E-03 0.  1.
         12    1    4    4    0    0 -0.19468296585E+02  0.66261233777E+01  0.16507130464E+02  0.26370541123E+02  0.00000000000E+00 0. -1.
</event>
<event>
 8    1  0.2466538E-006  0.9118800E+02  0.7816164E-02  0.1184000E+00
        -11   -1    0    0    0    0  0.00000000000E+00  0.00000000000E+00  0.45593999997E+02  0.45594000000E+02  0.51100000000E-03 0.  1.
         11   -1    0    0    0    0 -0.00000000000E+00 -0.00000000000E+00 -0.45593999997E+02  0.45594000000E+02  0.51100000000E-03 0. -1.
         23    2    1    2    0    0  0.35527136788E-14 -0.35527136788E-14  0.00000000000E+00  0.91188000000E+02  0.91188000000E+02 0.  0.
    9900012    2    3    3    0    0 -0.22970683497E+02  0.24931004245E+02  0.14372636128E+02  0.54367082816E+02  0.39999996896E+02 0.  0.
         12    1    3    3    0    0  0.22970683497E+02 -0.24931004245E+02 -0.14372636128E+02  0.36820917184E+02  0.00000000000E+00 0. -1.
         11    1    4    4    0    0  0.32520104337E+01  0.10794653497E+02  0.13859331135E+02  0.17865642327E+02  0.51100000000E-03 0. -1.
        -11    1    4    4    0    0 -0.26594815259E+02  0.73458106469E+01  0.54166740787E+01  0.28117352135E+02  0.51100000000E-03 0.  1.
         12    1    4    4    0    0  0.37212132805E+00  0.67905401003E+01 -0.49033690863E+01  0.83840883543E+01  0.00000000000E+00 0. -1.
</event>
<event>
 8    1  0.2466538E-006  0.9118800E+02  0.7816164E-02  0.1184000E+00
        -11   -1    0    0    0    0  0.00000000000E+00  0.00000000000E+00  0.45593999997E+02  0.45594000000E+02  0.51100000000E-03 0.  1.
         11   -1    0    0    0    0 -0.00000000000E+00 -0.00000000000E+00 -0.45593999997E+02  0.45594000000E+02  0.51100000000E-03 0. -1.
         23    2    1    2    0    0  0.00000000000E+00 -0.44408920985E-15  0.00000000000E+00  0.91188000000E+02  0.91188000000E+02 0.  0.
    9900012    2    3    3    0    0  0.36394498910E+02  0.24900844779E+01 -0.50021098776E+01  0.54367066079E+02  0.39999958740E+02 0.  0.
        -12    1    3    3    0    0 -0.36394498910E+02 -0.24900844779E+01  0.50021098776E+01  0.36820933921E+02  0.00000000000E+00 0.  1.
         11    1    4    4    0    0  0.30474366780E+02  0.14507574596E+02 -0.37817605502E+00  0.33753514909E+02  0.51100000000E-03 0. -1.
        -11    1    4    4    0    0 -0.13769003954E+01 -0.75551680976E+01  0.38349825026E+01  0.85839099913E+01  0.51100000000E-03 0.  1.
        -12    1    4    4    0    0  0.72970325252E+01 -0.44623220209E+01 -0.84589163252E+01  0.12029641179E+02  0.00000000000E+00 0.  1.
</event>
<event>
 8    1  0.2466538E-006  0.9118800E+02  0.7816164E-02  0.1184000E+00
        -11   -1    0    0    0    0  0.00000000000E+00  0.00000000000E+00  0.45593999997E+02  0.45594000000E+02  0.51100000000E-03 0.  1.
         11   -1    0    0    0    0 -0.00000000000E+00 -0.00000000000E+00 -0.45593999997E+02  0.45594000000E+02  0.51100000000E-03 0. -1.
         23    2    1    2    0    0  0.00000000000E+00  0.00000000000E+00  0.00000000000E+00  0.91188000000E+02  0.91188000000E+02 0.  0.
    9900012    2    3    3    0    0 -0.67476804863E+01  0.28323184529E+02 -0.22539871768E+02  0.54367084841E+02  0.40000001513E+02 0.  0.
        -12    1    3    3    0    0  0.67476804863E+01 -0.28323184529E+02  0.22539871768E+02  0.36820915159E+02  0.00000000000E+00 0.  1.
         11    1    4    4    0    0 -0.14711095871E+01 -0.39339213075E+00  0.33727537300E+01  0.37005930295E+01  0.51100000000E-03 0. -1.
        -11    1    4    4    0    0 -0.15522620726E+02  0.10550799987E+02 -0.19056804015E+01  0.18865385038E+02  0.51100000000E-03 0.  1.
         12    1    4    4    0    0  0.10246049827E+02  0.18165776672E+02 -0.24006945097E+02  0.31801106774E+02  0.00000000000E+00 0. -1.
</event>
<event>
 8    1  0.2466538E-006  0.9118800E+02  0.7816164E-02  0.1184000E+00
        -11   -1    0    0    0    0  0.00000000000E+00  0.00000000000E+00  0.45593999997E+02  0.45594000000E+02  0.51100000000E-03 0.  1.
         11   -1    0    0    0    0 -0.00000000000E+00 -0.00000000000E+00 -0.45593999997E+02  0.45594000000E+02  0.51100000000E-03 0. -1.
         23    2    1    2    0    0  0.00000000000E+00 -0.35527136788E-14  0.00000000000E+00  0.91188000000E+02  0.91188000000E+02 0.  0.
    9900012    2    3    3    0    0 -0.24938106212E+02  0.23475950929E+02  0.13518535942E+02  0.54367078943E+02  0.39999988067E+02 0.  0.
        -12    1    3    3    0    0  0.24938106212E+02 -0.23475950929E+02 -0.13518535942E+02  0.36820921057E+02  0.00000000000E+00 0.  1.
         11    1    4    4    0    0 -0.18093481173E+01  0.18283507771E+02 -0.88152876929E+01  0.20378167101E+02  0.51100000000E-03 0. -1.
        -11    1    4    4    0    0 -0.19106321273E+02  0.60194790141E+01  0.22169144368E+02  0.29879032823E+02  0.51100000000E-03 0.  1.
        -12    1    4    4    0    0 -0.40224368214E+01 -0.82703585601E+00  0.16467926709E+00  0.41098790189E+01  0.00000000000E+00 0.  1.
</event>
<event>
 8    1  0.2466538E-006  0.9118800E+02  0.7816164E-02  0.1184000E+00
        -11   -1    0    0    0    0  0.00000000000E+00  0.00000000000E+00  0.45593999997E+02  0.45594000000E+02  0.51100000000E-03 0. -1.
         11   -1    0    0    0    0 -0.00000000000E+00 -0.00000000000E+00 -0.45593999997E+02  0.45594000000E+02  0.51100000000E-03 0.  1.
         23    2    1    2    0    0 -0.11241008124E-14  0.35527136788E-14  0.00000000000E+00  0.91188000000E+02  0.91188000000E+02 0.  0.
    9900012    2    3    3    0    0 -0.10002618226E+00 -0.18184843831E+02  0.32016660754E+02  0.54367284143E+02  0.40000455858E+02 0.  0.
        -12    1    3    3    0    0  0.10002618226E+00  0.18184843831E+02 -0.32016660754E+02  0.36820715857E+02  0.00000000000E+00 0.  1.
         11    1    4    4    0    0  0.12370605182E+01 -0.89204546432E+01  0.15544412444E+02  0.17964787454E+02  0.51100000000E-03 0. -1.
        -11    1    4    4    0    0 -0.97828291588E+01 -0.35866159075E+01  0.22343424688E+02  0.24653522813E+02  0.51100000000E-03 0.  1.
        -12    1    4    4    0    0  0.84457424583E+01 -0.56777732802E+01 -0.58711763777E+01  0.11748973877E+02  0.00000000000E+00 0.  1.
</event>
<event>
 8    1  0.2466538E-006  0.9118800E+02  0.7816164E-02  0.1184000E+00
        -11   -1    0    0    0    0  0.00000000000E+00  0.00000000000E+00  0.45593999997E+02  0.45594000000E+02  0.51100000000E-03 0. -1.
         11   -1    0    0    0    0 -0.00000000000E+00 -0.00000000000E+00 -0.45593999997E+02  0.45594000000E+02  0.51100000000E-03 0.  1.
         23    2    1    2    0    0 -0.71054273576E-14 -0.44408920985E-15  0.00000000000E+00  0.91188000000E+02  0.91188000000E+02 0.  0.
    9900012    2    3    3    0    0  0.34549731950E+02  0.24453026017E+01  0.12494651803E+02  0.54367084663E+02  0.40000001106E+02 0.  0.
        -12    1    3    3    0    0 -0.34549731950E+02 -0.24453026017E+01 -0.12494651803E+02  0.36820915337E+02  0.00000000000E+00 0.  1.
         11    1    4    4    0    0 -0.42360950722E+01 -0.15094144130E+01  0.26364461597E+01  0.52128381852E+01  0.51100000000E-03 0. -1.
        -11    1    4    4    0    0  0.19784019888E+02  0.13175561622E+02 -0.37000740629E+01  0.24056047375E+02  0.51100000000E-03 0.  1.
         12    1    4    4    0    0  0.19001807134E+02 -0.92208446069E+01  0.13558279706E+02  0.25098199103E+02  0.00000000000E+00 0. -1.
</event>
<event>
 8    1  0.2466538E-006  0.9118800E+02  0.7816164E-02  0.1184000E+00
        -11   -1    0    0    0    0  0.00000000000E+00  0.00000000000E+00  0.45593999997E+02  0.45594000000E+02  0.51100000000E-03 0.  1.
         11   -1    0    0    0    0 -0.00000000000E+00 -0.00000000000E+00 -0.45593999997E+02  0.45594000000E+02  0.51100000000E-03 0. -1.
         23    2    1    2    0    0  0.71054273576E-14 -0.44408920985E-15  0.00000000000E+00  0.91188000000E+02  0.91188000000E+02 0.  0.
    9900012    2    3    3    0    0 -0.36761208192E+02  0.80980868643E+00 -0.19334169192E+01  0.54367077703E+02  0.39999985239E+02 0.  0.
         12    1    3    3    0    0  0.36761208192E+02 -0.80980868643E+00  0.19334169192E+01  0.36820922297E+02  0.00000000000E+00 0. -1.
         11    1    4    4    0    0 -0.10321747461E+01 -0.54114648932E+01 -0.66064688316E+01  0.86020211393E+01  0.51100000000E-03 0. -1.
        -11    1    4    4    0    0 -0.24080270862E+02  0.11271999616E+02  0.13964278479E+02  0.30031957876E+02  0.51100000000E-03 0.  1.
         12    1    4    4    0    0 -0.11648762583E+02 -0.50507260368E+01 -0.92912265662E+01  0.15733098688E+02  0.00000000000E+00 0. -1.
</event>
<event>
 8    1  0.2466538E-006  0.9118800E+02  0.7816164E-02  0.1184000E+00
        -11   -1    0    0    0    0  0.00000000000E+00  0.00000000000E+00  0.45593999997E+02  0.45594000000E+02  0.51100000000E-03 0.  1.
         11   -1    0    0    0    0 -0.00000000000E+00 -0.00000000000E+00 -0.45593999997E+02  0.45594000000E+02  0.51100000000E-03 0. -1.
         23    2    1    2    0    0 -0.17763568394E-14  0.00000000000E+00  0.00000000000E+00  0.91188000000E+02  0.91188000000E+02 0.  0.
    9900012    2    3    3    0    0  0.82315904694E+01  0.32928450891E+02  0.14273767329E+02  0.54367049530E+02  0.39999921014E+02 0.  0.
         12    1    3    3    0    0 -0.82315904694E+01 -0.32928450891E+02 -0.14273767329E+02  0.36820950470E+02  0.00000000000E+00 0. -1.
         11    1    4    4    0    0  0.15112599813E+00 -0.58226449272E+00  0.64734562683E+01  0.65013465778E+01  0.51100000000E-03 0. -1.
        -11    1    4    4    0    0 -0.74869526335E+01  0.15023402105E+01 -0.59788559178E+01  0.96983609023E+01  0.51100000000E-03 0.  1.
         12    1    4    4    0    0  0.15567417105E+02  0.32008375173E+02  0.13779166979E+02  0.38167342050E+02  0.00000000000E+00 0. -1.
</event>
<event>
 8    1  0.2466538E-006  0.9118800E+02  0.7816164E-02  0.1184000E+00
        -11   -1    0    0    0    0  0.00000000000E+00  0.00000000000E+00  0.45593999997E+02  0.45594000000E+02  0.51100000000E-03 0. -1.
         11   -1    0    0    0    0 -0.00000000000E+00 -0.00000000000E+00 -0.45593999997E+02  0.45594000000E+02  0.51100000000E-03 0.  1.
         23    2    1    2    0    0  0.00000000000E+00  0.00000000000E+00  0.16653345369E-14  0.91188000000E+02  0.91188000000E+02 0.  0.
    9900012    2    3    3    0    0 -0.36781168399E+02 -0.16912673052E+01  0.25855166666E+00  0.54367060538E+02  0.39999946109E+02 0.  0.
        -12    1    3    3    0    0  0.36781168399E+02  0.16912673052E+01 -0.25855166666E+00  0.36820939462E+02  0.00000000000E+00 0.  1.
         11    1    4    4    0    0 -0.32323242483E+02  0.65036160860E+01  0.11229004120E+02  0.34830727248E+02  0.51100000000E-03 0. -1.
        -11    1    4    4    0    0 -0.14718895353E+01  0.35163644107E+01 -0.12041417139E+01  0.39976536870E+01  0.51100000000E-03 0.  1.
         12    1    4    4    0    0 -0.29860363802E+01 -0.11711247802E+02 -0.97663107397E+01  0.15538679603E+02  0.00000000000E+00 0. -1.
</event>
<event>
 8    1  0.2466538E-006  0.9118800E+02  0.7816164E-02  0.1184000E+00
        -11   -1    0    0    0    0  0.00000000000E+00  0.00000000000E+00  0.45593999997E+02  0.45594000000E+02  0.51100000000E-03 0.  1.
         11   -1    0    0    0    0 -0.00000000000E+00 -0.00000000000E+00 -0.45593999997E+02  0.45594000000E+02  0.51100000000E-03 0. -1.
         23    2    1    2    0    0  0.00000000000E+00  0.00000000000E+00  0.00000000000E+00  0.91188000000E+02  0.91188000000E+02 0.  0.
    9900012    2    3    3    0    0 -0.23447473849E+02 -0.11725974637E+02  0.25855239444E+02  0.54367137466E+02  0.40000121481E+02 0.  0.
         12    1    3    3    0    0  0.23447473849E+02  0.11725974637E+02 -0.25855239444E+02  0.36820862534E+02  0.00000000000E+00 0. -1.
         11    1    4    4    0    0 -0.59115733616E+01 -0.31479186813E+01 -0.65592063905E+01  0.93743949335E+01  0.51100000000E-03 0. -1.
        -11    1    4    4    0    0 -0.17828748355E+02  0.41859079992E+01  0.17116906973E+02  0.25067401107E+02  0.51100000000E-03 0.  1.
        -12    1    4    4    0    0  0.29284786800E+00 -0.12763963954E+02  0.15297538861E+02  0.19925341425E+02  0.00000000000E+00 0.  1.
</event>
<event>
 8    1  0.2466538E-006  0.9118800E+02  0.7816164E-02  0.1184000E+00
        -11   -1    0    0    0    0  0.00000000000E+00  0.00000000000E+00  0.45593999997E+02  0.45594000000E+02  0.51100000000E-03 0.  1.
         11   -1    0    0    0    0 -0.00000000000E+00 -0.00000000000E+00 -0.45593999997E+02  0.45594000000E+02  0.51100000000E-03 0. -1.
         23    2    1    2    0    0  0.00000000000E+00  0.00000000000E+00  0.35527136788E-14  0.91188000000E+02  0.91188000000E+02 0.  0.
    9900012    2    3    3    0    0 -0.21190456646E+02 -0.72159575322E+01 -0.29234810314E+02  0.54367087056E+02  0.40000006561E+02 0.  0.
        -12    1    3    3    0    0  0.21190456646E+02  0.72159575322E+01  0.29234810314E+02  0.36820912944E+02  0.00000000000E+00 0.  1.
         11    1    4    4    0    0 -0.17645711021E+01 -0.11905399033E+02 -0.16070818905E+01  0.12142279431E+02  0.51100000000E-03 0. -1.
        -11    1    4    4    0    0 -0.14142173589E+02  0.16393445909E+01 -0.31794730635E+02  0.34836667764E+02  0.51100000000E-03 0.  1.
        -12    1    4    4    0    0 -0.52837119544E+01  0.30500969098E+01  0.41670022113E+01  0.73881398610E+01  0.00000000000E+00 0.  1.
</event>
<event>
 8    1  0.2466538E-006  0.9118800E+02  0.7816164E-02  0.1184000E+00
        -11   -1    0    0    0    0  0.00000000000E+00  0.00000000000E+00  0.45593999997E+02  0.45594000000E+02  0.51100000000E-03 0. -1.
         11   -1    0    0    0    0 -0.00000000000E+00 -0.00000000000E+00 -0.45593999997E+02  0.45594000000E+02  0.51100000000E-03 0.  1.
         23    2    1    2    0    0  0.35527136788E-14  0.35527136788E-14 -0.35527136788E-14  0.91188000000E+02  0.91188000000E+02 0.  0.
    9900012    2    3    3    0    0 -0.96770654751E+01 -0.18727725056E+02 -0.30189530204E+02  0.54367068237E+02  0.39999963660E+02 0.  0.
         12    1    3    3    0    0  0.96770654751E+01  0.18727725056E+02  0.30189530204E+02  0.36820931763E+02  0.00000000000E+00 0. -1.
         11    1    4    4    0    0 -0.10686979315E+02  0.37987119856E+01 -0.75044188814E+01  0.13599928038E+02  0.51100000000E-03 0. -1.
        -11    1    4    4    0    0  0.22568576953E+01  0.41907637205E-01  0.47269178675E+01  0.52382168430E+01  0.51100000000E-03 0.  1.
        -12    1    4    4    0    0 -0.12469438552E+01 -0.22568344679E+02 -0.27412029190E+02  0.35528923356E+02  0.00000000000E+00 0.  1.
</event>
<event>
 8    1  0.2466538E-006  0.9118800E+02  0.7816164E-02  0.1184000E+00
        -11   -1    0    0    0    0  0.00000000000E+00  0.00000000000E+00  0.45593999997E+02  0.45594000000E+02  0.51100000000E-03 0.  1.
         11   -1    0    0    0    0 -0.00000000000E+00 -0.00000000000E+00 -0.45593999997E+02  0.45594000000E+02  0.51100000000E-03 0. -1.
         23    2    1    2    0    0  0.00000000000E+00  0.00000000000E+00  0.00000000000E+00  0.91188000000E+02  0.91188000000E+02 0.  0.
    9900012    2    3    3    0    0 -0.31765648361E+02 -0.10274973631E+02  0.15528974398E+02  0.54367074634E+02  0.39999978243E+02 0.  0.
        -12    1    3    3    0    0  0.31765648361E+02  0.10274973631E+02 -0.15528974398E+02  0.36820925366E+02  0.00000000000E+00 0.  1.
         11    1    4    4    0    0 -0.14784962681E+02  0.64349833868E+01 -0.49154362978E+00  0.16132134020E+02  0.51100000000E-03 0. -1.
        -11    1    4    4    0    0  0.49182207178E+01 -0.10360688892E+02  0.83204174574E+01  0.14169054883E+02  0.51100000000E-03 0.  1.
        -12    1    4    4    0    0 -0.21898906399E+02 -0.63492681264E+01  0.77001005707E+01  0.24065885731E+02  0.00000000000E+00 0.  1.
</event>
<event>
 8    1  0.2466538E-006  0.9118800E+02  0.7816164E-02  0.1184000E+00
        -11   -1    0    0    0    0  0.00000000000E+00  0.00000000000E+00  0.45593999997E+02  0.45594000000E+02  0.51100000000E-03 0.  1.
         11   -1    0    0    0    0 -0.00000000000E+00 -0.00000000000E+00 -0.45593999997E+02  0.45594000000E+02  0.51100000000E-03 0. -1.
         23    2    1    2    0    0  0.88817841970E-15  0.00000000000E+00  0.00000000000E+00  0.91188000000E+02  0.91188000000E+02 0.  0.
    9900012    2    3    3    0    0  0.27483707008E+01 -0.32752726366E+02 -0.16597601089E+02  0.54367150094E+02  0.40000150269E+02 0.  0.
         12    1    3    3    0    0 -0.27483707008E+01  0.32752726366E+02  0.16597601089E+02  0.36820849906E+02  0.00000000000E+00 0. -1.
         11    1    4    4    0    0 -0.16846675024E+02 -0.17064597160E+02 -0.15445876256E+02  0.28523429478E+02  0.51100000000E-03 0. -1.
        -11    1    4    4    0    0  0.76493436475E+01 -0.44699083369E+01 -0.29968393008E+01  0.93527314104E+01  0.51100000000E-03 0.  1.
         12    1    4    4    0    0  0.11945702077E+02 -0.11218220869E+02  0.18451144679E+01  0.16490989206E+02  0.00000000000E+00 0. -1.
</event>
<event>
 8    1  0.2466538E-006  0.9118800E+02  0.7816164E-02  0.1184000E+00
        -11   -1    0    0    0    0  0.00000000000E+00  0.00000000000E+00  0.45593999997E+02  0.45594000000E+02  0.51100000000E-03 0.  1.
         11   -1    0    0    0    0 -0.00000000000E+00 -0.00000000000E+00 -0.45593999997E+02  0.45594000000E+02  0.51100000000E-03 0. -1.
         23    2    1    2    0    0  0.00000000000E+00 -0.17763568394E-14 -0.35527136788E-14  0.91188000000E+02  0.91188000000E+02 0.  0.
    9900012    2    3    3    0    0 -0.27602103303E+02 -0.84330633735E+01 -0.22864579963E+02  0.54367059199E+02  0.39999943056E+02 0.  0.
        -12    1    3    3    0    0  0.27602103303E+02  0.84330633735E+01  0.22864579963E+02  0.36820940801E+02  0.00000000000E+00 0.  1.
         11    1    4    4    0    0  0.66344235046E+01 -0.19181741090E+01 -0.67564455502E+01  0.96614969796E+01  0.51100000000E-03 0. -1.
        -11    1    4    4    0    0 -0.27087267255E+01  0.10165484505E+01 -0.11628012678E+02  0.11982539394E+02  0.51100000000E-03 0.  1.
         12    1    4    4    0    0 -0.31527800082E+02 -0.75314377149E+01 -0.44801217346E+01  0.32723022825E+02  0.00000000000E+00 0. -1.
</event>
<event>
 8    1  0.2466538E-006  0.9118800E+02  0.7816164E-02  0.1184000E+00
        -11   -1    0    0    0    0  0.00000000000E+00  0.00000000000E+00  0.45593999997E+02  0.45594000000E+02  0.51100000000E-03 0. -1.
         11   -1    0    0    0    0 -0.00000000000E+00 -0.00000000000E+00 -0.45593999997E+02  0.45594000000E+02  0.51100000000E-03 0.  1.
         23    2    1    2    0    0  0.35527136788E-14  0.00000000000E+00 -0.35527136788E-14  0.91188000000E+02  0.91188000000E+02 0.  0.
    9900012    2    3    3    0    0 -0.16910654665E+02 -0.26806148961E+02  0.18741106908E+02  0.54367232063E+02  0.40000337133E+02 0.  0.
        -12    1    3    3    0    0  0.16910654665E+02  0.26806148961E+02 -0.18741106908E+02  0.36820767937E+02  0.00000000000E+00 0.  1.
         11    1    4    4    0    0 -0.17848649667E+02 -0.37445349978E+01  0.43704446728E+00  0.18242446256E+02  0.51100000000E-03 0. -1.
        -11    1    4    4    0    0 -0.78606141401E+01 -0.70379477159E+01  0.13666246890E+02  0.17265232898E+02  0.51100000000E-03 0.  1.
        -12    1    4    4    0    0  0.87986091417E+01 -0.16023666247E+02  0.46378155509E+01  0.18859552909E+02  0.00000000000E+00 0.  1.
</event>
<event>
 8    1  0.2466538E-006  0.9118800E+02  0.7816164E-02  0.1184000E+00
        -11   -1    0    0    0    0  0.00000000000E+00  0.00000000000E+00  0.45593999997E+02  0.45594000000E+02  0.51100000000E-03 0. -1.
         11   -1    0    0    0    0 -0.00000000000E+00 -0.00000000000E+00 -0.45593999997E+02  0.45594000000E+02  0.51100000000E-03 0.  1.
         23    2    1    2    0    0  0.88817841970E-15  0.00000000000E+00 -0.71054273576E-14  0.91188000000E+02  0.91188000000E+02 0.  0.
    9900012    2    3    3    0    0  0.32130933636E+01 -0.92825849476E+01  0.35486470697E+02  0.54367082646E+02  0.39999996507E+02 0.  0.
        -12    1    3    3    0    0 -0.32130933636E+01  0.92825849476E+01 -0.35486470697E+02  0.36820917354E+02  0.00000000000E+00 0.  1.
         11    1    4    4    0    0  0.23781721705E+01 -0.45203903767E+00 -0.29631739902E+01  0.38262831209E+01  0.51100000000E-03 0. -1.
        -11    1    4    4    0    0 -0.10711893801E+02 -0.12316461726E+02  0.88272472178E+01  0.18556944575E+02  0.51100000000E-03 0.  1.
         12    1    4    4    0    0  0.11546814994E+02  0.34859158158E+01  0.29622397470E+02  0.31983854950E+02  0.00000000000E+00 0. -1.
</event>
<event>
 8    1  0.2466538E-006  0.9118800E+02  0.7816164E-02  0.1184000E+00
        -11   -1    0    0    0    0  0.00000000000E+00  0.00000000000E+00  0.45593999997E+02  0.45594000000E+02  0.51100000000E-03 0.  1.
         11   -1    0    0    0    0 -0.00000000000E+00 -0.00000000000E+00 -0.45593999997E+02  0.45594000000E+02  0.51100000000E-03 0. -1.
         23    2    1    2    0    0  0.00000000000E+00  0.00000000000E+00  0.00000000000E+00  0.91188000000E+02  0.91188000000E+02 0.  0.
    9900012    2    3    3    0    0  0.28559105430E+01  0.32111587604E+02  0.17789584565E+02  0.54367087430E+02  0.40000007414E+02 0.  0.
         12    1    3    3    0    0 -0.28559105430E+01 -0.32111587604E+02 -0.17789584565E+02  0.36820912570E+02  0.00000000000E+00 0. -1.
         11    1    4    4    0    0 -0.48430050804E+01  0.23917221288E+02  0.25971807740E+01  0.24540446625E+02  0.51100000000E-03 0. -1.
        -11    1    4    4    0    0  0.58886213997E+01  0.15718707646E+02  0.14272504682E+02  0.22033111950E+02  0.51100000000E-03 0.  1.
         12    1    4    4    0    0  0.18102942237E+01 -0.75243413301E+01  0.91989910921E+00  0.77935288541E+01  0.00000000000E+00 0. -1.
</event>
<event>
 8    1  0.2466538E-006  0.9118800E+02  0.7816164E-02  0.1184000E+00
        -11   -1    0    0    0    0  0.00000000000E+00  0.00000000000E+00  0.45593999997E+02  0.45594000000E+02  0.51100000000E-03 0.  1.
         11   -1    0    0    0    0 -0.00000000000E+00 -0.00000000000E+00 -0.45593999997E+02  0.45594000000E+02  0.51100000000E-03 0. -1.
         23    2    1    2    0    0  0.00000000000E+00 -0.17763568394E-14  0.00000000000E+00  0.91188000000E+02  0.91188000000E+02 0.  0.
    9900012    2    3    3    0    0  0.30425218760E+02  0.13330975375E+02  0.15886182841E+02  0.54367086835E+02  0.40000006059E+02 0.  0.
         12    1    3    3    0    0 -0.30425218760E+02 -0.13330975375E+02 -0.15886182841E+02  0.36820913165E+02  0.00000000000E+00 0. -1.
         11    1    4    4    0    0  0.78882782653E+01 -0.28467679997E+01 -0.14506827474E+01  0.85107874330E+01  0.51100000000E-03 0. -1.
        -11    1    4    4    0    0  0.10283704313E+02  0.17833249419E+02  0.24154498875E+02  0.31736716519E+02  0.51100000000E-03 0.  1.
        -12    1    4    4    0    0  0.12253236181E+02 -0.16555060443E+01 -0.68176332866E+01  0.14119582884E+02  0.00000000000E+00 0.  1.
</event>
<event>
 8    1  0.2466538E-006  0.9118800E+02  0.7816164E-02  0.1184000E+00
        -11   -1    0    0    0    0  0.00000000000E+00  0.00000000000E+00  0.45593999997E+02  0.45594000000E+02  0.51100000000E-03 0.  1.
         11   -1    0    0    0    0 -0.00000000000E+00 -0.00000000000E+00 -0.45593999997E+02  0.45594000000E+02  0.51100000000E-03 0. -1.
         23    2    1    2    0    0  0.44408920985E-15  0.35527136788E-14  0.35527136788E-14  0.91188000000E+02  0.91188000000E+02 0.  0.
    9900012    2    3    3    0    0 -0.16749286505E+01  0.23947497760E+02  0.27919378014E+02  0.54367086057E+02  0.40000004283E+02 0.  0.
         12    1    3    3    0    0  0.16749286505E+01 -0.23947497760E+02 -0.27919378014E+02  0.36820913943E+02  0.00000000000E+00 0. -1.
         11    1    4    4    0    0 -0.35759452468E+01  0.12747499453E+01  0.35129132764E+01  0.51723236345E+01  0.51100000000E-03 0. -1.
        -11    1    4    4    0    0 -0.72748352977E+01 -0.73184172868E+01  0.16612994661E+01  0.10451907786E+02  0.51100000000E-03 0.  1.
        -12    1    4    4    0    0  0.91758518940E+01  0.29991165101E+02  0.22745165272E+02  0.38742854636E+02  0.00000000000E+00 0.  1.
</event>
<event>
 8    1  0.2466538E-006  0.9118800E+02  0.7816164E-02  0.1184000E+00
        -11   -1    0    0    0    0  0.00000000000E+00  0.00000000000E+00  0.45593999997E+02  0.45594000000E+02  0.51100000000E-03 0.  1.
         11   -1    0    0    0    0 -0.00000000000E+00 -0.00000000000E+00 -0.45593999997E+02  0.45594000000E+02  0.51100000000E-03 0. -1.
         23    2    1    2    0    0  0.35527136788E-14  0.00000000000E+00  0.00000000000E+00  0.91188000000E+02  0.91188000000E+02 0.  0.
    9900012    2    3    3    0    0  0.28352198962E+02 -0.10183694134E+02  0.21171375838E+02  0.54367055321E+02  0.39999934215E+02 0.  0.
         12    1    3    3    0    0 -0.28352198962E+02  0.10183694134E+02 -0.21171375838E+02  0.36820944679E+02  0.00000000000E+00 0. -1.
         11    1    4    4    0    0  0.45623330113E+01 -0.11208599220E+02 -0.73037638746E+01  0.14134799114E+02  0.51100000000E-03 0. -1.
        -11    1    4    4    0    0  0.63614306179E+01 -0.12019673807E+01 -0.33994697646E+00  0.64829074726E+01  0.51100000000E-03 0.  1.
         12    1    4    4    0    0  0.17428435332E+02  0.22268724670E+01  0.28815086689E+02  0.33749348735E+02  0.00000000000E+00 0. -1.
</event>
<event>
 8    1  0.2466538E-006  0.9118800E+02  0.7816164E-02  0.1184000E+00
        -11   -1    0    0    0    0  0.00000000000E+00  0.00000000000E+00  0.45593999997E+02  0.45594000000E+02  0.51100000000E-03 0. -1.
         11   -1    0    0    0    0 -0.00000000000E+00 -0.00000000000E+00 -0.45593999997E+02  0.45594000000E+02  0.51100000000E-03 0.  1.
         23    2    1    2    0    0 -0.17763568394E-14  0.71054273576E-14  0.00000000000E+00  0.91188000000E+02  0.91188000000E+02 0.  0.
    9900012    2    3    3    0    0  0.87576014401E+01 -0.34757153157E+02 -0.84276392060E+01  0.54367076857E+02  0.39999983310E+02 0.  0.
         12    1    3    3    0    0 -0.87576014401E+01  0.34757153157E+02  0.84276392060E+01  0.36820923143E+02  0.00000000000E+00 0. -1.
         11    1    4    4    0    0  0.24582752936E+01  0.41369787246E+01  0.95643560432E+01  0.10706755679E+02  0.51100000000E-03 0. -1.
        -11    1    4    4    0    0  0.67090370133E+01 -0.25227648541E+02 -0.11525666753E+02  0.28535704353E+02  0.51100000000E-03 0.  1.
         12    1    4    4    0    0 -0.40971086690E+00 -0.13666483340E+02 -0.64663284961E+01  0.15124616825E+02  0.00000000000E+00 0. -1.
</event>
<event>
 8    1  0.2466538E-006  0.9118800E+02  0.7816164E-02  0.1184000E+00
        -11   -1    0    0    0    0  0.00000000000E+00  0.00000000000E+00  0.45593999997E+02  0.45594000000E+02  0.51100000000E-03 0.  1.
         11   -1    0    0    0    0 -0.00000000000E+00 -0.00000000000E+00 -0.45593999997E+02  0.45594000000E+02  0.51100000000E-03 0. -1.
         23    2    1    2    0    0  0.00000000000E+00 -0.17763568394E-14 -0.35527136788E-14  0.91188000000E+02  0.91188000000E+02 0.  0.
    9900012    2    3    3    0    0  0.27025195950E+02  0.12299523100E+02 -0.21774771005E+02  0.54367080172E+02  0.39999990869E+02 0.  0.
        -12    1    3    3    0    0 -0.27025195950E+02 -0.12299523100E+02  0.21774771005E+02  0.36820919828E+02  0.00000000000E+00 0.  1.
         11    1    4    4    0    0  0.10289759599E+02  0.64006047753E+01 -0.15925431930E+00  0.12119086446E+02  0.51100000000E-03 0. -1.
        -11    1    4    4    0    0 -0.79321411177E+00  0.77868996156E+01  0.57380508818E+01  0.97051647298E+01  0.51100000000E-03 0.  1.
         12    1    4    4    0    0  0.17528650463E+02 -0.18879812906E+01 -0.27353567568E+02  0.32542828996E+02  0.00000000000E+00 0. -1.
</event>
<event>
 8    1  0.2466538E-006  0.9118800E+02  0.7816164E-02  0.1184000E+00
        -11   -1    0    0    0    0  0.00000000000E+00  0.00000000000E+00  0.45593999997E+02  0.45594000000E+02  0.51100000000E-03 0.  1.
         11   -1    0    0    0    0 -0.00000000000E+00 -0.00000000000E+00 -0.45593999997E+02  0.45594000000E+02  0.51100000000E-03 0. -1.
         23    2    1    2    0    0 -0.35527136788E-14  0.00000000000E+00 -0.71054273576E-14  0.91188000000E+02  0.91188000000E+02 0.  0.
    9900012    2    3    3    0    0  0.20348100570E+02  0.45026264640E+01  0.30355565383E+02  0.54367093010E+02  0.40000020135E+02 0.  0.
         12    1    3    3    0    0 -0.20348100570E+02 -0.45026264640E+01 -0.30355565383E+02  0.36820906990E+02  0.00000000000E+00 0. -1.
         11    1    4    4    0    0  0.12267754829E+01 -0.20768627963E+01 -0.70686705306E+01  0.74688982114E+01  0.51100000000E-03 0. -1.
        -11    1    4    4    0    0  0.14542934438E+02  0.12439810196E+02  0.33265596441E+02  0.38377672241E+02  0.51100000000E-03 0.  1.
         12    1    4    4    0    0  0.45783906486E+01 -0.58603209356E+01  0.41586394718E+01  0.85205225576E+01  0.00000000000E+00 0. -1.
</event>
<event>
 8    1  0.2466538E-006  0.9118800E+02  0.7816164E-02  0.1184000E+00
        -11   -1    0    0    0    0  0.00000000000E+00  0.00000000000E+00  0.45593999997E+02  0.45594000000E+02  0.51100000000E-03 0.  1.
         11   -1    0    0    0    0 -0.00000000000E+00 -0.00000000000E+00 -0.45593999997E+02  0.45594000000E+02  0.51100000000E-03 0. -1.
         23    2    1    2    0    0  0.00000000000E+00  0.00000000000E+00  0.17763568394E-14  0.91188000000E+02  0.91188000000E+02 0.  0.
    9900012    2    3    3    0    0 -0.33133061881E+02  0.53328514715E+01  0.15150596213E+02  0.54367086648E+02  0.40000005632E+02 0.  0.
         12    1    3    3    0    0  0.33133061881E+02 -0.53328514715E+01 -0.15150596213E+02  0.36820913352E+02  0.00000000000E+00 0. -1.
         11    1    4    4    0    0 -0.10925459492E+02  0.34117002562E+01 -0.87568753823E+01  0.14411392385E+02  0.51100000000E-03 0. -1.
        -11    1    4    4    0    0 -0.25576584783E+02 -0.23981555858E+01  0.15759638868E+02  0.30137668405E+02  0.51100000000E-03 0.  1.
        -12    1    4    4    0    0  0.33689823937E+01  0.43193068011E+01  0.81478327270E+01  0.98180258585E+01  0.00000000000E+00 0.  1.
</event>
<event>
 8    1  0.2466538E-006  0.9118800E+02  0.7816164E-02  0.1184000E+00
        -11   -1    0    0    0    0  0.00000000000E+00  0.00000000000E+00  0.45593999997E+02  0.45594000000E+02  0.51100000000E-03 0. -1.
         11   -1    0    0    0    0 -0.00000000000E+00 -0.00000000000E+00 -0.45593999997E+02  0.45594000000E+02  0.51100000000E-03 0.  1.
         23    2    1    2    0    0 -0.17763568394E-14  0.17763568394E-14  0.00000000000E+00  0.91188000000E+02  0.91188000000E+02 0.  0.
    9900012    2    3    3    0    0  0.12530508577E+02 -0.86761265135E+01  0.33518523316E+02  0.54367079021E+02  0.39999988243E+02 0.  0.
        -12    1    3    3    0    0 -0.12530508577E+02  0.86761265135E+01 -0.33518523316E+02  0.36820920979E+02  0.00000000000E+00 0.  1.
         11    1    4    4    0    0 -0.37141784718E+00 -0.74465556867E+00  0.11439541310E+02  0.11469767599E+02  0.51100000000E-03 0. -1.
        -11    1    4    4    0    0  0.19902553495E+02  0.31219260084E+00  0.18906749990E+01  0.19994593071E+02  0.51100000000E-03 0.  1.
         12    1    4    4    0    0 -0.70006270710E+01 -0.82436635457E+01  0.20188307007E+02  0.22902718351E+02  0.00000000000E+00 0. -1.
</event>
<event>
 8    1  0.2466538E-006  0.9118800E+02  0.7816164E-02  0.1184000E+00
        -11   -1    0    0    0    0  0.00000000000E+00  0.00000000000E+00  0.45593999997E+02  0.45594000000E+02  0.51100000000E-03 0.  1.
         11   -1    0    0    0    0 -0.00000000000E+00 -0.00000000000E+00 -0.45593999997E+02  0.45594000000E+02  0.51100000000E-03 0. -1.
         23    2    1    2    0    0  0.00000000000E+00  0.00000000000E+00  0.00000000000E+00  0.91188000000E+02  0.91188000000E+02 0.  0.
    9900012    2    3    3    0    0 -0.14155631827E+02  0.13644568509E+02  0.31132347664E+02  0.54367092443E+02  0.40000018843E+02 0.  0.
         12    1    3    3    0    0  0.14155631827E+02 -0.13644568509E+02 -0.31132347664E+02  0.36820907557E+02  0.00000000000E+00 0. -1.
         11    1    4    4    0    0 -0.26292994030E+01  0.41121030201E+01  0.26692062364E+02  0.27134642067E+02  0.51100000000E-03 0.  1.
        -11    1    4    4    0    0 -0.11993513448E+02 -0.35754606607E+01  0.62551218376E+01  0.13991241304E+02  0.51100000000E-03 0. -1.
         12    1    4    4    0    0  0.46718102362E+00  0.13107926149E+02 -0.18148365376E+01  0.13241209072E+02  0.00000000000E+00 0. -1.
</event>
<event>
 8    1  0.2466538E-006  0.9118800E+02  0.7816164E-02  0.1184000E+00
        -11   -1    0    0    0    0  0.00000000000E+00  0.00000000000E+00  0.45593999997E+02  0.45594000000E+02  0.51100000000E-03 0. -1.
         11   -1    0    0    0    0 -0.00000000000E+00 -0.00000000000E+00 -0.45593999997E+02  0.45594000000E+02  0.51100000000E-03 0.  1.
         23    2    1    2    0    0  0.00000000000E+00  0.71054273576E-14 -0.44408920985E-15  0.91188000000E+02  0.91188000000E+02 0.  0.
    9900012    2    3    3    0    0  0.17884812081E+02 -0.31971984500E+02  0.37021273216E+01  0.54367081451E+02  0.39999993784E+02 0.  0.
         12    1    3    3    0    0 -0.17884812081E+02  0.31971984500E+02 -0.37021273216E+01  0.36820918549E+02  0.00000000000E+00 0. -1.
         11    1    4    4    0    0  0.16268587972E+02  0.44101283458E+00  0.24022445206E+01  0.16450903499E+02  0.51100000000E-03 0. -1.
        -11    1    4    4    0    0 -0.54425959832E+01 -0.27508462514E+02  0.51281627372E+01  0.28506760852E+02  0.51100000000E-03 0.  1.
         12    1    4    4    0    0  0.70588200921E+01 -0.49045348207E+01 -0.38282799362E+01  0.94094171004E+01  0.00000000000E+00 0. -1.
</event>
<event>
 8    1  0.2466538E-006  0.9118800E+02  0.7816164E-02  0.1184000E+00
        -11   -1    0    0    0    0  0.00000000000E+00  0.00000000000E+00  0.45593999997E+02  0.45594000000E+02  0.51100000000E-03 0. -1.
         11   -1    0    0    0    0 -0.00000000000E+00 -0.00000000000E+00 -0.45593999997E+02  0.45594000000E+02  0.51100000000E-03 0.  1.
         23    2    1    2    0    0 -0.17763568394E-14  0.17763568394E-14  0.00000000000E+00  0.91188000000E+02  0.91188000000E+02 0.  0.
    9900012    2    3    3    0    0 -0.66128997411E+01  0.12129791627E+02 -0.34130886294E+02  0.54367086281E+02  0.40000004795E+02 0.  0.
         12    1    3    3    0    0  0.66128997411E+01 -0.12129791627E+02  0.34130886294E+02  0.36820913719E+02  0.00000000000E+00 0. -1.
         11    1    4    4    0    0 -0.22876769644E+01 -0.37407668011E+01 -0.81422832242E+00  0.44597948580E+01  0.51100000000E-03 0. -1.
        -11    1    4    4    0    0  0.14476179509E+02  0.44741513260E+01 -0.14416208222E+02  0.20914226331E+02  0.51100000000E-03 0.  1.
         12    1    4    4    0    0 -0.18801402285E+02  0.11396407102E+02 -0.18900449749E+02  0.28993065092E+02  0.00000000000E+00 0. -1.
</event>
<event>
 8    1  0.2466538E-006  0.9118800E+02  0.7816164E-02  0.1184000E+00
        -11   -1    0    0    0    0  0.00000000000E+00  0.00000000000E+00  0.45593999997E+02  0.45594000000E+02  0.51100000000E-03 0. -1.
         11   -1    0    0    0    0 -0.00000000000E+00 -0.00000000000E+00 -0.45593999997E+02  0.45594000000E+02  0.51100000000E-03 0.  1.
         23    2    1    2    0    0 -0.17763568394E-14 -0.35527136788E-14  0.35527136788E-14  0.91188000000E+02  0.91188000000E+02 0.  0.
    9900012    2    3    3    0    0 -0.15440567856E+02 -0.26564959489E+02  0.20289703791E+02  0.54367078117E+02  0.39999986183E+02 0.  0.
        -12    1    3    3    0    0  0.15440567856E+02  0.26564959489E+02 -0.20289703791E+02  0.36820921883E+02  0.00000000000E+00 0.  1.
         11    1    4    4    0    0 -0.61392755215E+01 -0.50534360160E+00  0.35334982680E+01  0.71015270439E+01  0.51100000000E-03 0. -1.
        -11    1    4    4    0    0 -0.39204637355E+01  0.82826398111E+01  0.56849513022E+01  0.10783822593E+02  0.51100000000E-03 0.  1.
         12    1    4    4    0    0 -0.53808285994E+01 -0.34342255698E+02  0.11071254221E+02  0.36481728480E+02  0.00000000000E+00 0. -1.
</event>
<event>
 8    1  0.2466538E-006  0.9118800E+02  0.7816164E-02  0.1184000E+00
        -11   -1    0    0    0    0  0.00000000000E+00  0.00000000000E+00  0.45593999997E+02  0.45594000000E+02  0.51100000000E-03 0. -1.
         11   -1    0    0    0    0 -0.00000000000E+00 -0.00000000000E+00 -0.45593999997E+02  0.45594000000E+02  0.51100000000E-03 0.  1.
         23    2    1    2    0    0  0.00000000000E+00  0.00000000000E+00  0.00000000000E+00  0.91188000000E+02  0.91188000000E+02 0.  0.
    9900012    2    3    3    0    0  0.16274394895E+02 -0.10171933268E+02  0.31423805705E+02  0.54367085826E+02  0.40000003757E+02 0.  0.
        -12    1    3    3    0    0 -0.16274394895E+02  0.10171933268E+02 -0.31423805705E+02  0.36820914174E+02  0.00000000000E+00 0.  1.
         11    1    4    4    0    0  0.11878665334E+02  0.13843751384E+00  0.18989495258E+02  0.22399169303E+02  0.51100000000E-03 0. -1.
        -11    1    4    4    0    0  0.14733625491E+02 -0.11846910051E+02  0.92140970099E+01  0.21031609112E+02  0.51100000000E-03 0.  1.
         12    1    4    4    0    0 -0.10337895930E+02  0.15365392690E+01  0.32202134371E+01  0.10936307410E+02  0.00000000000E+00 0. -1.
</event>
<event>
 8    1  0.2466538E-006  0.9118800E+02  0.7816164E-02  0.1184000E+00
        -11   -1    0    0    0    0  0.00000000000E+00  0.00000000000E+00  0.45593999997E+02  0.45594000000E+02  0.51100000000E-03 0. -1.
         11   -1    0    0    0    0 -0.00000000000E+00 -0.00000000000E+00 -0.45593999997E+02  0.45594000000E+02  0.51100000000E-03 0.  1.
         23    2    1    2    0    0  0.00000000000E+00  0.17763568394E-14  0.17763568394E-14  0.91188000000E+02  0.91188000000E+02 0.  0.
    9900012    2    3    3    0    0  0.32611316741E+02 -0.11012669173E+02 -0.13076814096E+02  0.54367082999E+02  0.39999997313E+02 0.  0.
         12    1    3    3    0    0 -0.32611316741E+02  0.11012669173E+02  0.13076814096E+02  0.36820917001E+02  0.00000000000E+00 0. -1.
         11    1    4    4    0    0  0.19889781758E+01 -0.12637939791E+02 -0.12382465777E+01  0.12853280173E+02  0.51100000000E-03 0. -1.
        -11    1    4    4    0    0  0.41969752396E+01 -0.88453336002E+01 -0.83664474768E+01  0.12878352818E+02  0.51100000000E-03 0.  1.
         12    1    4    4    0    0  0.26425363326E+02  0.10470604219E+02 -0.34721200416E+01  0.28635450008E+02  0.00000000000E+00 0. -1.
</event>
<event>
 8    1  0.2466538E-006  0.9118800E+02  0.7816164E-02  0.1184000E+00
        -11   -1    0    0    0    0  0.00000000000E+00  0.00000000000E+00  0.45593999997E+02  0.45594000000E+02  0.51100000000E-03 0.  1.
         11   -1    0    0    0    0 -0.00000000000E+00 -0.00000000000E+00 -0.45593999997E+02  0.45594000000E+02  0.51100000000E-03 0. -1.
         23    2    1    2    0    0 -0.88817841970E-15  0.00000000000E+00  0.00000000000E+00  0.91188000000E+02  0.91188000000E+02 0.  0.
    9900012    2    3    3    0    0 -0.56021707128E+01 -0.24057947872E+02  0.27305842394E+02  0.54367106456E+02  0.40000050789E+02 0.  0.
         12    1    3    3    0    0  0.56021707128E+01  0.24057947872E+02 -0.27305842394E+02  0.36820893544E+02  0.00000000000E+00 0. -1.
         11    1    4    4    0    0  0.72488208366E+01  0.86689419745E+01  0.73399695619E+01  0.13474832537E+02  0.51100000000E-03 0. -1.
        -11    1    4    4    0    0 -0.20953010801E+01 -0.13237782852E+02  0.82343324966E+01  0.15730016319E+02  0.51100000000E-03 0.  1.
         12    1    4    4    0    0 -0.10755690469E+02 -0.19489106994E+02  0.11731540336E+02  0.25162257600E+02  0.00000000000E+00 0. -1.
</event>
<event>
 8    1  0.2466538E-006  0.9118800E+02  0.7816164E-02  0.1184000E+00
        -11   -1    0    0    0    0  0.00000000000E+00  0.00000000000E+00  0.45593999997E+02  0.45594000000E+02  0.51100000000E-03 0.  1.
         11   -1    0    0    0    0 -0.00000000000E+00 -0.00000000000E+00 -0.45593999997E+02  0.45594000000E+02  0.51100000000E-03 0. -1.
         23    2    1    2    0    0  0.00000000000E+00  0.17763568394E-14  0.00000000000E+00  0.91188000000E+02  0.91188000000E+02 0.  0.
    9900012    2    3    3    0    0 -0.31911094171E+02 -0.85927421059E+01  0.16236593186E+02  0.54367080587E+02  0.39999991815E+02 0.  0.
        -12    1    3    3    0    0  0.31911094171E+02  0.85927421059E+01 -0.16236593186E+02  0.36820919413E+02  0.00000000000E+00 0.  1.
         11    1    4    4    0    0 -0.14492922591E+02 -0.33535279181E+01 -0.55006259753E+01  0.15860259805E+02  0.51100000000E-03 0. -1.
        -11    1    4    4    0    0  0.22668239156E-01  0.90731591059E+01  0.45868515746E+01  0.10166707315E+02  0.51100000000E-03 0.  1.
        -12    1    4    4    0    0 -0.17440839820E+02 -0.14312373294E+02  0.17150367587E+02  0.28340113466E+02  0.00000000000E+00 0.  1.
</event>
<event>
 8    1  0.2466538E-006  0.9118800E+02  0.7816164E-02  0.1184000E+00
        -11   -1    0    0    0    0  0.00000000000E+00  0.00000000000E+00  0.45593999997E+02  0.45594000000E+02  0.51100000000E-03 0.  1.
         11   -1    0    0    0    0 -0.00000000000E+00 -0.00000000000E+00 -0.45593999997E+02  0.45594000000E+02  0.51100000000E-03 0. -1.
         23    2    1    2    0    0  0.00000000000E+00  0.00000000000E+00  0.00000000000E+00  0.91188000000E+02  0.91188000000E+02 0.  0.
    9900012    2    3    3    0    0 -0.19660419643E+02  0.64955823363E+01 -0.30447589212E+02  0.54367076883E+02  0.39999983369E+02 0.  0.
        -12    1    3    3    0    0  0.19660419643E+02 -0.64955823363E+01  0.30447589212E+02  0.36820923117E+02  0.00000000000E+00 0.  1.
         11    1    4    4    0    0 -0.48452371602E+00 -0.81672578447E+01 -0.12448327842E+02  0.14896299214E+02  0.51100000000E-03 0. -1.
        -11    1    4    4    0    0 -0.43732556977E+01  0.19059163569E+02 -0.83535148908E+01  0.21264014030E+02  0.51100000000E-03 0.  1.
        -12    1    4    4    0    0 -0.14802640229E+02 -0.43963233885E+01 -0.96457464784E+01  0.18206763639E+02  0.00000000000E+00 0.  1.
</event>
<event>
 8    1  0.2466538E-006  0.9118800E+02  0.7816164E-02  0.1184000E+00
        -11   -1    0    0    0    0  0.00000000000E+00  0.00000000000E+00  0.45593999997E+02  0.45594000000E+02  0.51100000000E-03 0. -1.
         11   -1    0    0    0    0 -0.00000000000E+00 -0.00000000000E+00 -0.45593999997E+02  0.45594000000E+02  0.51100000000E-03 0.  1.
         23    2    1    2    0    0 -0.35527136788E-14  0.44408920985E-15  0.00000000000E+00  0.91188000000E+02  0.91188000000E+02 0.  0.
    9900012    2    3    3    0    0 -0.17869283031E+02 -0.34722105881E+01 -0.32006441365E+02  0.54367084595E+02  0.40000000951E+02 0.  0.
         12    1    3    3    0    0  0.17869283031E+02  0.34722105881E+01  0.32006441365E+02  0.36820915405E+02  0.00000000000E+00 0. -1.
         11    1    4    4    0    0 -0.16277431618E+02  0.73099082996E+01  0.98846619305E+00  0.17870831125E+02  0.51100000000E-03 0. -1.
        -11    1    4    4    0    0  0.12945974388E+01  0.19742887175E+01 -0.71634517046E+01  0.75424690290E+01  0.51100000000E-03 0.  1.
        -12    1    4    4    0    0 -0.28864488525E+01 -0.12756407605E+02 -0.25831455853E+02  0.28953784441E+02  0.00000000000E+00 0.  1.
</event>
<event>
 8    1  0.2466538E-006  0.9118800E+02  0.7816164E-02  0.1184000E+00
        -11   -1    0    0    0    0  0.00000000000E+00  0.00000000000E+00  0.45593999997E+02  0.45594000000E+02  0.51100000000E-03 0.  1.
         11   -1    0    0    0    0 -0.00000000000E+00 -0.00000000000E+00 -0.45593999997E+02  0.45594000000E+02  0.51100000000E-03 0. -1.
         23    2    1    2    0    0  0.00000000000E+00  0.13322676296E-14  0.35527136788E-14  0.91188000000E+02  0.91188000000E+02 0.  0.
    9900012    2    3    3    0    0  0.24013742544E+02  0.39965778354E+01  0.27625171333E+02  0.54367047316E+02  0.39999915967E+02 0.  0.
         12    1    3    3    0    0 -0.24013742544E+02 -0.39965778354E+01 -0.27625171333E+02  0.36820952684E+02  0.00000000000E+00 0. -1.
         11    1    4    4    0    0  0.11781539564E+02 -0.42059533942E+01  0.92577406220E+01  0.15562791528E+02  0.51100000000E-03 0.  1.
        -11    1    4    4    0    0  0.15657378526E+02  0.17967355500E+02  0.12975642470E+02  0.27135708278E+02  0.51100000000E-03 0. -1.
         12    1    4    4    0    0 -0.34251755463E+01 -0.97648242708E+01  0.53917882407E+01  0.11668547510E+02  0.00000000000E+00 0. -1.
</event>
<event>
 8    1  0.2466538E-006  0.9118800E+02  0.7816164E-02  0.1184000E+00
        -11   -1    0    0    0    0  0.00000000000E+00  0.00000000000E+00  0.45593999997E+02  0.45594000000E+02  0.51100000000E-03 0.  1.
         11   -1    0    0    0    0 -0.00000000000E+00 -0.00000000000E+00 -0.45593999997E+02  0.45594000000E+02  0.51100000000E-03 0. -1.
         23    2    1    2    0    0  0.00000000000E+00  0.00000000000E+00  0.00000000000E+00  0.91188000000E+02  0.91188000000E+02 0.  0.
    9900012    2    3    3    0    0 -0.25591717119E+02  0.26110298406E+02  0.43698806970E+01  0.54367088479E+02  0.40000009805E+02 0.  0.
        -12    1    3    3    0    0  0.25591717119E+02 -0.26110298406E+02 -0.43698806970E+01  0.36820911521E+02  0.00000000000E+00 0.  1.
         11    1    4    4    0    0 -0.12598457966E+01  0.21835045101E+02 -0.34292454236E+01  0.22138566585E+02  0.51100000000E-03 0. -1.
        -11    1    4    4    0    0 -0.24649293365E+01 -0.36629121385E+01  0.78028037728E+01  0.89652969246E+01  0.51100000000E-03 0.  1.
        -12    1    4    4    0    0 -0.21866941986E+02  0.79381654431E+01 -0.36776522166E-02  0.23263224969E+02  0.00000000000E+00 0.  1.
</event>
<event>
 8    1  0.2466538E-006  0.9118800E+02  0.7816164E-02  0.1184000E+00
        -11   -1    0    0    0    0  0.00000000000E+00  0.00000000000E+00  0.45593999997E+02  0.45594000000E+02  0.51100000000E-03 0. -1.
         11   -1    0    0    0    0 -0.00000000000E+00 -0.00000000000E+00 -0.45593999997E+02  0.45594000000E+02  0.51100000000E-03 0.  1.
         23    2    1    2    0    0  0.00000000000E+00 -0.35527136788E-14  0.00000000000E+00  0.91188000000E+02  0.91188000000E+02 0.  0.
    9900012    2    3    3    0    0 -0.16729800389E+02  0.12917206448E+02  0.30150316283E+02  0.54367054664E+02  0.39999932717E+02 0.  0.
        -12    1    3    3    0    0  0.16729800389E+02 -0.12917206448E+02 -0.30150316283E+02  0.36820945336E+02  0.00000000000E+00 0.  1.
         11    1    4    4    0    0 -0.86907716076E+01  0.26161655335E+02  0.16024502786E+02  0.31886461246E+02  0.51100000000E-03 0. -1.
        -11    1    4    4    0    0  0.11725613680E+01 -0.25456472985E+01  0.48069813636E+01  0.55643769122E+01  0.51100000000E-03 0.  1.
         12    1    4    4    0    0 -0.92115901498E+01 -0.10698801589E+02  0.93188321337E+01  0.16916216506E+02  0.00000000000E+00 0. -1.
</event>
<event>
 8    1  0.2466538E-006  0.9118800E+02  0.7816164E-02  0.1184000E+00
        -11   -1    0    0    0    0  0.00000000000E+00  0.00000000000E+00  0.45593999997E+02  0.45594000000E+02  0.51100000000E-03 0.  1.
         11   -1    0    0    0    0 -0.00000000000E+00 -0.00000000000E+00 -0.45593999997E+02  0.45594000000E+02  0.51100000000E-03 0. -1.
         23    2    1    2    0    0 -0.35527136788E-14 -0.17763568394E-14  0.71054273576E-14  0.91188000000E+02  0.91188000000E+02 0.  0.
    9900012    2    3    3    0    0  0.17625650536E+02  0.17022690327E+01 -0.32283420498E+02  0.54367075029E+02  0.39999979143E+02 0.  0.
        -12    1    3    3    0    0 -0.17625650536E+02 -0.17022690327E+01  0.32283420498E+02  0.36820924971E+02  0.00000000000E+00 0.  1.
         11    1    4    4    0    0  0.35651604577E+01 -0.15301674939E+02 -0.14215876868E+02  0.21188269878E+02  0.51100000000E-03 0. -1.
        -11    1    4    4    0    0  0.16052844625E+02  0.79610299037E+01 -0.83920745994E+01  0.19786326946E+02  0.51100000000E-03 0.  1.
        -12    1    4    4    0    0 -0.19923545473E+01  0.90429140683E+01 -0.96754690311E+01  0.13392478205E+02  0.00000000000E+00 0.  1.
</event>
<event>
 8    1  0.2466538E-006  0.9118800E+02  0.7816164E-02  0.1184000E+00
        -11   -1    0    0    0    0  0.00000000000E+00  0.00000000000E+00  0.45593999997E+02  0.45594000000E+02  0.51100000000E-03 0.  1.
         11   -1    0    0    0    0 -0.00000000000E+00 -0.00000000000E+00 -0.45593999997E+02  0.45594000000E+02  0.51100000000E-03 0. -1.
         23    2    1    2    0    0  0.88817841970E-15  0.71054273576E-14  0.00000000000E+00  0.91188000000E+02  0.91188000000E+02 0.  0.
    9900012    2    3    3    0    0  0.25350955847E+01 -0.35681926386E+02 -0.87266671337E+01  0.54367064386E+02  0.39999954880E+02 0.  0.
         12    1    3    3    0    0 -0.25350955847E+01  0.35681926386E+02  0.87266671337E+01  0.36820935614E+02  0.00000000000E+00 0. -1.
         11    1    4    4    0    0 -0.21623889040E+01 -0.19024099029E+02 -0.81578272538E+00  0.19163970658E+02  0.51100000000E-03 0. -1.
        -11    1    4    4    0    0  0.29295391269E+01 -0.25274593070E+02 -0.68011636224E+01  0.26337104648E+02  0.51100000000E-03 0.  1.
         12    1    4    4    0    0  0.17679453619E+01  0.86167657129E+01 -0.11097207859E+01  0.88659890805E+01  0.00000000000E+00 0. -1.
</event>
<event>
 8    1  0.2466538E-006  0.9118800E+02  0.7816164E-02  0.1184000E+00
        -11   -1    0    0    0    0  0.00000000000E+00  0.00000000000E+00  0.45593999997E+02  0.45594000000E+02  0.51100000000E-03 0. -1.
         11   -1    0    0    0    0 -0.00000000000E+00 -0.00000000000E+00 -0.45593999997E+02  0.45594000000E+02  0.51100000000E-03 0.  1.
         23    2    1    2    0    0  0.00000000000E+00  0.71054273576E-14  0.00000000000E+00  0.91188000000E+02  0.91188000000E+02 0.  0.
    9900012    2    3    3    0    0 -0.21901108462E+02 -0.28428740560E+02 -0.82418365095E+01  0.54367085960E+02  0.40000004064E+02 0.  0.
         12    1    3    3    0    0  0.21901108462E+02  0.28428740560E+02  0.82418365095E+01  0.36820914040E+02  0.00000000000E+00 0. -1.
         11    1    4    4    0    0 -0.86936663607E+01  0.11109131609E+01 -0.79102751838E+01  0.11806202463E+02  0.51100000000E-03 0. -1.
        -11    1    4    4    0    0  0.61229990722E+01 -0.44116821581E+01 -0.68530880071E+01  0.10194060653E+02  0.51100000000E-03 0.  1.
        -12    1    4    4    0    0 -0.19330441173E+02 -0.25127971563E+02  0.65215266814E+01  0.32366822845E+02  0.00000000000E+00 0.  1.
</event>
<event>
 8    1  0.2466538E-006  0.9118800E+02  0.7816164E-02  0.1184000E+00
        -11   -1    0    0    0    0  0.00000000000E+00  0.00000000000E+00  0.45593999997E+02  0.45594000000E+02  0.51100000000E-03 0.  1.
         11   -1    0    0    0    0 -0.00000000000E+00 -0.00000000000E+00 -0.45593999997E+02  0.45594000000E+02  0.51100000000E-03 0. -1.
         23    2    1    2    0    0  0.00000000000E+00 -0.35527136788E-14  0.00000000000E+00  0.91188000000E+02  0.91188000000E+02 0.  0.
    9900012    2    3    3    0    0 -0.34799807959E+01 -0.12795704026E+02  0.34350247109E+02  0.54367084961E+02  0.40000001786E+02 0.  0.
         12    1    3    3    0    0  0.34799807959E+01  0.12795704026E+02 -0.34350247109E+02  0.36820915039E+02  0.00000000000E+00 0. -1.
         11    1    4    4    0    0  0.84441444284E+01 -0.12022320882E+02  0.22103653333E+01  0.14856833098E+02  0.51100000000E-03 0. -1.
        -11    1    4    4    0    0 -0.41218291334E+01 -0.86022875588E+01  0.63705124340E+01  0.11470495002E+02  0.51100000000E-03 0.  1.
        -12    1    4    4    0    0 -0.78022960910E+01  0.78289044149E+01  0.25769369341E+02  0.28039756862E+02  0.00000000000E+00 0.  1.
</event>
<event>
 8    1  0.2466538E-006  0.9118800E+02  0.7816164E-02  0.1184000E+00
        -11   -1    0    0    0    0  0.00000000000E+00  0.00000000000E+00  0.45593999997E+02  0.45594000000E+02  0.51100000000E-03 0. -1.
         11   -1    0    0    0    0 -0.00000000000E+00 -0.00000000000E+00 -0.45593999997E+02  0.45594000000E+02  0.51100000000E-03 0.  1.
         23    2    1    2    0    0  0.00000000000E+00  0.53290705182E-14  0.00000000000E+00  0.91188000000E+02  0.91188000000E+02 0.  0.
    9900012    2    3    3    0    0 -0.21833710914E+02  0.14774290031E+02 -0.25705821840E+02  0.54367084006E+02  0.39999999608E+02 0.  0.
         12    1    3    3    0    0  0.21833710914E+02 -0.14774290031E+02  0.25705821840E+02  0.36820915994E+02  0.00000000000E+00 0. -1.
         11    1    4    4    0    0 -0.10471293256E+02 -0.10213629053E+02 -0.10334103082E+02  0.17909770731E+02  0.51100000000E-03 0. -1.
        -11    1    4    4    0    0 -0.11141249743E+02  0.10462694446E+02 -0.15721408355E+02  0.21926196702E+02  0.51100000000E-03 0.  1.
         12    1    4    4    0    0 -0.22116791494E+00  0.14525224637E+02  0.34968959727E+00  0.14531116572E+02  0.00000000000E+00 0. -1.
</event>
<event>
 8    1  0.2466538E-006  0.9118800E+02  0.7816164E-02  0.1184000E+00
        -11   -1    0    0    0    0  0.00000000000E+00  0.00000000000E+00  0.45593999997E+02  0.45594000000E+02  0.51100000000E-03 0.  1.
         11   -1    0    0    0    0 -0.00000000000E+00 -0.00000000000E+00 -0.45593999997E+02  0.45594000000E+02  0.51100000000E-03 0. -1.
         23    2    1    2    0    0  0.00000000000E+00  0.00000000000E+00  0.00000000000E+00  0.91188000000E+02  0.91188000000E+02 0.  0.
    9900012    2    3    3    0    0 -0.25251554590E+02 -0.76575813362E+01 -0.25680740631E+02  0.54367082026E+02  0.39999995095E+02 0.  0.
        -12    1    3    3    0    0  0.25251554590E+02  0.76575813362E+01  0.25680740631E+02  0.36820917974E+02  0.00000000000E+00 0.  1.
         11    1    4    4    0    0 -0.15467842796E+02  0.68644761738E+01 -0.13937745311E+02  0.21923410741E+02  0.51100000000E-03 0. -1.
        -11    1    4    4    0    0 -0.10031225772E+02  0.48202608764E+00 -0.14040705555E+02  0.17262654847E+02  0.51100000000E-03 0.  1.
        -12    1    4    4    0    0  0.24751397790E+00 -0.15004083598E+02  0.22977102350E+01  0.15181016438E+02  0.00000000000E+00 0.  1.
</event>
<event>
 8    1  0.2466538E-006  0.9118800E+02  0.7816164E-02  0.1184000E+00
        -11   -1    0    0    0    0  0.00000000000E+00  0.00000000000E+00  0.45593999997E+02  0.45594000000E+02  0.51100000000E-03 0. -1.
         11   -1    0    0    0    0 -0.00000000000E+00 -0.00000000000E+00 -0.45593999997E+02  0.45594000000E+02  0.51100000000E-03 0.  1.
         23    2    1    2    0    0  0.88817841970E-15  0.17763568394E-14  0.00000000000E+00  0.91188000000E+02  0.91188000000E+02 0.  0.
    9900012    2    3    3    0    0  0.58718002482E+01  0.12686687854E+02  0.34063911285E+02  0.54367080146E+02  0.39999990809E+02 0.  0.
        -12    1    3    3    0    0 -0.58718002482E+01 -0.12686687854E+02 -0.34063911285E+02  0.36820919854E+02  0.00000000000E+00 0.  1.
         11    1    4    4    0    0 -0.67911743608E+01 -0.81173022134E+01  0.21131394729E+02  0.23633588130E+02  0.51100000000E-03 0. -1.
        -11    1    4    4    0    0  0.35344091074E+01 -0.14281672513E+01  0.12544448167E+01  0.40131460844E+01  0.51100000000E-03 0.  1.
         12    1    4    4    0    0  0.91285655017E+01  0.22232157319E+02  0.11678071739E+02  0.26720345932E+02  0.00000000000E+00 0. -1.
</event>
<event>
 8    1  0.2466538E-006  0.9118800E+02  0.7816164E-02  0.1184000E+00
        -11   -1    0    0    0    0  0.00000000000E+00  0.00000000000E+00  0.45593999997E+02  0.45594000000E+02  0.51100000000E-03 0.  1.
         11   -1    0    0    0    0 -0.00000000000E+00 -0.00000000000E+00 -0.45593999997E+02  0.45594000000E+02  0.51100000000E-03 0. -1.
         23    2    1    2    0    0  0.00000000000E+00  0.00000000000E+00  0.00000000000E+00  0.91188000000E+02  0.91188000000E+02 0.  0.
    9900012    2    3    3    0    0 -0.97442438722E+01 -0.80995944577E+01  0.34572046399E+02  0.54367080521E+02  0.39999991664E+02 0.  0.
         12    1    3    3    0    0  0.97442438722E+01  0.80995944577E+01 -0.34572046399E+02  0.36820919479E+02  0.00000000000E+00 0. -1.
         11    1    4    4    0    0  0.18688191418E+01 -0.10010246618E+02  0.13243548280E+01  0.10268955074E+02  0.51100000000E-03 0. -1.
        -11    1    4    4    0    0  0.18267756247E+01 -0.22066921204E+01  0.29380017620E+02  0.29519350178E+02  0.51100000000E-03 0.  1.
         12    1    4    4    0    0 -0.13439838639E+02  0.41173442810E+01  0.38676739513E+01  0.14578775269E+02  0.00000000000E+00 0. -1.
</event>
<event>
 8    1  0.2466538E-006  0.9118800E+02  0.7816164E-02  0.1184000E+00
        -11   -1    0    0    0    0  0.00000000000E+00  0.00000000000E+00  0.45593999997E+02  0.45594000000E+02  0.51100000000E-03 0.  1.
         11   -1    0    0    0    0 -0.00000000000E+00 -0.00000000000E+00 -0.45593999997E+02  0.45594000000E+02  0.51100000000E-03 0. -1.
         23    2    1    2    0    0 -0.35527136788E-14  0.00000000000E+00  0.00000000000E+00  0.91188000000E+02  0.91188000000E+02 0.  0.
    9900012    2    3    3    0    0  0.27913387656E+02  0.23090993413E+02 -0.65900101144E+01  0.54367089900E+02  0.40000013046E+02 0.  0.
         12    1    3    3    0    0 -0.27913387656E+02 -0.23090993413E+02  0.65900101144E+01  0.36820910100E+02  0.00000000000E+00 0. -1.
         11    1    4    4    0    0  0.27352783140E+02  0.77270648032E+01  0.93240551204E+01  0.29913546766E+02  0.51100000000E-03 0.  1.
        -11    1    4    4    0    0  0.10184734369E+01  0.21603655583E+01 -0.94467978299E+01  0.97440472591E+01  0.51100000000E-03 0. -1.
        -12    1    4    4    0    0 -0.45786892110E+00  0.13203563052E+02 -0.64672674049E+01  0.14709495875E+02  0.00000000000E+00 0.  1.
</event>
<event>
 8    1  0.2466538E-006  0.9118800E+02  0.7816164E-02  0.1184000E+00
        -11   -1    0    0    0    0  0.00000000000E+00  0.00000000000E+00  0.45593999997E+02  0.45594000000E+02  0.51100000000E-03 0. -1.
         11   -1    0    0    0    0 -0.00000000000E+00 -0.00000000000E+00 -0.45593999997E+02  0.45594000000E+02  0.51100000000E-03 0.  1.
         23    2    1    2    0    0  0.17763568394E-14  0.00000000000E+00  0.00000000000E+00  0.91188000000E+02  0.91188000000E+02 0.  0.
    9900012    2    3    3    0    0 -0.13531312748E+02  0.12725603248E+02 -0.31792115947E+02  0.54367135818E+02  0.40000117725E+02 0.  0.
         12    1    3    3    0    0  0.13531312748E+02 -0.12725603248E+02  0.31792115947E+02  0.36820864182E+02  0.00000000000E+00 0. -1.
         11    1    4    4    0    0 -0.13262620810E+02  0.65389844102E+01  0.17556622301E+01  0.14890862232E+02  0.51100000000E-03 0. -1.
        -11    1    4    4    0    0 -0.95617571102E+01  0.12434805732E+01 -0.11235242465E+02  0.14805543437E+02  0.51100000000E-03 0.  1.
         12    1    4    4    0    0  0.92930651723E+01  0.49431382646E+01 -0.22312535712E+02  0.24670730149E+02  0.00000000000E+00 0. -1.
</event>
<event>
 8    1  0.2466538E-006  0.9118800E+02  0.7816164E-02  0.1184000E+00
        -11   -1    0    0    0    0  0.00000000000E+00  0.00000000000E+00  0.45593999997E+02  0.45594000000E+02  0.51100000000E-03 0.  1.
         11   -1    0    0    0    0 -0.00000000000E+00 -0.00000000000E+00 -0.45593999997E+02  0.45594000000E+02  0.51100000000E-03 0. -1.
         23    2    1    2    0    0  0.00000000000E+00 -0.17763568394E-14 -0.17763568394E-14  0.91188000000E+02  0.91188000000E+02 0.  0.
    9900012    2    3    3    0    0 -0.30087903505E+02  0.14681195931E+02 -0.15328797172E+02  0.54366926223E+02  0.39999639910E+02 0.  0.
        -12    1    3    3    0    0  0.30087903505E+02 -0.14681195931E+02  0.15328797172E+02  0.36821073777E+02  0.00000000000E+00 0.  1.
         11    1    4    4    0    0 -0.13061032973E+02  0.14278262996E+02 -0.66055600381E+01  0.20447317677E+02  0.51100000000E-03 0. -1.
        -11    1    4    4    0    0 -0.93542145097E+01  0.11921482989E+02  0.33893293189E+01  0.15527737738E+02  0.51100000000E-03 0.  1.
        -12    1    4    4    0    0 -0.76726560223E+01 -0.11518550054E+02 -0.12112566452E+02  0.18391870809E+02  0.00000000000E+00 0.  1.
</event>
<event>
 8    1  0.2466538E-006  0.9118800E+02  0.7816164E-02  0.1184000E+00
        -11   -1    0    0    0    0  0.00000000000E+00  0.00000000000E+00  0.45593999997E+02  0.45594000000E+02  0.51100000000E-03 0.  1.
         11   -1    0    0    0    0 -0.00000000000E+00 -0.00000000000E+00 -0.45593999997E+02  0.45594000000E+02  0.51100000000E-03 0. -1.
         23    2    1    2    0    0  0.00000000000E+00  0.35527136788E-14  0.00000000000E+00  0.91188000000E+02  0.91188000000E+02 0.  0.
    9900012    2    3    3    0    0  0.29531364430E+02 -0.17937012844E+02 -0.12725638643E+02  0.54367084833E+02  0.40000001493E+02 0.  0.
        -12    1    3    3    0    0 -0.29531364430E+02  0.17937012844E+02  0.12725638643E+02  0.36820915167E+02  0.00000000000E+00 0.  1.
         11    1    4    4    0    0  0.19660262329E+02 -0.23034257579E+01 -0.38855428792E+01  0.20172484448E+02  0.51100000000E-03 0. -1.
        -11    1    4    4    0    0  0.16820499975E+02 -0.50148769878E+01 -0.11817178834E+02  0.21159487859E+02  0.51100000000E-03 0.  1.
        -12    1    4    4    0    0 -0.69493978738E+01 -0.10618710098E+02  0.29770830696E+01  0.13035112526E+02  0.00000000000E+00 0.  1.
</event>
<event>
 8    1  0.2466538E-006  0.9118800E+02  0.7816164E-02  0.1184000E+00
        -11   -1    0    0    0    0  0.00000000000E+00  0.00000000000E+00  0.45593999997E+02  0.45594000000E+02  0.51100000000E-03 0. -1.
         11   -1    0    0    0    0 -0.00000000000E+00 -0.00000000000E+00 -0.45593999997E+02  0.45594000000E+02  0.51100000000E-03 0.  1.
         23    2    1    2    0    0  0.00000000000E+00  0.00000000000E+00  0.00000000000E+00  0.91188000000E+02  0.91188000000E+02 0.  0.
    9900012    2    3    3    0    0  0.46404831113E+01  0.35294254420E+02 -0.94106908293E+01  0.54367087729E+02  0.40000008096E+02 0.  0.
         12    1    3    3    0    0 -0.46404831113E+01 -0.35294254420E+02  0.94106908293E+01  0.36820912271E+02  0.00000000000E+00 0. -1.
         11    1    4    4    0    0 -0.36402717392E+01  0.11124323910E+02 -0.82520188107E+01  0.14321242108E+02  0.51100000000E-03 0. -1.
        -11    1    4    4    0    0 -0.60232989739E+01  0.15516459065E+02 -0.11642837488E+02  0.20312466553E+02  0.51100000000E-03 0.  1.
         12    1    4    4    0    0  0.14304053824E+02  0.86534714449E+01  0.10484165469E+02  0.19733379068E+02  0.00000000000E+00 0. -1.
</event>
<event>
 8    1  0.2466538E-006  0.9118800E+02  0.7816164E-02  0.1184000E+00
        -11   -1    0    0    0    0  0.00000000000E+00  0.00000000000E+00  0.45593999997E+02  0.45594000000E+02  0.51100000000E-03 0.  1.
         11   -1    0    0    0    0 -0.00000000000E+00 -0.00000000000E+00 -0.45593999997E+02  0.45594000000E+02  0.51100000000E-03 0. -1.
         23    2    1    2    0    0  0.00000000000E+00  0.71054273576E-14  0.00000000000E+00  0.91188000000E+02  0.91188000000E+02 0.  0.
    9900012    2    3    3    0    0 -0.99325328866E+01 -0.33270152180E+02  0.12256465559E+02  0.54367093118E+02  0.40000020381E+02 0.  0.
         12    1    3    3    0    0  0.99325328866E+01  0.33270152180E+02 -0.12256465559E+02  0.36820906882E+02  0.00000000000E+00 0. -1.
         11    1    4    4    0    0  0.10568778605E+02 -0.62392791635E+01  0.12922803437E+02  0.17822079974E+02  0.51100000000E-03 0. -1.
        -11    1    4    4    0    0 -0.18768023511E+02 -0.26611227931E+02  0.27619230791E+01  0.32680642249E+02  0.51100000000E-03 0.  1.
         12    1    4    4    0    0 -0.17332879803E+01 -0.41964508557E+00 -0.34282609569E+01  0.38643708944E+01  0.00000000000E+00 0. -1.
</event>
<event>
 8    1  0.2466538E-006  0.9118800E+02  0.7816164E-02  0.1184000E+00
        -11   -1    0    0    0    0  0.00000000000E+00  0.00000000000E+00  0.45593999997E+02  0.45594000000E+02  0.51100000000E-03 0.  1.
         11   -1    0    0    0    0 -0.00000000000E+00 -0.00000000000E+00 -0.45593999997E+02  0.45594000000E+02  0.51100000000E-03 0. -1.
         23    2    1    2    0    0  0.00000000000E+00 -0.53290705182E-14  0.00000000000E+00  0.91188000000E+02  0.91188000000E+02 0.  0.
    9900012    2    3    3    0    0  0.31088801119E+02 -0.13287729737E+02 -0.14584323263E+02  0.54367084726E+02  0.40000001251E+02 0.  0.
        -12    1    3    3    0    0 -0.31088801119E+02  0.13287729737E+02  0.14584323263E+02  0.36820915274E+02  0.00000000000E+00 0.  1.
         11    1    4    4    0    0  0.13468996083E+02 -0.19577030545E+02  0.25512077452E+01  0.23899427643E+02  0.51100000000E-03 0.  1.
        -11    1    4    4    0    0  0.20475243687E+02  0.63609786956E+01 -0.17381173061E+02  0.27600775917E+02  0.51100000000E-03 0. -1.
        -12    1    4    4    0    0 -0.28554386506E+01 -0.71677888057E-01  0.24564205249E+00  0.28668811668E+01  0.00000000000E+00 0.  1.
</event>
<event>
 8    1  0.2466538E-006  0.9118800E+02  0.7816164E-02  0.1184000E+00
        -11   -1    0    0    0    0  0.00000000000E+00  0.00000000000E+00  0.45593999997E+02  0.45594000000E+02  0.51100000000E-03 0. -1.
         11   -1    0    0    0    0 -0.00000000000E+00 -0.00000000000E+00 -0.45593999997E+02  0.45594000000E+02  0.51100000000E-03 0.  1.
         23    2    1    2    0    0  0.88817841970E-15  0.00000000000E+00  0.35527136788E-14  0.91188000000E+02  0.91188000000E+02 0.  0.
    9900012    2    3    3    0    0  0.68272363433E+00  0.22484061514E+02  0.29151026582E+02  0.54367061873E+02  0.39999949153E+02 0.  0.
        -12    1    3    3    0    0 -0.68272363433E+00 -0.22484061514E+02 -0.29151026582E+02  0.36820938127E+02  0.00000000000E+00 0.  1.
         11    1    4    4    0    0  0.92236329308E+01  0.27905151159E+01  0.13036013126E+02  0.16211107844E+02  0.51100000000E-03 0.  1.
        -11    1    4    4    0    0 -0.15516215163E+02  0.66586405733E+01  0.85084062365E+00  0.16906044993E+02  0.51100000000E-03 0. -1.
         12    1    4    4    0    0  0.69753058668E+01  0.13034905824E+02  0.15264172833E+02  0.21249909037E+02  0.00000000000E+00 0. -1.
</event>
<event>
 8    1  0.2466538E-006  0.9118800E+02  0.7816164E-02  0.1184000E+00
        -11   -1    0    0    0    0  0.00000000000E+00  0.00000000000E+00  0.45593999997E+02  0.45594000000E+02  0.51100000000E-03 0. -1.
         11   -1    0    0    0    0 -0.00000000000E+00 -0.00000000000E+00 -0.45593999997E+02  0.45594000000E+02  0.51100000000E-03 0.  1.
         23    2    1    2    0    0  0.13322676296E-14  0.24424906542E-14  0.00000000000E+00  0.91188000000E+02  0.91188000000E+02 0.  0.
    9900012    2    3    3    0    0 -0.39684735613E+01  0.13340246875E+01 -0.36582103685E+02  0.54367099491E+02  0.40000034909E+02 0.  0.
         12    1    3    3    0    0  0.39684735613E+01 -0.13340246875E+01  0.36582103685E+02  0.36820900509E+02  0.00000000000E+00 0. -1.
         11    1    4    4    0    0 -0.13023338705E+02  0.35406658918E+01 -0.10340297721E+02  0.17001924102E+02  0.51100000000E-03 0.  1.
        -11    1    4    4    0    0  0.14267450098E+02 -0.98007854679E+01 -0.15733831850E+02  0.23391643659E+02  0.51100000000E-03 0. -1.
        -12    1    4    4    0    0 -0.52125849549E+01  0.75941442636E+01 -0.10507974115E+02  0.13973531730E+02  0.00000000000E+00 0.  1.
</event>
<event>
 8    1  0.2466538E-006  0.9118800E+02  0.7816164E-02  0.1184000E+00
        -11   -1    0    0    0    0  0.00000000000E+00  0.00000000000E+00  0.45593999997E+02  0.45594000000E+02  0.51100000000E-03 0.  1.
         11   -1    0    0    0    0 -0.00000000000E+00 -0.00000000000E+00 -0.45593999997E+02  0.45594000000E+02  0.51100000000E-03 0. -1.
         23    2    1    2    0    0  0.00000000000E+00  0.00000000000E+00  0.17763568394E-14  0.91188000000E+02  0.91188000000E+02 0.  0.
    9900012    2    3    3    0    0 -0.33749390541E+02 -0.12385505610E+02  0.79599179922E+01  0.54367049366E+02  0.39999920640E+02 0.  0.
         12    1    3    3    0    0  0.33749390541E+02  0.12385505610E+02 -0.79599179922E+01  0.36820950634E+02  0.00000000000E+00 0. -1.
         11    1    4    4    0    0  0.77111432280E+01 -0.14202677799E+01 -0.35420660184E+01  0.86037853524E+01  0.51100000000E-03 0. -1.
        -11    1    4    4    0    0 -0.33405646881E+02 -0.40716052683E+01  0.95645016263E+01  0.34985638548E+02  0.51100000000E-03 0.  1.
         12    1    4    4    0    0 -0.80548868888E+01 -0.68936325620E+01  0.19374823844E+01  0.10777625466E+02  0.00000000000E+00 0. -1.
</event>
<event>
 8    1  0.2466538E-006  0.9118800E+02  0.7816164E-02  0.1184000E+00
        -11   -1    0    0    0    0  0.00000000000E+00  0.00000000000E+00  0.45593999997E+02  0.45594000000E+02  0.51100000000E-03 0. -1.
         11   -1    0    0    0    0 -0.00000000000E+00 -0.00000000000E+00 -0.45593999997E+02  0.45594000000E+02  0.51100000000E-03 0.  1.
         23    2    1    2    0    0  0.17763568394E-14  0.35527136788E-14 -0.35527136788E-14  0.91188000000E+02  0.91188000000E+02 0.  0.
    9900012    2    3    3    0    0  0.92322126755E+01 -0.20363459119E+02  0.29255305142E+02  0.54367121451E+02  0.40000084972E+02 0.  0.
        -12    1    3    3    0    0 -0.92322126755E+01  0.20363459119E+02 -0.29255305142E+02  0.36820878549E+02  0.00000000000E+00 0.  1.
         11    1    4    4    0    0 -0.82144529811E+00  0.82593700192E+01  0.17758537121E+02  0.19602489802E+02  0.51100000000E-03 0. -1.
        -11    1    4    4    0    0  0.17139226978E+01  0.74651087680E+00 -0.54184359891E+00  0.19463823494E+01  0.51100000000E-03 0.  1.
         12    1    4    4    0    0  0.83397352758E+01 -0.29369340015E+02  0.12038611619E+02  0.32818249300E+02  0.00000000000E+00 0. -1.
</event>
<event>
 8    1  0.2466538E-006  0.9118800E+02  0.7816164E-02  0.1184000E+00
        -11   -1    0    0    0    0  0.00000000000E+00  0.00000000000E+00  0.45593999997E+02  0.45594000000E+02  0.51100000000E-03 0.  1.
         11   -1    0    0    0    0 -0.00000000000E+00 -0.00000000000E+00 -0.45593999997E+02  0.45594000000E+02  0.51100000000E-03 0. -1.
         23    2    1    2    0    0  0.00000000000E+00  0.00000000000E+00  0.00000000000E+00  0.91188000000E+02  0.91188000000E+02 0.  0.
    9900012    2    3    3    0    0 -0.10784638730E+02 -0.31729196194E+02 -0.15255460553E+02  0.54367090176E+02  0.40000013673E+02 0.  0.
        -12    1    3    3    0    0  0.10784638730E+02  0.31729196194E+02  0.15255460553E+02  0.36820909824E+02  0.00000000000E+00 0.  1.
         11    1    4    4    0    0 -0.89293580263E+01 -0.13613059187E+02 -0.19474990476E+02  0.25383539341E+02  0.51100000000E-03 0. -1.
        -11    1    4    4    0    0 -0.10432542741E+02 -0.60472210069E+01 -0.31233651166E+01  0.12456413604E+02  0.51100000000E-03 0.  1.
        -12    1    4    4    0    0  0.85772620378E+01 -0.12068916000E+02  0.73428950400E+01  0.16527137231E+02  0.00000000000E+00 0.  1.
</event>
<event>
 8    1  0.2466538E-006  0.9118800E+02  0.7816164E-02  0.1184000E+00
        -11   -1    0    0    0    0  0.00000000000E+00  0.00000000000E+00  0.45593999997E+02  0.45594000000E+02  0.51100000000E-03 0.  1.
         11   -1    0    0    0    0 -0.00000000000E+00 -0.00000000000E+00 -0.45593999997E+02  0.45594000000E+02  0.51100000000E-03 0. -1.
         23    2    1    2    0    0  0.00000000000E+00  0.44408920985E-15  0.17763568394E-14  0.91188000000E+02  0.91188000000E+02 0.  0.
    9900012    2    3    3    0    0  0.34081872977E+02 -0.36519980316E+01 -0.13448718048E+02  0.54367093271E+02  0.40000020729E+02 0.  0.
        -12    1    3    3    0    0 -0.34081872977E+02  0.36519980316E+01  0.13448718048E+02  0.36820906729E+02  0.00000000000E+00 0.  1.
         11    1    4    4    0    0  0.20654489665E+02 -0.92011552962E+01 -0.13981575605E+02  0.26584838889E+02  0.51100000000E-03 0. -1.
        -11    1    4    4    0    0  0.19298284013E+02  0.77952908886E+01  0.30023628255E+01  0.21028659223E+02  0.51100000000E-03 0.  1.
         12    1    4    4    0    0 -0.58709007012E+01 -0.22461336241E+01 -0.24695052683E+01  0.67535951589E+01  0.00000000000E+00 0. -1.
</event>
<event>
 8    1  0.2466538E-006  0.9118800E+02  0.7816164E-02  0.1184000E+00
        -11   -1    0    0    0    0  0.00000000000E+00  0.00000000000E+00  0.45593999997E+02  0.45594000000E+02  0.51100000000E-03 0.  1.
         11   -1    0    0    0    0 -0.00000000000E+00 -0.00000000000E+00 -0.45593999997E+02  0.45594000000E+02  0.51100000000E-03 0. -1.
         23    2    1    2    0    0  0.00000000000E+00 -0.88817841970E-15  0.00000000000E+00  0.91188000000E+02  0.91188000000E+02 0.  0.
    9900012    2    3    3    0    0 -0.35916680292E+02 -0.23098192825E+01  0.77740989440E+01  0.54367084711E+02  0.40000001216E+02 0.  0.
        -12    1    3    3    0    0  0.35916680292E+02  0.23098192825E+01 -0.77740989440E+01  0.36820915289E+02  0.00000000000E+00 0.  1.
         11    1    4    4    0    0  0.21233546979E+00  0.64288564851E+01 -0.82961826957E+01  0.10497710686E+02  0.51100000000E-03 0. -1.
        -11    1    4    4    0    0 -0.11704121424E+02 -0.84808858055E+01  0.12644525818E+02  0.19204059877E+02  0.51100000000E-03 0.  1.
         12    1    4    4    0    0 -0.24424894338E+02 -0.25778996208E+00  0.34257558218E+01  0.24665314148E+02  0.00000000000E+00 0. -1.
</event>
<event>
 8    1  0.2466538E-006  0.9118800E+02  0.7816164E-02  0.1184000E+00
        -11   -1    0    0    0    0  0.00000000000E+00  0.00000000000E+00  0.45593999997E+02  0.45594000000E+02  0.51100000000E-03 0. -1.
         11   -1    0    0    0    0 -0.00000000000E+00 -0.00000000000E+00 -0.45593999997E+02  0.45594000000E+02  0.51100000000E-03 0.  1.
         23    2    1    2    0    0  0.00000000000E+00  0.00000000000E+00  0.17763568394E-14  0.91188000000E+02  0.91188000000E+02 0.  0.
    9900012    2    3    3    0    0  0.10018863453E+02 -0.34124330765E+02  0.95361141386E+01  0.54367013485E+02  0.39999838842E+02 0.  0.
        -12    1    3    3    0    0 -0.10018863453E+02  0.34124330765E+02 -0.95361141386E+01  0.36820986515E+02  0.00000000000E+00 0.  1.
         11    1    4    4    0    0  0.12895142163E+02 -0.24840056258E+02  0.62022006794E-01  0.27987799723E+02  0.51100000000E-03 0. -1.
        -11    1    4    4    0    0 -0.16093793619E+01 -0.90080115952E+01 -0.59407412568E+01  0.10909939586E+02  0.51100000000E-03 0.  1.
        -12    1    4    4    0    0 -0.12668993485E+01 -0.27626291177E+00  0.15414833389E+02  0.15469274177E+02  0.00000000000E+00 0.  1.
</event>
<event>
 8    1  0.2466538E-006  0.9118800E+02  0.7816164E-02  0.1184000E+00
        -11   -1    0    0    0    0  0.00000000000E+00  0.00000000000E+00  0.45593999997E+02  0.45594000000E+02  0.51100000000E-03 0.  1.
         11   -1    0    0    0    0 -0.00000000000E+00 -0.00000000000E+00 -0.45593999997E+02  0.45594000000E+02  0.51100000000E-03 0. -1.
         23    2    1    2    0    0 -0.71054273576E-14  0.35527136788E-14  0.00000000000E+00  0.91188000000E+02  0.91188000000E+02 0.  0.
    9900012    2    3    3    0    0 -0.17786791632E+02  0.25455489859E+02 -0.19784552191E+02  0.54367076248E+02  0.39999981923E+02 0.  0.
        -12    1    3    3    0    0  0.17786791632E+02 -0.25455489859E+02  0.19784552191E+02  0.36820923752E+02  0.00000000000E+00 0.  1.
         11    1    4    4    0    0 -0.42197889997E+01  0.12049153235E+02 -0.72875605587E+01  0.14700246666E+02  0.51100000000E-03 0. -1.
        -11    1    4    4    0    0  0.77478080414E+01  0.10356257649E+02  0.28264874208E+01  0.13238943815E+02  0.51100000000E-03 0.  1.
        -12    1    4    4    0    0 -0.21314810674E+02  0.30500789755E+01 -0.15323479053E+02  0.26427885767E+02  0.00000000000E+00 0.  1.
</event>
<event>
 8    1  0.2466538E-006  0.9118800E+02  0.7816164E-02  0.1184000E+00
        -11   -1    0    0    0    0  0.00000000000E+00  0.00000000000E+00  0.45593999997E+02  0.45594000000E+02  0.51100000000E-03 0.  1.
         11   -1    0    0    0    0 -0.00000000000E+00 -0.00000000000E+00 -0.45593999997E+02  0.45594000000E+02  0.51100000000E-03 0. -1.
         23    2    1    2    0    0 -0.35527136788E-14  0.00000000000E+00  0.17763568394E-14  0.91188000000E+02  0.91188000000E+02 0.  0.
    9900012    2    3    3    0    0 -0.18484880047E+02 -0.30044157443E+02  0.10556414925E+02  0.54367080906E+02  0.39999992543E+02 0.  0.
         12    1    3    3    0    0  0.18484880047E+02  0.30044157443E+02 -0.10556414925E+02  0.36820919094E+02  0.00000000000E+00 0. -1.
         11    1    4    4    0    0  0.45215375934E+01 -0.99686025415E+01  0.62268411696E+01  0.12593287500E+02  0.51100000000E-03 0. -1.
        -11    1    4    4    0    0 -0.19777710311E+02 -0.17357926081E+02 -0.89851482745E+01  0.27806263913E+02  0.51100000000E-03 0.  1.
        -12    1    4    4    0    0 -0.32287073293E+01 -0.27176288199E+01  0.13314722030E+02  0.13967529494E+02  0.00000000000E+00 0.  1.
</event>
<event>
 8    1  0.2466538E-006  0.9118800E+02  0.7816164E-02  0.1184000E+00
        -11   -1    0    0    0    0  0.00000000000E+00  0.00000000000E+00  0.45593999997E+02  0.45594000000E+02  0.51100000000E-03 0.  1.
         11   -1    0    0    0    0 -0.00000000000E+00 -0.00000000000E+00 -0.45593999997E+02  0.45594000000E+02  0.51100000000E-03 0. -1.
         23    2    1    2    0    0  0.00000000000E+00 -0.17763568394E-14  0.44408920985E-15  0.91188000000E+02  0.91188000000E+02 0.  0.
    9900012    2    3    3    0    0 -0.33059844280E+02  0.15736602759E+02 -0.38968919713E+01  0.54367085600E+02  0.40000003241E+02 0.  0.
        -12    1    3    3    0    0  0.33059844280E+02 -0.15736602759E+02  0.38968919713E+01  0.36820914400E+02  0.00000000000E+00 0.  1.
         11    1    4    4    0    0 -0.14669402064E+02  0.25667269663E+01  0.24406034570E+01  0.15090924085E+02  0.51100000000E-03 0.  1.
        -11    1    4    4    0    0 -0.25985794151E+02  0.37730086413E+01 -0.16298772873E+01  0.26308812061E+02  0.51100000000E-03 0. -1.
        -12    1    4    4    0    0  0.75953519347E+01  0.93968671517E+01 -0.47076181410E+01  0.12967349453E+02  0.00000000000E+00 0.  1.
</event>
<event>
 8    1  0.2466538E-006  0.9118800E+02  0.7816164E-02  0.1184000E+00
        -11   -1    0    0    0    0  0.00000000000E+00  0.00000000000E+00  0.45593999997E+02  0.45594000000E+02  0.51100000000E-03 0. -1.
         11   -1    0    0    0    0 -0.00000000000E+00 -0.00000000000E+00 -0.45593999997E+02  0.45594000000E+02  0.51100000000E-03 0.  1.
         23    2    1    2    0    0  0.00000000000E+00  0.00000000000E+00  0.00000000000E+00  0.91188000000E+02  0.91188000000E+02 0.  0.
    9900012    2    3    3    0    0 -0.23630789603E+02  0.19627430860E+02  0.20300932252E+02  0.54367107700E+02  0.40000053625E+02 0.  0.
        -12    1    3    3    0    0  0.23630789603E+02 -0.19627430860E+02 -0.20300932252E+02  0.36820892300E+02  0.00000000000E+00 0.  1.
         11    1    4    4    0    0 -0.20046793240E+02  0.18010816561E+01  0.19953824409E+02  0.28342069846E+02  0.51100000000E-03 0. -1.
        -11    1    4    4    0    0  0.51834400598E+01 -0.37361502018E+00 -0.22386982299E+01  0.56585695245E+01  0.51100000000E-03 0.  1.
         12    1    4    4    0    0 -0.87674364219E+01  0.18199964224E+02  0.25858060733E+01  0.20366468330E+02  0.00000000000E+00 0. -1.
</event>
<event>
 8    1  0.2466538E-006  0.9118800E+02  0.7816164E-02  0.1184000E+00
        -11   -1    0    0    0    0  0.00000000000E+00  0.00000000000E+00  0.45593999997E+02  0.45594000000E+02  0.51100000000E-03 0. -1.
         11   -1    0    0    0    0 -0.00000000000E+00 -0.00000000000E+00 -0.45593999997E+02  0.45594000000E+02  0.51100000000E-03 0.  1.
         23    2    1    2    0    0  0.00000000000E+00  0.00000000000E+00  0.00000000000E+00  0.91188000000E+02  0.91188000000E+02 0.  0.
    9900012    2    3    3    0    0  0.19688458441E+02 -0.45851755631E+01 -0.30775308780E+02  0.54367097496E+02  0.40000030361E+02 0.  0.
         12    1    3    3    0    0 -0.19688458441E+02  0.45851755631E+01  0.30775308780E+02  0.36820902504E+02  0.00000000000E+00 0. -1.
         11    1    4    4    0    0  0.75614040510E+00  0.81627922054E+01  0.33364880780E+01  0.88507105849E+01  0.51100000000E-03 0. -1.
        -11    1    4    4    0    0  0.20138707232E+02 -0.46240653802E+01 -0.17878849189E+02  0.27324032612E+02  0.51100000000E-03 0.  1.
         12    1    4    4    0    0 -0.12063891955E+01 -0.81239023884E+01 -0.16232947669E+02  0.18192354299E+02  0.00000000000E+00 0. -1.
</event>
<event>
 8    1  0.2466538E-006  0.9118800E+02  0.7816164E-02  0.1184000E+00
        -11   -1    0    0    0    0  0.00000000000E+00  0.00000000000E+00  0.45593999997E+02  0.45594000000E+02  0.51100000000E-03 0. -1.
         11   -1    0    0    0    0 -0.00000000000E+00 -0.00000000000E+00 -0.45593999997E+02  0.45594000000E+02  0.51100000000E-03 0.  1.
         23    2    1    2    0    0  0.17763568394E-14 -0.35527136788E-14  0.00000000000E+00  0.91188000000E+02  0.91188000000E+02 0.  0.
    9900012    2    3    3    0    0 -0.92595254365E+01 -0.23985885623E+02 -0.26357529067E+02  0.54367070368E+02  0.39999968519E+02 0.  0.
        -12    1    3    3    0    0  0.92595254365E+01  0.23985885623E+02  0.26357529067E+02  0.36820929632E+02  0.00000000000E+00 0.  1.
         11    1    4    4    0    0 -0.22238563013E+02 -0.14732184333E+02 -0.13439352519E+02  0.29869836567E+02  0.51100000000E-03 0. -1.
        -11    1    4    4    0    0  0.47439166133E+01 -0.58161420237E+01 -0.13614538236E+02  0.15546314821E+02  0.51100000000E-03 0.  1.
         12    1    4    4    0    0  0.82351209636E+01 -0.34375592665E+01  0.69636168893E+00  0.89509189806E+01  0.00000000000E+00 0. -1.
</event>
<event>
 8    1  0.2466538E-006  0.9118800E+02  0.7816164E-02  0.1184000E+00
        -11   -1    0    0    0    0  0.00000000000E+00  0.00000000000E+00  0.45593999997E+02  0.45594000000E+02  0.51100000000E-03 0. -1.
         11   -1    0    0    0    0 -0.00000000000E+00 -0.00000000000E+00 -0.45593999997E+02  0.45594000000E+02  0.51100000000E-03 0.  1.
         23    2    1    2    0    0 -0.35527136788E-14  0.00000000000E+00 -0.35527136788E-14  0.91188000000E+02  0.91188000000E+02 0.  0.
    9900012    2    3    3    0    0  0.27708565108E+02 -0.14194495634E+02  0.19660431232E+02  0.54367070586E+02  0.39999969015E+02 0.  0.
        -12    1    3    3    0    0 -0.27708565108E+02  0.14194495634E+02 -0.19660431232E+02  0.36820929414E+02  0.00000000000E+00 0.  1.
         11    1    4    4    0    0  0.10818671848E+02 -0.15276212527E+02  0.19950761884E+02  0.27357617399E+02  0.51100000000E-03 0. -1.
        -11    1    4    4    0    0 -0.11425042548E+01  0.72250147592E+01  0.25546494438E+01  0.77480570652E+01  0.51100000000E-03 0.  1.
        -12    1    4    4    0    0  0.18032397515E+02 -0.61432978665E+01 -0.28449800961E+01  0.19261396122E+02  0.00000000000E+00 0.  1.
</event>
<event>
 8    1  0.2466538E-006  0.9118800E+02  0.7816164E-02  0.1184000E+00
        -11   -1    0    0    0    0  0.00000000000E+00  0.00000000000E+00  0.45593999997E+02  0.45594000000E+02  0.51100000000E-03 0.  1.
         11   -1    0    0    0    0 -0.00000000000E+00 -0.00000000000E+00 -0.45593999997E+02  0.45594000000E+02  0.51100000000E-03 0. -1.
         23    2    1    2    0    0  0.17763568394E-14 -0.17763568394E-14  0.00000000000E+00  0.91188000000E+02  0.91188000000E+02 0.  0.
    9900012    2    3    3    0    0 -0.13262241699E+02  0.81941644957E+01  0.33357890526E+02  0.54367078678E+02  0.39999987462E+02 0.  0.
         12    1    3    3    0    0  0.13262241699E+02 -0.81941644957E+01 -0.33357890526E+02  0.36820921322E+02  0.00000000000E+00 0. -1.
         11    1    4    4    0    0  0.52969699603E+01  0.25798043273E+01  0.41960276228E+01  0.72332516340E+01  0.51100000000E-03 0. -1.
        -11    1    4    4    0    0  0.18889290477E+01 -0.11905286895E+01  0.25105618787E+02  0.25204711989E+02  0.51100000000E-03 0.  1.
         12    1    4    4    0    0 -0.20448140707E+02  0.68048888579E+01  0.40562441157E+01  0.21929115055E+02  0.00000000000E+00 0. -1.
</event>
<event>
 8    1  0.2466538E-006  0.9118800E+02  0.7816164E-02  0.1184000E+00
        -11   -1    0    0    0    0  0.00000000000E+00  0.00000000000E+00  0.45593999997E+02  0.45594000000E+02  0.51100000000E-03 0.  1.
         11   -1    0    0    0    0 -0.00000000000E+00 -0.00000000000E+00 -0.45593999997E+02  0.45594000000E+02  0.51100000000E-03 0. -1.
         23    2    1    2    0    0  0.00000000000E+00 -0.17763568394E-14  0.17763568394E-14  0.91188000000E+02  0.91188000000E+02 0.  0.
    9900012    2    3    3    0    0 -0.32861455648E+02  0.12937807865E+02 -0.10417195482E+02  0.54367080655E+02  0.39999991969E+02 0.  0.
        -12    1    3    3    0    0  0.32861455648E+02 -0.12937807865E+02  0.10417195482E+02  0.36820919345E+02  0.00000000000E+00 0.  1.
         11    1    4    4    0    0 -0.10301441972E+02  0.79116863531E+01  0.13144282521E+02  0.18479357426E+02  0.51100000000E-03 0. -1.
        -11    1    4    4    0    0 -0.21282683975E+02  0.86186524316E+01 -0.21892381049E+02  0.31725544206E+02  0.51100000000E-03 0.  1.
        -12    1    4    4    0    0 -0.12773297021E+01 -0.35925309195E+01 -0.16690969543E+01  0.41621790229E+01  0.00000000000E+00 0.  1.
</event>
<event>
 8    1  0.2466538E-006  0.9118800E+02  0.7816164E-02  0.1184000E+00
        -11   -1    0    0    0    0  0.00000000000E+00  0.00000000000E+00  0.45593999997E+02  0.45594000000E+02  0.51100000000E-03 0. -1.
         11   -1    0    0    0    0 -0.00000000000E+00 -0.00000000000E+00 -0.45593999997E+02  0.45594000000E+02  0.51100000000E-03 0.  1.
         23    2    1    2    0    0  0.00000000000E+00  0.00000000000E+00  0.00000000000E+00  0.91188000000E+02  0.91188000000E+02 0.  0.
    9900012    2    3    3    0    0 -0.12134856107E+02  0.90213948144E+01 -0.33572895112E+02  0.54367087690E+02  0.40000008007E+02 0.  0.
         12    1    3    3    0    0  0.12134856107E+02 -0.90213948144E+01  0.33572895112E+02  0.36820912310E+02  0.00000000000E+00 0. -1.
         11    1    4    4    0    0 -0.53306665259E+01  0.13673008764E+02 -0.20065333514E+01  0.14811932710E+02  0.51100000000E-03 0. -1.
        -11    1    4    4    0    0 -0.12363933937E+02 -0.14305287571E+01 -0.30629539923E+02  0.33061790500E+02  0.51100000000E-03 0.  1.
        -12    1    4    4    0    0  0.55597443557E+01 -0.32210851922E+01 -0.93682183769E+00  0.64933644801E+01  0.00000000000E+00 0.  1.
</event>
<event>
 8    1  0.2466538E-006  0.9118800E+02  0.7816164E-02  0.1184000E+00
        -11   -1    0    0    0    0  0.00000000000E+00  0.00000000000E+00  0.45593999997E+02  0.45594000000E+02  0.51100000000E-03 0. -1.
         11   -1    0    0    0    0 -0.00000000000E+00 -0.00000000000E+00 -0.45593999997E+02  0.45594000000E+02  0.51100000000E-03 0.  1.
         23    2    1    2    0    0 -0.88817841970E-15  0.00000000000E+00  0.00000000000E+00  0.91188000000E+02  0.91188000000E+02 0.  0.
    9900012    2    3    3    0    0  0.78519617977E+01 -0.33512739145E+02 -0.13077597049E+02  0.54367074786E+02  0.39999978589E+02 0.  0.
         12    1    3    3    0    0 -0.78519617977E+01  0.33512739145E+02  0.13077597049E+02  0.36820925214E+02  0.00000000000E+00 0. -1.
         11    1    4    4    0    0  0.85424700725E+01 -0.76460919254E+01  0.11998793771E+01  0.11527195125E+02  0.51100000000E-03 0. -1.
        -11    1    4    4    0    0 -0.60991051949E+01 -0.12699371104E+02 -0.22391633982E+02  0.26454836671E+02  0.51100000000E-03 0.  1.
         12    1    4    4    0    0  0.54085969201E+01 -0.13167276115E+02  0.81141575561E+01  0.16385042990E+02  0.00000000000E+00 0. -1.
</event>
<event>
 8    1  0.2466538E-006  0.9118800E+02  0.7816164E-02  0.1184000E+00
        -11   -1    0    0    0    0  0.00000000000E+00  0.00000000000E+00  0.45593999997E+02  0.45594000000E+02  0.51100000000E-03 0.  1.
         11   -1    0    0    0    0 -0.00000000000E+00 -0.00000000000E+00 -0.45593999997E+02  0.45594000000E+02  0.51100000000E-03 0. -1.
         23    2    1    2    0    0  0.00000000000E+00  0.00000000000E+00  0.00000000000E+00  0.91188000000E+02  0.91188000000E+02 0.  0.
    9900012    2    3    3    0    0 -0.20516024518E+02 -0.97136393844E+01 -0.28991705507E+02  0.54367067905E+02  0.39999962904E+02 0.  0.
        -12    1    3    3    0    0  0.20516024518E+02  0.97136393844E+01  0.28991705507E+02  0.36820932095E+02  0.00000000000E+00 0.  1.
         11    1    4    4    0    0 -0.16332955614E+02  0.28700272157E+01 -0.21218102788E+01  0.16718390306E+02  0.51100000000E-03 0. -1.
        -11    1    4    4    0    0 -0.70013379544E+00 -0.13540769508E+02 -0.35027315937E+01  0.14003990684E+02  0.51100000000E-03 0.  1.
        -12    1    4    4    0    0 -0.34829351079E+01  0.95710290832E+00 -0.23367163635E+02  0.23644686915E+02  0.00000000000E+00 0.  1.
</event>
<event>
 8    1  0.2466538E-006  0.9118800E+02  0.7816164E-02  0.1184000E+00
        -11   -1    0    0    0    0  0.00000000000E+00  0.00000000000E+00  0.45593999997E+02  0.45594000000E+02  0.51100000000E-03 0.  1.
         11   -1    0    0    0    0 -0.00000000000E+00 -0.00000000000E+00 -0.45593999997E+02  0.45594000000E+02  0.51100000000E-03 0. -1.
         23    2    1    2    0    0  0.00000000000E+00  0.00000000000E+00 -0.88817841970E-15  0.91188000000E+02  0.91188000000E+02 0.  0.
    9900012    2    3    3    0    0  0.17270947967E+02  0.32238442894E+02 -0.42635981211E+01  0.54367066921E+02  0.39999960659E+02 0.  0.
        -12    1    3    3    0    0 -0.17270947967E+02 -0.32238442894E+02  0.42635981211E+01  0.36820933079E+02  0.00000000000E+00 0.  1.
         11    1    4    4    0    0 -0.97887505984E+00  0.22377413810E+02 -0.16093330011E+02  0.27580828782E+02  0.51100000000E-03 0. -1.
        -11    1    4    4    0    0 -0.23371165179E+00  0.39549978305E+01  0.46195184626E+01  0.60857686501E+01  0.51100000000E-03 0.  1.
        -12    1    4    4    0    0  0.18483534679E+02  0.59060312528E+01  0.72102134272E+01  0.20700469488E+02  0.00000000000E+00 0.  1.
</event>
<event>
 8    1  0.2466538E-006  0.9118800E+02  0.7816164E-02  0.1184000E+00
        -11   -1    0    0    0    0  0.00000000000E+00  0.00000000000E+00  0.45593999997E+02  0.45594000000E+02  0.51100000000E-03 0. -1.
         11   -1    0    0    0    0 -0.00000000000E+00 -0.00000000000E+00 -0.45593999997E+02  0.45594000000E+02  0.51100000000E-03 0.  1.
         23    2    1    2    0    0  0.00000000000E+00 -0.17763568394E-14 -0.88817841970E-15  0.91188000000E+02  0.91188000000E+02 0.  0.
    9900012    2    3    3    0    0  0.34428715656E+02  0.11954066641E+02 -0.52500289098E+01  0.54366824373E+02  0.39999407718E+02 0.  0.
         12    1    3    3    0    0 -0.34428715656E+02 -0.11954066641E+02  0.52500289098E+01  0.36821175627E+02  0.00000000000E+00 0. -1.
         11    1    4    4    0    0 -0.27301917883E+01  0.57852018884E+01  0.44727761334E+01  0.78056540207E+01  0.51100000000E-03 0.  1.
        -11    1    4    4    0    0  0.29282695995E+02  0.36383088695E+01 -0.18237916251E+02  0.34689121719E+02  0.51100000000E-03 0. -1.
         12    1    4    4    0    0  0.78762114493E+01  0.25305558833E+01  0.85151112076E+01  0.11872048633E+02  0.00000000000E+00 0. -1.
</event>
<event>
 8    1  0.2466538E-006  0.9118800E+02  0.7816164E-02  0.1184000E+00
        -11   -1    0    0    0    0  0.00000000000E+00  0.00000000000E+00  0.45593999997E+02  0.45594000000E+02  0.51100000000E-03 0.  1.
         11   -1    0    0    0    0 -0.00000000000E+00 -0.00000000000E+00 -0.45593999997E+02  0.45594000000E+02  0.51100000000E-03 0. -1.
         23    2    1    2    0    0  0.00000000000E+00  0.35527136788E-14  0.55511151231E-16  0.91188000000E+02  0.91188000000E+02 0.  0.
    9900012    2    3    3    0    0 -0.19985414898E+02 -0.30924017016E+02 -0.25999941952E+00  0.54367092397E+02  0.40000018736E+02 0.  0.
        -12    1    3    3    0    0  0.19985414898E+02  0.30924017016E+02  0.25999941952E+00  0.36820907603E+02  0.00000000000E+00 0.  1.
         11    1    4    4    0    0 -0.60416333491E+01  0.53722692052E+01  0.34023814699E-01  0.80847861950E+01  0.51100000000E-03 0. -1.
        -11    1    4    4    0    0  0.23284835325E+01  0.27834899169E+01  0.14650507766E+01  0.39135694344E+01  0.51100000000E-03 0.  1.
         12    1    4    4    0    0 -0.16272265081E+02 -0.39079776138E+02 -0.17590740108E+01  0.42368736767E+02  0.00000000000E+00 0. -1.
</event>
<event>
 8    1  0.2466538E-006  0.9118800E+02  0.7816164E-02  0.1184000E+00
        -11   -1    0    0    0    0  0.00000000000E+00  0.00000000000E+00  0.45593999997E+02  0.45594000000E+02  0.51100000000E-03 0. -1.
         11   -1    0    0    0    0 -0.00000000000E+00 -0.00000000000E+00 -0.45593999997E+02  0.45594000000E+02  0.51100000000E-03 0.  1.
         23    2    1    2    0    0  0.00000000000E+00  0.00000000000E+00  0.35527136788E-14  0.91188000000E+02  0.91188000000E+02 0.  0.
    9900012    2    3    3    0    0  0.75207596279E+01  0.18007568916E+02 -0.31224096166E+02  0.54367101789E+02  0.40000040148E+02 0.  0.
         12    1    3    3    0    0 -0.75207596279E+01 -0.18007568916E+02  0.31224096166E+02  0.36820898211E+02  0.00000000000E+00 0. -1.
         11    1    4    4    0    0  0.96094783636E+01  0.93702683381E+00  0.13121073883E+01  0.97438041733E+01  0.51100000000E-03 0. -1.
        -11    1    4    4    0    0  0.67225075618E+01 -0.28633667674E+01 -0.29584645533E+01  0.78831142284E+01  0.51100000000E-03 0.  1.
         12    1    4    4    0    0 -0.88112262976E+01  0.19933908850E+02 -0.29577739001E+02  0.36740183387E+02  0.00000000000E+00 0. -1.
</event>
<event>
 8    1  0.2466538E-006  0.9118800E+02  0.7816164E-02  0.1184000E+00
        -11   -1    0    0    0    0  0.00000000000E+00  0.00000000000E+00  0.45593999997E+02  0.45594000000E+02  0.51100000000E-03 0. -1.
         11   -1    0    0    0    0 -0.00000000000E+00 -0.00000000000E+00 -0.45593999997E+02  0.45594000000E+02  0.51100000000E-03 0.  1.
         23    2    1    2    0    0 -0.35527136788E-14  0.00000000000E+00  0.00000000000E+00  0.91188000000E+02  0.91188000000E+02 0.  0.
    9900012    2    3    3    0    0  0.19044957632E+02 -0.27885222801E+02  0.14679790445E+02  0.54366914881E+02  0.39999614051E+02 0.  0.
         12    1    3    3    0    0 -0.19044957632E+02  0.27885222801E+02 -0.14679790445E+02  0.36821085119E+02  0.00000000000E+00 0. -1.
         11    1    4    4    0    0 -0.37420216177E+01 -0.12991143193E+02  0.19984065108E+02  0.24127481960E+02  0.51100000000E-03 0. -1.
        -11    1    4    4    0    0  0.42850263849E+01 -0.96120306041E+01 -0.21541370196E+01  0.10742108267E+02  0.51100000000E-03 0.  1.
         12    1    4    4    0    0  0.18501952865E+02 -0.52820490039E+01 -0.31501376433E+01  0.19497324654E+02  0.00000000000E+00 0. -1.
</event>
<event>
 8    1  0.2466538E-006  0.9118800E+02  0.7816164E-02  0.1184000E+00
        -11   -1    0    0    0    0  0.00000000000E+00  0.00000000000E+00  0.45593999997E+02  0.45594000000E+02  0.51100000000E-03 0. -1.
         11   -1    0    0    0    0 -0.00000000000E+00 -0.00000000000E+00 -0.45593999997E+02  0.45594000000E+02  0.51100000000E-03 0.  1.
         23    2    1    2    0    0  0.00000000000E+00 -0.35527136788E-14 -0.35527136788E-14  0.91188000000E+02  0.91188000000E+02 0.  0.
    9900012    2    3    3    0    0 -0.96320307742E+01  0.31799119543E+02  0.15868836049E+02  0.54367082330E+02  0.39999995788E+02 0.  0.
        -12    1    3    3    0    0  0.96320307742E+01 -0.31799119543E+02 -0.15868836049E+02  0.36820917670E+02  0.00000000000E+00 0.  1.
         11    1    4    4    0    0  0.13727603984E+00 -0.81481928628E-01  0.54628008642E+01  0.54651328949E+01  0.51100000000E-03 0. -1.
        -11    1    4    4    0    0 -0.26849518322E+01  0.83157064675E+01 -0.12521488606E+02  0.15269172131E+02  0.51100000000E-03 0.  1.
         12    1    4    4    0    0 -0.70843549819E+01  0.23564895004E+02  0.22927523790E+02  0.33632777304E+02  0.00000000000E+00 0. -1.
</event>
<event>
 8    1  0.2466538E-006  0.9118800E+02  0.7816164E-02  0.1184000E+00
        -11   -1    0    0    0    0  0.00000000000E+00  0.00000000000E+00  0.45593999997E+02  0.45594000000E+02  0.51100000000E-03 0. -1.
         11   -1    0    0    0    0 -0.00000000000E+00 -0.00000000000E+00 -0.45593999997E+02  0.45594000000E+02  0.51100000000E-03 0.  1.
         23    2    1    2    0    0  0.00000000000E+00  0.44408920985E-15  0.24980018054E-15  0.91188000000E+02  0.91188000000E+02 0.  0.
    9900012    2    3    3    0    0  0.36772384526E+02  0.18858989494E+01  0.12370999413E+00  0.54367079551E+02  0.39999989452E+02 0.  0.
        -12    1    3    3    0    0 -0.36772384526E+02 -0.18858989494E+01 -0.12370999413E+00  0.36820920449E+02  0.00000000000E+00 0.  1.
         11    1    4    4    0    0  0.32551943632E+02 -0.94184878039E+01 -0.29211323326E+01  0.34012791139E+02  0.51100000000E-03 0. -1.
        -11    1    4    4    0    0  0.10282895781E+01  0.58891599430E+01 -0.65599109260E+01  0.88753600439E+01  0.51100000000E-03 0.  1.
         12    1    4    4    0    0  0.31921513161E+01  0.54152268103E+01  0.96047532527E+01  0.11478928368E+02  0.00000000000E+00 0. -1.
</event>
<event>
 8    1  0.3030495E-006  0.9118800E+02  0.7816164E-02  0.1184000E+00
        -11   -1    0    0    0    0  0.00000000000E+00  0.00000000000E+00  0.45593999997E+02  0.45594000000E+02  0.51100000000E-03 0.  1.
         11   -1    0    0    0    0 -0.00000000000E+00 -0.00000000000E+00 -0.45593999997E+02  0.45594000000E+02  0.51100000000E-03 0. -1.
         23    2    1    2    0    0  0.00000000000E+00  0.00000000000E+00 -0.10658141036E-13  0.91188000000E+02  0.91188000000E+02 0.  0.
    9900012    2    3    3    0    0 -0.86789653300E+01  0.20515546216E+02  0.29318435239E+02  0.54367045088E+02  0.39999910887E+02 0.  0.
         12    1    3    3    0    0  0.86789653300E+01 -0.20515546216E+02 -0.29318435239E+02  0.36820954912E+02  0.00000000000E+00 0. -1.
         11    1    4    4    0    0  0.20280011891E+00 -0.29634338966E+01 -0.31348107619E+01  0.43185769788E+01  0.51100000000E-03 0. -1.
        -11    1    4    4    0    0 -0.19708837742E+01 -0.31833449174E+01 -0.32484641816E+01  0.49568727555E+01  0.51100000000E-03 0.  1.
        -12    1    4    4    0    0 -0.69108816747E+01  0.26662325030E+02  0.35701710183E+02  0.45091595354E+02  0.00000000000E+00 0.  1.
</event>
<event>
 8    1  0.2466538E-006  0.9118800E+02  0.7816164E-02  0.1184000E+00
        -11   -1    0    0    0    0  0.00000000000E+00  0.00000000000E+00  0.45593999997E+02  0.45594000000E+02  0.51100000000E-03 0. -1.
         11   -1    0    0    0    0 -0.00000000000E+00 -0.00000000000E+00 -0.45593999997E+02  0.45594000000E+02  0.51100000000E-03 0.  1.
         23    2    1    2    0    0  0.00000000000E+00  0.00000000000E+00  0.00000000000E+00  0.91188000000E+02  0.91188000000E+02 0.  0.
    9900012    2    3    3    0    0 -0.29927134372E+02  0.12649571011E+02  0.17324411305E+02  0.54367078697E+02  0.39999987507E+02 0.  0.
        -12    1    3    3    0    0  0.29927134372E+02 -0.12649571011E+02 -0.17324411305E+02  0.36820921303E+02  0.00000000000E+00 0.  1.
         11    1    4    4    0    0 -0.87092682770E+01  0.11235564188E+02  0.17148503200E+01  0.14318867568E+02  0.51100000000E-03 0. -1.
        -11    1    4    4    0    0  0.52547751569E+01 -0.18354613163E+01 -0.40759130030E+01  0.68988873931E+01  0.51100000000E-03 0.  1.
        -12    1    4    4    0    0 -0.26472641252E+02  0.32494681395E+01  0.19685473988E+02  0.33149323736E+02  0.00000000000E+00 0.  1.
</event>
<event>
 8    1  0.2466538E-006  0.9118800E+02  0.7816164E-02  0.1184000E+00
        -11   -1    0    0    0    0  0.00000000000E+00  0.00000000000E+00  0.45593999997E+02  0.45594000000E+02  0.51100000000E-03 0. -1.
         11   -1    0    0    0    0 -0.00000000000E+00 -0.00000000000E+00 -0.45593999997E+02  0.45594000000E+02  0.51100000000E-03 0.  1.
         23    2    1    2    0    0  0.35527136788E-14  0.00000000000E+00  0.00000000000E+00  0.91188000000E+02  0.91188000000E+02 0.  0.
    9900012    2    3    3    0    0  0.29250490535E+02 -0.13088213718E+02  0.18135307461E+02  0.54367056074E+02  0.39999935933E+02 0.  0.
        -12    1    3    3    0    0 -0.29250490535E+02  0.13088213718E+02 -0.18135307461E+02  0.36820943926E+02  0.00000000000E+00 0.  1.
         11    1    4    4    0    0  0.27301194833E+02 -0.14796673244E+02  0.28553190251E+02  0.42185085660E+02  0.51100000000E-03 0. -1.
        -11    1    4    4    0    0  0.15548805067E+01  0.37977612327E+01 -0.58771706487E+01  0.71681084580E+01  0.51100000000E-03 0.  1.
         12    1    4    4    0    0  0.39441519488E+00 -0.20893017064E+01 -0.45407121408E+01  0.50138619558E+01  0.00000000000E+00 0. -1.
</event>
<event>
 8    1  0.2466538E-006  0.9118800E+02  0.7816164E-02  0.1184000E+00
        -11   -1    0    0    0    0  0.00000000000E+00  0.00000000000E+00  0.45593999997E+02  0.45594000000E+02  0.51100000000E-03 0.  1.
         11   -1    0    0    0    0 -0.00000000000E+00 -0.00000000000E+00 -0.45593999997E+02  0.45594000000E+02  0.51100000000E-03 0. -1.
         23    2    1    2    0    0  0.00000000000E+00  0.00000000000E+00  0.00000000000E+00  0.91188000000E+02  0.91188000000E+02 0.  0.
    9900012    2    3    3    0    0  0.24621958434E+02  0.19560852986E+02 -0.19154937304E+02  0.54367089776E+02  0.40000012761E+02 0.  0.
        -12    1    3    3    0    0 -0.24621958434E+02 -0.19560852986E+02  0.19154937304E+02  0.36820910224E+02  0.00000000000E+00 0.  1.
         11    1    4    4    0    0  0.14715782636E+02 -0.26215273517E+01 -0.20392612810E+02  0.25284092266E+02  0.51100000000E-03 0.  1.
        -11    1    4    4    0    0  0.12973055573E+02  0.22179503869E+02 -0.20030988591E+00  0.25695732858E+02  0.51100000000E-03 0. -1.
         12    1    4    4    0    0 -0.30668797752E+01  0.28764678658E-02  0.14379853922E+01  0.33872646512E+01  0.00000000000E+00 0. -1.
</event>
<event>
 8    1  0.2466538E-006  0.9118800E+02  0.7816164E-02  0.1184000E+00
        -11   -1    0    0    0    0  0.00000000000E+00  0.00000000000E+00  0.45593999997E+02  0.45594000000E+02  0.51100000000E-03 0. -1.
         11   -1    0    0    0    0 -0.00000000000E+00 -0.00000000000E+00 -0.45593999997E+02  0.45594000000E+02  0.51100000000E-03 0.  1.
         23    2    1    2    0    0  0.00000000000E+00  0.22204460493E-14  0.00000000000E+00  0.91188000000E+02  0.91188000000E+02 0.  0.
    9900012    2    3    3    0    0 -0.30301292686E+02 -0.37547259579E+01  0.20579439566E+02  0.54367086943E+02  0.40000006305E+02 0.  0.
        -12    1    3    3    0    0  0.30301292686E+02  0.37547259579E+01 -0.20579439566E+02  0.36820913057E+02  0.00000000000E+00 0.  1.
         11    1    4    4    0    0 -0.19866770515E+02 -0.11916418977E+02  0.18131586712E+02  0.29418430429E+02  0.51100000000E-03 0. -1.
        -11    1    4    4    0    0  0.35480453088E+01  0.46344121726E+01  0.76465653843E+01  0.96195823265E+01  0.51100000000E-03 0.  1.
        -12    1    4    4    0    0 -0.13982567480E+02  0.35272808466E+01 -0.51987125300E+01  0.15329074188E+02  0.00000000000E+00 0.  1.
</event>
<event>
 8    1  0.2466538E-006  0.9118800E+02  0.7816164E-02  0.1184000E+00
        -11   -1    0    0    0    0  0.00000000000E+00  0.00000000000E+00  0.45593999997E+02  0.45594000000E+02  0.51100000000E-03 0. -1.
         11   -1    0    0    0    0 -0.00000000000E+00 -0.00000000000E+00 -0.45593999997E+02  0.45594000000E+02  0.51100000000E-03 0.  1.
         23    2    1    2    0    0  0.17763568394E-14  0.35527136788E-14 -0.71054273576E-14  0.91188000000E+02  0.91188000000E+02 0.  0.
    9900012    2    3    3    0    0 -0.65677265569E+01  0.22456356372E+02  0.28431661220E+02  0.54367050347E+02  0.39999922876E+02 0.  0.
        -12    1    3    3    0    0  0.65677265569E+01 -0.22456356372E+02 -0.28431661220E+02  0.36820949653E+02  0.00000000000E+00 0.  1.
         11    1    4    4    0    0  0.26903436432E+01  0.37379087753E+01 -0.16706579278E+01  0.48990824757E+01  0.51100000000E-03 0. -1.
        -11    1    4    4    0    0 -0.65232486174E+01 -0.26741593056E+01 -0.47369043365E+01  0.84936543060E+01  0.51100000000E-03 0.  1.
         12    1    4    4    0    0 -0.27348215826E+01  0.21392606902E+02  0.34839223484E+02  0.40974313565E+02  0.00000000000E+00 0. -1.
</event>
<event>
 8    1  0.2466538E-006  0.9118800E+02  0.7816164E-02  0.1184000E+00
        -11   -1    0    0    0    0  0.00000000000E+00  0.00000000000E+00  0.45593999997E+02  0.45594000000E+02  0.51100000000E-03 0. -1.
         11   -1    0    0    0    0 -0.00000000000E+00 -0.00000000000E+00 -0.45593999997E+02  0.45594000000E+02  0.51100000000E-03 0.  1.
         23    2    1    2    0    0  0.00000000000E+00  0.00000000000E+00  0.35527136788E-14  0.91188000000E+02  0.91188000000E+02 0.  0.
    9900012    2    3    3    0    0  0.20312664216E+02 -0.17771119284E+02  0.25047196718E+02  0.54367094639E+02  0.40000023848E+02 0.  0.
        -12    1    3    3    0    0 -0.20312664216E+02  0.17771119284E+02 -0.25047196718E+02  0.36820905361E+02  0.00000000000E+00 0.  1.
         11    1    4    4    0    0  0.19691351042E+02 -0.84286983332E+01  0.95697173881E+01  0.23460003253E+02  0.51100000000E-03 0. -1.
        -11    1    4    4    0    0  0.73426799898E+01 -0.79591246257E+01 -0.29666095548E+01  0.11227795276E+02  0.51100000000E-03 0.  1.
         12    1    4    4    0    0 -0.67213668161E+01 -0.13832963253E+01  0.18444088885E+02  0.19679296110E+02  0.00000000000E+00 0. -1.
</event>
<event>
 8    1  0.2466538E-006  0.9118800E+02  0.7816164E-02  0.1184000E+00
        -11   -1    0    0    0    0  0.00000000000E+00  0.00000000000E+00  0.45593999997E+02  0.45594000000E+02  0.51100000000E-03 0. -1.
         11   -1    0    0    0    0 -0.00000000000E+00 -0.00000000000E+00 -0.45593999997E+02  0.45594000000E+02  0.51100000000E-03 0.  1.
         23    2    1    2    0    0  0.00000000000E+00  0.00000000000E+00  0.44408920985E-15  0.91188000000E+02  0.91188000000E+02 0.  0.
    9900012    2    3    3    0    0  0.33535501620E+02 -0.14804886734E+02  0.34591001018E+01  0.54367083205E+02  0.39999997782E+02 0.  0.
        -12    1    3    3    0    0 -0.33535501620E+02  0.14804886734E+02 -0.34591001018E+01  0.36820916795E+02  0.00000000000E+00 0.  1.
         11    1    4    4    0    0  0.21395592553E+02 -0.11396207004E+02  0.36665358003E+01  0.24517104230E+02  0.51100000000E-03 0. -1.
        -11    1    4    4    0    0  0.99085177577E+01  0.10595276829E+02  0.40189830585E+01  0.15052934609E+02  0.51100000000E-03 0.  1.
        -12    1    4    4    0    0  0.22313913100E+01 -0.14003956559E+02 -0.42264187570E+01  0.14797044367E+02  0.00000000000E+00 0.  1.
</event>
<event>
 8    1  0.2466538E-006  0.9118800E+02  0.7816164E-02  0.1184000E+00
        -11   -1    0    0    0    0  0.00000000000E+00  0.00000000000E+00  0.45593999997E+02  0.45594000000E+02  0.51100000000E-03 0. -1.
         11   -1    0    0    0    0 -0.00000000000E+00 -0.00000000000E+00 -0.45593999997E+02  0.45594000000E+02  0.51100000000E-03 0.  1.
         23    2    1    2    0    0  0.00000000000E+00 -0.35527136788E-14  0.00000000000E+00  0.91188000000E+02  0.91188000000E+02 0.  0.
    9900012    2    3    3    0    0 -0.91687814719E+01  0.21353519643E+02  0.28561271850E+02  0.54367005927E+02  0.39999821612E+02 0.  0.
        -12    1    3    3    0    0  0.91687814719E+01 -0.21353519643E+02 -0.28561271850E+02  0.36820994073E+02  0.00000000000E+00 0.  1.
         11    1    4    4    0    0 -0.85416918243E+01  0.16434462152E+02  0.20639634052E+02  0.27731688364E+02  0.51100000000E-03 0. -1.
        -11    1    4    4    0    0  0.50887418296E+01  0.92251657626E+01 -0.51545420631E+01  0.11728950545E+02  0.51100000000E-03 0.  1.
         12    1    4    4    0    0 -0.57158314772E+01 -0.43061082715E+01  0.13076179860E+02  0.14906367017E+02  0.00000000000E+00 0. -1.
</event>
<event>
 8    1  0.2466538E-006  0.9118800E+02  0.7816164E-02  0.1184000E+00
        -11   -1    0    0    0    0  0.00000000000E+00  0.00000000000E+00  0.45593999997E+02  0.45594000000E+02  0.51100000000E-03 0. -1.
         11   -1    0    0    0    0 -0.00000000000E+00 -0.00000000000E+00 -0.45593999997E+02  0.45594000000E+02  0.51100000000E-03 0.  1.
         23    2    1    2    0    0  0.00000000000E+00  0.00000000000E+00  0.00000000000E+00  0.91188000000E+02  0.91188000000E+02 0.  0.
    9900012    2    3    3    0    0 -0.44068450979E+01  0.34646943959E+02 -0.11659716898E+02  0.54367081929E+02  0.39999994874E+02 0.  0.
        -12    1    3    3    0    0  0.44068450979E+01 -0.34646943959E+02  0.11659716898E+02  0.36820918071E+02  0.00000000000E+00 0.  1.
         11    1    4    4    0    0  0.86651715868E+01 -0.32785147649E+01  0.20823015075E+01  0.94957799849E+01  0.51100000000E-03 0.  1.
        -11    1    4    4    0    0 -0.57166505104E+01  0.11262297462E+02  0.23860261734E+01  0.12853503738E+02  0.51100000000E-03 0. -1.
        -12    1    4    4    0    0 -0.73553661743E+01  0.26663161262E+02 -0.16128044579E+02  0.32017798206E+02  0.00000000000E+00 0.  1.
</event>
<event>
 8    1  0.2466538E-006  0.9118800E+02  0.7816164E-02  0.1184000E+00
        -11   -1    0    0    0    0  0.00000000000E+00  0.00000000000E+00  0.45593999997E+02  0.45594000000E+02  0.51100000000E-03 0. -1.
         11   -1    0    0    0    0 -0.00000000000E+00 -0.00000000000E+00 -0.45593999997E+02  0.45594000000E+02  0.51100000000E-03 0.  1.
         23    2    1    2    0    0  0.71054273576E-14 -0.17763568394E-14  0.44408920985E-15  0.91188000000E+02  0.91188000000E+02 0.  0.
    9900012    2    3    3    0    0  0.36351071149E+02 -0.53959206788E+01  0.22957475583E+01  0.54366989822E+02  0.39999784896E+02 0.  0.
        -12    1    3    3    0    0 -0.36351071149E+02  0.53959206788E+01 -0.22957475583E+01  0.36821010178E+02  0.00000000000E+00 0.  1.
         11    1    4    4    0    0  0.48684037115E+01  0.12417053214E+02  0.39999600338E+00  0.13343334002E+02  0.51100000000E-03 0.  1.
        -11    1    4    4    0    0  0.18818800189E+02 -0.30393550129E+01  0.79368874277E+01  0.20648949168E+02  0.51100000000E-03 0. -1.
        -12    1    4    4    0    0  0.12663867249E+02 -0.14773618880E+02 -0.60411358728E+01  0.20374706652E+02  0.00000000000E+00 0.  1.
</event>
<event>
 8    1  0.2466538E-006  0.9118800E+02  0.7816164E-02  0.1184000E+00
        -11   -1    0    0    0    0  0.00000000000E+00  0.00000000000E+00  0.45593999997E+02  0.45594000000E+02  0.51100000000E-03 0.  1.
         11   -1    0    0    0    0 -0.00000000000E+00 -0.00000000000E+00 -0.45593999997E+02  0.45594000000E+02  0.51100000000E-03 0. -1.
         23    2    1    2    0    0  0.00000000000E+00  0.00000000000E+00 -0.35527136788E-14  0.91188000000E+02  0.91188000000E+02 0.  0.
    9900012    2    3    3    0    0 -0.25548206645E+02 -0.15567680467E+02  0.21464335248E+02  0.54367065391E+02  0.39999957171E+02 0.  0.
         12    1    3    3    0    0  0.25548206645E+02  0.15567680467E+02 -0.21464335248E+02  0.36820934609E+02  0.00000000000E+00 0. -1.
         11    1    4    4    0    0 -0.15103625682E+02 -0.74218859032E+00 -0.12943725452E+01  0.15177145752E+02  0.51100000000E-03 0. -1.
        -11    1    4    4    0    0 -0.11640644338E+02 -0.27159141923E+01 -0.15032454746E+01  0.12047428677E+02  0.51100000000E-03 0.  1.
         12    1    4    4    0    0  0.11960633748E+01 -0.12109577684E+02  0.24261953267E+02  0.27142490962E+02  0.00000000000E+00 0. -1.
</event>
<event>
 8    1  0.2466538E-006  0.9118800E+02  0.7816164E-02  0.1184000E+00
        -11   -1    0    0    0    0  0.00000000000E+00  0.00000000000E+00  0.45593999997E+02  0.45594000000E+02  0.51100000000E-03 0. -1.
         11   -1    0    0    0    0 -0.00000000000E+00 -0.00000000000E+00 -0.45593999997E+02  0.45594000000E+02  0.51100000000E-03 0.  1.
         23    2    1    2    0    0  0.17763568394E-14  0.00000000000E+00  0.35527136788E-14  0.91188000000E+02  0.91188000000E+02 0.  0.
    9900012    2    3    3    0    0 -0.11828136149E+02  0.18968861236E+02 -0.29258455705E+02  0.54367085677E+02  0.40000003418E+02 0.  0.
         12    1    3    3    0    0  0.11828136149E+02 -0.18968861236E+02  0.29258455705E+02  0.36820914323E+02  0.00000000000E+00 0. -1.
         11    1    4    4    0    0  0.10758780099E+02 -0.29168817153E+01 -0.18269029679E+01  0.11295889645E+02  0.51100000000E-03 0. -1.
        -11    1    4    4    0    0  0.10744562498E+01  0.34619734156E+00 -0.15472396675E+01  0.19152701329E+01  0.51100000000E-03 0.  1.
        -12    1    4    4    0    0 -0.23661372498E+02  0.21539545609E+02 -0.25884313069E+02  0.41155925899E+02  0.00000000000E+00 0.  1.
</event>
<event>
 8    1  0.2466538E-006  0.9118800E+02  0.7816164E-02  0.1184000E+00
        -11   -1    0    0    0    0  0.00000000000E+00  0.00000000000E+00  0.45593999997E+02  0.45594000000E+02  0.51100000000E-03 0. -1.
         11   -1    0    0    0    0 -0.00000000000E+00 -0.00000000000E+00 -0.45593999997E+02  0.45594000000E+02  0.51100000000E-03 0.  1.
         23    2    1    2    0    0 -0.88817841970E-15  0.00000000000E+00  0.00000000000E+00  0.91188000000E+02  0.91188000000E+02 0.  0.
    9900012    2    3    3    0    0  0.61623445520E+01  0.32927537091E+02  0.15283434064E+02  0.54367074617E+02  0.39999978204E+02 0.  0.
        -12    1    3    3    0    0 -0.61623445520E+01 -0.32927537091E+02 -0.15283434064E+02  0.36820925383E+02  0.00000000000E+00 0.  1.
         11    1    4    4    0    0 -0.11554748523E+02  0.33547007437E+00  0.28545573437E+01  0.11906857330E+02  0.51100000000E-03 0. -1.
        -11    1    4    4    0    0  0.10530393736E+02  0.85392724884E+01  0.10746943952E+02  0.17300438476E+02  0.51100000000E-03 0.  1.
        -12    1    4    4    0    0  0.71866993383E+01  0.24052794528E+02  0.16819327686E+01  0.25159778811E+02  0.00000000000E+00 0.  1.
</event>
<event>
 8    1  0.2466538E-006  0.9118800E+02  0.7816164E-02  0.1184000E+00
        -11   -1    0    0    0    0  0.00000000000E+00  0.00000000000E+00  0.45593999997E+02  0.45594000000E+02  0.51100000000E-03 0. -1.
         11   -1    0    0    0    0 -0.00000000000E+00 -0.00000000000E+00 -0.45593999997E+02  0.45594000000E+02  0.51100000000E-03 0.  1.
         23    2    1    2    0    0  0.17763568394E-14  0.44408920985E-15  0.00000000000E+00  0.91188000000E+02  0.91188000000E+02 0.  0.
    9900012    2    3    3    0    0  0.14127843310E+02 -0.15319204536E+01  0.33968209174E+02  0.54367055262E+02  0.39999934081E+02 0.  0.
        -12    1    3    3    0    0 -0.14127843310E+02  0.15319204536E+01 -0.33968209174E+02  0.36820944738E+02  0.00000000000E+00 0.  1.
         11    1    4    4    0    0  0.10582174938E+02 -0.16244927385E+02  0.71592593759E+01  0.20667246726E+02  0.51100000000E-03 0. -1.
        -11    1    4    4    0    0  0.73632318533E+01  0.14735929060E+02  0.20177271917E+02  0.26047784759E+02  0.51100000000E-03 0.  1.
         12    1    4    4    0    0 -0.38175634814E+01 -0.22922128517E-01  0.66316778814E+01  0.76520237768E+01  0.00000000000E+00 0. -1.
</event>
<event>
 8    1  0.2466538E-006  0.9118800E+02  0.7816164E-02  0.1184000E+00
        -11   -1    0    0    0    0  0.00000000000E+00  0.00000000000E+00  0.45593999997E+02  0.45594000000E+02  0.51100000000E-03 0. -1.
         11   -1    0    0    0    0 -0.00000000000E+00 -0.00000000000E+00 -0.45593999997E+02  0.45594000000E+02  0.51100000000E-03 0.  1.
         23    2    1    2    0    0  0.00000000000E+00  0.35527136788E-14  0.00000000000E+00  0.91188000000E+02  0.91188000000E+02 0.  0.
    9900012    2    3    3    0    0 -0.23013352209E+02 -0.24311715933E+02 -0.15333179158E+02  0.54367078032E+02  0.39999985989E+02 0.  0.
         12    1    3    3    0    0  0.23013352209E+02  0.24311715933E+02  0.15333179158E+02  0.36820921968E+02  0.00000000000E+00 0. -1.
         11    1    4    4    0    0 -0.21071649911E+02 -0.87630240901E+01 -0.14234968087E+02  0.26896827655E+02  0.51100000000E-03 0. -1.
        -11    1    4    4    0    0 -0.44919518721E+01  0.49309854916E+01 -0.14645778095E+01  0.68291462102E+01  0.51100000000E-03 0.  1.
        -12    1    4    4    0    0  0.25502495744E+01 -0.20479677335E+02  0.36636673911E+00  0.20641104166E+02  0.00000000000E+00 0.  1.
</event>
<event>
 8    1  0.2466538E-006  0.9118800E+02  0.7816164E-02  0.1184000E+00
        -11   -1    0    0    0    0  0.00000000000E+00  0.00000000000E+00  0.45593999997E+02  0.45594000000E+02  0.51100000000E-03 0. -1.
         11   -1    0    0    0    0 -0.00000000000E+00 -0.00000000000E+00 -0.45593999997E+02  0.45594000000E+02  0.51100000000E-03 0.  1.
         23    2    1    2    0    0  0.00000000000E+00 -0.17763568394E-14  0.00000000000E+00  0.91188000000E+02  0.91188000000E+02 0.  0.
    9900012    2    3    3    0    0  0.28955924638E+02 -0.88332459872E+01  0.20959442571E+02  0.54367217292E+02  0.40000303459E+02 0.  0.
        -12    1    3    3    0    0 -0.28955924638E+02  0.88332459872E+01 -0.20959442571E+02  0.36820782708E+02  0.00000000000E+00 0.  1.
         11    1    4    4    0    0  0.15559591754E+02 -0.16792576290E+01  0.17470158225E+01  0.15747154228E+02  0.51100000000E-03 0. -1.
        -11    1    4    4    0    0  0.40893922233E+01  0.11735889182E+02  0.65565104129E+01  0.14051407499E+02  0.51100000000E-03 0.  1.
        -12    1    4    4    0    0  0.93069406609E+01 -0.18889877540E+02  0.12655916336E+02  0.24568655565E+02  0.00000000000E+00 0.  1.
</event>
<event>
 8    1  0.2466538E-006  0.9118800E+02  0.7816164E-02  0.1184000E+00
        -11   -1    0    0    0    0  0.00000000000E+00  0.00000000000E+00  0.45593999997E+02  0.45594000000E+02  0.51100000000E-03 0. -1.
         11   -1    0    0    0    0 -0.00000000000E+00 -0.00000000000E+00 -0.45593999997E+02  0.45594000000E+02  0.51100000000E-03 0.  1.
         23    2    1    2    0    0  0.00000000000E+00 -0.35527136788E-14  0.35527136788E-14  0.91188000000E+02  0.91188000000E+02 0.  0.
    9900012    2    3    3    0    0 -0.91097270393E+01  0.22804600513E+02  0.27436156284E+02  0.54367087424E+02  0.40000007401E+02 0.  0.
        -12    1    3    3    0    0  0.91097270393E+01 -0.22804600513E+02 -0.27436156284E+02  0.36820912576E+02  0.00000000000E+00 0.  1.
         11    1    4    4    0    0 -0.10230079608E+02 -0.26584548216E+01  0.36086119219E+01  0.11168884953E+02  0.51100000000E-03 0. -1.
        -11    1    4    4    0    0 -0.36498533899E+01 -0.17412364352E+01 -0.27322627550E+01  0.48804297059E+01  0.51100000000E-03 0.  1.
         12    1    4    4    0    0  0.47702059589E+01  0.27204291770E+02  0.26559807117E+02  0.38317772765E+02  0.00000000000E+00 0. -1.
</event>
<event>
 8    1  0.2466538E-006  0.9118800E+02  0.7816164E-02  0.1184000E+00
        -11   -1    0    0    0    0  0.00000000000E+00  0.00000000000E+00  0.45593999997E+02  0.45594000000E+02  0.51100000000E-03 0.  1.
         11   -1    0    0    0    0 -0.00000000000E+00 -0.00000000000E+00 -0.45593999997E+02  0.45594000000E+02  0.51100000000E-03 0. -1.
         23    2    1    2    0    0 -0.44408920985E-15  0.00000000000E+00 -0.71054273576E-14  0.91188000000E+02  0.91188000000E+02 0.  0.
    9900012    2    3    3    0    0  0.25988448044E+01 -0.27112004252E+01 -0.36628882579E+02  0.54367086906E+02  0.40000006220E+02 0.  0.
        -12    1    3    3    0    0 -0.25988448044E+01  0.27112004252E+01  0.36628882579E+02  0.36820913094E+02  0.00000000000E+00 0.  1.
         11    1    4    4    0    0 -0.38082736109E+01 -0.33489328683E+01 -0.24484885172E+02  0.25004557612E+02  0.51100000000E-03 0. -1.
        -11    1    4    4    0    0  0.62600433391E+01  0.86952507065E+01  0.39050837490E+01  0.11403736528E+02  0.51100000000E-03 0.  1.
         12    1    4    4    0    0  0.14707507615E+00 -0.80575182633E+01 -0.16049081156E+02  0.17958792766E+02  0.00000000000E+00 0. -1.
</event>
<event>
 8    1  0.2466538E-006  0.9118800E+02  0.7816164E-02  0.1184000E+00
        -11   -1    0    0    0    0  0.00000000000E+00  0.00000000000E+00  0.45593999997E+02  0.45594000000E+02  0.51100000000E-03 0.  1.
         11   -1    0    0    0    0 -0.00000000000E+00 -0.00000000000E+00 -0.45593999997E+02  0.45594000000E+02  0.51100000000E-03 0. -1.
         23    2    1    2    0    0 -0.17763568394E-14  0.00000000000E+00  0.00000000000E+00  0.91188000000E+02  0.91188000000E+02 0.  0.
    9900012    2    3    3    0    0  0.11388849337E+02 -0.17048544973E+02 -0.30584657808E+02  0.54367081107E+02  0.39999993000E+02 0.  0.
        -12    1    3    3    0    0 -0.11388849337E+02  0.17048544973E+02  0.30584657808E+02  0.36820918893E+02  0.00000000000E+00 0.  1.
         11    1    4    4    0    0  0.85061058552E+01 -0.17921840096E+01 -0.22383404427E+02  0.24012133482E+02  0.51100000000E-03 0. -1.
        -11    1    4    4    0    0 -0.27589326929E+01 -0.90045066498E+00 -0.13681297275E+02  0.13985721876E+02  0.51100000000E-03 0.  1.
        -12    1    4    4    0    0  0.56416761749E+01 -0.14355910298E+02  0.54800438943E+01  0.16369225749E+02  0.00000000000E+00 0.  1.
</event>
<event>
 8    1  0.2466538E-006  0.9118800E+02  0.7816164E-02  0.1184000E+00
        -11   -1    0    0    0    0  0.00000000000E+00  0.00000000000E+00  0.45593999997E+02  0.45594000000E+02  0.51100000000E-03 0. -1.
         11   -1    0    0    0    0 -0.00000000000E+00 -0.00000000000E+00 -0.45593999997E+02  0.45594000000E+02  0.51100000000E-03 0.  1.
         23    2    1    2    0    0 -0.17763568394E-14 -0.17763568394E-14  0.00000000000E+00  0.91188000000E+02  0.91188000000E+02 0.  0.
    9900012    2    3    3    0    0 -0.41184863551E+01 -0.15553931730E+02  0.33119395972E+02  0.54367066937E+02  0.39999960696E+02 0.  0.
        -12    1    3    3    0    0  0.41184863551E+01  0.15553931730E+02 -0.33119395972E+02  0.36820933063E+02  0.00000000000E+00 0.  1.
         11    1    4    4    0    0  0.58831083698E+01 -0.59592925807E+00  0.19129763292E+01  0.62149476642E+01  0.51100000000E-03 0. -1.
        -11    1    4    4    0    0 -0.73389334986E+01  0.43640873426E+01 -0.27688790073E+01  0.89761848493E+01  0.51100000000E-03 0.  1.
         12    1    4    4    0    0 -0.26626612263E+01 -0.19322089814E+02  0.33975298650E+02  0.39175934423E+02  0.00000000000E+00 0. -1.
</event>
<event>
 8    1  0.2466538E-006  0.9118800E+02  0.7816164E-02  0.1184000E+00
        -11   -1    0    0    0    0  0.00000000000E+00  0.00000000000E+00  0.45593999997E+02  0.45594000000E+02  0.51100000000E-03 0.  1.
         11   -1    0    0    0    0 -0.00000000000E+00 -0.00000000000E+00 -0.45593999997E+02  0.45594000000E+02  0.51100000000E-03 0. -1.
         23    2    1    2    0    0 -0.44408920985E-15 -0.17763568394E-14  0.00000000000E+00  0.91188000000E+02  0.91188000000E+02 0.  0.
    9900012    2    3    3    0    0  0.12806313349E+01 -0.91362076479E+01 -0.35646453161E+02  0.54367082986E+02  0.39999997284E+02 0.  0.
        -12    1    3    3    0    0 -0.12806313349E+01  0.91362076479E+01  0.35646453161E+02  0.36820917014E+02  0.00000000000E+00 0.  1.
         11    1    4    4    0    0 -0.73735538994E+01 -0.47895914656E+01  0.37372751191E+01  0.95538845028E+01  0.51100000000E-03 0. -1.
        -11    1    4    4    0    0 -0.58965425627E+00  0.54397241023E+01 -0.35196839310E+01  0.65058793169E+01  0.51100000000E-03 0.  1.
         12    1    4    4    0    0  0.92438394906E+01 -0.97863402846E+01 -0.35864044349E+02  0.38307319167E+02  0.00000000000E+00 0. -1.
</event>
<event>
 8    1  0.2466538E-006  0.9118800E+02  0.7816164E-02  0.1184000E+00
        -11   -1    0    0    0    0  0.00000000000E+00  0.00000000000E+00  0.45593999997E+02  0.45594000000E+02  0.51100000000E-03 0.  1.
         11   -1    0    0    0    0 -0.00000000000E+00 -0.00000000000E+00 -0.45593999997E+02  0.45594000000E+02  0.51100000000E-03 0. -1.
         23    2    1    2    0    0  0.00000000000E+00  0.71054273576E-14  0.00000000000E+00  0.91188000000E+02  0.91188000000E+02 0.  0.
    9900012    2    3    3    0    0  0.15070244369E+02  0.31847083522E+02  0.10697235725E+02  0.54367084119E+02  0.39999999866E+02 0.  0.
         12    1    3    3    0    0 -0.15070244369E+02 -0.31847083522E+02 -0.10697235725E+02  0.36820915881E+02  0.00000000000E+00 0. -1.
         11    1    4    4    0    0 -0.10204058575E+01 -0.12120023507E+01 -0.16023350721E+01  0.22533654290E+01  0.51100000000E-03 0. -1.
        -11    1    4    4    0    0  0.24543748005E+02  0.12008255767E+02  0.10795822591E+02  0.29379304933E+02  0.51100000000E-03 0.  1.
        -12    1    4    4    0    0 -0.84530977786E+01  0.21050830106E+02  0.15037482059E+01  0.22734413757E+02  0.00000000000E+00 0.  1.
</event>
<event>
 8    1  0.2466538E-006  0.9118800E+02  0.7816164E-02  0.1184000E+00
        -11   -1    0    0    0    0  0.00000000000E+00  0.00000000000E+00  0.45593999997E+02  0.45594000000E+02  0.51100000000E-03 0.  1.
         11   -1    0    0    0    0 -0.00000000000E+00 -0.00000000000E+00 -0.45593999997E+02  0.45594000000E+02  0.51100000000E-03 0. -1.
         23    2    1    2    0    0  0.00000000000E+00  0.17763568394E-14  0.17763568394E-14  0.91188000000E+02  0.91188000000E+02 0.  0.
    9900012    2    3    3    0    0  0.31918179406E+02  0.15965768261E+02  0.90611407296E+01  0.54367079261E+02  0.39999988791E+02 0.  0.
         12    1    3    3    0    0 -0.31918179406E+02 -0.15965768261E+02 -0.90611407296E+01  0.36820920739E+02  0.00000000000E+00 0. -1.
         11    1    4    4    0    0  0.28356805578E+02  0.68405079638E+01  0.12976181717E+02  0.31926200275E+02  0.51100000000E-03 0.  1.
        -11    1    4    4    0    0  0.73214196233E+00 -0.26455481138E+01 -0.89261410856E+01  0.93386804002E+01  0.51100000000E-03 0. -1.
         12    1    4    4    0    0  0.28292318664E+01  0.11770808411E+02  0.50111000981E+01  0.13102198586E+02  0.00000000000E+00 0. -1.
</event>
<event>
 8    1  0.2466538E-006  0.9118800E+02  0.7816164E-02  0.1184000E+00
        -11   -1    0    0    0    0  0.00000000000E+00  0.00000000000E+00  0.45593999997E+02  0.45594000000E+02  0.51100000000E-03 0. -1.
         11   -1    0    0    0    0 -0.00000000000E+00 -0.00000000000E+00 -0.45593999997E+02  0.45594000000E+02  0.51100000000E-03 0.  1.
         23    2    1    2    0    0  0.17763568394E-14  0.00000000000E+00  0.44408920985E-15  0.91188000000E+02  0.91188000000E+02 0.  0.
    9900012    2    3    3    0    0 -0.85418781016E+01 -0.35709568512E+02 -0.27644114328E+01  0.54367096488E+02  0.40000028065E+02 0.  0.
        -12    1    3    3    0    0  0.85418781016E+01  0.35709568512E+02  0.27644114328E+01  0.36820903512E+02  0.00000000000E+00 0.  1.
         11    1    4    4    0    0 -0.12217527894E+02 -0.19495662988E+02 -0.14735514816E+02  0.27321864145E+02  0.51100000000E-03 0. -1.
        -11    1    4    4    0    0 -0.18717009698E+01  0.27093697424E+01  0.52773739643E+01  0.62205003932E+01  0.51100000000E-03 0.  1.
         12    1    4    4    0    0  0.55473507621E+01 -0.18923275266E+02  0.66937294187E+01  0.20824731951E+02  0.00000000000E+00 0. -1.
</event>
<event>
 8    1  0.2466538E-006  0.9118800E+02  0.7816164E-02  0.1184000E+00
        -11   -1    0    0    0    0  0.00000000000E+00  0.00000000000E+00  0.45593999997E+02  0.45594000000E+02  0.51100000000E-03 0.  1.
         11   -1    0    0    0    0 -0.00000000000E+00 -0.00000000000E+00 -0.45593999997E+02  0.45594000000E+02  0.51100000000E-03 0. -1.
         23    2    1    2    0    0  0.00000000000E+00  0.00000000000E+00  0.00000000000E+00  0.91188000000E+02  0.91188000000E+02 0.  0.
    9900012    2    3    3    0    0  0.88813505651E+01 -0.24163272942E+02 -0.26325597845E+02  0.54367092230E+02  0.40000018356E+02 0.  0.
        -12    1    3    3    0    0 -0.88813505651E+01  0.24163272942E+02  0.26325597845E+02  0.36820907770E+02  0.00000000000E+00 0.  1.
         11    1    4    4    0    0  0.77616898550E+01 -0.15573364232E+01 -0.10105738686E+02  0.12837253631E+02  0.51100000000E-03 0. -1.
        -11    1    4    4    0    0  0.19327475968E+01 -0.23902784203E+02 -0.23806132302E+02  0.33790687199E+02  0.51100000000E-03 0.  1.
        -12    1    4    4    0    0 -0.81308688666E+00  0.12968476848E+01  0.75862731423E+01  0.77391514000E+01  0.00000000000E+00 0.  1.
</event>
<event>
 8    1  0.2466538E-006  0.9118800E+02  0.7816164E-02  0.1184000E+00
        -11   -1    0    0    0    0  0.00000000000E+00  0.00000000000E+00  0.45593999997E+02  0.45594000000E+02  0.51100000000E-03 0. -1.
         11   -1    0    0    0    0 -0.00000000000E+00 -0.00000000000E+00 -0.45593999997E+02  0.45594000000E+02  0.51100000000E-03 0.  1.
         23    2    1    2    0    0 -0.17763568394E-14  0.35527136788E-14  0.00000000000E+00  0.91188000000E+02  0.91188000000E+02 0.  0.
    9900012    2    3    3    0    0  0.60127941976E+01 -0.22295619864E+02 -0.28679803725E+02  0.54367088809E+02  0.40000010559E+02 0.  0.
         12    1    3    3    0    0 -0.60127941976E+01  0.22295619864E+02  0.28679803725E+02  0.36820911191E+02  0.00000000000E+00 0. -1.
         11    1    4    4    0    0  0.18780261594E+02 -0.51031004312E+01 -0.16832228888E+02  0.25730600249E+02  0.51100000000E-03 0. -1.
        -11    1    4    4    0    0 -0.66449982121E+01 -0.36487499836E+01 -0.11494130336E+02  0.13768965471E+02  0.51100000000E-03 0.  1.
         12    1    4    4    0    0 -0.61224691847E+01 -0.13543769450E+02 -0.35344450111E+00  0.14867523090E+02  0.00000000000E+00 0. -1.
</event>
<event>
 8    1  0.2466538E-006  0.9118800E+02  0.7816164E-02  0.1184000E+00
        -11   -1    0    0    0    0  0.00000000000E+00  0.00000000000E+00  0.45593999997E+02  0.45594000000E+02  0.51100000000E-03 0.  1.
         11   -1    0    0    0    0 -0.00000000000E+00 -0.00000000000E+00 -0.45593999997E+02  0.45594000000E+02  0.51100000000E-03 0. -1.
         23    2    1    2    0    0  0.00000000000E+00  0.00000000000E+00  0.00000000000E+00  0.91188000000E+02  0.91188000000E+02 0.  0.
    9900012    2    3    3    0    0  0.29273788423E+02 -0.96530568582E+01 -0.20140623684E+02  0.54367069570E+02  0.39999966699E+02 0.  0.
        -12    1    3    3    0    0 -0.29273788423E+02  0.96530568582E+01  0.20140623684E+02  0.36820930430E+02  0.00000000000E+00 0.  1.
         11    1    4    4    0    0  0.17274543019E+02  0.10950963538E+02 -0.13133918528E+02  0.24307061835E+02  0.51100000000E-03 0.  1.
        -11    1    4    4    0    0  0.13139383847E+02 -0.77514893172E+01  0.24778658926E+00  0.15257470071E+02  0.51100000000E-03 0. -1.
        -12    1    4    4    0    0 -0.11401384428E+01 -0.12852531079E+02 -0.72544917460E+01  0.14802537664E+02  0.00000000000E+00 0.  1.
</event>
<event>
 8    1  0.2466538E-006  0.9118800E+02  0.7816164E-02  0.1184000E+00
        -11   -1    0    0    0    0  0.00000000000E+00  0.00000000000E+00  0.45593999997E+02  0.45594000000E+02  0.51100000000E-03 0. -1.
         11   -1    0    0    0    0 -0.00000000000E+00 -0.00000000000E+00 -0.45593999997E+02  0.45594000000E+02  0.51100000000E-03 0.  1.
         23    2    1    2    0    0  0.35527136788E-14  0.35527136788E-14  0.00000000000E+00  0.91188000000E+02  0.91188000000E+02 0.  0.
    9900012    2    3    3    0    0 -0.23583531891E+02 -0.26638415905E+02 -0.94862781417E+01  0.54367113925E+02  0.40000067815E+02 0.  0.
         12    1    3    3    0    0  0.23583531891E+02  0.26638415905E+02  0.94862781417E+01  0.36820886075E+02  0.00000000000E+00 0. -1.
         11    1    4    4    0    0 -0.72753667258E+01  0.52002925101E+01  0.70446008230E+01  0.11384217329E+02  0.51100000000E-03 0. -1.
        -11    1    4    4    0    0 -0.18753109093E+02 -0.27780638349E+02 -0.10121678145E+02  0.35012731063E+02  0.51100000000E-03 0.  1.
         12    1    4    4    0    0  0.24449439281E+01 -0.40580700653E+01 -0.64092008199E+01  0.79701655325E+01  0.00000000000E+00 0. -1.
</event>
<event>
 8    1  0.2466538E-006  0.9118800E+02  0.7816164E-02  0.1184000E+00
        -11   -1    0    0    0    0  0.00000000000E+00  0.00000000000E+00  0.45593999997E+02  0.45594000000E+02  0.51100000000E-03 0. -1.
         11   -1    0    0    0    0 -0.00000000000E+00 -0.00000000000E+00 -0.45593999997E+02  0.45594000000E+02  0.51100000000E-03 0.  1.
         23    2    1    2    0    0  0.00000000000E+00  0.17763568394E-14  0.00000000000E+00  0.91188000000E+02  0.91188000000E+02 0.  0.
    9900012    2    3    3    0    0  0.97220676689E+01 -0.15794999343E+02  0.31808483933E+02  0.54367078582E+02  0.39999987242E+02 0.  0.
        -12    1    3    3    0    0 -0.97220676689E+01  0.15794999343E+02 -0.31808483933E+02  0.36820921418E+02  0.00000000000E+00 0.  1.
         11    1    4    4    0    0  0.65883960782E+01 -0.13281698471E+02  0.30577098407E+02  0.33981898482E+02  0.51100000000E-03 0. -1.
        -11    1    4    4    0    0 -0.24880792862E+01 -0.60356799204E+01 -0.71591380919E+01  0.96888198000E+01  0.51100000000E-03 0.  1.
        -12    1    4    4    0    0  0.56217508769E+01  0.35223790489E+01  0.83905236176E+01  0.10696360300E+02  0.00000000000E+00 0.  1.
</event>
<event>
 8    1  0.2466538E-006  0.9118800E+02  0.7816164E-02  0.1184000E+00
        -11   -1    0    0    0    0  0.00000000000E+00  0.00000000000E+00  0.45593999997E+02  0.45594000000E+02  0.51100000000E-03 0.  1.
         11   -1    0    0    0    0 -0.00000000000E+00 -0.00000000000E+00 -0.45593999997E+02  0.45594000000E+02  0.51100000000E-03 0. -1.
         23    2    1    2    0    0 -0.17763568394E-14  0.00000000000E+00 -0.71054273576E-14  0.91188000000E+02  0.91188000000E+02 0.  0.
    9900012    2    3    3    0    0  0.13858366178E+02 -0.13419258302E+02  0.31363207284E+02  0.54367060609E+02  0.39999946271E+02 0.  0.
         12    1    3    3    0    0 -0.13858366178E+02  0.13419258302E+02 -0.31363207284E+02  0.36820939391E+02  0.00000000000E+00 0. -1.
         11    1    4    4    0    0  0.38173283789E+01  0.11843869725E+02  0.70832830138E+01  0.14318594363E+02  0.51100000000E-03 0. -1.
        -11    1    4    4    0    0 -0.42486010406E+01 -0.10362988266E+02  0.82299544092E+01  0.13898715280E+02  0.51100000000E-03 0.  1.
        -12    1    4    4    0    0  0.14289638840E+02 -0.14900139760E+02  0.16049969861E+02  0.26149750966E+02  0.00000000000E+00 0.  1.
</event>
<event>
 8    1  0.2466538E-006  0.9118800E+02  0.7816164E-02  0.1184000E+00
        -11   -1    0    0    0    0  0.00000000000E+00  0.00000000000E+00  0.45593999997E+02  0.45594000000E+02  0.51100000000E-03 0. -1.
         11   -1    0    0    0    0 -0.00000000000E+00 -0.00000000000E+00 -0.45593999997E+02  0.45594000000E+02  0.51100000000E-03 0.  1.
         23    2    1    2    0    0  0.35527136788E-14  0.88817841970E-15  0.71054273576E-14  0.91188000000E+02  0.91188000000E+02 0.  0.
    9900012    2    3    3    0    0 -0.13488617666E+02 -0.40832996834E+01 -0.34017082656E+02  0.54367108440E+02  0.40000055310E+02 0.  0.
         12    1    3    3    0    0  0.13488617666E+02  0.40832996834E+01  0.34017082656E+02  0.36820891560E+02  0.00000000000E+00 0. -1.
         11    1    4    4    0    0 -0.24062667790E+01 -0.21293872344E+00  0.71447940992E+01  0.75421181171E+01  0.51100000000E-03 0. -1.
        -11    1    4    4    0    0  0.37637727881E+00  0.52508550724E+01 -0.32603202205E+01  0.61921585129E+01  0.51100000000E-03 0.  1.
        -12    1    4    4    0    0 -0.11458728166E+02 -0.91212160324E+01 -0.37901556535E+02  0.40632831810E+02  0.00000000000E+00 0.  1.
</event>
<event>
 8    1  0.2466538E-006  0.9118800E+02  0.7816164E-02  0.1184000E+00
        -11   -1    0    0    0    0  0.00000000000E+00  0.00000000000E+00  0.45593999997E+02  0.45594000000E+02  0.51100000000E-03 0.  1.
         11   -1    0    0    0    0 -0.00000000000E+00 -0.00000000000E+00 -0.45593999997E+02  0.45594000000E+02  0.51100000000E-03 0. -1.
         23    2    1    2    0    0  0.88817841970E-15 -0.35527136788E-14  0.71054273576E-14  0.91188000000E+02  0.91188000000E+02 0.  0.
    9900012    2    3    3    0    0  0.61128980088E+01  0.17116133422E+02 -0.32022668299E+02  0.54367070756E+02  0.39999969402E+02 0.  0.
        -12    1    3    3    0    0 -0.61128980088E+01 -0.17116133422E+02  0.32022668299E+02  0.36820929244E+02  0.00000000000E+00 0.  1.
         11    1    4    4    0    0  0.25028073864E+00  0.81834984869E+01 -0.27321943538E+02  0.28522287546E+02  0.51100000000E-03 0. -1.
        -11    1    4    4    0    0  0.14699078645E+02  0.63160150036E+01 -0.45296256240E+01  0.16627461234E+02  0.51100000000E-03 0.  1.
         12    1    4    4    0    0 -0.88364613745E+01  0.26166199317E+01 -0.17109913741E+00  0.92173219758E+01  0.00000000000E+00 0. -1.
</event>
<event>
 8    1  0.2466538E-006  0.9118800E+02  0.7816164E-02  0.1184000E+00
        -11   -1    0    0    0    0  0.00000000000E+00  0.00000000000E+00  0.45593999997E+02  0.45594000000E+02  0.51100000000E-03 0.  1.
         11   -1    0    0    0    0 -0.00000000000E+00 -0.00000000000E+00 -0.45593999997E+02  0.45594000000E+02  0.51100000000E-03 0. -1.
         23    2    1    2    0    0  0.44408920985E-15 -0.17763568394E-14  0.00000000000E+00  0.91188000000E+02  0.91188000000E+02 0.  0.
    9900012    2    3    3    0    0  0.25175049278E+01 -0.14802392023E+02  0.33620400178E+02  0.54367082727E+02  0.39999996694E+02 0.  0.
         12    1    3    3    0    0 -0.25175049278E+01  0.14802392023E+02 -0.33620400178E+02  0.36820917273E+02  0.00000000000E+00 0. -1.
         11    1    4    4    0    0  0.14556834286E+01 -0.12454567325E+02  0.53787815404E+01  0.13644286446E+02  0.51100000000E-03 0. -1.
        -11    1    4    4    0    0  0.67336830857E+01 -0.42025276761E+01  0.32459065423E+02  0.33415485260E+02  0.51100000000E-03 0.  1.
        -12    1    4    4    0    0 -0.56718615865E+01  0.18547029782E+01 -0.42174467847E+01  0.73073110222E+01  0.00000000000E+00 0.  1.
</event>
<event>
 8    1  0.2466538E-006  0.9118800E+02  0.7816164E-02  0.1184000E+00
        -11   -1    0    0    0    0  0.00000000000E+00  0.00000000000E+00  0.45593999997E+02  0.45594000000E+02  0.51100000000E-03 0.  1.
         11   -1    0    0    0    0 -0.00000000000E+00 -0.00000000000E+00 -0.45593999997E+02  0.45594000000E+02  0.51100000000E-03 0. -1.
         23    2    1    2    0    0  0.00000000000E+00  0.88817841970E-15 -0.71054273576E-14  0.91188000000E+02  0.91188000000E+02 0.  0.
    9900012    2    3    3    0    0 -0.13644296786E+02  0.36414708855E+01  0.34005185711E+02  0.54367084744E+02  0.40000001292E+02 0.  0.
         12    1    3    3    0    0  0.13644296786E+02 -0.36414708855E+01 -0.34005185711E+02  0.36820915256E+02  0.00000000000E+00 0. -1.
         11    1    4    4    0    0  0.51387857823E+01  0.25798835634E+01 -0.28934429398E+01  0.64369970346E+01  0.51100000000E-03 0. -1.
        -11    1    4    4    0    0 -0.14557274443E+02  0.11028312339E+02  0.15520040710E+02  0.23966843267E+02  0.51100000000E-03 0.  1.
         12    1    4    4    0    0 -0.42258081247E+01 -0.99667250173E+01  0.21378587941E+02  0.23963244443E+02  0.00000000000E+00 0. -1.
</event>
<event>
 8    1  0.2466538E-006  0.9118800E+02  0.7816164E-02  0.1184000E+00
        -11   -1    0    0    0    0  0.00000000000E+00  0.00000000000E+00  0.45593999997E+02  0.45594000000E+02  0.51100000000E-03 0. -1.
         11   -1    0    0    0    0 -0.00000000000E+00 -0.00000000000E+00 -0.45593999997E+02  0.45594000000E+02  0.51100000000E-03 0.  1.
         23    2    1    2    0    0  0.00000000000E+00 -0.35527136788E-14  0.71054273576E-14  0.91188000000E+02  0.91188000000E+02 0.  0.
    9900012    2    3    3    0    0  0.18757577307E+02 -0.71608460507E+01  0.30865119445E+02  0.54367081747E+02  0.39999994460E+02 0.  0.
        -12    1    3    3    0    0 -0.18757577307E+02  0.71608460507E+01 -0.30865119445E+02  0.36820918253E+02  0.00000000000E+00 0.  1.
         11    1    4    4    0    0  0.46994101189E+01  0.57565120144E+01 -0.30527980596E+00  0.74374109781E+01  0.51100000000E-03 0. -1.
        -11    1    4    4    0    0  0.44884969927E+00  0.38955551826E+01 -0.40245087330E+01  0.56190290119E+01  0.51100000000E-03 0.  1.
         12    1    4    4    0    0  0.13609317489E+02 -0.16812913248E+02  0.35194907984E+02  0.41310641757E+02  0.00000000000E+00 0. -1.
</event>
<event>
 8    1  0.2466538E-006  0.9118800E+02  0.7816164E-02  0.1184000E+00
        -11   -1    0    0    0    0  0.00000000000E+00  0.00000000000E+00  0.45593999997E+02  0.45594000000E+02  0.51100000000E-03 0.  1.
         11   -1    0    0    0    0 -0.00000000000E+00 -0.00000000000E+00 -0.45593999997E+02  0.45594000000E+02  0.51100000000E-03 0. -1.
         23    2    1    2    0    0  0.00000000000E+00 -0.17763568394E-14  0.35527136788E-14  0.91188000000E+02  0.91188000000E+02 0.  0.
    9900012    2    3    3    0    0 -0.31444825058E+02  0.14337330660E+02 -0.12706039142E+02  0.54367088767E+02  0.40000010461E+02 0.  0.
        -12    1    3    3    0    0  0.31444825058E+02 -0.14337330660E+02  0.12706039142E+02  0.36820911233E+02  0.00000000000E+00 0.  1.
         11    1    4    4    0    0 -0.28952916701E+00  0.11776207703E+02 -0.15781439319E+02  0.19693062795E+02  0.51100000000E-03 0. -1.
        -11    1    4    4    0    0 -0.26885943474E+02  0.72856075149E+01  0.43118891156E+01  0.28187345057E+02  0.51100000000E-03 0.  1.
        -12    1    4    4    0    0 -0.42693524168E+01 -0.47244845581E+01 -0.12364889393E+01  0.64866809152E+01  0.00000000000E+00 0.  1.
</event>
<event>
 8    1  0.2466538E-006  0.9118800E+02  0.7816164E-02  0.1184000E+00
        -11   -1    0    0    0    0  0.00000000000E+00  0.00000000000E+00  0.45593999997E+02  0.45594000000E+02  0.51100000000E-03 0. -1.
         11   -1    0    0    0    0 -0.00000000000E+00 -0.00000000000E+00 -0.45593999997E+02  0.45594000000E+02  0.51100000000E-03 0.  1.
         23    2    1    2    0    0  0.17763568394E-14  0.35527136788E-14  0.00000000000E+00  0.91188000000E+02  0.91188000000E+02 0.  0.
    9900012    2    3    3    0    0  0.10087133458E+02  0.14649786566E+02 -0.32239941174E+02  0.54367077758E+02  0.39999985365E+02 0.  0.
         12    1    3    3    0    0 -0.10087133458E+02 -0.14649786566E+02  0.32239941174E+02  0.36820922242E+02  0.00000000000E+00 0. -1.
         11    1    4    4    0    0  0.22946719814E+01  0.95615387993E+01 -0.58935276760E+01  0.11463952741E+02  0.51100000000E-03 0.  1.
        -11    1    4    4    0    0 -0.20715913299E+01 -0.12765462899E+02 -0.66242708056E+01  0.14530295855E+02  0.51100000000E-03 0. -1.
        -12    1    4    4    0    0  0.98640528067E+01  0.17853710666E+02 -0.19722142693E+02  0.28372829163E+02  0.00000000000E+00 0.  1.
</event>
<event>
 8    1  0.2466538E-006  0.9118800E+02  0.7816164E-02  0.1184000E+00
        -11   -1    0    0    0    0  0.00000000000E+00  0.00000000000E+00  0.45593999997E+02  0.45594000000E+02  0.51100000000E-03 0. -1.
         11   -1    0    0    0    0 -0.00000000000E+00 -0.00000000000E+00 -0.45593999997E+02  0.45594000000E+02  0.51100000000E-03 0.  1.
         23    2    1    2    0    0 -0.88817841970E-15  0.17763568394E-14  0.00000000000E+00  0.91188000000E+02  0.91188000000E+02 0.  0.
    9900012    2    3    3    0    0 -0.67664032259E+01 -0.92873950408E+01 -0.34982001637E+02  0.54367077173E+02  0.39999984032E+02 0.  0.
         12    1    3    3    0    0  0.67664032259E+01  0.92873950408E+01  0.34982001637E+02  0.36820922827E+02  0.00000000000E+00 0. -1.
         11    1    4    4    0    0  0.11097349709E+01 -0.63971227152E+01 -0.23260329955E+02  0.24149485308E+02  0.51100000000E-03 0. -1.
        -11    1    4    4    0    0 -0.37169855595E+01  0.10970004688E+02  0.19533367473E-01  0.11582632098E+02  0.51100000000E-03 0.  1.
        -12    1    4    4    0    0 -0.41591526373E+01 -0.13860277013E+02 -0.11741205050E+02  0.18634959768E+02  0.00000000000E+00 0.  1.
</event>
<event>
 8    1  0.2466538E-006  0.9118800E+02  0.7816164E-02  0.1184000E+00
        -11   -1    0    0    0    0  0.00000000000E+00  0.00000000000E+00  0.45593999997E+02  0.45594000000E+02  0.51100000000E-03 0. -1.
         11   -1    0    0    0    0 -0.00000000000E+00 -0.00000000000E+00 -0.45593999997E+02  0.45594000000E+02  0.51100000000E-03 0.  1.
         23    2    1    2    0    0 -0.17763568394E-14  0.00000000000E+00 -0.71054273576E-14  0.91188000000E+02  0.91188000000E+02 0.  0.
    9900012    2    3    3    0    0 -0.11146374576E+02 -0.10450799044E+01 -0.35077717122E+02  0.54367080719E+02  0.39999992115E+02 0.  0.
         12    1    3    3    0    0  0.11146374576E+02  0.10450799044E+01  0.35077717122E+02  0.36820919281E+02  0.00000000000E+00 0. -1.
         11    1    4    4    0    0 -0.22538560701E+01  0.24103877136E+01  0.44218320682E+01  0.55174663764E+01  0.51100000000E-03 0. -1.
        -11    1    4    4    0    0 -0.73381045380E+01 -0.28946237635E+01  0.13187681752E+01  0.79978606329E+01  0.51100000000E-03 0.  1.
        -12    1    4    4    0    0 -0.15544139678E+01 -0.56084385448E+00 -0.40818317365E+02  0.40851753710E+02  0.00000000000E+00 0.  1.
</event>
<event>
 8    1  0.2466538E-006  0.9118800E+02  0.7816164E-02  0.1184000E+00
        -11   -1    0    0    0    0  0.00000000000E+00  0.00000000000E+00  0.45593999997E+02  0.45594000000E+02  0.51100000000E-03 0.  1.
         11   -1    0    0    0    0 -0.00000000000E+00 -0.00000000000E+00 -0.45593999997E+02  0.45594000000E+02  0.51100000000E-03 0. -1.
         23    2    1    2    0    0  0.00000000000E+00  0.88817841970E-15  0.66613381478E-15  0.91188000000E+02  0.91188000000E+02 0.  0.
    9900012    2    3    3    0    0  0.36174555989E+02  0.68455173025E+01  0.56888280654E+00  0.54367038092E+02  0.39999894939E+02 0.  0.
         12    1    3    3    0    0 -0.36174555989E+02 -0.68455173025E+01 -0.56888280654E+00  0.36820961908E+02  0.00000000000E+00 0. -1.
         11    1    4    4    0    0  0.28107550056E+02 -0.15320890432E+01 -0.15022863648E+01  0.28189333649E+02  0.51100000000E-03 0. -1.
        -11    1    4    4    0    0  0.52454696099E+00 -0.49791798694E+01  0.82421693032E+01  0.96436889607E+01  0.51100000000E-03 0.  1.
         12    1    4    4    0    0  0.75424589722E+01  0.13356786215E+02 -0.61710001319E+01  0.16534015482E+02  0.00000000000E+00 0. -1.
</event>
<event>
 8    1  0.2466538E-006  0.9118800E+02  0.7816164E-02  0.1184000E+00
        -11   -1    0    0    0    0  0.00000000000E+00  0.00000000000E+00  0.45593999997E+02  0.45594000000E+02  0.51100000000E-03 0.  1.
         11   -1    0    0    0    0 -0.00000000000E+00 -0.00000000000E+00 -0.45593999997E+02  0.45594000000E+02  0.51100000000E-03 0. -1.
         23    2    1    2    0    0  0.17763568394E-14  0.35527136788E-14  0.00000000000E+00  0.91188000000E+02  0.91188000000E+02 0.  0.
    9900012    2    3    3    0    0 -0.15258845650E+02 -0.31617845725E+02  0.11102277372E+02  0.54367067072E+02  0.39999961003E+02 0.  0.
        -12    1    3    3    0    0  0.15258845650E+02  0.31617845725E+02 -0.11102277372E+02  0.36820932928E+02  0.00000000000E+00 0.  1.
         11    1    4    4    0    0 -0.12724860063E+02  0.43926797189E+01  0.87199780819E+01  0.16039193145E+02  0.51100000000E-03 0. -1.
        -11    1    4    4    0    0 -0.63721634237E+01 -0.17680528589E+02  0.49254019227E+01  0.19428462169E+02  0.51100000000E-03 0.  1.
        -12    1    4    4    0    0  0.38381778360E+01 -0.18329996855E+02 -0.25431026329E+01  0.18899411758E+02  0.00000000000E+00 0.  1.
</event>
<event>
 8    1  0.2466538E-006  0.9118800E+02  0.7816164E-02  0.1184000E+00
        -11   -1    0    0    0    0  0.00000000000E+00  0.00000000000E+00  0.45593999997E+02  0.45594000000E+02  0.51100000000E-03 0.  1.
         11   -1    0    0    0    0 -0.00000000000E+00 -0.00000000000E+00 -0.45593999997E+02  0.45594000000E+02  0.51100000000E-03 0. -1.
         23    2    1    2    0    0  0.17763568394E-14  0.00000000000E+00  0.00000000000E+00  0.91188000000E+02  0.91188000000E+02 0.  0.
    9900012    2    3    3    0    0  0.12977285661E+02  0.34033602328E+02  0.53929319448E+01  0.54367085488E+02  0.40000002986E+02 0.  0.
         12    1    3    3    0    0 -0.12977285661E+02 -0.34033602328E+02 -0.53929319448E+01  0.36820914512E+02  0.00000000000E+00 0. -1.
         11    1    4    4    0    0  0.25150808131E+01  0.15833010709E+02 -0.52027561778E+01  0.16854629385E+02  0.51100000000E-03 0.  1.
        -11    1    4    4    0    0  0.82972476638E+00  0.22212976588E+02 -0.56222996490E+00  0.22235576784E+02  0.51100000000E-03 0. -1.
        -12    1    4    4    0    0  0.96324800820E+01 -0.40123849693E+01  0.11157918088E+02  0.15276879319E+02  0.00000000000E+00 0.  1.
</event>
<event>
 8    1  0.2466538E-006  0.9118800E+02  0.7816164E-02  0.1184000E+00
        -11   -1    0    0    0    0  0.00000000000E+00  0.00000000000E+00  0.45593999997E+02  0.45594000000E+02  0.51100000000E-03 0.  1.
         11   -1    0    0    0    0 -0.00000000000E+00 -0.00000000000E+00 -0.45593999997E+02  0.45594000000E+02  0.51100000000E-03 0. -1.
         23    2    1    2    0    0  0.00000000000E+00  0.00000000000E+00  0.00000000000E+00  0.91188000000E+02  0.91188000000E+02 0.  0.
    9900012    2    3    3    0    0  0.19940986063E+02  0.13143758340E+02 -0.28024604966E+02  0.54367084857E+02  0.40000001548E+02 0.  0.
        -12    1    3    3    0    0 -0.19940986063E+02 -0.13143758340E+02  0.28024604966E+02  0.36820915143E+02  0.00000000000E+00 0.  1.
         11    1    4    4    0    0  0.93127474127E+01  0.32305409685E+01 -0.62406288257E+01  0.11666580807E+02  0.51100000000E-03 0. -1.
        -11    1    4    4    0    0  0.21014959147E+02  0.21409488638E+01 -0.20871589465E+02  0.29695713783E+02  0.51100000000E-03 0.  1.
        -12    1    4    4    0    0 -0.10386720497E+02  0.77722685080E+01 -0.91238667517E+00  0.13004790267E+02  0.00000000000E+00 0.  1.
</event>
<event>
 8    1  0.2466538E-006  0.9118800E+02  0.7816164E-02  0.1184000E+00
        -11   -1    0    0    0    0  0.00000000000E+00  0.00000000000E+00  0.45593999997E+02  0.45594000000E+02  0.51100000000E-03 0.  1.
         11   -1    0    0    0    0 -0.00000000000E+00 -0.00000000000E+00 -0.45593999997E+02  0.45594000000E+02  0.51100000000E-03 0. -1.
         23    2    1    2    0    0  0.35527136788E-14  0.35527136788E-14 -0.35527136788E-14  0.91188000000E+02  0.91188000000E+02 0.  0.
    9900012    2    3    3    0    0  0.17417403671E+02  0.25971364322E+02  0.19439661334E+02  0.54367107179E+02  0.40000052435E+02 0.  0.
         12    1    3    3    0    0 -0.17417403671E+02 -0.25971364322E+02 -0.19439661334E+02  0.36820892821E+02  0.00000000000E+00 0. -1.
         11    1    4    4    0    0  0.81572966823E+01  0.85949029840E+01 -0.84256225717E+01  0.14539771747E+02  0.51100000000E-03 0. -1.
        -11    1    4    4    0    0  0.46224688934E+01 -0.42852997300E+01  0.62116081365E+01  0.88495812527E+01  0.51100000000E-03 0.  1.
         12    1    4    4    0    0  0.46376380953E+01  0.21661761068E+02  0.21653675769E+02  0.30977754179E+02  0.00000000000E+00 0. -1.
</event>
<event>
 8    1  0.2466538E-006  0.9118800E+02  0.7816164E-02  0.1184000E+00
        -11   -1    0    0    0    0  0.00000000000E+00  0.00000000000E+00  0.45593999997E+02  0.45594000000E+02  0.51100000000E-03 0.  1.
         11   -1    0    0    0    0 -0.00000000000E+00 -0.00000000000E+00 -0.45593999997E+02  0.45594000000E+02  0.51100000000E-03 0. -1.
         23    2    1    2    0    0  0.00000000000E+00 -0.88817841970E-15  0.00000000000E+00  0.91188000000E+02  0.91188000000E+02 0.  0.
    9900012    2    3    3    0    0  0.35500508377E+02  0.48354053864E+01  0.84919533211E+01  0.54367075086E+02  0.39999979274E+02 0.  0.
         12    1    3    3    0    0 -0.35500508377E+02 -0.48354053864E+01 -0.84919533211E+01  0.36820924914E+02  0.00000000000E+00 0. -1.
         11    1    4    4    0    0  0.18722551879E+02  0.34832813051E+01  0.20108221283E+02  0.27694904964E+02  0.51100000000E-03 0. -1.
        -11    1    4    4    0    0 -0.24108215851E+01  0.25350826161E+00  0.19793051005E+01  0.31295328878E+01  0.51100000000E-03 0.  1.
        -12    1    4    4    0    0  0.19188778084E+02  0.10986158197E+01 -0.13595573063E+02  0.23542637235E+02  0.00000000000E+00 0.  1.
</event>
<event>
 8    1  0.2466538E-006  0.9118800E+02  0.7816164E-02  0.1184000E+00
        -11   -1    0    0    0    0  0.00000000000E+00  0.00000000000E+00  0.45593999997E+02  0.45594000000E+02  0.51100000000E-03 0.  1.
         11   -1    0    0    0    0 -0.00000000000E+00 -0.00000000000E+00 -0.45593999997E+02  0.45594000000E+02  0.51100000000E-03 0. -1.
         23    2    1    2    0    0  0.15543122345E-14 -0.71054273576E-14 -0.17763568394E-14  0.91188000000E+02  0.91188000000E+02 0.  0.
    9900012    2    3    3    0    0  0.19099560449E+01 -0.35886773631E+02 -0.80166713230E+01  0.54367143508E+02  0.40000135254E+02 0.  0.
        -12    1    3    3    0    0 -0.19099560449E+01  0.35886773631E+02  0.80166713230E+01  0.36820856492E+02  0.00000000000E+00 0.  1.
         11    1    4    4    0    0  0.25653065081E+01 -0.20956600724E+02 -0.48913003785E+01  0.21672211032E+02  0.51100000000E-03 0. -1.
        -11    1    4    4    0    0 -0.10811496657E+02 -0.87740300317E+01  0.83042922335E+01  0.16212135353E+02  0.51100000000E-03 0.  1.
        -12    1    4    4    0    0  0.10156146193E+02 -0.61561428754E+01 -0.11429663178E+02  0.16482797122E+02  0.00000000000E+00 0.  1.
</event>
<event>
 8    1  0.2466538E-006  0.9118800E+02  0.7816164E-02  0.1184000E+00
        -11   -1    0    0    0    0  0.00000000000E+00  0.00000000000E+00  0.45593999997E+02  0.45594000000E+02  0.51100000000E-03 0.  1.
         11   -1    0    0    0    0 -0.00000000000E+00 -0.00000000000E+00 -0.45593999997E+02  0.45594000000E+02  0.51100000000E-03 0. -1.
         23    2    1    2    0    0  0.00000000000E+00 -0.88817841970E-15  0.00000000000E+00  0.91188000000E+02  0.91188000000E+02 0.  0.
    9900012    2    3    3    0    0 -0.26029316176E+02 -0.65834488809E+01  0.25197485201E+02  0.54367077141E+02  0.39999983958E+02 0.  0.
         12    1    3    3    0    0  0.26029316176E+02  0.65834488809E+01 -0.25197485201E+02  0.36820922859E+02  0.00000000000E+00 0. -1.
         11    1    4    4    0    0 -0.13038834882E+02 -0.35134512066E+01  0.81025680304E+01  0.15748243185E+02  0.51100000000E-03 0. -1.
        -11    1    4    4    0    0 -0.96846415773E+01 -0.86737906670E+01  0.25121600328E+02  0.28286423074E+02  0.51100000000E-03 0.  1.
        -12    1    4    4    0    0 -0.33058397159E+01  0.56037929927E+01 -0.80266831568E+01  0.10332410882E+02  0.00000000000E+00 0.  1.
</event>
<event>
 8    1  0.2466538E-006  0.9118800E+02  0.7816164E-02  0.1184000E+00
        -11   -1    0    0    0    0  0.00000000000E+00  0.00000000000E+00  0.45593999997E+02  0.45594000000E+02  0.51100000000E-03 0. -1.
         11   -1    0    0    0    0 -0.00000000000E+00 -0.00000000000E+00 -0.45593999997E+02  0.45594000000E+02  0.51100000000E-03 0.  1.
         23    2    1    2    0    0  0.35527136788E-14 -0.44408920985E-15 -0.35527136788E-14  0.91188000000E+02  0.91188000000E+02 0.  0.
    9900012    2    3    3    0    0 -0.25328069967E+02  0.28423122429E+01  0.26574220569E+02  0.54367094715E+02  0.40000024022E+02 0.  0.
        -12    1    3    3    0    0  0.25328069967E+02 -0.28423122429E+01 -0.26574220569E+02  0.36820905285E+02  0.00000000000E+00 0.  1.
         11    1    4    4    0    0 -0.13920571719E+02 -0.27814427374E+01 -0.21375935896E+01  0.14355767040E+02  0.51100000000E-03 0.  1.
        -11    1    4    4    0    0  0.64898650244E+01  0.70185287688E+01  0.70496147161E+01  0.11877506557E+02  0.51100000000E-03 0. -1.
         12    1    4    4    0    0 -0.17897363272E+02 -0.13947737885E+01  0.21662199443E+02  0.28133821118E+02  0.00000000000E+00 0. -1.
</event>
<event>
 8    1  0.2466538E-006  0.9118800E+02  0.7816164E-02  0.1184000E+00
        -11   -1    0    0    0    0  0.00000000000E+00  0.00000000000E+00  0.45593999997E+02  0.45594000000E+02  0.51100000000E-03 0.  1.
         11   -1    0    0    0    0 -0.00000000000E+00 -0.00000000000E+00 -0.45593999997E+02  0.45594000000E+02  0.51100000000E-03 0. -1.
         23    2    1    2    0    0  0.11102230246E-14  0.44408920985E-15  0.71054273576E-14  0.91188000000E+02  0.91188000000E+02 0.  0.
    9900012    2    3    3    0    0  0.16085993849E+01 -0.62322314433E+00  0.36780488186E+02  0.54367077819E+02  0.39999985504E+02 0.  0.
         12    1    3    3    0    0 -0.16085993849E+01  0.62322314433E+00 -0.36780488186E+02  0.36820922181E+02  0.00000000000E+00 0. -1.
         11    1    4    4    0    0 -0.28834814554E+01  0.27707571639E+01  0.38735677501E+02  0.38941549434E+02  0.51100000000E-03 0.  1.
        -11    1    4    4    0    0  0.86098419617E+01 -0.54936493513E+01 -0.30817776327E+01  0.10668032407E+02  0.51100000000E-03 0. -1.
         12    1    4    4    0    0 -0.41177611214E+01  0.20996690431E+01  0.11265883171E+01  0.47574959778E+01  0.00000000000E+00 0. -1.
</event>
<event>
 8    1  0.2466538E-006  0.9118800E+02  0.7816164E-02  0.1184000E+00
        -11   -1    0    0    0    0  0.00000000000E+00  0.00000000000E+00  0.45593999997E+02  0.45594000000E+02  0.51100000000E-03 0. -1.
         11   -1    0    0    0    0 -0.00000000000E+00 -0.00000000000E+00 -0.45593999997E+02  0.45594000000E+02  0.51100000000E-03 0.  1.
         23    2    1    2    0    0 -0.66613381478E-15 -0.71054273576E-14  0.00000000000E+00  0.91188000000E+02  0.91188000000E+02 0.  0.
    9900012    2    3    3    0    0  0.16825460537E+01  0.33371999733E+02  0.15467993742E+02  0.54367079889E+02  0.39999990223E+02 0.  0.
         12    1    3    3    0    0 -0.16825460537E+01 -0.33371999733E+02 -0.15467993742E+02  0.36820920111E+02  0.00000000000E+00 0. -1.
         11    1    4    4    0    0 -0.10834391088E+02 -0.15340916598E+01  0.25678761416E+01  0.11239726670E+02  0.51100000000E-03 0. -1.
        -11    1    4    4    0    0  0.80496835377E+01  0.15347706045E+02 -0.29241536488E+01  0.17575555772E+02  0.51100000000E-03 0.  1.
         12    1    4    4    0    0  0.44672536042E+01  0.19558385348E+02  0.15824271249E+02  0.25551797447E+02  0.00000000000E+00 0. -1.
</event>
<event>
 8    1  0.2466538E-006  0.9118800E+02  0.7816164E-02  0.1184000E+00
        -11   -1    0    0    0    0  0.00000000000E+00  0.00000000000E+00  0.45593999997E+02  0.45594000000E+02  0.51100000000E-03 0. -1.
         11   -1    0    0    0    0 -0.00000000000E+00 -0.00000000000E+00 -0.45593999997E+02  0.45594000000E+02  0.51100000000E-03 0.  1.
         23    2    1    2    0    0  0.00000000000E+00  0.00000000000E+00  0.00000000000E+00  0.91188000000E+02  0.91188000000E+02 0.  0.
    9900012    2    3    3    0    0  0.24585157131E+02 -0.20485295545E+02  0.18212707654E+02  0.54367081966E+02  0.39999994958E+02 0.  0.
        -12    1    3    3    0    0 -0.24585157131E+02  0.20485295545E+02 -0.18212707654E+02  0.36820918034E+02  0.00000000000E+00 0.  1.
         11    1    4    4    0    0  0.54559045473E+00 -0.19178238649E+02  0.68820555461E+01  0.20382963363E+02  0.51100000000E-03 0.  1.
        -11    1    4    4    0    0  0.86003445267E+01  0.97073719330E+01  0.59589882904E+01  0.14272649983E+02  0.51100000000E-03 0. -1.
         12    1    4    4    0    0  0.15439222150E+02 -0.11014428829E+02  0.53716638180E+01  0.19711468621E+02  0.00000000000E+00 0. -1.
</event>
<event>
 8    1  0.2466538E-006  0.9118800E+02  0.7816164E-02  0.1184000E+00
        -11   -1    0    0    0    0  0.00000000000E+00  0.00000000000E+00  0.45593999997E+02  0.45594000000E+02  0.51100000000E-03 0. -1.
         11   -1    0    0    0    0 -0.00000000000E+00 -0.00000000000E+00 -0.45593999997E+02  0.45594000000E+02  0.51100000000E-03 0.  1.
         23    2    1    2    0    0  0.44408920985E-15  0.00000000000E+00  0.00000000000E+00  0.91188000000E+02  0.91188000000E+02 0.  0.
    9900012    2    3    3    0    0  0.28787899693E+01 -0.25890805101E+02 -0.26022276408E+02  0.54367080811E+02  0.39999992325E+02 0.  0.
         12    1    3    3    0    0 -0.28787899693E+01  0.25890805101E+02  0.26022276408E+02  0.36820919189E+02  0.00000000000E+00 0. -1.
         11    1    4    4    0    0  0.10134356332E+02 -0.20629354330E+02 -0.19254357224E+02  0.29983423932E+02  0.51100000000E-03 0. -1.
        -11    1    4    4    0    0  0.19437698394E+01 -0.47671088392E+01 -0.12510130982E+02  0.13528005962E+02  0.51100000000E-03 0.  1.
        -12    1    4    4    0    0 -0.91993362018E+01 -0.49434193151E+00  0.57422117977E+01  0.10855650917E+02  0.00000000000E+00 0.  1.
</event>
<event>
 8    1  0.2466538E-006  0.9118800E+02  0.7816164E-02  0.1184000E+00
        -11   -1    0    0    0    0  0.00000000000E+00  0.00000000000E+00  0.45593999997E+02  0.45594000000E+02  0.51100000000E-03 0.  1.
         11   -1    0    0    0    0 -0.00000000000E+00 -0.00000000000E+00 -0.45593999997E+02  0.45594000000E+02  0.51100000000E-03 0. -1.
         23    2    1    2    0    0  0.00000000000E+00  0.35527136788E-14  0.00000000000E+00  0.91188000000E+02  0.91188000000E+02 0.  0.
    9900012    2    3    3    0    0  0.27216355874E+02 -0.18577422741E+02  0.16429679531E+02  0.54367013698E+02  0.39999839326E+02 0.  0.
         12    1    3    3    0    0 -0.27216355874E+02  0.18577422741E+02 -0.16429679531E+02  0.36820986302E+02  0.00000000000E+00 0. -1.
         11    1    4    4    0    0  0.21087432782E+01 -0.23450230096E+01  0.60679553238E+01  0.68385680666E+01  0.51100000000E-03 0. -1.
        -11    1    4    4    0    0  0.26124228268E+02 -0.19705462040E+02  0.19226757464E+02  0.37953244126E+02  0.51100000000E-03 0.  1.
         12    1    4    4    0    0 -0.10166156722E+01  0.34730623088E+01 -0.88650332564E+01  0.95752015051E+01  0.00000000000E+00 0. -1.
</event>
<event>
 8    1  0.2466538E-006  0.9118800E+02  0.7816164E-02  0.1184000E+00
        -11   -1    0    0    0    0  0.00000000000E+00  0.00000000000E+00  0.45593999997E+02  0.45594000000E+02  0.51100000000E-03 0. -1.
         11   -1    0    0    0    0 -0.00000000000E+00 -0.00000000000E+00 -0.45593999997E+02  0.45594000000E+02  0.51100000000E-03 0.  1.
         23    2    1    2    0    0  0.00000000000E+00  0.35527136788E-14  0.00000000000E+00  0.91188000000E+02  0.91188000000E+02 0.  0.
    9900012    2    3    3    0    0 -0.21144948587E+02 -0.22219875301E+02 -0.20370314718E+02  0.54367062602E+02  0.39999950815E+02 0.  0.
         12    1    3    3    0    0  0.21144948587E+02  0.22219875301E+02  0.20370314718E+02  0.36820937398E+02  0.00000000000E+00 0. -1.
         11    1    4    4    0    0 -0.75611454108E+01 -0.98056021697E+01  0.12448959719E+01  0.12444698473E+02  0.51100000000E-03 0. -1.
        -11    1    4    4    0    0  0.41648074514E+01 -0.13149491395E+02  0.19338930067E+00  0.13794641885E+02  0.51100000000E-03 0.  1.
        -12    1    4    4    0    0 -0.17748610628E+02  0.73521826424E+00 -0.21808599991E+02  0.28127722244E+02  0.00000000000E+00 0.  1.
</event>
<event>
 8    1  0.2466538E-006  0.9118800E+02  0.7816164E-02  0.1184000E+00
        -11   -1    0    0    0    0  0.00000000000E+00  0.00000000000E+00  0.45593999997E+02  0.45594000000E+02  0.51100000000E-03 0.  1.
         11   -1    0    0    0    0 -0.00000000000E+00 -0.00000000000E+00 -0.45593999997E+02  0.45594000000E+02  0.51100000000E-03 0. -1.
         23    2    1    2    0    0  0.88817841970E-15  0.00000000000E+00  0.35527136788E-14  0.91188000000E+02  0.91188000000E+02 0.  0.
    9900012    2    3    3    0    0 -0.75789949955E+01  0.20890947399E+02  0.29358225945E+02  0.54367105402E+02  0.40000048384E+02 0.  0.
         12    1    3    3    0    0  0.75789949955E+01 -0.20890947399E+02 -0.29358225945E+02  0.36820894598E+02  0.00000000000E+00 0. -1.
         11    1    4    4    0    0 -0.16747707770E+02 -0.17460797537E+00  0.80878816064E+01  0.18599194408E+02  0.51100000000E-03 0. -1.
        -11    1    4    4    0    0  0.83699607370E+00  0.20217221842E+02  0.16643178899E+02  0.26199847816E+02  0.51100000000E-03 0.  1.
        -12    1    4    4    0    0  0.83317167010E+01  0.84833353262E+00  0.46271654393E+01  0.95680631776E+01  0.00000000000E+00 0.  1.
</event>
<event>
 8    1  0.2466538E-006  0.9118800E+02  0.7816164E-02  0.1184000E+00
        -11   -1    0    0    0    0  0.00000000000E+00  0.00000000000E+00  0.45593999997E+02  0.45594000000E+02  0.51100000000E-03 0.  1.
         11   -1    0    0    0    0 -0.00000000000E+00 -0.00000000000E+00 -0.45593999997E+02  0.45594000000E+02  0.51100000000E-03 0. -1.
         23    2    1    2    0    0  0.00000000000E+00  0.00000000000E+00 -0.88817841970E-15  0.91188000000E+02  0.91188000000E+02 0.  0.
    9900012    2    3    3    0    0 -0.32967194303E+02 -0.15099942745E+02  0.63981156349E+01  0.54367081288E+02  0.39999993413E+02 0.  0.
         12    1    3    3    0    0  0.32967194303E+02  0.15099942745E+02 -0.63981156349E+01  0.36820918712E+02  0.00000000000E+00 0. -1.
         11    1    4    4    0    0 -0.24558667490E+01  0.97786554765E+01  0.47755391803E+01  0.11156126529E+02  0.51100000000E-03 0. -1.
        -11    1    4    4    0    0 -0.63603265346E+01 -0.48226042961E+01  0.78623811047E+01  0.11203941392E+02  0.51100000000E-03 0.  1.
         12    1    4    4    0    0 -0.24151001019E+02 -0.20055993925E+02 -0.62398046502E+01  0.32007013366E+02  0.00000000000E+00 0. -1.
</event>
<event>
 8    1  0.2466538E-006  0.9118800E+02  0.7816164E-02  0.1184000E+00
        -11   -1    0    0    0    0  0.00000000000E+00  0.00000000000E+00  0.45593999997E+02  0.45594000000E+02  0.51100000000E-03 0. -1.
         11   -1    0    0    0    0 -0.00000000000E+00 -0.00000000000E+00 -0.45593999997E+02  0.45594000000E+02  0.51100000000E-03 0.  1.
         23    2    1    2    0    0  0.88817841970E-15 -0.71054273576E-14  0.16653345369E-15  0.91188000000E+02  0.91188000000E+02 0.  0.
    9900012    2    3    3    0    0  0.79768348609E+01 -0.35943173179E+02  0.48812681909E+00  0.54367083928E+02  0.39999999431E+02 0.  0.
         12    1    3    3    0    0 -0.79768348609E+01  0.35943173179E+02 -0.48812681909E+00  0.36820916072E+02  0.00000000000E+00 0. -1.
         11    1    4    4    0    0 -0.13434091008E+02 -0.25466974819E+02  0.48722613845E+01  0.29202406389E+02  0.51100000000E-03 0. -1.
        -11    1    4    4    0    0  0.25358701427E+01 -0.20842575657E+01 -0.30244961272E+01  0.44634453133E+01  0.51100000000E-03 0.  1.
         12    1    4    4    0    0  0.18875055727E+02 -0.83919407945E+01 -0.13596384381E+01  0.20701232226E+02  0.00000000000E+00 0. -1.
</event>
<event>
 8    1  0.2466538E-006  0.9118800E+02  0.7816164E-02  0.1184000E+00
        -11   -1    0    0    0    0  0.00000000000E+00  0.00000000000E+00  0.45593999997E+02  0.45594000000E+02  0.51100000000E-03 0. -1.
         11   -1    0    0    0    0 -0.00000000000E+00 -0.00000000000E+00 -0.45593999997E+02  0.45594000000E+02  0.51100000000E-03 0.  1.
         23    2    1    2    0    0  0.35527136788E-14 -0.88817841970E-15 -0.71054273576E-14  0.91188000000E+02  0.91188000000E+02 0.  0.
    9900012    2    3    3    0    0  0.14113109746E+02 -0.51215818827E+01 -0.33620975231E+02  0.54367076015E+02  0.39999981391E+02 0.  0.
         12    1    3    3    0    0 -0.14113109746E+02  0.51215818827E+01  0.33620975231E+02  0.36820923985E+02  0.00000000000E+00 0. -1.
         11    1    4    4    0    0 -0.35625881911E+01  0.78971152046E+01 -0.14436066608E+01  0.87829643985E+01  0.51100000000E-03 0. -1.
        -11    1    4    4    0    0 -0.18217040308E-01 -0.63500879788E+01 -0.24272546474E+02  0.25089449213E+02  0.51100000000E-03 0.  1.
        -12    1    4    4    0    0  0.17693914977E+02 -0.66686091084E+01 -0.79048220955E+01  0.20494662403E+02  0.00000000000E+00 0.  1.
</event>
<event>
 8    1  0.2466538E-006  0.9118800E+02  0.7816164E-02  0.1184000E+00
        -11   -1    0    0    0    0  0.00000000000E+00  0.00000000000E+00  0.45593999997E+02  0.45594000000E+02  0.51100000000E-03 0. -1.
         11   -1    0    0    0    0 -0.00000000000E+00 -0.00000000000E+00 -0.45593999997E+02  0.45594000000E+02  0.51100000000E-03 0.  1.
         23    2    1    2    0    0 -0.17763568394E-14  0.00000000000E+00  0.71054273576E-14  0.91188000000E+02  0.91188000000E+02 0.  0.
    9900012    2    3    3    0    0  0.15994517470E+02  0.20099235924E+02 -0.26381351432E+02  0.54367087773E+02  0.40000008197E+02 0.  0.
        -12    1    3    3    0    0 -0.15994517470E+02 -0.20099235924E+02  0.26381351432E+02  0.36820912227E+02  0.00000000000E+00 0.  1.
         11    1    4    4    0    0  0.59071159955E+00  0.20356412474E+02 -0.23238616023E+02  0.30899283874E+02  0.51100000000E-03 0. -1.
        -11    1    4    4    0    0  0.23582115943E+00  0.62080934947E+01  0.13931835781E+01  0.63668671418E+01  0.51100000000E-03 0.  1.
        -12    1    4    4    0    0  0.15167984711E+02 -0.64652700441E+01 -0.45359189874E+01  0.17100936758E+02  0.00000000000E+00 0.  1.
</event>
<event>
 8    1  0.2466538E-006  0.9118800E+02  0.7816164E-02  0.1184000E+00
        -11   -1    0    0    0    0  0.00000000000E+00  0.00000000000E+00  0.45593999997E+02  0.45594000000E+02  0.51100000000E-03 0.  1.
         11   -1    0    0    0    0 -0.00000000000E+00 -0.00000000000E+00 -0.45593999997E+02  0.45594000000E+02  0.51100000000E-03 0. -1.
         23    2    1    2    0    0  0.00000000000E+00  0.00000000000E+00  0.88817841970E-15  0.91188000000E+02  0.91188000000E+02 0.  0.
    9900012    2    3    3    0    0 -0.87903322050E+01  0.35525677928E+02 -0.40541076578E+01  0.54367088531E+02  0.40000009923E+02 0.  0.
        -12    1    3    3    0    0  0.87903322050E+01 -0.35525677928E+02  0.40541076578E+01  0.36820911469E+02  0.00000000000E+00 0.  1.
         11    1    4    4    0    0 -0.64652919512E+01  0.43874503585E+01 -0.61320192318E+01  0.99323401463E+01  0.51100000000E-03 0. -1.
        -11    1    4    4    0    0  0.55334466962E+01  0.22032815446E+02  0.14653664424E+02  0.27033199406E+02  0.51100000000E-03 0.  1.
        -12    1    4    4    0    0 -0.78584869500E+01  0.91054121233E+01 -0.12575752850E+02  0.17401548978E+02  0.00000000000E+00 0.  1.
</event>
<event>
 8    1  0.2466538E-006  0.9118800E+02  0.7816164E-02  0.1184000E+00
        -11   -1    0    0    0    0  0.00000000000E+00  0.00000000000E+00  0.45593999997E+02  0.45594000000E+02  0.51100000000E-03 0.  1.
         11   -1    0    0    0    0 -0.00000000000E+00 -0.00000000000E+00 -0.45593999997E+02  0.45594000000E+02  0.51100000000E-03 0. -1.
         23    2    1    2    0    0 -0.88817841970E-15  0.00000000000E+00 -0.35527136788E-14  0.91188000000E+02  0.91188000000E+02 0.  0.
    9900012    2    3    3    0    0  0.75782264307E+01 -0.18690476467E+02  0.30806102260E+02  0.54367090684E+02  0.40000014832E+02 0.  0.
         12    1    3    3    0    0 -0.75782264307E+01  0.18690476467E+02 -0.30806102260E+02  0.36820909316E+02  0.00000000000E+00 0. -1.
         11    1    4    4    0    0  0.96904099348E+00  0.96447326846E+01  0.19373221822E+02  0.21662909155E+02  0.51100000000E-03 0.  1.
        -11    1    4    4    0    0  0.22098161523E+01 -0.58791928590E+01  0.69840561983E+01  0.93928290383E+01  0.51100000000E-03 0. -1.
         12    1    4    4    0    0  0.43993692849E+01 -0.22456016293E+02  0.44488242396E+01  0.23311352491E+02  0.00000000000E+00 0. -1.
</event>
<event>
 8    1  0.2466538E-006  0.9118800E+02  0.7816164E-02  0.1184000E+00
        -11   -1    0    0    0    0  0.00000000000E+00  0.00000000000E+00  0.45593999997E+02  0.45594000000E+02  0.51100000000E-03 0. -1.
         11   -1    0    0    0    0 -0.00000000000E+00 -0.00000000000E+00 -0.45593999997E+02  0.45594000000E+02  0.51100000000E-03 0.  1.
         23    2    1    2    0    0  0.00000000000E+00  0.00000000000E+00  0.00000000000E+00  0.91188000000E+02  0.91188000000E+02 0.  0.
    9900012    2    3    3    0    0  0.32060864730E+02 -0.12344853877E+02  0.13247063378E+02  0.54367093538E+02  0.40000021339E+02 0.  0.
        -12    1    3    3    0    0 -0.32060864730E+02  0.12344853877E+02 -0.13247063378E+02  0.36820906462E+02  0.00000000000E+00 0.  1.
         11    1    4    4    0    0  0.16210823854E+02 -0.14397021484E+02 -0.58676262044E+01  0.22460945554E+02  0.51100000000E-03 0. -1.
        -11    1    4    4    0    0  0.20113895672E+01  0.65172001136E+01 -0.11982156479E+01  0.69249769900E+01  0.51100000000E-03 0.  1.
         12    1    4    4    0    0  0.13838651309E+02 -0.44650325065E+01  0.20312905231E+02  0.24981170994E+02  0.00000000000E+00 0. -1.
</event>
<event>
 8    1  0.2466538E-006  0.9118800E+02  0.7816164E-02  0.1184000E+00
        -11   -1    0    0    0    0  0.00000000000E+00  0.00000000000E+00  0.45593999997E+02  0.45594000000E+02  0.51100000000E-03 0.  1.
         11   -1    0    0    0    0 -0.00000000000E+00 -0.00000000000E+00 -0.45593999997E+02  0.45594000000E+02  0.51100000000E-03 0. -1.
         23    2    1    2    0    0 -0.35527136788E-14  0.00000000000E+00  0.35527136788E-14  0.91188000000E+02  0.91188000000E+02 0.  0.
    9900012    2    3    3    0    0  0.22431220599E+02 -0.65110438114E+01 -0.28464492059E+02  0.54367073107E+02  0.39999974762E+02 0.  0.
        -12    1    3    3    0    0 -0.22431220599E+02  0.65110438114E+01  0.28464492059E+02  0.36820926893E+02  0.00000000000E+00 0.  1.
         11    1    4    4    0    0  0.84439272907E+01 -0.73543230314E+01 -0.22308307423E+02  0.24960900538E+02  0.51100000000E-03 0. -1.
        -11    1    4    4    0    0  0.47576307849E+00 -0.66883146120E+01 -0.11270068890E+02  0.13113899340E+02  0.51100000000E-03 0.  1.
        -12    1    4    4    0    0  0.13511530230E+02  0.75315938320E+01  0.51138842540E+01  0.16292273229E+02  0.00000000000E+00 0.  1.
</event>
<event>
 8    1  0.2466538E-006  0.9118800E+02  0.7816164E-02  0.1184000E+00
        -11   -1    0    0    0    0  0.00000000000E+00  0.00000000000E+00  0.45593999997E+02  0.45594000000E+02  0.51100000000E-03 0. -1.
         11   -1    0    0    0    0 -0.00000000000E+00 -0.00000000000E+00 -0.45593999997E+02  0.45594000000E+02  0.51100000000E-03 0.  1.
         23    2    1    2    0    0 -0.35527136788E-14 -0.11102230246E-14 -0.71054273576E-14  0.91188000000E+02  0.91188000000E+02 0.  0.
    9900012    2    3    3    0    0 -0.24141170729E+02 -0.12013592674E+01 -0.27776639266E+02  0.54367067405E+02  0.39999961763E+02 0.  0.
         12    1    3    3    0    0  0.24141170729E+02  0.12013592674E+01  0.27776639266E+02  0.36820932595E+02  0.00000000000E+00 0. -1.
         11    1    4    4    0    0  0.53971767455E+01  0.27280064741E+01 -0.11733588162E+02  0.13200326797E+02  0.51100000000E-03 0. -1.
        -11    1    4    4    0    0 -0.19515670841E+01  0.59513495638E+01 -0.91092648420E+01  0.11054676926E+02  0.51100000000E-03 0.  1.
        -12    1    4    4    0    0 -0.27586780390E+02 -0.98807153053E+01 -0.69337862626E+01  0.30112063682E+02  0.00000000000E+00 0.  1.
</event>
<event>
 8    1  0.2466538E-006  0.9118800E+02  0.7816164E-02  0.1184000E+00
        -11   -1    0    0    0    0  0.00000000000E+00  0.00000000000E+00  0.45593999997E+02  0.45594000000E+02  0.51100000000E-03 0.  1.
         11   -1    0    0    0    0 -0.00000000000E+00 -0.00000000000E+00 -0.45593999997E+02  0.45594000000E+02  0.51100000000E-03 0. -1.
         23    2    1    2    0    0  0.00000000000E+00 -0.35527136788E-14  0.35527136788E-14  0.91188000000E+02  0.91188000000E+02 0.  0.
    9900012    2    3    3    0    0 -0.29476695498E+02 -0.12950425704E+02  0.17865834884E+02  0.54367120604E+02  0.40000083040E+02 0.  0.
         12    1    3    3    0    0  0.29476695498E+02  0.12950425704E+02 -0.17865834884E+02  0.36820879396E+02  0.00000000000E+00 0. -1.
         11    1    4    4    0    0 -0.19659657274E+01 -0.36318614736E+01  0.19821730866E+01  0.45808786724E+01  0.51100000000E-03 0. -1.
        -11    1    4    4    0    0  0.21883846181E+01  0.10167416830E+02 -0.10164528166E+01  0.10449811904E+02  0.51100000000E-03 0.  1.
        -12    1    4    4    0    0 -0.29699114389E+02 -0.19485981060E+02  0.16900114614E+02  0.39336430028E+02  0.00000000000E+00 0.  1.
</event>
<event>
 8    1  0.2466538E-006  0.9118800E+02  0.7816164E-02  0.1184000E+00
        -11   -1    0    0    0    0  0.00000000000E+00  0.00000000000E+00  0.45593999997E+02  0.45594000000E+02  0.51100000000E-03 0.  1.
         11   -1    0    0    0    0 -0.00000000000E+00 -0.00000000000E+00 -0.45593999997E+02  0.45594000000E+02  0.51100000000E-03 0. -1.
         23    2    1    2    0    0 -0.88817841970E-15 -0.17763568394E-14  0.71054273576E-14  0.91188000000E+02  0.91188000000E+02 0.  0.
    9900012    2    3    3    0    0  0.43826660502E+01  0.11874497203E+02 -0.34576989997E+02  0.54367086339E+02  0.40000004928E+02 0.  0.
        -12    1    3    3    0    0 -0.43826660502E+01 -0.11874497203E+02  0.34576989997E+02  0.36820913661E+02  0.00000000000E+00 0.  1.
         11    1    4    4    0    0 -0.14063072800E+01  0.17619804896E+02 -0.28445517942E+02  0.33490039056E+02  0.51100000000E-03 0. -1.
        -11    1    4    4    0    0  0.79653648974E+01 -0.74800412975E+01 -0.10850092708E+02  0.15398784621E+02  0.51100000000E-03 0.  1.
        -12    1    4    4    0    0 -0.21763915672E+01  0.17347336049E+01  0.47186206529E+01  0.54782626625E+01  0.00000000000E+00 0.  1.
</event>
<event>
 8    1  0.2466538E-006  0.9118800E+02  0.7816164E-02  0.1184000E+00
        -11   -1    0    0    0    0  0.00000000000E+00  0.00000000000E+00  0.45593999997E+02  0.45594000000E+02  0.51100000000E-03 0.  1.
         11   -1    0    0    0    0 -0.00000000000E+00 -0.00000000000E+00 -0.45593999997E+02  0.45594000000E+02  0.51100000000E-03 0. -1.
         23    2    1    2    0    0  0.00000000000E+00 -0.17763568394E-14  0.00000000000E+00  0.91188000000E+02  0.91188000000E+02 0.  0.
    9900012    2    3    3    0    0  0.92947438269E+01  0.13176436642E+02 -0.33102416938E+02  0.54367071813E+02  0.39999971812E+02 0.  0.
        -12    1    3    3    0    0 -0.92947438269E+01 -0.13176436642E+02  0.33102416938E+02  0.36820928187E+02  0.00000000000E+00 0.  1.
         11    1    4    4    0    0  0.11379980005E+02  0.87023145259E+01 -0.12061848447E+02  0.18727584234E+02  0.51100000000E-03 0. -1.
        -11    1    4    4    0    0  0.87959448701E+01  0.72833716368E+01 -0.21551154080E+02  0.24389923965E+02  0.51100000000E-03 0.  1.
        -12    1    4    4    0    0 -0.10881181048E+02 -0.28092495204E+01  0.51058558896E+00  0.11249563614E+02  0.00000000000E+00 0.  1.
</event>
<event>
 8    1  0.2466538E-006  0.9118800E+02  0.7816164E-02  0.1184000E+00
        -11   -1    0    0    0    0  0.00000000000E+00  0.00000000000E+00  0.45593999997E+02  0.45594000000E+02  0.51100000000E-03 0. -1.
         11   -1    0    0    0    0 -0.00000000000E+00 -0.00000000000E+00 -0.45593999997E+02  0.45594000000E+02  0.51100000000E-03 0.  1.
         23    2    1    2    0    0  0.00000000000E+00  0.00000000000E+00 -0.35527136788E-14  0.91188000000E+02  0.91188000000E+02 0.  0.
    9900012    2    3    3    0    0  0.20394065575E+02 -0.20091889078E+02  0.23155508219E+02  0.54367089116E+02  0.40000011259E+02 0.  0.
        -12    1    3    3    0    0 -0.20394065575E+02  0.20091889078E+02 -0.23155508219E+02  0.36820910884E+02  0.00000000000E+00 0.  1.
         11    1    4    4    0    0  0.50173485310E+01 -0.13187523270E+02  0.24810810537E+02  0.28542264733E+02  0.51100000000E-03 0. -1.
        -11    1    4    4    0    0  0.80877724138E+01 -0.38202758196E+01  0.89091246729E+01  0.12624542473E+02  0.51100000000E-03 0.  1.
        -12    1    4    4    0    0  0.72889446297E+01 -0.30840899886E+01 -0.10564426991E+02  0.13200281911E+02  0.00000000000E+00 0.  1.
</event>
<event>
 8    1  0.2466538E-006  0.9118800E+02  0.7816164E-02  0.1184000E+00
        -11   -1    0    0    0    0  0.00000000000E+00  0.00000000000E+00  0.45593999997E+02  0.45594000000E+02  0.51100000000E-03 0. -1.
         11   -1    0    0    0    0 -0.00000000000E+00 -0.00000000000E+00 -0.45593999997E+02  0.45594000000E+02  0.51100000000E-03 0.  1.
         23    2    1    2    0    0  0.00000000000E+00  0.71054273576E-14  0.35527136788E-14  0.91188000000E+02  0.91188000000E+02 0.  0.
    9900012    2    3    3    0    0  0.22278432909E+02 -0.21254127529E+02  0.20191873335E+02  0.54367105678E+02  0.40000049013E+02 0.  0.
        -12    1    3    3    0    0 -0.22278432909E+02  0.21254127529E+02 -0.20191873335E+02  0.36820894322E+02  0.00000000000E+00 0.  1.
         11    1    4    4    0    0  0.14288573205E+02 -0.26174066100E+02  0.16931967211E+02  0.34291931621E+02  0.51100000000E-03 0. -1.
        -11    1    4    4    0    0 -0.48823250790E+01  0.44698650824E+01  0.27990080226E+01  0.71868795874E+01  0.51100000000E-03 0.  1.
        -12    1    4    4    0    0  0.12872184784E+02  0.45007348821E+00  0.46089810081E+00  0.12888294469E+02  0.00000000000E+00 0.  1.
</event>
<event>
 8    1  0.2466538E-006  0.9118800E+02  0.7816164E-02  0.1184000E+00
        -11   -1    0    0    0    0  0.00000000000E+00  0.00000000000E+00  0.45593999997E+02  0.45594000000E+02  0.51100000000E-03 0. -1.
         11   -1    0    0    0    0 -0.00000000000E+00 -0.00000000000E+00 -0.45593999997E+02  0.45594000000E+02  0.51100000000E-03 0.  1.
         23    2    1    2    0    0 -0.13322676296E-14  0.00000000000E+00  0.00000000000E+00  0.91188000000E+02  0.91188000000E+02 0.  0.
    9900012    2    3    3    0    0  0.36823233777E+01 -0.26578319882E+02 -0.25215368853E+02  0.54367062755E+02  0.39999951162E+02 0.  0.
         12    1    3    3    0    0 -0.36823233777E+01  0.26578319882E+02  0.25215368853E+02  0.36820937245E+02  0.00000000000E+00 0. -1.
         11    1    4    4    0    0 -0.10221260762E+02 -0.23093041501E+02 -0.71829967937E+01  0.26255631406E+02  0.51100000000E-03 0. -1.
        -11    1    4    4    0    0  0.41162040884E+01 -0.82329400283E+01 -0.32576038329E+01  0.97640371056E+01  0.51100000000E-03 0.  1.
         12    1    4    4    0    0  0.97873800519E+01  0.47476616465E+01 -0.14774768226E+02  0.18347394244E+02  0.00000000000E+00 0. -1.
</event>
<event>
 8    1  0.2466538E-006  0.9118800E+02  0.7816164E-02  0.1184000E+00
        -11   -1    0    0    0    0  0.00000000000E+00  0.00000000000E+00  0.45593999997E+02  0.45594000000E+02  0.51100000000E-03 0. -1.
         11   -1    0    0    0    0 -0.00000000000E+00 -0.00000000000E+00 -0.45593999997E+02  0.45594000000E+02  0.51100000000E-03 0.  1.
         23    2    1    2    0    0 -0.71054273576E-14  0.11102230246E-14  0.00000000000E+00  0.91188000000E+02  0.91188000000E+02 0.  0.
    9900012    2    3    3    0    0 -0.36780182937E+02  0.10444297769E+01 -0.13811141276E+01  0.54367079769E+02  0.39999989949E+02 0.  0.
         12    1    3    3    0    0  0.36780182937E+02 -0.10444297769E+01  0.13811141276E+01  0.36820920231E+02  0.00000000000E+00 0. -1.
         11    1    4    4    0    0  0.38424397464E+01  0.58376049630E+01 -0.98259192304E+00  0.70574401915E+01  0.51100000000E-03 0. -1.
        -11    1    4    4    0    0  0.10329228192E+01  0.45025238944E+01 -0.30265973330E+00  0.46293902563E+01  0.51100000000E-03 0.  1.
        -12    1    4    4    0    0 -0.41655545502E+02 -0.92956990805E+01 -0.95862471225E-01  0.42680249321E+02  0.00000000000E+00 0.  1.
</event>
<event>
 8    1  0.2466538E-006  0.9118800E+02  0.7816164E-02  0.1184000E+00
        -11   -1    0    0    0    0  0.00000000000E+00  0.00000000000E+00  0.45593999997E+02  0.45594000000E+02  0.51100000000E-03 0.  1.
         11   -1    0    0    0    0 -0.00000000000E+00 -0.00000000000E+00 -0.45593999997E+02  0.45594000000E+02  0.51100000000E-03 0. -1.
         23    2    1    2    0    0  0.00000000000E+00  0.17763568394E-14  0.88817841970E-15  0.91188000000E+02  0.91188000000E+02 0.  0.
    9900012    2    3    3    0    0  0.33464142679E+02  0.14895543246E+02 -0.37486633395E+01  0.54367101984E+02  0.40000040594E+02 0.  0.
         12    1    3    3    0    0 -0.33464142679E+02 -0.14895543246E+02  0.37486633395E+01  0.36820898016E+02  0.00000000000E+00 0. -1.
         11    1    4    4    0    0 -0.50697631415E+01  0.20259449127E+00 -0.15472469453E+00  0.50761681247E+01  0.51100000000E-03 0. -1.
        -11    1    4    4    0    0  0.27653259451E+02  0.19747060875E+02  0.52540289813E+01  0.34383920548E+02  0.51100000000E-03 0.  1.
        -12    1    4    4    0    0  0.10880646370E+02 -0.50541121205E+01 -0.88479676263E+01  0.14907013311E+02  0.00000000000E+00 0.  1.
</event>
<event>
 8    1  0.2466538E-006  0.9118800E+02  0.7816164E-02  0.1184000E+00
        -11   -1    0    0    0    0  0.00000000000E+00  0.00000000000E+00  0.45593999997E+02  0.45594000000E+02  0.51100000000E-03 0.  1.
         11   -1    0    0    0    0 -0.00000000000E+00 -0.00000000000E+00 -0.45593999997E+02  0.45594000000E+02  0.51100000000E-03 0. -1.
         23    2    1    2    0    0  0.00000000000E+00  0.00000000000E+00  0.00000000000E+00  0.91188000000E+02  0.91188000000E+02 0.  0.
    9900012    2    3    3    0    0  0.35842299661E+01 -0.35650919538E+02 -0.84820930617E+01  0.54367072920E+02  0.39999974335E+02 0.  0.
        -12    1    3    3    0    0 -0.35842299661E+01  0.35650919538E+02  0.84820930617E+01  0.36820927080E+02  0.00000000000E+00 0.  1.
         11    1    4    4    0    0 -0.12432292097E+02 -0.28214754164E+02 -0.20579060079E+01  0.30900958184E+02  0.51100000000E-03 0. -1.
        -11    1    4    4    0    0  0.14292218289E+02 -0.11207830929E+02 -0.37923748122E+01  0.18554381820E+02  0.51100000000E-03 0.  1.
         12    1    4    4    0    0  0.17243037731E+01  0.37716655543E+01 -0.26318122415E+01  0.49117329152E+01  0.00000000000E+00 0. -1.
</event>
<event>
 8    1  0.2466538E-006  0.9118800E+02  0.7816164E-02  0.1184000E+00
        -11   -1    0    0    0    0  0.00000000000E+00  0.00000000000E+00  0.45593999997E+02  0.45594000000E+02  0.51100000000E-03 0. -1.
         11   -1    0    0    0    0 -0.00000000000E+00 -0.00000000000E+00 -0.45593999997E+02  0.45594000000E+02  0.51100000000E-03 0.  1.
         23    2    1    2    0    0  0.00000000000E+00 -0.17763568394E-14  0.71054273576E-14  0.91188000000E+02  0.91188000000E+02 0.  0.
    9900012    2    3    3    0    0  0.12325224306E+02  0.54559141037E+01  0.34265169250E+02  0.54367082349E+02  0.39999995832E+02 0.  0.
        -12    1    3    3    0    0 -0.12325224306E+02 -0.54559141037E+01 -0.34265169250E+02  0.36820917651E+02  0.00000000000E+00 0.  1.
         11    1    4    4    0    0 -0.61138957291E+01  0.76336803207E+01  0.98041782442E+01  0.13848274533E+02  0.51100000000E-03 0. -1.
        -11    1    4    4    0    0  0.68173058413E+01  0.11707716083E+02  0.65445599794E+01  0.15045847946E+02  0.51100000000E-03 0.  1.
        -12    1    4    4    0    0  0.11621814194E+02 -0.13885482300E+02  0.17916431026E+02  0.25472959871E+02  0.00000000000E+00 0.  1.
</event>
<event>
 8    1  0.2466538E-006  0.9118800E+02  0.7816164E-02  0.1184000E+00
        -11   -1    0    0    0    0  0.00000000000E+00  0.00000000000E+00  0.45593999997E+02  0.45594000000E+02  0.51100000000E-03 0.  1.
         11   -1    0    0    0    0 -0.00000000000E+00 -0.00000000000E+00 -0.45593999997E+02  0.45594000000E+02  0.51100000000E-03 0. -1.
         23    2    1    2    0    0 -0.88817841970E-15  0.71054273576E-14 -0.35527136788E-14  0.91188000000E+02  0.91188000000E+02 0.  0.
    9900012    2    3    3    0    0  0.59520063645E+01 -0.29550989531E+02  0.21144582855E+02  0.54367071901E+02  0.39999972012E+02 0.  0.
        -12    1    3    3    0    0 -0.59520063645E+01  0.29550989531E+02 -0.21144582855E+02  0.36820928099E+02  0.00000000000E+00 0.  1.
         11    1    4    4    0    0 -0.43539661621E+01  0.83833993446E+00 -0.79960338713E+01  0.91431063168E+01  0.51100000000E-03 0. -1.
        -11    1    4    4    0    0  0.27692563647E+01  0.45146002212E+00  0.28985889517E+01  0.40341560626E+01  0.51100000000E-03 0.  1.
        -12    1    4    4    0    0  0.75367161619E+01 -0.30840789487E+02  0.26242027774E+02  0.41189809521E+02  0.00000000000E+00 0.  1.
</event>
<event>
 8    1  0.2466538E-006  0.9118800E+02  0.7816164E-02  0.1184000E+00
        -11   -1    0    0    0    0  0.00000000000E+00  0.00000000000E+00  0.45593999997E+02  0.45594000000E+02  0.51100000000E-03 0. -1.
         11   -1    0    0    0    0 -0.00000000000E+00 -0.00000000000E+00 -0.45593999997E+02  0.45594000000E+02  0.51100000000E-03 0.  1.
         23    2    1    2    0    0 -0.88817841970E-15  0.71054273576E-14  0.35527136788E-14  0.91188000000E+02  0.91188000000E+02 0.  0.
    9900012    2    3    3    0    0  0.24093121527E+01 -0.33063844328E+02 -0.16023470082E+02  0.54367161060E+02  0.40000175267E+02 0.  0.
         12    1    3    3    0    0 -0.24093121527E+01  0.33063844328E+02  0.16023470082E+02  0.36820838940E+02  0.00000000000E+00 0. -1.
         11    1    4    4    0    0 -0.52159285587E+01 -0.17969955866E+02  0.86931366301E+01  0.20632398050E+02  0.51100000000E-03 0. -1.
        -11    1    4    4    0    0 -0.55938988662E+00  0.29563506313E+01 -0.21350182690E+01  0.36893399641E+01  0.51100000000E-03 0.  1.
        -12    1    4    4    0    0  0.81846305980E+01 -0.18050239093E+02 -0.22581588444E+02  0.30045423045E+02  0.00000000000E+00 0.  1.
</event>
<event>
 8    1  0.2466538E-006  0.9118800E+02  0.7816164E-02  0.1184000E+00
        -11   -1    0    0    0    0  0.00000000000E+00  0.00000000000E+00  0.45593999997E+02  0.45594000000E+02  0.51100000000E-03 0.  1.
         11   -1    0    0    0    0 -0.00000000000E+00 -0.00000000000E+00 -0.45593999997E+02  0.45594000000E+02  0.51100000000E-03 0. -1.
         23    2    1    2    0    0 -0.44408920985E-15  0.00000000000E+00  0.00000000000E+00  0.91188000000E+02  0.91188000000E+02 0.  0.
    9900012    2    3    3    0    0 -0.28942806083E+01  0.29414391310E+02  0.21958914511E+02  0.54367120015E+02  0.40000081698E+02 0.  0.
         12    1    3    3    0    0  0.28942806083E+01 -0.29414391310E+02 -0.21958914511E+02  0.36820879985E+02  0.00000000000E+00 0. -1.
         11    1    4    4    0    0 -0.87578421987E+01  0.60954952474E+01  0.23086037149E+01  0.10917166009E+02  0.51100000000E-03 0. -1.
        -11    1    4    4    0    0 -0.12166226814E+02  0.13450006478E+02  0.79829575927E+01  0.19815331472E+02  0.51100000000E-03 0.  1.
         12    1    4    4    0    0  0.18029788405E+02  0.98688895839E+01  0.11667353204E+02  0.23634622534E+02  0.00000000000E+00 0. -1.
</event>
<event>
 8    1  0.2466538E-006  0.9118800E+02  0.7816164E-02  0.1184000E+00
        -11   -1    0    0    0    0  0.00000000000E+00  0.00000000000E+00  0.45593999997E+02  0.45594000000E+02  0.51100000000E-03 0.  1.
         11   -1    0    0    0    0 -0.00000000000E+00 -0.00000000000E+00 -0.45593999997E+02  0.45594000000E+02  0.51100000000E-03 0. -1.
         23    2    1    2    0    0  0.88817841970E-15 -0.88817841970E-15  0.00000000000E+00  0.91188000000E+02  0.91188000000E+02 0.  0.
    9900012    2    3    3    0    0  0.63844848209E+01  0.67850269355E+01  0.35622776745E+02  0.54367075786E+02  0.39999980870E+02 0.  0.
         12    1    3    3    0    0 -0.63844848209E+01 -0.67850269355E+01 -0.35622776745E+02  0.36820924214E+02  0.00000000000E+00 0. -1.
         11    1    4    4    0    0 -0.10956192946E+02  0.11706688432E+02  0.39821701770E+01  0.16520968419E+02  0.51100000000E-03 0. -1.
        -11    1    4    4    0    0  0.28292286464E+01 -0.10656006351E+01  0.15537154912E+02  0.15828557182E+02  0.51100000000E-03 0.  1.
         12    1    4    4    0    0  0.14511449120E+02 -0.38560608616E+01  0.16103451656E+02  0.22017550185E+02  0.00000000000E+00 0. -1.
</event>
<event>
 8    1  0.2466538E-006  0.9118800E+02  0.7816164E-02  0.1184000E+00
        -11   -1    0    0    0    0  0.00000000000E+00  0.00000000000E+00  0.45593999997E+02  0.45594000000E+02  0.51100000000E-03 0. -1.
         11   -1    0    0    0    0 -0.00000000000E+00 -0.00000000000E+00 -0.45593999997E+02  0.45594000000E+02  0.51100000000E-03 0.  1.
         23    2    1    2    0    0 -0.35527136788E-14 -0.13322676296E-14 -0.35527136788E-14  0.91188000000E+02  0.91188000000E+02 0.  0.
    9900012    2    3    3    0    0 -0.30230215467E+02 -0.87809786764E+00 -0.21003387217E+02  0.54367092113E+02  0.40000018089E+02 0.  0.
         12    1    3    3    0    0  0.30230215467E+02  0.87809786764E+00  0.21003387217E+02  0.36820907887E+02  0.00000000000E+00 0. -1.
         11    1    4    4    0    0 -0.14021158041E+02 -0.34312068449E+01  0.23304766356E+01  0.14621804773E+02  0.51100000000E-03 0. -1.
        -11    1    4    4    0    0 -0.13336724137E+02  0.14603425545E+02 -0.13864789912E+02  0.24152860036E+02  0.51100000000E-03 0.  1.
         12    1    4    4    0    0 -0.28723332889E+01 -0.12050316568E+02 -0.94690739413E+01  0.15592427303E+02  0.00000000000E+00 0. -1.
</event>
<event>
 8    1  0.2466538E-006  0.9118800E+02  0.7816164E-02  0.1184000E+00
        -11   -1    0    0    0    0  0.00000000000E+00  0.00000000000E+00  0.45593999997E+02  0.45594000000E+02  0.51100000000E-03 0. -1.
         11   -1    0    0    0    0 -0.00000000000E+00 -0.00000000000E+00 -0.45593999997E+02  0.45594000000E+02  0.51100000000E-03 0.  1.
         23    2    1    2    0    0 -0.88817841970E-15 -0.17763568394E-14  0.71054273576E-14  0.91188000000E+02  0.91188000000E+02 0.  0.
    9900012    2    3    3    0    0  0.83434594116E+00 -0.15125089383E+02  0.33560636444E+02  0.54367071433E+02  0.39999970947E+02 0.  0.
        -12    1    3    3    0    0 -0.83434594116E+00  0.15125089383E+02 -0.33560636444E+02  0.36820928567E+02  0.00000000000E+00 0.  1.
         11    1    4    4    0    0 -0.14466055412E+01 -0.55204665516E+01  0.71193952451E+01  0.91243634001E+01  0.51100000000E-03 0. -1.
        -11    1    4    4    0    0  0.13718045127E+02 -0.12376516113E+02  0.26037591953E+01  0.18658576457E+02  0.51100000000E-03 0.  1.
        -12    1    4    4    0    0 -0.11437093645E+02  0.27718932811E+01  0.23837482003E+02  0.26584131576E+02  0.00000000000E+00 0.  1.
</event>
<event>
 8    1  0.2466538E-006  0.9118800E+02  0.7816164E-02  0.1184000E+00
        -11   -1    0    0    0    0  0.00000000000E+00  0.00000000000E+00  0.45593999997E+02  0.45594000000E+02  0.51100000000E-03 0. -1.
         11   -1    0    0    0    0 -0.00000000000E+00 -0.00000000000E+00 -0.45593999997E+02  0.45594000000E+02  0.51100000000E-03 0.  1.
         23    2    1    2    0    0  0.00000000000E+00  0.35527136788E-14  0.00000000000E+00  0.91188000000E+02  0.91188000000E+02 0.  0.
    9900012    2    3    3    0    0 -0.25881019707E+02  0.17777302704E+02  0.19233318022E+02  0.54367079389E+02  0.39999989084E+02 0.  0.
        -12    1    3    3    0    0  0.25881019707E+02 -0.17777302704E+02 -0.19233318022E+02  0.36820920611E+02  0.00000000000E+00 0.  1.
         11    1    4    4    0    0 -0.14359404975E+02  0.20241883844E+02 -0.21967302520E+01  0.24914895080E+02  0.51100000000E-03 0. -1.
        -11    1    4    4    0    0  0.60973323779E+00  0.25115718783E+01 -0.15360404358E+01  0.30065243060E+01  0.51100000000E-03 0.  1.
        -12    1    4    4    0    0 -0.12131347969E+02 -0.49761530177E+01  0.22966088709E+02  0.26445660003E+02  0.00000000000E+00 0.  1.
</event>
<event>
 8    1  0.2466538E-006  0.9118800E+02  0.7816164E-02  0.1184000E+00
        -11   -1    0    0    0    0  0.00000000000E+00  0.00000000000E+00  0.45593999997E+02  0.45594000000E+02  0.51100000000E-03 0.  1.
         11   -1    0    0    0    0 -0.00000000000E+00 -0.00000000000E+00 -0.45593999997E+02  0.45594000000E+02  0.51100000000E-03 0. -1.
         23    2    1    2    0    0  0.00000000000E+00  0.35527136788E-14  0.00000000000E+00  0.91188000000E+02  0.91188000000E+02 0.  0.
    9900012    2    3    3    0    0  0.24292146468E+02  0.27585812110E+02 -0.21668371598E+01  0.54367073979E+02  0.39999976749E+02 0.  0.
        -12    1    3    3    0    0 -0.24292146468E+02 -0.27585812110E+02  0.21668371598E+01  0.36820926021E+02  0.00000000000E+00 0.  1.
         11    1    4    4    0    0  0.78071030422E+01 -0.99869674110E+01 -0.38290967758E+01  0.13242067752E+02  0.51100000000E-03 0. -1.
        -11    1    4    4    0    0  0.37311314175E+01  0.77520894972E+01 -0.51325823189E+00  0.86185652809E+01  0.51100000000E-03 0.  1.
         12    1    4    4    0    0  0.12753912008E+02  0.29820690024E+02  0.21755178479E+01  0.32506440945E+02  0.00000000000E+00 0. -1.
</event>
<event>
 8    1  0.2466538E-006  0.9118800E+02  0.7816164E-02  0.1184000E+00
        -11   -1    0    0    0    0  0.00000000000E+00  0.00000000000E+00  0.45593999997E+02  0.45594000000E+02  0.51100000000E-03 0. -1.
         11   -1    0    0    0    0 -0.00000000000E+00 -0.00000000000E+00 -0.45593999997E+02  0.45594000000E+02  0.51100000000E-03 0.  1.
         23    2    1    2    0    0  0.00000000000E+00  0.00000000000E+00  0.44408920985E-15  0.91188000000E+02  0.91188000000E+02 0.  0.
    9900012    2    3    3    0    0 -0.30421557168E+02  0.20535727163E+02 -0.29312734867E+01  0.54367087533E+02  0.40000007648E+02 0.  0.
         12    1    3    3    0    0  0.30421557168E+02 -0.20535727163E+02  0.29312734867E+01  0.36820912467E+02  0.00000000000E+00 0. -1.
         11    1    4    4    0    0  0.10654050001E+01  0.45525771534E+00 -0.92108559448E+01  0.92834376660E+01  0.51100000000E-03 0. -1.
        -11    1    4    4    0    0 -0.59415794308E+01  0.74296344260E+01 -0.86909222716E+01  0.12885416719E+02  0.51100000000E-03 0.  1.
        -12    1    4    4    0    0 -0.25545382738E+02  0.12650835022E+02  0.14970504730E+02  0.32198233148E+02  0.00000000000E+00 0.  1.
</event>
<event>
 8    1  0.2466538E-006  0.9118800E+02  0.7816164E-02  0.1184000E+00
        -11   -1    0    0    0    0  0.00000000000E+00  0.00000000000E+00  0.45593999997E+02  0.45594000000E+02  0.51100000000E-03 0.  1.
         11   -1    0    0    0    0 -0.00000000000E+00 -0.00000000000E+00 -0.45593999997E+02  0.45594000000E+02  0.51100000000E-03 0. -1.
         23    2    1    2    0    0  0.11102230246E-14  0.00000000000E+00 -0.53290705182E-14  0.91188000000E+02  0.91188000000E+02 0.  0.
    9900012    2    3    3    0    0 -0.11953514147E+01  0.33443924832E+02 -0.15357566690E+02  0.54367084370E+02  0.40000000439E+02 0.  0.
        -12    1    3    3    0    0  0.11953514147E+01 -0.33443924832E+02  0.15357566690E+02  0.36820915630E+02  0.00000000000E+00 0.  1.
         11    1    4    4    0    0 -0.10257607133E+02  0.13251593701E+02 -0.13211327924E+02  0.21339222701E+02  0.51100000000E-03 0. -1.
        -11    1    4    4    0    0 -0.79516406357E+01  0.52564110614E+01  0.26336486101E+01  0.98891127665E+01  0.51100000000E-03 0.  1.
        -12    1    4    4    0    0  0.17013896354E+02  0.14935920070E+02 -0.47798873756E+01  0.23138748903E+02  0.00000000000E+00 0.  1.
</event>
<event>
 8    1  0.2466538E-006  0.9118800E+02  0.7816164E-02  0.1184000E+00
        -11   -1    0    0    0    0  0.00000000000E+00  0.00000000000E+00  0.45593999997E+02  0.45594000000E+02  0.51100000000E-03 0.  1.
         11   -1    0    0    0    0 -0.00000000000E+00 -0.00000000000E+00 -0.45593999997E+02  0.45594000000E+02  0.51100000000E-03 0. -1.
         23    2    1    2    0    0  0.15543122345E-14 -0.88817841970E-15  0.00000000000E+00  0.91188000000E+02  0.91188000000E+02 0.  0.
    9900012    2    3    3    0    0  0.19531631634E+01 -0.57557192880E+01 -0.36315832229E+02  0.54367043720E+02  0.39999907769E+02 0.  0.
        -12    1    3    3    0    0 -0.19531631634E+01  0.57557192880E+01  0.36315832229E+02  0.36820956280E+02  0.00000000000E+00 0.  1.
         11    1    4    4    0    0 -0.12624529918E+02 -0.11501537098E+01 -0.21908481854E+01  0.12864735723E+02  0.51100000000E-03 0. -1.
        -11    1    4    4    0    0  0.17744429158E+02 -0.20361827763E+00 -0.29241191940E+02  0.34204583507E+02  0.51100000000E-03 0.  1.
         12    1    4    4    0    0 -0.31667360774E+01 -0.44019473006E+01 -0.48837921041E+01  0.72977244904E+01  0.00000000000E+00 0. -1.
</event>
<event>
 8    1  0.2466538E-006  0.9118800E+02  0.7816164E-02  0.1184000E+00
        -11   -1    0    0    0    0  0.00000000000E+00  0.00000000000E+00  0.45593999997E+02  0.45594000000E+02  0.51100000000E-03 0.  1.
         11   -1    0    0    0    0 -0.00000000000E+00 -0.00000000000E+00 -0.45593999997E+02  0.45594000000E+02  0.51100000000E-03 0. -1.
         23    2    1    2    0    0  0.00000000000E+00  0.00000000000E+00  0.00000000000E+00  0.91188000000E+02  0.91188000000E+02 0.  0.
    9900012    2    3    3    0    0 -0.26194791945E+02  0.23708010298E+02  0.10370388442E+02  0.54367057131E+02  0.39999938341E+02 0.  0.
         12    1    3    3    0    0  0.26194791945E+02 -0.23708010298E+02 -0.10370388442E+02  0.36820942869E+02  0.00000000000E+00 0. -1.
         11    1    4    4    0    0 -0.89807908698E+01 -0.83354122734E+01  0.35242070897E+01  0.12749656399E+02  0.51100000000E-03 0. -1.
        -11    1    4    4    0    0 -0.19932388008E+02  0.20884217043E+02  0.13932131261E+01  0.28903142672E+02  0.51100000000E-03 0.  1.
         12    1    4    4    0    0  0.27183869330E+01  0.11159205528E+02  0.54529682261E+01  0.12714258060E+02  0.00000000000E+00 0. -1.
</event>
<event>
 8    1  0.2466538E-006  0.9118800E+02  0.7816164E-02  0.1184000E+00
        -11   -1    0    0    0    0  0.00000000000E+00  0.00000000000E+00  0.45593999997E+02  0.45594000000E+02  0.51100000000E-03 0. -1.
         11   -1    0    0    0    0 -0.00000000000E+00 -0.00000000000E+00 -0.45593999997E+02  0.45594000000E+02  0.51100000000E-03 0.  1.
         23    2    1    2    0    0  0.00000000000E+00  0.00000000000E+00  0.17763568394E-14  0.91188000000E+02  0.91188000000E+02 0.  0.
    9900012    2    3    3    0    0  0.69355293709E+01 -0.35750549290E+02 -0.54385161990E+01  0.54367071160E+02  0.39999970323E+02 0.  0.
         12    1    3    3    0    0 -0.69355293709E+01  0.35750549290E+02  0.54385161990E+01  0.36820928840E+02  0.00000000000E+00 0. -1.
         11    1    4    4    0    0  0.16532213335E+02 -0.47133585143E+01  0.71427228397E+01  0.18615808230E+02  0.51100000000E-03 0. -1.
        -11    1    4    4    0    0 -0.19027388004E+01 -0.14409835365E+02 -0.22208095064E+01  0.14703597020E+02  0.51100000000E-03 0.  1.
         12    1    4    4    0    0 -0.76939451638E+01 -0.16627355411E+02 -0.10360429532E+02  0.21047665909E+02  0.00000000000E+00 0. -1.
</event>
<event>
 8    1  0.2466538E-006  0.9118800E+02  0.7816164E-02  0.1184000E+00
        -11   -1    0    0    0    0  0.00000000000E+00  0.00000000000E+00  0.45593999997E+02  0.45594000000E+02  0.51100000000E-03 0.  1.
         11   -1    0    0    0    0 -0.00000000000E+00 -0.00000000000E+00 -0.45593999997E+02  0.45594000000E+02  0.51100000000E-03 0. -1.
         23    2    1    2    0    0  0.00000000000E+00  0.88817841970E-15 -0.71054273576E-14  0.91188000000E+02  0.91188000000E+02 0.  0.
    9900012    2    3    3    0    0 -0.49265528707E+01  0.66241351324E+01 -0.35883538755E+02  0.54367103175E+02  0.40000043307E+02 0.  0.
        -12    1    3    3    0    0  0.49265528707E+01 -0.66241351324E+01  0.35883538755E+02  0.36820896825E+02  0.00000000000E+00 0.  1.
         11    1    4    4    0    0 -0.69063675348E+01  0.11091304753E+01 -0.22120026888E+02  0.23199648116E+02  0.51100000000E-03 0. -1.
        -11    1    4    4    0    0 -0.57041227336E+01  0.13077821716E+02 -0.77700065888E+00  0.14288812661E+02  0.51100000000E-03 0.  1.
        -12    1    4    4    0    0  0.76839373978E+01 -0.75628170586E+01 -0.12986511208E+02  0.16878642397E+02  0.00000000000E+00 0.  1.
</event>
<event>
 8    1  0.2466538E-006  0.9118800E+02  0.7816164E-02  0.1184000E+00
        -11   -1    0    0    0    0  0.00000000000E+00  0.00000000000E+00  0.45593999997E+02  0.45594000000E+02  0.51100000000E-03 0. -1.
         11   -1    0    0    0    0 -0.00000000000E+00 -0.00000000000E+00 -0.45593999997E+02  0.45594000000E+02  0.51100000000E-03 0.  1.
         23    2    1    2    0    0  0.71054273576E-14  0.71054273576E-14  0.88817841970E-15  0.91188000000E+02  0.91188000000E+02 0.  0.
    9900012    2    3    3    0    0 -0.33021911131E+02 -0.16158151194E+02 -0.20608885024E+01  0.54367085750E+02  0.40000003585E+02 0.  0.
        -12    1    3    3    0    0  0.33021911131E+02  0.16158151194E+02  0.20608885024E+01  0.36820914250E+02  0.00000000000E+00 0.  1.
         11    1    4    4    0    0 -0.79623872466E+00 -0.82618075774E+00  0.34812908624E+01  0.36655091162E+01  0.51100000000E-03 0. -1.
        -11    1    4    4    0    0 -0.11872594561E+02  0.48782775773E+01 -0.15694623891E+02  0.20275041629E+02  0.51100000000E-03 0.  1.
         12    1    4    4    0    0 -0.20353077845E+02 -0.20210248014E+02  0.10152444526E+02  0.30426535005E+02  0.00000000000E+00 0. -1.
</event>
<event>
 8    1  0.2466538E-006  0.9118800E+02  0.7816164E-02  0.1184000E+00
        -11   -1    0    0    0    0  0.00000000000E+00  0.00000000000E+00  0.45593999997E+02  0.45594000000E+02  0.51100000000E-03 0. -1.
         11   -1    0    0    0    0 -0.00000000000E+00 -0.00000000000E+00 -0.45593999997E+02  0.45594000000E+02  0.51100000000E-03 0.  1.
         23    2    1    2    0    0 -0.35527136788E-14  0.35527136788E-14  0.00000000000E+00  0.91188000000E+02  0.91188000000E+02 0.  0.
    9900012    2    3    3    0    0  0.25789697844E+02  0.97923803729E+01 -0.24388136121E+02  0.54367076442E+02  0.39999982364E+02 0.  0.
         12    1    3    3    0    0 -0.25789697844E+02 -0.97923803729E+01  0.24388136121E+02  0.36820923558E+02  0.00000000000E+00 0. -1.
         11    1    4    4    0    0 -0.58167156508E+01 -0.72673551700E+01 -0.48192284514E+01  0.10482060640E+02  0.51100000000E-03 0. -1.
        -11    1    4    4    0    0  0.27659067908E+02  0.79895634249E+01 -0.17765662797E+02  0.33830103992E+02  0.51100000000E-03 0.  1.
         12    1    4    4    0    0  0.39473455869E+01  0.90701721181E+01 -0.18032448731E+01  0.10054911810E+02  0.00000000000E+00 0. -1.
</event>
<event>
 8    1  0.2466538E-006  0.9118800E+02  0.7816164E-02  0.1184000E+00
        -11   -1    0    0    0    0  0.00000000000E+00  0.00000000000E+00  0.45593999997E+02  0.45594000000E+02  0.51100000000E-03 0.  1.
         11   -1    0    0    0    0 -0.00000000000E+00 -0.00000000000E+00 -0.45593999997E+02  0.45594000000E+02  0.51100000000E-03 0. -1.
         23    2    1    2    0    0  0.00000000000E+00 -0.17763568394E-14  0.71054273576E-14  0.91188000000E+02  0.91188000000E+02 0.  0.
    9900012    2    3    3    0    0 -0.51969425852E+01  0.13491717525E+02 -0.33863593094E+02  0.54367114741E+02  0.40000069676E+02 0.  0.
        -12    1    3    3    0    0  0.51969425852E+01 -0.13491717525E+02  0.33863593094E+02  0.36820885259E+02  0.00000000000E+00 0.  1.
         11    1    4    4    0    0 -0.51322497818E+01 -0.34678515604E+01 -0.43035548320E+01  0.75423183916E+01  0.51100000000E-03 0. -1.
        -11    1    4    4    0    0 -0.23243008727E+01  0.13480267461E+02 -0.36366235750E+02  0.38853868382E+02  0.51100000000E-03 0.  1.
        -12    1    4    4    0    0  0.22596080692E+01  0.34793016248E+01  0.68061974880E+01  0.79709279679E+01  0.00000000000E+00 0.  1.
</event>
<event>
 8    1  0.2466538E-006  0.9118800E+02  0.7816164E-02  0.1184000E+00
        -11   -1    0    0    0    0  0.00000000000E+00  0.00000000000E+00  0.45593999997E+02  0.45594000000E+02  0.51100000000E-03 0. -1.
         11   -1    0    0    0    0 -0.00000000000E+00 -0.00000000000E+00 -0.45593999997E+02  0.45594000000E+02  0.51100000000E-03 0.  1.
         23    2    1    2    0    0  0.00000000000E+00  0.17763568394E-14  0.00000000000E+00  0.91188000000E+02  0.91188000000E+02 0.  0.
    9900012    2    3    3    0    0  0.22914116418E+02 -0.13811234646E+02 -0.25297681664E+02  0.54367087040E+02  0.40000006525E+02 0.  0.
        -12    1    3    3    0    0 -0.22914116418E+02  0.13811234646E+02  0.25297681664E+02  0.36820912960E+02  0.00000000000E+00 0.  1.
         11    1    4    4    0    0  0.42704030184E+01 -0.15304938202E+02 -0.38889686334E+01  0.16358531493E+02  0.51100000000E-03 0. -1.
        -11    1    4    4    0    0 -0.37430269452E+01  0.61585518710E+01 -0.10338086514E+02  0.12602144457E+02  0.51100000000E-03 0.  1.
        -12    1    4    4    0    0  0.22386740344E+02 -0.46648483146E+01 -0.11070626516E+02  0.25406411090E+02  0.00000000000E+00 0.  1.
</event>
<event>
 8    1  0.2466538E-006  0.9118800E+02  0.7816164E-02  0.1184000E+00
        -11   -1    0    0    0    0  0.00000000000E+00  0.00000000000E+00  0.45593999997E+02  0.45594000000E+02  0.51100000000E-03 0. -1.
         11   -1    0    0    0    0 -0.00000000000E+00 -0.00000000000E+00 -0.45593999997E+02  0.45594000000E+02  0.51100000000E-03 0.  1.
         23    2    1    2    0    0  0.17763568394E-14 -0.71054273576E-14 -0.44408920985E-15  0.91188000000E+02  0.91188000000E+02 0.  0.
    9900012    2    3    3    0    0  0.15180721626E+02 -0.33446601354E+02  0.25788857636E+01  0.54367080633E+02  0.39999991919E+02 0.  0.
        -12    1    3    3    0    0 -0.15180721626E+02  0.33446601354E+02 -0.25788857636E+01  0.36820919367E+02  0.00000000000E+00 0.  1.
         11    1    4    4    0    0  0.81838257466E+01 -0.48264134723E+01  0.86544252793E+01  0.12851783846E+02  0.51100000000E-03 0. -1.
        -11    1    4    4    0    0 -0.72626183137E+01 -0.25046717961E+02 -0.62373225846E+01  0.26813949703E+02  0.51100000000E-03 0.  1.
         12    1    4    4    0    0  0.14259514194E+02 -0.35734699205E+01  0.16178306892E+00  0.14701347084E+02  0.00000000000E+00 0. -1.
</event>
<event>
 8    1  0.2466538E-006  0.9118800E+02  0.7816164E-02  0.1184000E+00
        -11   -1    0    0    0    0  0.00000000000E+00  0.00000000000E+00  0.45593999997E+02  0.45594000000E+02  0.51100000000E-03 0.  1.
         11   -1    0    0    0    0 -0.00000000000E+00 -0.00000000000E+00 -0.45593999997E+02  0.45594000000E+02  0.51100000000E-03 0. -1.
         23    2    1    2    0    0  0.00000000000E+00  0.00000000000E+00  0.00000000000E+00  0.91188000000E+02  0.91188000000E+02 0.  0.
    9900012    2    3    3    0    0  0.29164673645E+02 -0.11745838485E+02 -0.19163440390E+02  0.54367077169E+02  0.39999984022E+02 0.  0.
        -12    1    3    3    0    0 -0.29164673645E+02  0.11745838485E+02  0.19163440390E+02  0.36820922831E+02  0.00000000000E+00 0.  1.
         11    1    4    4    0    0  0.64012216598E+01 -0.20790096324E+02 -0.80453516536E+01  0.23193348775E+02  0.51100000000E-03 0. -1.
        -11    1    4    4    0    0  0.17283345156E+02  0.80491197334E+01 -0.37127278167E+00  0.19069352166E+02  0.51100000000E-03 0.  1.
         12    1    4    4    0    0  0.54801068288E+01  0.99513810553E+00 -0.10746815955E+02  0.12104376228E+02  0.00000000000E+00 0. -1.
</event>
<event>
 8    1  0.2466538E-006  0.9118800E+02  0.7816164E-02  0.1184000E+00
        -11   -1    0    0    0    0  0.00000000000E+00  0.00000000000E+00  0.45593999997E+02  0.45594000000E+02  0.51100000000E-03 0. -1.
         11   -1    0    0    0    0 -0.00000000000E+00 -0.00000000000E+00 -0.45593999997E+02  0.45594000000E+02  0.51100000000E-03 0.  1.
         23    2    1    2    0    0 -0.35527136788E-14  0.00000000000E+00  0.00000000000E+00  0.91188000000E+02  0.91188000000E+02 0.  0.
    9900012    2    3    3    0    0 -0.26120422485E+02  0.17304256978E+02  0.19340781366E+02  0.54367087407E+02  0.40000007362E+02 0.  0.
        -12    1    3    3    0    0  0.26120422485E+02 -0.17304256978E+02 -0.19340781366E+02  0.36820912593E+02  0.00000000000E+00 0.  1.
         11    1    4    4    0    0 -0.61458074633E+01  0.13377216424E+02  0.20907931399E+02  0.25570734528E+02  0.51100000000E-03 0. -1.
        -11    1    4    4    0    0  0.49853929186E+00 -0.43176676833E+01 -0.48163775839E+01  0.64875487622E+01  0.51100000000E-03 0.  1.
         12    1    4    4    0    0 -0.20473154313E+02  0.82447082372E+01  0.32492275504E+01  0.22308804117E+02  0.00000000000E+00 0. -1.
</event>
<event>
 8    1  0.2466538E-006  0.9118800E+02  0.7816164E-02  0.1184000E+00
        -11   -1    0    0    0    0  0.00000000000E+00  0.00000000000E+00  0.45593999997E+02  0.45594000000E+02  0.51100000000E-03 0. -1.
         11   -1    0    0    0    0 -0.00000000000E+00 -0.00000000000E+00 -0.45593999997E+02  0.45594000000E+02  0.51100000000E-03 0.  1.
         23    2    1    2    0    0  0.17763568394E-14  0.00000000000E+00  0.71054273576E-14  0.91188000000E+02  0.91188000000E+02 0.  0.
    9900012    2    3    3    0    0  0.12489353760E+02  0.90198236016E+01  0.33443049659E+02  0.54367099065E+02  0.40000033938E+02 0.  0.
        -12    1    3    3    0    0 -0.12489353760E+02 -0.90198236016E+01 -0.33443049659E+02  0.36820900935E+02  0.00000000000E+00 0.  1.
         11    1    4    4    0    0 -0.13900069400E+01 -0.96144393900E+00 -0.24944574852E+01  0.30131067269E+01  0.51100000000E-03 0.  1.
        -11    1    4    4    0    0 -0.54367138623E+01  0.21854951647E+01 -0.34485402641E+01  0.67990202934E+01  0.51100000000E-03 0. -1.
         12    1    4    4    0    0  0.19316074562E+02  0.77957723759E+01  0.39386047409E+02  0.44554972045E+02  0.00000000000E+00 0. -1.
</event>
<event>
 8    1  0.2466538E-006  0.9118800E+02  0.7816164E-02  0.1184000E+00
        -11   -1    0    0    0    0  0.00000000000E+00  0.00000000000E+00  0.45593999997E+02  0.45594000000E+02  0.51100000000E-03 0.  1.
         11   -1    0    0    0    0 -0.00000000000E+00 -0.00000000000E+00 -0.45593999997E+02  0.45594000000E+02  0.51100000000E-03 0. -1.
         23    2    1    2    0    0 -0.17763568394E-14  0.00000000000E+00  0.88817841970E-15  0.91188000000E+02  0.91188000000E+02 0.  0.
    9900012    2    3    3    0    0  0.65873683717E+01  0.36189432423E+02 -0.16468753202E+01  0.54367073349E+02  0.39999975313E+02 0.  0.
        -12    1    3    3    0    0 -0.65873683717E+01 -0.36189432423E+02  0.16468753202E+01  0.36820926651E+02  0.00000000000E+00 0.  1.
         11    1    4    4    0    0 -0.83294517942E+01 -0.16965208919E+01 -0.48886654924E+01  0.98059676160E+01  0.51100000000E-03 0. -1.
        -11    1    4    4    0    0  0.93816042970E+01  0.94355405713E+01 -0.53340460232E+01  0.14335130704E+02  0.51100000000E-03 0.  1.
        -12    1    4    4    0    0  0.55352158690E+01  0.28450412743E+02  0.85758361953E+01  0.30225975029E+02  0.00000000000E+00 0.  1.
</event>
<event>
 8    1  0.2466538E-006  0.9118800E+02  0.7816164E-02  0.1184000E+00
        -11   -1    0    0    0    0  0.00000000000E+00  0.00000000000E+00  0.45593999997E+02  0.45594000000E+02  0.51100000000E-03 0. -1.
         11   -1    0    0    0    0 -0.00000000000E+00 -0.00000000000E+00 -0.45593999997E+02  0.45594000000E+02  0.51100000000E-03 0.  1.
         23    2    1    2    0    0  0.00000000000E+00  0.17763568394E-14  0.35527136788E-14  0.91188000000E+02  0.91188000000E+02 0.  0.
    9900012    2    3    3    0    0 -0.18288195913E+02 -0.43072628503E+01 -0.31666557002E+02  0.54367062269E+02  0.39999950055E+02 0.  0.
         12    1    3    3    0    0  0.18288195913E+02  0.43072628503E+01  0.31666557002E+02  0.36820937731E+02  0.00000000000E+00 0. -1.
         11    1    4    4    0    0 -0.83381270095E+00  0.57881920646E+01 -0.17239467282E+01  0.60967535279E+01  0.51100000000E-03 0. -1.
        -11    1    4    4    0    0  0.52345539083E+01  0.61188763479E+01 -0.10600126633E+01  0.81218735207E+01  0.51100000000E-03 0.  1.
        -12    1    4    4    0    0 -0.22688937121E+02 -0.16214331263E+02 -0.28882597610E+02  0.40148435221E+02  0.00000000000E+00 0.  1.
</event>
<event>
 8    1  0.2466538E-006  0.9118800E+02  0.7816164E-02  0.1184000E+00
        -11   -1    0    0    0    0  0.00000000000E+00  0.00000000000E+00  0.45593999997E+02  0.45594000000E+02  0.51100000000E-03 0. -1.
         11   -1    0    0    0    0 -0.00000000000E+00 -0.00000000000E+00 -0.45593999997E+02  0.45594000000E+02  0.51100000000E-03 0.  1.
         23    2    1    2    0    0  0.00000000000E+00  0.00000000000E+00  0.17763568394E-14  0.91188000000E+02  0.91188000000E+02 0.  0.
    9900012    2    3    3    0    0  0.16495037166E+02  0.28805228970E+02  0.15935850110E+02  0.54367098519E+02  0.40000032694E+02 0.  0.
        -12    1    3    3    0    0 -0.16495037166E+02 -0.28805228970E+02 -0.15935850110E+02  0.36820901481E+02  0.00000000000E+00 0.  1.
         11    1    4    4    0    0  0.13741596174E+02  0.36406820470E+01  0.18154292125E+02  0.23057847992E+02  0.51100000000E-03 0. -1.
        -11    1    4    4    0    0  0.10098175681E+02  0.92279646436E+01 -0.12018137842E+01  0.13732182645E+02  0.51100000000E-03 0.  1.
        -12    1    4    4    0    0 -0.73447346893E+01  0.15936582279E+02 -0.10166282303E+01  0.17577067883E+02  0.00000000000E+00 0.  1.
</event>
<event>
 8    1  0.2466538E-006  0.9118800E+02  0.7816164E-02  0.1184000E+00
        -11   -1    0    0    0    0  0.00000000000E+00  0.00000000000E+00  0.45593999997E+02  0.45594000000E+02  0.51100000000E-03 0.  1.
         11   -1    0    0    0    0 -0.00000000000E+00 -0.00000000000E+00 -0.45593999997E+02  0.45594000000E+02  0.51100000000E-03 0. -1.
         23    2    1    2    0    0 -0.13322676296E-14  0.00000000000E+00  0.00000000000E+00  0.91188000000E+02  0.91188000000E+02 0.  0.
    9900012    2    3    3    0    0 -0.35213303683E+01  0.34530283413E+02 -0.12290239540E+02  0.54366943142E+02  0.39999678481E+02 0.  0.
        -12    1    3    3    0    0  0.35213303683E+01 -0.34530283413E+02  0.12290239540E+02  0.36821056858E+02  0.00000000000E+00 0.  1.
         11    1    4    4    0    0  0.12967112640E+02  0.32428674117E+02 -0.77521485694E+01  0.35775141131E+02  0.51100000000E-03 0. -1.
        -11    1    4    4    0    0 -0.11398659915E+01 -0.18564629149E+01 -0.51616849505E+00  0.22387896751E+01  0.51100000000E-03 0.  1.
         12    1    4    4    0    0 -0.15348577017E+02  0.39580722106E+01 -0.40219224760E+01  0.16353012336E+02  0.00000000000E+00 0. -1.
</event>
<event>
 8    1  0.2466538E-006  0.9118800E+02  0.7816164E-02  0.1184000E+00
        -11   -1    0    0    0    0  0.00000000000E+00  0.00000000000E+00  0.45593999997E+02  0.45594000000E+02  0.51100000000E-03 0.  1.
         11   -1    0    0    0    0 -0.00000000000E+00 -0.00000000000E+00 -0.45593999997E+02  0.45594000000E+02  0.51100000000E-03 0. -1.
         23    2    1    2    0    0 -0.35527136788E-14  0.71054273576E-14  0.00000000000E+00  0.91188000000E+02  0.91188000000E+02 0.  0.
    9900012    2    3    3    0    0  0.17569585838E+02 -0.31599252954E+02 -0.69696691640E+01  0.54367089880E+02  0.40000013000E+02 0.  0.
        -12    1    3    3    0    0 -0.17569585838E+02  0.31599252954E+02  0.69696691640E+01  0.36820910120E+02  0.00000000000E+00 0.  1.
         11    1    4    4    0    0 -0.53309513023E+01 -0.11707367302E+02 -0.91188999653E+01  0.15768190377E+02  0.51100000000E-03 0. -1.
        -11    1    4    4    0    0 -0.47739310332E+01 -0.42908153034E+01 -0.15837245626E+01  0.66113309726E+01  0.51100000000E-03 0.  1.
        -12    1    4    4    0    0  0.27674468174E+02 -0.15601070349E+02  0.37329553639E+01  0.31987568530E+02  0.00000000000E+00 0.  1.
</event>
<event>
 8    1  0.2466538E-006  0.9118800E+02  0.7816164E-02  0.1184000E+00
        -11   -1    0    0    0    0  0.00000000000E+00  0.00000000000E+00  0.45593999997E+02  0.45594000000E+02  0.51100000000E-03 0.  1.
         11   -1    0    0    0    0 -0.00000000000E+00 -0.00000000000E+00 -0.45593999997E+02  0.45594000000E+02  0.51100000000E-03 0. -1.
         23    2    1    2    0    0  0.00000000000E+00  0.35527136788E-14  0.00000000000E+00  0.91188000000E+02  0.91188000000E+02 0.  0.
    9900012    2    3    3    0    0  0.16649969776E+02  0.26926101030E+02 -0.18802745587E+02  0.54367086760E+02  0.40000005888E+02 0.  0.
        -12    1    3    3    0    0 -0.16649969776E+02 -0.26926101030E+02  0.18802745587E+02  0.36820913240E+02  0.00000000000E+00 0.  1.
         11    1    4    4    0    0  0.91535129646E+01  0.19529975477E+02 -0.15785180308E+02  0.26727862977E+02  0.51100000000E-03 0. -1.
        -11    1    4    4    0    0  0.13247076649E+02  0.59444451917E+01  0.69059649362E+01  0.16078364977E+02  0.51100000000E-03 0.  1.
         12    1    4    4    0    0 -0.57506198379E+01  0.14516803610E+01 -0.99235302154E+01  0.11560858806E+02  0.00000000000E+00 0. -1.
</event>
<event>
 8    1  0.2466538E-006  0.9118800E+02  0.7816164E-02  0.1184000E+00
        -11   -1    0    0    0    0  0.00000000000E+00  0.00000000000E+00  0.45593999997E+02  0.45594000000E+02  0.51100000000E-03 0. -1.
         11   -1    0    0    0    0 -0.00000000000E+00 -0.00000000000E+00 -0.45593999997E+02  0.45594000000E+02  0.51100000000E-03 0.  1.
         23    2    1    2    0    0  0.00000000000E+00  0.13322676296E-14  0.00000000000E+00  0.91188000000E+02  0.91188000000E+02 0.  0.
    9900012    2    3    3    0    0 -0.20262664300E+02  0.25409253758E+01  0.30638998516E+02  0.54367080724E+02  0.39999992125E+02 0.  0.
        -12    1    3    3    0    0  0.20262664300E+02 -0.25409253758E+01 -0.30638998516E+02  0.36820919276E+02  0.00000000000E+00 0.  1.
         11    1    4    4    0    0  0.22811267456E+01  0.86015614952E+01  0.10797884853E+02  0.13992309207E+02  0.51100000000E-03 0. -1.
        -11    1    4    4    0    0 -0.22940060479E+02 -0.86540894384E+01  0.24731504681E+02  0.34825090995E+02  0.51100000000E-03 0.  1.
        -12    1    4    4    0    0  0.39626943386E+00  0.25934533190E+01 -0.48903910176E+01  0.55496805212E+01  0.00000000000E+00 0.  1.
</event>
<event>
 8    1  0.2466538E-006  0.9118800E+02  0.7816164E-02  0.1184000E+00
        -11   -1    0    0    0    0  0.00000000000E+00  0.00000000000E+00  0.45593999997E+02  0.45594000000E+02  0.51100000000E-03 0.  1.
         11   -1    0    0    0    0 -0.00000000000E+00 -0.00000000000E+00 -0.45593999997E+02  0.45594000000E+02  0.51100000000E-03 0. -1.
         23    2    1    2    0    0  0.00000000000E+00  0.44408920985E-15  0.83266726847E-15  0.91188000000E+02  0.91188000000E+02 0.  0.
    9900012    2    3    3    0    0 -0.36736712767E+02 -0.24620660513E+01  0.36303991989E+00  0.54367087027E+02  0.40000006496E+02 0.  0.
         12    1    3    3    0    0  0.36736712767E+02  0.24620660513E+01 -0.36303991989E+00  0.36820912973E+02  0.00000000000E+00 0. -1.
         11    1    4    4    0    0 -0.12960456126E+02 -0.36993755950E+01 -0.69219988897E+01  0.15151662341E+02  0.51100000000E-03 0. -1.
        -11    1    4    4    0    0  0.75401413834E+00 -0.46214731600E+01  0.12599366317E+02  0.13441375798E+02  0.51100000000E-03 0.  1.
        -12    1    4    4    0    0 -0.24530270779E+02  0.58587827036E+01 -0.53143275077E+01  0.25774048888E+02  0.00000000000E+00 0.  1.
</event>
<event>
 8    1  0.2466538E-006  0.9118800E+02  0.7816164E-02  0.1184000E+00
        -11   -1    0    0    0    0  0.00000000000E+00  0.00000000000E+00  0.45593999997E+02  0.45594000000E+02  0.51100000000E-03 0. -1.
         11   -1    0    0    0    0 -0.00000000000E+00 -0.00000000000E+00 -0.45593999997E+02  0.45594000000E+02  0.51100000000E-03 0.  1.
         23    2    1    2    0    0 -0.35527136788E-14  0.44408920985E-15  0.35527136788E-14  0.91188000000E+02  0.91188000000E+02 0.  0.
    9900012    2    3    3    0    0  0.30051299590E+02 -0.38867185287E+01 -0.20918705075E+02  0.54367090045E+02  0.40000013374E+02 0.  0.
         12    1    3    3    0    0 -0.30051299590E+02  0.38867185287E+01  0.20918705075E+02  0.36820909955E+02  0.00000000000E+00 0. -1.
         11    1    4    4    0    0  0.27510752147E+01 -0.47674648454E+01  0.11868818372E+01  0.56307925415E+01  0.51100000000E-03 0. -1.
        -11    1    4    4    0    0 -0.30018368006E+01 -0.10409928728E+02 -0.32860612208E+01  0.11321476887E+02  0.51100000000E-03 0.  1.
        -12    1    4    4    0    0  0.30302061176E+02  0.11290675045E+02 -0.18819525691E+02  0.37414820616E+02  0.00000000000E+00 0.  1.
</event>
<event>
 8    1  0.2466538E-006  0.9118800E+02  0.7816164E-02  0.1184000E+00
        -11   -1    0    0    0    0  0.00000000000E+00  0.00000000000E+00  0.45593999997E+02  0.45594000000E+02  0.51100000000E-03 0. -1.
         11   -1    0    0    0    0 -0.00000000000E+00 -0.00000000000E+00 -0.45593999997E+02  0.45594000000E+02  0.51100000000E-03 0.  1.
         23    2    1    2    0    0  0.00000000000E+00  0.00000000000E+00  0.88817841970E-15  0.91188000000E+02  0.91188000000E+02 0.  0.
    9900012    2    3    3    0    0 -0.10214351710E+02  0.35373086618E+02  0.43766778030E+00  0.54367084873E+02  0.40000001584E+02 0.  0.
        -12    1    3    3    0    0  0.10214351710E+02 -0.35373086618E+02 -0.43766778030E+00  0.36820915127E+02  0.00000000000E+00 0.  1.
         11    1    4    4    0    0  0.96961698443E+00  0.58561972472E+01  0.15859602718E+02  0.16934054503E+02  0.51100000000E-03 0. -1.
        -11    1    4    4    0    0  0.11283449816E+01 -0.22707203040E+00 -0.24861500916E+01  0.27396471751E+01  0.51100000000E-03 0.  1.
        -12    1    4    4    0    0 -0.12312313676E+02  0.29743961401E+02 -0.12935784846E+02  0.34693383194E+02  0.00000000000E+00 0.  1.
</event>
<event>
 8    1  0.2466538E-006  0.9118800E+02  0.7816164E-02  0.1184000E+00
        -11   -1    0    0    0    0  0.00000000000E+00  0.00000000000E+00  0.45593999997E+02  0.45594000000E+02  0.51100000000E-03 0.  1.
         11   -1    0    0    0    0 -0.00000000000E+00 -0.00000000000E+00 -0.45593999997E+02  0.45594000000E+02  0.51100000000E-03 0. -1.
         23    2    1    2    0    0  0.00000000000E+00  0.17763568394E-14  0.35527136788E-14  0.91188000000E+02  0.91188000000E+02 0.  0.
    9900012    2    3    3    0    0 -0.23398055891E+02  0.15816591814E+02 -0.23625129864E+02  0.54367077182E+02  0.39999984052E+02 0.  0.
        -12    1    3    3    0    0  0.23398055891E+02 -0.15816591814E+02  0.23625129864E+02  0.36820922818E+02  0.00000000000E+00 0.  1.
         11    1    4    4    0    0 -0.78292409430E+01  0.95575742248E+01  0.86331680913E+01  0.15072353179E+02  0.51100000000E-03 0. -1.
        -11    1    4    4    0    0 -0.65003951251E+01 -0.41774815241E+01 -0.66592162986E+01  0.10200571094E+02  0.51100000000E-03 0.  1.
         12    1    4    4    0    0 -0.90684198226E+01  0.10436499113E+02 -0.25599081657E+02  0.29094152909E+02  0.00000000000E+00 0. -1.
</event>
<event>
 8    1  0.2466538E-006  0.9118800E+02  0.7816164E-02  0.1184000E+00
        -11   -1    0    0    0    0  0.00000000000E+00  0.00000000000E+00  0.45593999997E+02  0.45594000000E+02  0.51100000000E-03 0.  1.
         11   -1    0    0    0    0 -0.00000000000E+00 -0.00000000000E+00 -0.45593999997E+02  0.45594000000E+02  0.51100000000E-03 0. -1.
         23    2    1    2    0    0 -0.71054273576E-14 -0.35527136788E-14 -0.17763568394E-14  0.91188000000E+02  0.91188000000E+02 0.  0.
    9900012    2    3    3    0    0  0.25310401994E+02  0.24667153494E+02  0.10329296517E+02  0.54367091848E+02  0.40000017486E+02 0.  0.
         12    1    3    3    0    0 -0.25310401994E+02 -0.24667153494E+02 -0.10329296517E+02  0.36820908152E+02  0.00000000000E+00 0. -1.
         11    1    4    4    0    0  0.14885313068E+02  0.14145088623E+02 -0.69628448983E+01  0.21682649437E+02  0.51100000000E-03 0. -1.
        -11    1    4    4    0    0 -0.30604968723E+01 -0.42333145396E+01 -0.13022666629E+01  0.53836318428E+01  0.51100000000E-03 0.  1.
        -12    1    4    4    0    0  0.13485585798E+02  0.14755379411E+02  0.18594408078E+02  0.27300810568E+02  0.00000000000E+00 0.  1.
</event>
<event>
 8    1  0.2466538E-006  0.9118800E+02  0.7816164E-02  0.1184000E+00
        -11   -1    0    0    0    0  0.00000000000E+00  0.00000000000E+00  0.45593999997E+02  0.45594000000E+02  0.51100000000E-03 0.  1.
         11   -1    0    0    0    0 -0.00000000000E+00 -0.00000000000E+00 -0.45593999997E+02  0.45594000000E+02  0.51100000000E-03 0. -1.
         23    2    1    2    0    0  0.00000000000E+00  0.00000000000E+00  0.00000000000E+00  0.91188000000E+02  0.91188000000E+02 0.  0.
    9900012    2    3    3    0    0  0.54830886633E+01 -0.97171279661E+01  0.35089771324E+02  0.54367097121E+02  0.40000029507E+02 0.  0.
         12    1    3    3    0    0 -0.54830886633E+01  0.97171279661E+01 -0.35089771324E+02  0.36820902879E+02  0.00000000000E+00 0. -1.
         11    1    4    4    0    0  0.77918349111E+01 -0.13818777380E+02  0.16943531547E+02  0.23211087029E+02  0.51100000000E-03 0. -1.
        -11    1    4    4    0    0  0.98168155030E+01  0.71195878998E+01  0.52980329457E+01  0.13233576684E+02  0.51100000000E-03 0.  1.
         12    1    4    4    0    0 -0.12125561751E+02 -0.30179384863E+01  0.12848206832E+02  0.17922433408E+02  0.00000000000E+00 0. -1.
</event>
<event>
 8    1  0.2466538E-006  0.9118800E+02  0.7816164E-02  0.1184000E+00
        -11   -1    0    0    0    0  0.00000000000E+00  0.00000000000E+00  0.45593999997E+02  0.45594000000E+02  0.51100000000E-03 0.  1.
         11   -1    0    0    0    0 -0.00000000000E+00 -0.00000000000E+00 -0.45593999997E+02  0.45594000000E+02  0.51100000000E-03 0. -1.
         23    2    1    2    0    0  0.00000000000E+00  0.00000000000E+00  0.00000000000E+00  0.91188000000E+02  0.91188000000E+02 0.  0.
    9900012    2    3    3    0    0 -0.33157250708E+02  0.12733415981E+02  0.97073091733E+01  0.54367149813E+02  0.40000149629E+02 0.  0.
         12    1    3    3    0    0  0.33157250708E+02 -0.12733415981E+02 -0.97073091733E+01  0.36820850187E+02  0.00000000000E+00 0. -1.
         11    1    4    4    0    0 -0.43824914352E+01  0.18609821989E+02  0.43324207356E+01  0.19603611283E+02  0.51100000000E-03 0. -1.
        -11    1    4    4    0    0  0.73357706009E+00  0.33031558753E+01  0.11455831920E+01  0.35723011002E+01  0.51100000000E-03 0.  1.
        -12    1    4    4    0    0 -0.29508336333E+02 -0.91795618840E+01  0.42293052457E+01  0.31191237430E+02  0.00000000000E+00 0.  1.
</event>
<event>
 8    1  0.2466538E-006  0.9118800E+02  0.7816164E-02  0.1184000E+00
        -11   -1    0    0    0    0  0.00000000000E+00  0.00000000000E+00  0.45593999997E+02  0.45594000000E+02  0.51100000000E-03 0.  1.
         11   -1    0    0    0    0 -0.00000000000E+00 -0.00000000000E+00 -0.45593999997E+02  0.45594000000E+02  0.51100000000E-03 0. -1.
         23    2    1    2    0    0 -0.35527136788E-14  0.00000000000E+00  0.00000000000E+00  0.91188000000E+02  0.91188000000E+02 0.  0.
    9900012    2    3    3    0    0 -0.31820348144E+02  0.15211814982E+02  0.10575865953E+02  0.54367043851E+02  0.39999908067E+02 0.  0.
         12    1    3    3    0    0  0.31820348144E+02 -0.15211814982E+02 -0.10575865953E+02  0.36820956149E+02  0.00000000000E+00 0. -1.
         11    1    4    4    0    0 -0.32349669070E+01  0.45104753118E+00  0.18140713878E+02  0.18432415876E+02  0.51100000000E-03 0. -1.
        -11    1    4    4    0    0 -0.14564098424E+02  0.12052827425E+02 -0.10096118488E+02  0.21431640643E+02  0.51100000000E-03 0.  1.
         12    1    4    4    0    0 -0.14021282813E+02  0.27079400258E+01  0.25312705631E+01  0.14502987333E+02  0.00000000000E+00 0. -1.
</event>
<event>
 8    1  0.2466538E-006  0.9118800E+02  0.7816164E-02  0.1184000E+00
        -11   -1    0    0    0    0  0.00000000000E+00  0.00000000000E+00  0.45593999997E+02  0.45594000000E+02  0.51100000000E-03 0.  1.
         11   -1    0    0    0    0 -0.00000000000E+00 -0.00000000000E+00 -0.45593999997E+02  0.45594000000E+02  0.51100000000E-03 0. -1.
         23    2    1    2    0    0  0.00000000000E+00  0.00000000000E+00  0.00000000000E+00  0.91188000000E+02  0.91188000000E+02 0.  0.
    9900012    2    3    3    0    0  0.21507331305E+02 -0.27759512396E+02 -0.11073575536E+02  0.54367083343E+02  0.39999998097E+02 0.  0.
         12    1    3    3    0    0 -0.21507331305E+02  0.27759512396E+02  0.11073575536E+02  0.36820916657E+02  0.00000000000E+00 0. -1.
         11    1    4    4    0    0  0.11116797798E+02 -0.87327184749E+01 -0.10497361369E+02  0.17607900534E+02  0.51100000000E-03 0. -1.
        -11    1    4    4    0    0  0.19519867270E+02 -0.53722960157E+01  0.91511778544E+00  0.20266332267E+02  0.51100000000E-03 0.  1.
        -12    1    4    4    0    0 -0.91293337633E+01 -0.13654497906E+02 -0.14913319530E+01  0.16492850542E+02  0.00000000000E+00 0.  1.
</event>
<event>
 8    1  0.2466538E-006  0.9118800E+02  0.7816164E-02  0.1184000E+00
        -11   -1    0    0    0    0  0.00000000000E+00  0.00000000000E+00  0.45593999997E+02  0.45594000000E+02  0.51100000000E-03 0.  1.
         11   -1    0    0    0    0 -0.00000000000E+00 -0.00000000000E+00 -0.45593999997E+02  0.45594000000E+02  0.51100000000E-03 0. -1.
         23    2    1    2    0    0  0.17763568394E-14  0.00000000000E+00  0.00000000000E+00  0.91188000000E+02  0.91188000000E+02 0.  0.
    9900012    2    3    3    0    0  0.50510002059E+01 -0.27560931571E+02  0.23888524825E+02  0.54367093297E+02  0.40000020789E+02 0.  0.
         12    1    3    3    0    0 -0.50510002059E+01  0.27560931571E+02 -0.23888524825E+02  0.36820906703E+02  0.00000000000E+00 0. -1.
         11    1    4    4    0    0  0.69883387922E+01  0.26505679719E+00 -0.35371531820E+01  0.78370011532E+01  0.51100000000E-03 0. -1.
        -11    1    4    4    0    0 -0.95229314615E+01 -0.23326561346E+02  0.28030380509E+02  0.37689745549E+02  0.51100000000E-03 0.  1.
        -12    1    4    4    0    0  0.75855928752E+01 -0.44994270223E+01 -0.60470250196E+00  0.88403465946E+01  0.00000000000E+00 0.  1.
</event>
<event>
 8    1  0.2466538E-006  0.9118800E+02  0.7816164E-02  0.1184000E+00
        -11   -1    0    0    0    0  0.00000000000E+00  0.00000000000E+00  0.45593999997E+02  0.45594000000E+02  0.51100000000E-03 0. -1.
         11   -1    0    0    0    0 -0.00000000000E+00 -0.00000000000E+00 -0.45593999997E+02  0.45594000000E+02  0.51100000000E-03 0.  1.
         23    2    1    2    0    0  0.00000000000E+00  0.13322676296E-14 -0.35527136788E-14  0.91188000000E+02  0.91188000000E+02 0.  0.
    9900012    2    3    3    0    0  0.25702918971E+02  0.29823516469E+01  0.26196336741E+02  0.54367047763E+02  0.39999916986E+02 0.  0.
        -12    1    3    3    0    0 -0.25702918971E+02 -0.29823516469E+01 -0.26196336741E+02  0.36820952237E+02  0.00000000000E+00 0.  1.
         11    1    4    4    0    0  0.13145865504E+02 -0.11437449624E+02  0.25941409745E+02  0.31250372375E+02  0.51100000000E-03 0. -1.
        -11    1    4    4    0    0  0.13160833244E+00  0.53775421227E+01 -0.45184617791E+01  0.70250820027E+01  0.51100000000E-03 0.  1.
         12    1    4    4    0    0  0.12425445134E+02  0.90422591479E+01  0.47733887749E+01  0.16091593385E+02  0.00000000000E+00 0. -1.
</event>
<event>
 8    1  0.2466538E-006  0.9118800E+02  0.7816164E-02  0.1184000E+00
        -11   -1    0    0    0    0  0.00000000000E+00  0.00000000000E+00  0.45593999997E+02  0.45594000000E+02  0.51100000000E-03 0.  1.
         11   -1    0    0    0    0 -0.00000000000E+00 -0.00000000000E+00 -0.45593999997E+02  0.45594000000E+02  0.51100000000E-03 0. -1.
         23    2    1    2    0    0  0.00000000000E+00 -0.17763568394E-14  0.00000000000E+00  0.91188000000E+02  0.91188000000E+02 0.  0.
    9900012    2    3    3    0    0  0.19676995206E+02 -0.73951166305E+01 -0.30231061602E+02  0.54366960146E+02  0.39999717243E+02 0.  0.
        -12    1    3    3    0    0 -0.19676995206E+02  0.73951166305E+01  0.30231061602E+02  0.36821039854E+02  0.00000000000E+00 0.  1.
         11    1    4    4    0    0  0.11148812490E+02 -0.16287229540E+02 -0.29076006076E+02  0.35142339074E+02  0.51100000000E-03 0. -1.
        -11    1    4    4    0    0  0.82862506845E+01  0.78705936976E+00  0.43812557341E+01  0.94062115077E+01  0.51100000000E-03 0.  1.
         12    1    4    4    0    0  0.24193203140E+00  0.81050535397E+01 -0.55363112610E+01  0.98184095640E+01  0.00000000000E+00 0. -1.
</event>
<event>
 8    1  0.2466538E-006  0.9118800E+02  0.7816164E-02  0.1184000E+00
        -11   -1    0    0    0    0  0.00000000000E+00  0.00000000000E+00  0.45593999997E+02  0.45594000000E+02  0.51100000000E-03 0. -1.
         11   -1    0    0    0    0 -0.00000000000E+00 -0.00000000000E+00 -0.45593999997E+02  0.45594000000E+02  0.51100000000E-03 0.  1.
         23    2    1    2    0    0  0.35527136788E-14  0.88817841970E-15  0.35527136788E-14  0.91188000000E+02  0.91188000000E+02 0.  0.
    9900012    2    3    3    0    0 -0.23738276775E+02 -0.47231097088E+01 -0.27748286064E+02  0.54367069416E+02  0.39999966348E+02 0.  0.
         12    1    3    3    0    0  0.23738276775E+02  0.47231097088E+01  0.27748286064E+02  0.36820930584E+02  0.00000000000E+00 0. -1.
         11    1    4    4    0    0 -0.12780872707E+02 -0.26482209107E+01  0.43761066053E+01  0.13766411676E+02  0.51100000000E-03 0. -1.
        -11    1    4    4    0    0 -0.10710451964E+02 -0.10492398525E+02 -0.26583088818E+02  0.30519908576E+02  0.51100000000E-03 0.  1.
        -12    1    4    4    0    0 -0.24695210403E+00  0.84175097272E+01 -0.55413038510E+01  0.10080749165E+02  0.00000000000E+00 0.  1.
</event>
<event>
 8    1  0.2466538E-006  0.9118800E+02  0.7816164E-02  0.1184000E+00
        -11   -1    0    0    0    0  0.00000000000E+00  0.00000000000E+00  0.45593999997E+02  0.45594000000E+02  0.51100000000E-03 0.  1.
         11   -1    0    0    0    0 -0.00000000000E+00 -0.00000000000E+00 -0.45593999997E+02  0.45594000000E+02  0.51100000000E-03 0. -1.
         23    2    1    2    0    0 -0.88817841970E-15  0.35527136788E-14  0.35527136788E-14  0.91188000000E+02  0.91188000000E+02 0.  0.
    9900012    2    3    3    0    0 -0.61995692631E+01  0.18660811352E+02  0.31130671276E+02  0.54367092441E+02  0.40000018838E+02 0.  0.
         12    1    3    3    0    0  0.61995692631E+01 -0.18660811352E+02 -0.31130671276E+02  0.36820907559E+02  0.00000000000E+00 0. -1.
         11    1    4    4    0    0  0.45142402535E+01  0.92258076456E+01  0.32569448052E+01  0.10775044385E+02  0.51100000000E-03 0.  1.
        -11    1    4    4    0    0  0.67651659578E+01  0.11122792939E+02  0.33733841868E+01  0.13448558076E+02  0.51100000000E-03 0. -1.
        -12    1    4    4    0    0 -0.17478975474E+02 -0.16877892326E+01  0.24500342284E+02  0.30143489980E+02  0.00000000000E+00 0.  1.
</event>
<event>
 8    1  0.2466538E-006  0.9118800E+02  0.7816164E-02  0.1184000E+00
        -11   -1    0    0    0    0  0.00000000000E+00  0.00000000000E+00  0.45593999997E+02  0.45594000000E+02  0.51100000000E-03 0. -1.
         11   -1    0    0    0    0 -0.00000000000E+00 -0.00000000000E+00 -0.45593999997E+02  0.45594000000E+02  0.51100000000E-03 0.  1.
         23    2    1    2    0    0  0.17763568394E-14  0.00000000000E+00  0.00000000000E+00  0.91188000000E+02  0.91188000000E+02 0.  0.
    9900012    2    3    3    0    0  0.15586470943E+02 -0.47538048700E+01 -0.33018817609E+02  0.54367094885E+02  0.40000024409E+02 0.  0.
         12    1    3    3    0    0 -0.15586470943E+02  0.47538048700E+01  0.33018817609E+02  0.36820905115E+02  0.00000000000E+00 0. -1.
         11    1    4    4    0    0 -0.96223013335E+01 -0.68966211389E+01 -0.53539952855E+01  0.12992972403E+02  0.51100000000E-03 0. -1.
        -11    1    4    4    0    0  0.15397529104E+02  0.92016911255E+01 -0.11970223602E+02  0.21564815682E+02  0.51100000000E-03 0.  1.
        -12    1    4    4    0    0  0.98112431728E+01 -0.70588748566E+01 -0.15694598722E+02  0.19809306800E+02  0.00000000000E+00 0.  1.
</event>
<event>
 8    1  0.2466538E-006  0.9118800E+02  0.7816164E-02  0.1184000E+00
        -11   -1    0    0    0    0  0.00000000000E+00  0.00000000000E+00  0.45593999997E+02  0.45594000000E+02  0.51100000000E-03 0. -1.
         11   -1    0    0    0    0 -0.00000000000E+00 -0.00000000000E+00 -0.45593999997E+02  0.45594000000E+02  0.51100000000E-03 0.  1.
         23    2    1    2    0    0  0.00000000000E+00  0.00000000000E+00  0.11102230246E-15  0.91188000000E+02  0.91188000000E+02 0.  0.
    9900012    2    3    3    0    0 -0.13812060055E+02  0.34122893337E+02  0.80488846508E+00  0.54366909602E+02  0.39999602017E+02 0.  0.
        -12    1    3    3    0    0  0.13812060055E+02 -0.34122893337E+02 -0.80488846508E+00  0.36821090398E+02  0.00000000000E+00 0.  1.
         11    1    4    4    0    0 -0.27314038996E+00 -0.62285435558E+01  0.91422986869E+00  0.63012044097E+01  0.51100000000E-03 0. -1.
        -11    1    4    4    0    0 -0.10161585598E+02  0.30700062597E+02 -0.99906097895E+01  0.33846180723E+02  0.51100000000E-03 0.  1.
        -12    1    4    4    0    0 -0.33773340675E+01  0.96513742959E+01  0.98812683859E+01  0.14219524469E+02  0.00000000000E+00 0.  1.
</event>
<event>
 8    1  0.2466538E-006  0.9118800E+02  0.7816164E-02  0.1184000E+00
        -11   -1    0    0    0    0  0.00000000000E+00  0.00000000000E+00  0.45593999997E+02  0.45594000000E+02  0.51100000000E-03 0. -1.
         11   -1    0    0    0    0 -0.00000000000E+00 -0.00000000000E+00 -0.45593999997E+02  0.45594000000E+02  0.51100000000E-03 0.  1.
         23    2    1    2    0    0 -0.44408920985E-15  0.35527136788E-14  0.00000000000E+00  0.91188000000E+02  0.91188000000E+02 0.  0.
    9900012    2    3    3    0    0  0.25984878729E+01 -0.30827826046E+02  0.19966445017E+02  0.54367273166E+02  0.40000430835E+02 0.  0.
        -12    1    3    3    0    0 -0.25984878729E+01  0.30827826046E+02 -0.19966445017E+02  0.36820726834E+02  0.00000000000E+00 0.  1.
         11    1    4    4    0    0 -0.16424792462E+01 -0.36026416334E+00 -0.62500329969E+01  0.64722825235E+01  0.51100000000E-03 0. -1.
        -11    1    4    4    0    0 -0.33073752998E+01 -0.46008224260E+01 -0.43528278226E+01  0.71451668058E+01  0.51100000000E-03 0.  1.
         12    1    4    4    0    0  0.75483424188E+01 -0.25866739457E+02  0.30569305837E+02  0.40749823837E+02  0.00000000000E+00 0. -1.
</event>
<event>
 8    1  0.2466538E-006  0.9118800E+02  0.7816164E-02  0.1184000E+00
        -11   -1    0    0    0    0  0.00000000000E+00  0.00000000000E+00  0.45593999997E+02  0.45594000000E+02  0.51100000000E-03 0.  1.
         11   -1    0    0    0    0 -0.00000000000E+00 -0.00000000000E+00 -0.45593999997E+02  0.45594000000E+02  0.51100000000E-03 0. -1.
         23    2    1    2    0    0  0.00000000000E+00 -0.88817841970E-15  0.00000000000E+00  0.91188000000E+02  0.91188000000E+02 0.  0.
    9900012    2    3    3    0    0 -0.50900851690E+01  0.40855525465E+01  0.36237794858E+02  0.54367102634E+02  0.40000042076E+02 0.  0.
         12    1    3    3    0    0  0.50900851690E+01 -0.40855525465E+01 -0.36237794858E+02  0.36820897366E+02  0.00000000000E+00 0. -1.
         11    1    4    4    0    0 -0.92620180920E+01 -0.10426127688E+02  0.23394552496E+02  0.27235899186E+02  0.51100000000E-03 0. -1.
        -11    1    4    4    0    0  0.99573933909E+01  0.40325962674E+01  0.18938512803E+01  0.10908629095E+02  0.51100000000E-03 0.  1.
        -12    1    4    4    0    0 -0.57854604679E+01  0.10479083967E+02  0.10949391082E+02  0.16222574354E+02  0.00000000000E+00 0.  1.
</event>
<event>
 8    1  0.2466538E-006  0.9118800E+02  0.7816164E-02  0.1184000E+00
        -11   -1    0    0    0    0  0.00000000000E+00  0.00000000000E+00  0.45593999997E+02  0.45594000000E+02  0.51100000000E-03 0.  1.
         11   -1    0    0    0    0 -0.00000000000E+00 -0.00000000000E+00 -0.45593999997E+02  0.45594000000E+02  0.51100000000E-03 0. -1.
         23    2    1    2    0    0  0.00000000000E+00  0.00000000000E+00  0.35527136788E-14  0.91188000000E+02  0.91188000000E+02 0.  0.
    9900012    2    3    3    0    0 -0.17713724770E+02 -0.22818637484E+02 -0.22832307811E+02  0.54367074675E+02  0.39999978336E+02 0.  0.
        -12    1    3    3    0    0  0.17713724770E+02  0.22818637484E+02  0.22832307811E+02  0.36820925325E+02  0.00000000000E+00 0.  1.
         11    1    4    4    0    0 -0.95774964132E+01 -0.71970860082E+01 -0.11141772992E+02  0.16360488691E+02  0.51100000000E-03 0. -1.
        -11    1    4    4    0    0  0.12530534906E+01 -0.21194495078E+02  0.10129084254E+01  0.21255652151E+02  0.51100000000E-03 0.  1.
        -12    1    4    4    0    0 -0.93892818471E+01  0.55729436015E+01 -0.12703443244E+02  0.16750933832E+02  0.00000000000E+00 0.  1.
</event>
<event>
 8    1  0.2466538E-006  0.9118800E+02  0.7816164E-02  0.1184000E+00
        -11   -1    0    0    0    0  0.00000000000E+00  0.00000000000E+00  0.45593999997E+02  0.45594000000E+02  0.51100000000E-03 0.  1.
         11   -1    0    0    0    0 -0.00000000000E+00 -0.00000000000E+00 -0.45593999997E+02  0.45594000000E+02  0.51100000000E-03 0. -1.
         23    2    1    2    0    0  0.00000000000E+00 -0.88817841970E-15 -0.17763568394E-14  0.91188000000E+02  0.91188000000E+02 0.  0.
    9900012    2    3    3    0    0  0.34623692774E+02 -0.40616101575E+01 -0.11852509639E+02  0.54367098828E+02  0.40000033398E+02 0.  0.
        -12    1    3    3    0    0 -0.34623692774E+02  0.40616101575E+01  0.11852509639E+02  0.36820901172E+02  0.00000000000E+00 0.  1.
         11    1    4    4    0    0  0.25243687902E+02  0.83227572129E+01 -0.16303265856E+02  0.31181862426E+02  0.51100000000E-03 0. -1.
        -11    1    4    4    0    0  0.17933677786E+01  0.22113807396E+01  0.60215110034E+01  0.66607032505E+01  0.51100000000E-03 0.  1.
         12    1    4    4    0    0  0.75866370937E+01 -0.14595748110E+02 -0.15707547862E+01  0.16524533152E+02  0.00000000000E+00 0. -1.
</event>
<event>
 8    1  0.2466538E-006  0.9118800E+02  0.7816164E-02  0.1184000E+00
        -11   -1    0    0    0    0  0.00000000000E+00  0.00000000000E+00  0.45593999997E+02  0.45594000000E+02  0.51100000000E-03 0.  1.
         11   -1    0    0    0    0 -0.00000000000E+00 -0.00000000000E+00 -0.45593999997E+02  0.45594000000E+02  0.51100000000E-03 0. -1.
         23    2    1    2    0    0  0.00000000000E+00  0.00000000000E+00  0.00000000000E+00  0.91188000000E+02  0.91188000000E+02 0.  0.
    9900012    2    3    3    0    0  0.22856650473E+02 -0.23741817848E+02 -0.16421873876E+02  0.54367104747E+02  0.40000046893E+02 0.  0.
         12    1    3    3    0    0 -0.22856650473E+02  0.23741817848E+02  0.16421873876E+02  0.36820895253E+02  0.00000000000E+00 0. -1.
         11    1    4    4    0    0  0.25929275043E+00 -0.13386628367E+02 -0.16938428017E+02  0.21591187919E+02  0.51100000000E-03 0. -1.
        -11    1    4    4    0    0  0.21881916795E+02 -0.18694701938E+01 -0.51368111866E+01  0.22554379417E+02  0.51100000000E-03 0.  1.
         12    1    4    4    0    0  0.71544092742E+00 -0.84857192870E+01  0.56533653278E+01  0.10221537412E+02  0.00000000000E+00 0. -1.
</event>
<event>
 8    1  0.2466538E-006  0.9118800E+02  0.7816164E-02  0.1184000E+00
        -11   -1    0    0    0    0  0.00000000000E+00  0.00000000000E+00  0.45593999997E+02  0.45594000000E+02  0.51100000000E-03 0. -1.
         11   -1    0    0    0    0 -0.00000000000E+00 -0.00000000000E+00 -0.45593999997E+02  0.45594000000E+02  0.51100000000E-03 0.  1.
         23    2    1    2    0    0 -0.35527136788E-14  0.17763568394E-14  0.00000000000E+00  0.91188000000E+02  0.91188000000E+02 0.  0.
    9900012    2    3    3    0    0  0.31115365189E+02 -0.11441284182E+02 -0.16022200242E+02  0.54367084270E+02  0.40000000211E+02 0.  0.
         12    1    3    3    0    0 -0.31115365189E+02  0.11441284182E+02  0.16022200242E+02  0.36820915730E+02  0.00000000000E+00 0. -1.
         11    1    4    4    0    0  0.37087161704E+02 -0.13674932356E+02 -0.13305563895E+02  0.41707305943E+02  0.51100000000E-03 0. -1.
        -11    1    4    4    0    0 -0.54742447897E+01 -0.31103786420E+01 -0.35504704240E+01  0.72282537177E+01  0.51100000000E-03 0.  1.
         12    1    4    4    0    0 -0.49755172497E+00  0.53440268152E+01  0.83383407719E+00  0.54315246100E+01  0.00000000000E+00 0. -1.
</event>
<event>
 8    1  0.2466538E-006  0.9118800E+02  0.7816164E-02  0.1184000E+00
        -11   -1    0    0    0    0  0.00000000000E+00  0.00000000000E+00  0.45593999997E+02  0.45594000000E+02  0.51100000000E-03 0. -1.
         11   -1    0    0    0    0 -0.00000000000E+00 -0.00000000000E+00 -0.45593999997E+02  0.45594000000E+02  0.51100000000E-03 0.  1.
         23    2    1    2    0    0  0.00000000000E+00  0.00000000000E+00  0.00000000000E+00  0.91188000000E+02  0.91188000000E+02 0.  0.
    9900012    2    3    3    0    0 -0.35929550250E+02  0.14699565845E+01  0.79174363571E+01  0.54367093548E+02  0.40000021361E+02 0.  0.
         12    1    3    3    0    0  0.35929550250E+02 -0.14699565845E+01 -0.79174363571E+01  0.36820906452E+02  0.00000000000E+00 0. -1.
         11    1    4    4    0    0 -0.25376182712E+02  0.30959580476E+01  0.79164952358E+01  0.26762034719E+02  0.51100000000E-03 0. -1.
        -11    1    4    4    0    0 -0.98245064615E+01  0.66520700173E+01 -0.93420043121E+01  0.15101126036E+02  0.51100000000E-03 0.  1.
         12    1    4    4    0    0 -0.72886107657E+00 -0.82780714804E+01  0.93429454333E+01  0.12503932792E+02  0.00000000000E+00 0. -1.
</event>
<event>
 8    1  0.2466538E-006  0.9118800E+02  0.7816164E-02  0.1184000E+00
        -11   -1    0    0    0    0  0.00000000000E+00  0.00000000000E+00  0.45593999997E+02  0.45594000000E+02  0.51100000000E-03 0.  1.
         11   -1    0    0    0    0 -0.00000000000E+00 -0.00000000000E+00 -0.45593999997E+02  0.45594000000E+02  0.51100000000E-03 0. -1.
         23    2    1    2    0    0  0.00000000000E+00  0.88817841970E-15  0.00000000000E+00  0.91188000000E+02  0.91188000000E+02 0.  0.
    9900012    2    3    3    0    0  0.34736621002E+02  0.30244896820E+01  0.11831868366E+02  0.54367170494E+02  0.40000196775E+02 0.  0.
        -12    1    3    3    0    0 -0.34736621002E+02 -0.30244896820E+01 -0.11831868366E+02  0.36820829506E+02  0.00000000000E+00 0.  1.
         11    1    4    4    0    0 -0.53039236654E+01  0.25480602391E+01 -0.22934089813E+00  0.58887022967E+01  0.51100000000E-03 0. -1.
        -11    1    4    4    0    0  0.53227073552E+01 -0.41175978200E+01  0.11651932382E+02  0.13455606783E+02  0.51100000000E-03 0.  1.
         12    1    4    4    0    0  0.34717837312E+02  0.45940272629E+01  0.40927688217E+00  0.35022861415E+02  0.00000000000E+00 0. -1.
</event>
<event>
 8    1  0.2466538E-006  0.9118800E+02  0.7816164E-02  0.1184000E+00
        -11   -1    0    0    0    0  0.00000000000E+00  0.00000000000E+00  0.45593999997E+02  0.45594000000E+02  0.51100000000E-03 0.  1.
         11   -1    0    0    0    0 -0.00000000000E+00 -0.00000000000E+00 -0.45593999997E+02  0.45594000000E+02  0.51100000000E-03 0. -1.
         23    2    1    2    0    0  0.00000000000E+00 -0.35527136788E-14 -0.35527136788E-14  0.91188000000E+02  0.91188000000E+02 0.  0.
    9900012    2    3    3    0    0  0.13498270166E+02 -0.25798628199E+02 -0.22538989276E+02  0.54367101695E+02  0.40000039933E+02 0.  0.
        -12    1    3    3    0    0 -0.13498270166E+02  0.25798628199E+02  0.22538989276E+02  0.36820898305E+02  0.00000000000E+00 0.  1.
         11    1    4    4    0    0 -0.75348175718E+01  0.36283182172E+01 -0.75314513172E+01  0.11254373733E+02  0.51100000000E-03 0. -1.
        -11    1    4    4    0    0  0.18294502023E+02 -0.20234243106E+02 -0.25601680587E+01  0.27398318545E+02  0.51100000000E-03 0.  1.
        -12    1    4    4    0    0  0.27385857148E+01 -0.91927033099E+01 -0.12447369901E+02  0.15714409416E+02  0.00000000000E+00 0.  1.
</event>
<event>
 8    1  0.2466538E-006  0.9118800E+02  0.7816164E-02  0.1184000E+00
        -11   -1    0    0    0    0  0.00000000000E+00  0.00000000000E+00  0.45593999997E+02  0.45594000000E+02  0.51100000000E-03 0.  1.
         11   -1    0    0    0    0 -0.00000000000E+00 -0.00000000000E+00 -0.45593999997E+02  0.45594000000E+02  0.51100000000E-03 0. -1.
         23    2    1    2    0    0  0.00000000000E+00  0.17763568394E-14  0.00000000000E+00  0.91188000000E+02  0.91188000000E+02 0.  0.
    9900012    2    3    3    0    0  0.23411958586E+02  0.65709310103E+01  0.27649262021E+02  0.54367100643E+02  0.40000037535E+02 0.  0.
        -12    1    3    3    0    0 -0.23411958586E+02 -0.65709310103E+01 -0.27649262021E+02  0.36820899357E+02  0.00000000000E+00 0.  1.
         11    1    4    4    0    0  0.82957050960E+01 -0.15546743909E+02  0.11051868055E+02  0.20800571073E+02  0.51100000000E-03 0. -1.
        -11    1    4    4    0    0 -0.20890760721E+00  0.53270933634E+01 -0.14589169777E+00  0.53331839214E+01  0.51100000000E-03 0.  1.
         12    1    4    4    0    0  0.15325161097E+02  0.16790581556E+02  0.16743285664E+02  0.28233345648E+02  0.00000000000E+00 0. -1.
</event>
<event>
 8    1  0.2466538E-006  0.9118800E+02  0.7816164E-02  0.1184000E+00
        -11   -1    0    0    0    0  0.00000000000E+00  0.00000000000E+00  0.45593999997E+02  0.45594000000E+02  0.51100000000E-03 0. -1.
         11   -1    0    0    0    0 -0.00000000000E+00 -0.00000000000E+00 -0.45593999997E+02  0.45594000000E+02  0.51100000000E-03 0.  1.
         23    2    1    2    0    0  0.00000000000E+00  0.35527136788E-14  0.00000000000E+00  0.91188000000E+02  0.91188000000E+02 0.  0.
    9900012    2    3    3    0    0 -0.19789915231E+02  0.20628046488E+02 -0.23208281618E+02  0.54367063260E+02  0.39999952313E+02 0.  0.
         12    1    3    3    0    0  0.19789915231E+02 -0.20628046488E+02  0.23208281618E+02  0.36820936740E+02  0.00000000000E+00 0. -1.
         11    1    4    4    0    0 -0.21228323944E+02  0.11381243329E+01 -0.22311015372E+01  0.21375567333E+02  0.51100000000E-03 0. -1.
        -11    1    4    4    0    0 -0.58231107745E+01  0.20792399038E+01 -0.79261382873E+01  0.10052637767E+02  0.51100000000E-03 0.  1.
         12    1    4    4    0    0  0.72615194880E+01  0.17410682252E+02 -0.13051041794E+02  0.22938858159E+02  0.00000000000E+00 0. -1.
</event>
<event>
 8    1  0.2466538E-006  0.9118800E+02  0.7816164E-02  0.1184000E+00
        -11   -1    0    0    0    0  0.00000000000E+00  0.00000000000E+00  0.45593999997E+02  0.45594000000E+02  0.51100000000E-03 0. -1.
         11   -1    0    0    0    0 -0.00000000000E+00 -0.00000000000E+00 -0.45593999997E+02  0.45594000000E+02  0.51100000000E-03 0.  1.
         23    2    1    2    0    0 -0.88817841970E-15 -0.35527136788E-14  0.00000000000E+00  0.91188000000E+02  0.91188000000E+02 0.  0.
    9900012    2    3    3    0    0  0.35270502516E+01  0.18787909074E+02 -0.31469882456E+02  0.54367094081E+02  0.40000022578E+02 0.  0.
         12    1    3    3    0    0 -0.35270502516E+01 -0.18787909074E+02  0.31469882456E+02  0.36820905919E+02  0.00000000000E+00 0. -1.
         11    1    4    4    0    0  0.87486554454E+00  0.25286263903E+00 -0.57114964530E+00  0.10749611219E+01  0.51100000000E-03 0. -1.
        -11    1    4    4    0    0  0.11794744403E+02  0.26872303705E+02 -0.28048228137E+02  0.40594824841E+02  0.51100000000E-03 0.  1.
         12    1    4    4    0    0 -0.91425596955E+01 -0.83372572699E+01 -0.28505046735E+01  0.12697308119E+02  0.00000000000E+00 0. -1.
</event>
<event>
 8    1  0.2466538E-006  0.9118800E+02  0.7816164E-02  0.1184000E+00
        -11   -1    0    0    0    0  0.00000000000E+00  0.00000000000E+00  0.45593999997E+02  0.45594000000E+02  0.51100000000E-03 0.  1.
         11   -1    0    0    0    0 -0.00000000000E+00 -0.00000000000E+00 -0.45593999997E+02  0.45594000000E+02  0.51100000000E-03 0. -1.
         23    2    1    2    0    0  0.00000000000E+00  0.00000000000E+00 -0.35527136788E-14  0.91188000000E+02  0.91188000000E+02 0.  0.
    9900012    2    3    3    0    0 -0.22887142819E+02  0.21104179942E+02  0.19661466311E+02  0.54367068793E+02  0.39999964928E+02 0.  0.
         12    1    3    3    0    0  0.22887142819E+02 -0.21104179942E+02 -0.19661466311E+02  0.36820931207E+02  0.00000000000E+00 0. -1.
         11    1    4    4    0    0  0.20560387382E+01 -0.51802841523E+01  0.54333793565E+01  0.77835885480E+01  0.51100000000E-03 0. -1.
        -11    1    4    4    0    0 -0.48478776874E+01  0.20989536364E+02  0.14201944439E+02  0.25802282476E+02  0.51100000000E-03 0.  1.
        -12    1    4    4    0    0 -0.20095303870E+02  0.52949277300E+01  0.26142515448E-01  0.20781197769E+02  0.00000000000E+00 0.  1.
</event>
<event>
 8    1  0.2466538E-006  0.9118800E+02  0.7816164E-02  0.1184000E+00
        -11   -1    0    0    0    0  0.00000000000E+00  0.00000000000E+00  0.45593999997E+02  0.45594000000E+02  0.51100000000E-03 0. -1.
         11   -1    0    0    0    0 -0.00000000000E+00 -0.00000000000E+00 -0.45593999997E+02  0.45594000000E+02  0.51100000000E-03 0.  1.
         23    2    1    2    0    0  0.00000000000E+00 -0.22204460493E-15  0.00000000000E+00  0.91188000000E+02  0.91188000000E+02 0.  0.
    9900012    2    3    3    0    0 -0.17846482658E+02  0.16190112405E+01 -0.32166160164E+02  0.54367082027E+02  0.39999995097E+02 0.  0.
         12    1    3    3    0    0  0.17846482658E+02 -0.16190112405E+01  0.32166160164E+02  0.36820917973E+02  0.00000000000E+00 0. -1.
         11    1    4    4    0    0 -0.16443675285E+02 -0.84503456745E+01 -0.22226978743E+02  0.28910921522E+02  0.51100000000E-03 0. -1.
        -11    1    4    4    0    0 -0.10078693946E+02  0.10189457777E+02 -0.84939585034E+01  0.16659905545E+02  0.51100000000E-03 0.  1.
        -12    1    4    4    0    0  0.86758865731E+01 -0.12010086230E+00 -0.14452229174E+01  0.87962549603E+01  0.00000000000E+00 0.  1.
</event>
<event>
 8    1  0.2466538E-006  0.9118800E+02  0.7816164E-02  0.1184000E+00
        -11   -1    0    0    0    0  0.00000000000E+00  0.00000000000E+00  0.45593999997E+02  0.45594000000E+02  0.51100000000E-03 0. -1.
         11   -1    0    0    0    0 -0.00000000000E+00 -0.00000000000E+00 -0.45593999997E+02  0.45594000000E+02  0.51100000000E-03 0.  1.
         23    2    1    2    0    0  0.00000000000E+00  0.00000000000E+00 -0.88817841970E-15  0.91188000000E+02  0.91188000000E+02 0.  0.
    9900012    2    3    3    0    0 -0.13195226854E+02 -0.33694781026E+02  0.68070308625E+01  0.54366974087E+02  0.39999749026E+02 0.  0.
         12    1    3    3    0    0  0.13195226854E+02  0.33694781026E+02 -0.68070308625E+01  0.36821025913E+02  0.00000000000E+00 0. -1.
         11    1    4    4    0    0  0.92351661912E+01 -0.18234868930E+02  0.12314994215E+01  0.20477190495E+02  0.51100000000E-03 0. -1.
        -11    1    4    4    0    0 -0.69217576534E+01  0.35523600252E+01 -0.23143577924E+01  0.81170341267E+01  0.51100000000E-03 0.  1.
        -12    1    4    4    0    0 -0.15508635391E+02 -0.19012272121E+02  0.78898892334E+01  0.25772749466E+02  0.00000000000E+00 0.  1.
</event>
<event>
 8    1  0.2466538E-006  0.9118800E+02  0.7816164E-02  0.1184000E+00
        -11   -1    0    0    0    0  0.00000000000E+00  0.00000000000E+00  0.45593999997E+02  0.45594000000E+02  0.51100000000E-03 0. -1.
         11   -1    0    0    0    0 -0.00000000000E+00 -0.00000000000E+00 -0.45593999997E+02  0.45594000000E+02  0.51100000000E-03 0.  1.
         23    2    1    2    0    0 -0.35527136788E-14  0.00000000000E+00  0.00000000000E+00  0.91188000000E+02  0.91188000000E+02 0.  0.
    9900012    2    3    3    0    0  0.20956886317E+02  0.25538033321E+02  0.16260304033E+02  0.54367085871E+02  0.40000003861E+02 0.  0.
        -12    1    3    3    0    0 -0.20956886317E+02 -0.25538033321E+02 -0.16260304033E+02  0.36820914129E+02  0.00000000000E+00 0.  1.
         11    1    4    4    0    0  0.93937473775E+01  0.10083860407E+02 -0.83631373170E+01  0.16120446537E+02  0.51100000000E-03 0. -1.
        -11    1    4    4    0    0  0.49510408632E+01  0.71466220668E+01 -0.25600220985E+01  0.90631521007E+01  0.51100000000E-03 0.  1.
         12    1    4    4    0    0  0.66120980764E+01  0.83075508474E+01  0.27183463449E+02  0.29183487234E+02  0.00000000000E+00 0. -1.
</event>
<event>
 8    1  0.2466538E-006  0.9118800E+02  0.7816164E-02  0.1184000E+00
        -11   -1    0    0    0    0  0.00000000000E+00  0.00000000000E+00  0.45593999997E+02  0.45594000000E+02  0.51100000000E-03 0.  1.
         11   -1    0    0    0    0 -0.00000000000E+00 -0.00000000000E+00 -0.45593999997E+02  0.45594000000E+02  0.51100000000E-03 0. -1.
         23    2    1    2    0    0 -0.35527136788E-14  0.00000000000E+00  0.35527136788E-14  0.91188000000E+02  0.91188000000E+02 0.  0.
    9900012    2    3    3    0    0 -0.27278574058E+02 -0.16996736755E+02  0.17965685748E+02  0.54367142767E+02  0.40000133567E+02 0.  0.
         12    1    3    3    0    0  0.27278574058E+02  0.16996736755E+02 -0.17965685748E+02  0.36820857233E+02  0.00000000000E+00 0. -1.
         11    1    4    4    0    0  0.49127838881E+01  0.45012343637E+01 -0.10146335660E+01  0.67398841134E+01  0.51100000000E-03 0. -1.
        -11    1    4    4    0    0 -0.10413835846E+02 -0.24737160975E+01  0.15015380981E+02  0.18439872956E+02  0.51100000000E-03 0.  1.
         12    1    4    4    0    0 -0.21777522100E+02 -0.19024255021E+02  0.39649383331E+01  0.29187385698E+02  0.00000000000E+00 0. -1.
</event>
<event>
 8    1  0.2466538E-006  0.9118800E+02  0.7816164E-02  0.1184000E+00
        -11   -1    0    0    0    0  0.00000000000E+00  0.00000000000E+00  0.45593999997E+02  0.45594000000E+02  0.51100000000E-03 0. -1.
         11   -1    0    0    0    0 -0.00000000000E+00 -0.00000000000E+00 -0.45593999997E+02  0.45594000000E+02  0.51100000000E-03 0.  1.
         23    2    1    2    0    0 -0.88817841970E-15  0.00000000000E+00  0.71054273576E-14  0.91188000000E+02  0.91188000000E+02 0.  0.
    9900012    2    3    3    0    0 -0.78912623179E+01 -0.15920253068E+02  0.32249854099E+02  0.54367087897E+02  0.40000008478E+02 0.  0.
        -12    1    3    3    0    0  0.78912623179E+01  0.15920253068E+02 -0.32249854099E+02  0.36820912103E+02  0.00000000000E+00 0.  1.
         11    1    4    4    0    0  0.43589126317E+01 -0.11983804328E+02 -0.25582018029E+01  0.13006001777E+02  0.51100000000E-03 0. -1.
        -11    1    4    4    0    0 -0.13624993580E+02 -0.15916880428E+01  0.11515146787E+02  0.17910123581E+02  0.51100000000E-03 0.  1.
        -12    1    4    4    0    0  0.13748186302E+01 -0.23447606967E+01  0.23292909114E+02  0.23450962539E+02  0.00000000000E+00 0.  1.
</event>
<event>
 8    1  0.2466538E-006  0.9118800E+02  0.7816164E-02  0.1184000E+00
        -11   -1    0    0    0    0  0.00000000000E+00  0.00000000000E+00  0.45593999997E+02  0.45594000000E+02  0.51100000000E-03 0.  1.
         11   -1    0    0    0    0 -0.00000000000E+00 -0.00000000000E+00 -0.45593999997E+02  0.45594000000E+02  0.51100000000E-03 0. -1.
         23    2    1    2    0    0  0.15144135945E-14  0.00000000000E+00 -0.17763568394E-14  0.91188000000E+02  0.91188000000E+02 0.  0.
    9900012    2    3    3    0    0  0.97272353455E-02 -0.33699143060E+02  0.14837409030E+02  0.54367067851E+02  0.39999962780E+02 0.  0.
        -12    1    3    3    0    0 -0.97272353455E-02  0.33699143060E+02 -0.14837409030E+02  0.36820932149E+02  0.00000000000E+00 0.  1.
         11    1    4    4    0    0 -0.23918053235E+00 -0.16306772506E+01 -0.17034254842E+01  0.23702266271E+01  0.51100000000E-03 0. -1.
        -11    1    4    4    0    0  0.49703766667E+01 -0.88797039112E+01 -0.11466270008E+02  0.15330659931E+02  0.51100000000E-03 0.  1.
        -12    1    4    4    0    0 -0.47214688990E+01 -0.23188761898E+02  0.28007104522E+02  0.36666181293E+02  0.00000000000E+00 0.  1.
</event>
<event>
 8    1  0.2466538E-006  0.9118800E+02  0.7816164E-02  0.1184000E+00
        -11   -1    0    0    0    0  0.00000000000E+00  0.00000000000E+00  0.45593999997E+02  0.45594000000E+02  0.51100000000E-03 0. -1.
         11   -1    0    0    0    0 -0.00000000000E+00 -0.00000000000E+00 -0.45593999997E+02  0.45594000000E+02  0.51100000000E-03 0.  1.
         23    2    1    2    0    0  0.00000000000E+00  0.00000000000E+00  0.00000000000E+00  0.91188000000E+02  0.91188000000E+02 0.  0.
    9900012    2    3    3    0    0  0.11993835374E+02  0.30051030032E+02  0.17574469850E+02  0.54367102625E+02  0.40000042053E+02 0.  0.
        -12    1    3    3    0    0 -0.11993835374E+02 -0.30051030032E+02 -0.17574469850E+02  0.36820897375E+02  0.00000000000E+00 0.  1.
         11    1    4    4    0    0  0.15933437638E+02 -0.38920340798E+01  0.81993673360E+01  0.18337175061E+02  0.51100000000E-03 0. -1.
        -11    1    4    4    0    0 -0.40978029645E+01  0.22973625973E+02  0.91240059815E+01  0.25056475508E+02  0.51100000000E-03 0.  1.
         12    1    4    4    0    0  0.15820070135E+00  0.10969438139E+02  0.25109653298E+00  0.10973452056E+02  0.00000000000E+00 0. -1.
</event>
<event>
 8    1  0.2466538E-006  0.9118800E+02  0.7816164E-02  0.1184000E+00
        -11   -1    0    0    0    0  0.00000000000E+00  0.00000000000E+00  0.45593999997E+02  0.45594000000E+02  0.51100000000E-03 0. -1.
         11   -1    0    0    0    0 -0.00000000000E+00 -0.00000000000E+00 -0.45593999997E+02  0.45594000000E+02  0.51100000000E-03 0.  1.
         23    2    1    2    0    0  0.00000000000E+00  0.00000000000E+00  0.00000000000E+00  0.91188000000E+02  0.91188000000E+02 0.  0.
    9900012    2    3    3    0    0  0.18221300390E+02  0.31616824381E+02 -0.49133840961E+01  0.54367072321E+02  0.39999972970E+02 0.  0.
        -12    1    3    3    0    0 -0.18221300390E+02 -0.31616824381E+02  0.49133840961E+01  0.36820927679E+02  0.00000000000E+00 0.  1.
         11    1    4    4    0    0 -0.33868398189E+00  0.10742096222E+01  0.10330779984E+02  0.10391999254E+02  0.51100000000E-03 0. -1.
        -11    1    4    4    0    0  0.15909058362E+02  0.78079026146E+01 -0.10503307722E+02  0.20600508600E+02  0.51100000000E-03 0.  1.
         12    1    4    4    0    0  0.26509260101E+01  0.22734712144E+02 -0.47408563583E+01  0.23374564467E+02  0.00000000000E+00 0. -1.
</event>
<event>
 8    1  0.2466538E-006  0.9118800E+02  0.7816164E-02  0.1184000E+00
        -11   -1    0    0    0    0  0.00000000000E+00  0.00000000000E+00  0.45593999997E+02  0.45594000000E+02  0.51100000000E-03 0.  1.
         11   -1    0    0    0    0 -0.00000000000E+00 -0.00000000000E+00 -0.45593999997E+02  0.45594000000E+02  0.51100000000E-03 0. -1.
         23    2    1    2    0    0  0.35527136788E-14  0.35527136788E-14 -0.88817841970E-15  0.91188000000E+02  0.91188000000E+02 0.  0.
    9900012    2    3    3    0    0 -0.28521724723E+02  0.22080319092E+02  0.73994160944E+01  0.54367073464E+02  0.39999975576E+02 0.  0.
         12    1    3    3    0    0  0.28521724723E+02 -0.22080319092E+02 -0.73994160944E+01  0.36820926536E+02  0.00000000000E+00 0. -1.
         11    1    4    4    0    0 -0.12718784726E+02 -0.53890796639E+01  0.10598549955E+02  0.17410885271E+02  0.51100000000E-03 0. -1.
        -11    1    4    4    0    0 -0.98751968247E+00 -0.18428615303E+01  0.28757404916E+01  0.35554489702E+01  0.51100000000E-03 0.  1.
        -12    1    4    4    0    0 -0.14815420315E+02  0.29312260287E+02 -0.60748743521E+01  0.33400739223E+02  0.00000000000E+00 0.  1.
</event>
<event>
 8    1  0.2466538E-006  0.9118800E+02  0.7816164E-02  0.1184000E+00
        -11   -1    0    0    0    0  0.00000000000E+00  0.00000000000E+00  0.45593999997E+02  0.45594000000E+02  0.51100000000E-03 0.  1.
         11   -1    0    0    0    0 -0.00000000000E+00 -0.00000000000E+00 -0.45593999997E+02  0.45594000000E+02  0.51100000000E-03 0. -1.
         23    2    1    2    0    0  0.00000000000E+00 -0.22204460493E-15  0.71054273576E-14  0.91188000000E+02  0.91188000000E+02 0.  0.
    9900012    2    3    3    0    0 -0.23586353550E+02 -0.15376354416E+01  0.28233013045E+02  0.54367035563E+02  0.39999889172E+02 0.  0.
         12    1    3    3    0    0  0.23586353550E+02  0.15376354416E+01 -0.28233013045E+02  0.36820964437E+02  0.00000000000E+00 0. -1.
         11    1    4    4    0    0 -0.31707393636E+01 -0.69276303905E+00 -0.77073452682E+01  0.83628153205E+01  0.51100000000E-03 0. -1.
        -11    1    4    4    0    0 -0.89528579452E+01  0.90224613467E+01  0.10869274856E+02  0.16724222263E+02  0.51100000000E-03 0.  1.
         12    1    4    4    0    0 -0.11462756241E+02 -0.98673337492E+01  0.25071083457E+02  0.29279997979E+02  0.00000000000E+00 0. -1.
</event>
<event>
 8    1  0.2466538E-006  0.9118800E+02  0.7816164E-02  0.1184000E+00
        -11   -1    0    0    0    0  0.00000000000E+00  0.00000000000E+00  0.45593999997E+02  0.45594000000E+02  0.51100000000E-03 0. -1.
         11   -1    0    0    0    0 -0.00000000000E+00 -0.00000000000E+00 -0.45593999997E+02  0.45594000000E+02  0.51100000000E-03 0.  1.
         23    2    1    2    0    0  0.00000000000E+00  0.00000000000E+00  0.00000000000E+00  0.91188000000E+02  0.91188000000E+02 0.  0.
    9900012    2    3    3    0    0  0.32284726843E+02 -0.85224171386E+01  0.15519154876E+02  0.54367090868E+02  0.40000015252E+02 0.  0.
        -12    1    3    3    0    0 -0.32284726843E+02  0.85224171386E+01 -0.15519154876E+02  0.36820909132E+02  0.00000000000E+00 0.  1.
         11    1    4    4    0    0  0.20885757653E+02 -0.13823713811E+02  0.11622462233E+02  0.27611439023E+02  0.51100000000E-03 0. -1.
        -11    1    4    4    0    0 -0.31510486516E+01  0.30996499941E+01 -0.71149595179E+01  0.83761319768E+01  0.51100000000E-03 0.  1.
         12    1    4    4    0    0  0.14550017841E+02  0.22016466786E+01  0.11011652161E+02  0.18379519868E+02  0.00000000000E+00 0. -1.
</event>
<event>
 8    1  0.2466538E-006  0.9118800E+02  0.7816164E-02  0.1184000E+00
        -11   -1    0    0    0    0  0.00000000000E+00  0.00000000000E+00  0.45593999997E+02  0.45594000000E+02  0.51100000000E-03 0.  1.
         11   -1    0    0    0    0 -0.00000000000E+00 -0.00000000000E+00 -0.45593999997E+02  0.45594000000E+02  0.51100000000E-03 0. -1.
         23    2    1    2    0    0 -0.88817841970E-15  0.71054273576E-14  0.13322676296E-14  0.91188000000E+02  0.91188000000E+02 0.  0.
    9900012    2    3    3    0    0 -0.44233461951E+01 -0.36546886783E+02  0.73445116509E+00  0.54367077366E+02  0.39999984472E+02 0.  0.
        -12    1    3    3    0    0  0.44233461951E+01  0.36546886783E+02 -0.73445116509E+00  0.36820922634E+02  0.00000000000E+00 0.  1.
         11    1    4    4    0    0 -0.12182774199E+01 -0.91595515107E+01 -0.17086311104E+01  0.93968614059E+01  0.51100000000E-03 0. -1.
        -11    1    4    4    0    0  0.64968436470E+01 -0.82567988453E+01  0.16329615278E+02  0.19417518892E+02  0.51100000000E-03 0.  1.
         12    1    4    4    0    0 -0.97019124222E+01 -0.19130536427E+02 -0.13886533002E+02  0.25552697068E+02  0.00000000000E+00 0. -1.
</event>
<event>
 8    1  0.2466538E-006  0.9118800E+02  0.7816164E-02  0.1184000E+00
        -11   -1    0    0    0    0  0.00000000000E+00  0.00000000000E+00  0.45593999997E+02  0.45594000000E+02  0.51100000000E-03 0. -1.
         11   -1    0    0    0    0 -0.00000000000E+00 -0.00000000000E+00 -0.45593999997E+02  0.45594000000E+02  0.51100000000E-03 0.  1.
         23    2    1    2    0    0  0.17763568394E-14  0.00000000000E+00 -0.88817841970E-15  0.91188000000E+02  0.91188000000E+02 0.  0.
    9900012    2    3    3    0    0 -0.10785418166E+02  0.34640283429E+02  0.62855325613E+01  0.54367049433E+02  0.39999920792E+02 0.  0.
         12    1    3    3    0    0  0.10785418166E+02 -0.34640283429E+02 -0.62855325613E+01  0.36820950567E+02  0.00000000000E+00 0. -1.
         11    1    4    4    0    0 -0.41691117242E+01  0.21819978225E+01  0.13830895945E+02  0.14609458921E+02  0.51100000000E-03 0. -1.
        -11    1    4    4    0    0 -0.67793107967E+01  0.35407016136E+02 -0.65447892729E+01  0.36639461151E+02  0.51100000000E-03 0.  1.
        -12    1    4    4    0    0  0.16300435455E+00 -0.29487305296E+01 -0.10005741110E+01  0.31181293603E+01  0.00000000000E+00 0.  1.
</event>
<event>
 8    1  0.2466538E-006  0.9118800E+02  0.7816164E-02  0.1184000E+00
        -11   -1    0    0    0    0  0.00000000000E+00  0.00000000000E+00  0.45593999997E+02  0.45594000000E+02  0.51100000000E-03 0. -1.
         11   -1    0    0    0    0 -0.00000000000E+00 -0.00000000000E+00 -0.45593999997E+02  0.45594000000E+02  0.51100000000E-03 0.  1.
         23    2    1    2    0    0  0.00000000000E+00  0.00000000000E+00  0.00000000000E+00  0.91188000000E+02  0.91188000000E+02 0.  0.
    9900012    2    3    3    0    0 -0.36660891961E+01  0.32670274887E+02 -0.16582908354E+02  0.54367083109E+02  0.39999997565E+02 0.  0.
         12    1    3    3    0    0  0.36660891961E+01 -0.32670274887E+02  0.16582908354E+02  0.36820916891E+02  0.00000000000E+00 0. -1.
         11    1    4    4    0    0 -0.47416092684E+01  0.83365273005E+01  0.49711028461E+01  0.10802426100E+02  0.51100000000E-03 0. -1.
        -11    1    4    4    0    0 -0.43166869681E+01  0.27742794098E+02 -0.90018831178E+01  0.29484407924E+02  0.51100000000E-03 0.  1.
        -12    1    4    4    0    0  0.53922070404E+01 -0.34090465114E+01 -0.12552128083E+02  0.14080249085E+02  0.00000000000E+00 0.  1.
</event>
<event>
 8    1  0.2466538E-006  0.9118800E+02  0.7816164E-02  0.1184000E+00
        -11   -1    0    0    0    0  0.00000000000E+00  0.00000000000E+00  0.45593999997E+02  0.45594000000E+02  0.51100000000E-03 0.  1.
         11   -1    0    0    0    0 -0.00000000000E+00 -0.00000000000E+00 -0.45593999997E+02  0.45594000000E+02  0.51100000000E-03 0. -1.
         23    2    1    2    0    0  0.00000000000E+00  0.00000000000E+00  0.00000000000E+00  0.91188000000E+02  0.91188000000E+02 0.  0.
    9900012    2    3    3    0    0  0.30627632608E+02 -0.12995385622E+02  0.15774919487E+02  0.54367081876E+02  0.39999994753E+02 0.  0.
        -12    1    3    3    0    0 -0.30627632608E+02  0.12995385622E+02 -0.15774919487E+02  0.36820918124E+02  0.00000000000E+00 0.  1.
         11    1    4    4    0    0  0.86361859717E+01 -0.40619568370E+00 -0.26723903866E+01  0.90493300144E+01  0.51100000000E-03 0. -1.
        -11    1    4    4    0    0  0.28930905115E+02 -0.11438872370E+02  0.21325365781E+02  0.37717586055E+02  0.51100000000E-03 0.  1.
        -12    1    4    4    0    0 -0.69394584785E+01 -0.11503175687E+01 -0.28780559074E+01  0.76001658068E+01  0.00000000000E+00 0.  1.
</event>
<event>
 8    1  0.2466538E-006  0.9118800E+02  0.7816164E-02  0.1184000E+00
        -11   -1    0    0    0    0  0.00000000000E+00  0.00000000000E+00  0.45593999997E+02  0.45594000000E+02  0.51100000000E-03 0. -1.
         11   -1    0    0    0    0 -0.00000000000E+00 -0.00000000000E+00 -0.45593999997E+02  0.45594000000E+02  0.51100000000E-03 0.  1.
         23    2    1    2    0    0  0.00000000000E+00  0.00000000000E+00 -0.17763568394E-14  0.91188000000E+02  0.91188000000E+02 0.  0.
    9900012    2    3    3    0    0 -0.35039341102E+02 -0.44544798252E+01 -0.10401051606E+02  0.54367086243E+02  0.40000004708E+02 0.  0.
         12    1    3    3    0    0  0.35039341102E+02  0.44544798252E+01  0.10401051606E+02  0.36820913757E+02  0.00000000000E+00 0. -1.
         11    1    4    4    0    0 -0.11835977179E+02 -0.19752286573E+01  0.53854264969E+01  0.13152745068E+02  0.51100000000E-03 0. -1.
        -11    1    4    4    0    0  0.11013625798E+01 -0.90195196086E+01  0.32569038849E+01  0.96525725420E+01  0.51100000000E-03 0.  1.
        -12    1    4    4    0    0 -0.24304726503E+02  0.65402684406E+01 -0.19043381988E+02  0.31561768633E+02  0.00000000000E+00 0.  1.
</event>
<event>
 8    1  0.2466538E-006  0.9118800E+02  0.7816164E-02  0.1184000E+00
        -11   -1    0    0    0    0  0.00000000000E+00  0.00000000000E+00  0.45593999997E+02  0.45594000000E+02  0.51100000000E-03 0. -1.
         11   -1    0    0    0    0 -0.00000000000E+00 -0.00000000000E+00 -0.45593999997E+02  0.45594000000E+02  0.51100000000E-03 0.  1.
         23    2    1    2    0    0  0.00000000000E+00  0.17763568394E-14  0.00000000000E+00  0.91188000000E+02  0.91188000000E+02 0.  0.
    9900012    2    3    3    0    0  0.35631554038E+02  0.46783033809E+01 -0.80180139997E+01  0.54367045176E+02  0.39999911087E+02 0.  0.
         12    1    3    3    0    0 -0.35631554038E+02 -0.46783033809E+01  0.80180139997E+01  0.36820954824E+02  0.00000000000E+00 0. -1.
         11    1    4    4    0    0 -0.16300601787E+01 -0.73609373955E+01 -0.23316456428E+01  0.78915820461E+01  0.51100000000E-03 0. -1.
        -11    1    4    4    0    0  0.34891906961E+02  0.91517206388E+01  0.38081191648E+01  0.36272592048E+02  0.51100000000E-03 0.  1.
         12    1    4    4    0    0  0.23697072555E+01  0.28875201375E+01 -0.94944875216E+01  0.10202871082E+02  0.00000000000E+00 0. -1.
</event>
<event>
 8    1  0.2466538E-006  0.9118800E+02  0.7816164E-02  0.1184000E+00
        -11   -1    0    0    0    0  0.00000000000E+00  0.00000000000E+00  0.45593999997E+02  0.45594000000E+02  0.51100000000E-03 0.  1.
         11   -1    0    0    0    0 -0.00000000000E+00 -0.00000000000E+00 -0.45593999997E+02  0.45594000000E+02  0.51100000000E-03 0. -1.
         23    2    1    2    0    0  0.00000000000E+00  0.17763568394E-14  0.00000000000E+00  0.91188000000E+02  0.91188000000E+02 0.  0.
    9900012    2    3    3    0    0 -0.25962767630E+02  0.88002154908E+01  0.24581840636E+02  0.54367136556E+02  0.40000119407E+02 0.  0.
        -12    1    3    3    0    0  0.25962767630E+02 -0.88002154908E+01 -0.24581840636E+02  0.36820863444E+02  0.00000000000E+00 0.  1.
         11    1    4    4    0    0 -0.49317466223E+00  0.80309878400E+01  0.10165344094E+02  0.12964343706E+02  0.51100000000E-03 0. -1.
        -11    1    4    4    0    0  0.34746963818E+01 -0.29077190914E+00  0.11819282832E+02  0.12322885627E+02  0.51100000000E-03 0.  1.
        -12    1    4    4    0    0 -0.28944289350E+02  0.10599995600E+01  0.25972137103E+01  0.29079907223E+02  0.00000000000E+00 0.  1.
</event>
<event>
 8    1  0.2466538E-006  0.9118800E+02  0.7816164E-02  0.1184000E+00
        -11   -1    0    0    0    0  0.00000000000E+00  0.00000000000E+00  0.45593999997E+02  0.45594000000E+02  0.51100000000E-03 0.  1.
         11   -1    0    0    0    0 -0.00000000000E+00 -0.00000000000E+00 -0.45593999997E+02  0.45594000000E+02  0.51100000000E-03 0. -1.
         23    2    1    2    0    0  0.35527136788E-14  0.13322676296E-14 -0.35527136788E-14  0.91188000000E+02  0.91188000000E+02 0.  0.
    9900012    2    3    3    0    0 -0.30562894244E+02 -0.30610831180E+01  0.20305642389E+02  0.54367084106E+02  0.39999999837E+02 0.  0.
         12    1    3    3    0    0  0.30562894244E+02  0.30610831180E+01 -0.20305642389E+02  0.36820915894E+02  0.00000000000E+00 0. -1.
         11    1    4    4    0    0 -0.24127263189E+02  0.14994637192E+02  0.18541639227E+02  0.33922799988E+02  0.51100000000E-03 0. -1.
        -11    1    4    4    0    0 -0.41593081261E+01 -0.16338723631E+02  0.33384848042E+01  0.17187181707E+02  0.51100000000E-03 0.  1.
        -12    1    4    4    0    0 -0.22763229290E+01 -0.17169966790E+01 -0.15744816426E+01  0.32571024110E+01  0.00000000000E+00 0.  1.
</event>
<event>
 8    1  0.2466538E-006  0.9118800E+02  0.7816164E-02  0.1184000E+00
        -11   -1    0    0    0    0  0.00000000000E+00  0.00000000000E+00  0.45593999997E+02  0.45594000000E+02  0.51100000000E-03 0.  1.
         11   -1    0    0    0    0 -0.00000000000E+00 -0.00000000000E+00 -0.45593999997E+02  0.45594000000E+02  0.51100000000E-03 0. -1.
         23    2    1    2    0    0  0.17763568394E-14 -0.17763568394E-14  0.00000000000E+00  0.91188000000E+02  0.91188000000E+02 0.  0.
    9900012    2    3    3    0    0 -0.86060949318E+01 -0.10598331679E+02  0.34196324237E+02  0.54367107891E+02  0.40000054060E+02 0.  0.
         12    1    3    3    0    0  0.86060949318E+01  0.10598331679E+02 -0.34196324237E+02  0.36820892109E+02  0.00000000000E+00 0. -1.
         11    1    4    4    0    0  0.11381682970E+02  0.63854761414E+01  0.68839509026E+01  0.14754856593E+02  0.51100000000E-03 0. -1.
        -11    1    4    4    0    0 -0.16042635510E+02 -0.18257103441E+02  0.24994301147E+02  0.34862631431E+02  0.51100000000E-03 0.  1.
         12    1    4    4    0    0 -0.39451423918E+01  0.12732956205E+01  0.23180721869E+01  0.47496198682E+01  0.00000000000E+00 0. -1.
</event>
<event>
 8    1  0.2466538E-006  0.9118800E+02  0.7816164E-02  0.1184000E+00
        -11   -1    0    0    0    0  0.00000000000E+00  0.00000000000E+00  0.45593999997E+02  0.45594000000E+02  0.51100000000E-03 0.  1.
         11   -1    0    0    0    0 -0.00000000000E+00 -0.00000000000E+00 -0.45593999997E+02  0.45594000000E+02  0.51100000000E-03 0. -1.
         23    2    1    2    0    0  0.35527136788E-14  0.00000000000E+00  0.35527136788E-14  0.91188000000E+02  0.91188000000E+02 0.  0.
    9900012    2    3    3    0    0 -0.15035790160E+02 -0.13479540928E+02  0.30789739783E+02  0.54367067295E+02  0.39999961513E+02 0.  0.
         12    1    3    3    0    0  0.15035790160E+02  0.13479540928E+02 -0.30789739783E+02  0.36820932705E+02  0.00000000000E+00 0. -1.
         11    1    4    4    0    0 -0.27205559699E+01  0.54999335832E+01  0.79920477650E+01  0.10075888147E+02  0.51100000000E-03 0. -1.
        -11    1    4    4    0    0  0.45496552277E+01  0.47803613125E+01  0.11059416803E+02  0.12878738962E+02  0.51100000000E-03 0.  1.
        -12    1    4    4    0    0 -0.16864889418E+02 -0.23759835823E+02  0.11738275215E+02  0.31412440186E+02  0.00000000000E+00 0.  1.
</event>
<event>
 8    1  0.2466538E-006  0.9118800E+02  0.7816164E-02  0.1184000E+00
        -11   -1    0    0    0    0  0.00000000000E+00  0.00000000000E+00  0.45593999997E+02  0.45594000000E+02  0.51100000000E-03 0. -1.
         11   -1    0    0    0    0 -0.00000000000E+00 -0.00000000000E+00 -0.45593999997E+02  0.45594000000E+02  0.51100000000E-03 0.  1.
         23    2    1    2    0    0 -0.26645352591E-14 -0.71054273576E-14 -0.88817841970E-15  0.91188000000E+02  0.91188000000E+02 0.  0.
    9900012    2    3    3    0    0  0.79995626162E+01  0.35628436717E+02  0.47330249847E+01  0.54367081618E+02  0.39999994165E+02 0.  0.
        -12    1    3    3    0    0 -0.79995626162E+01 -0.35628436717E+02 -0.47330249847E+01  0.36820918382E+02  0.00000000000E+00 0.  1.
         11    1    4    4    0    0 -0.74096419054E+01  0.29157200040E+02  0.16548106700E+01  0.30129445829E+02  0.51100000000E-03 0.  1.
        -11    1    4    4    0    0  0.18940670710E+02  0.72930608010E+01  0.34698470978E+01  0.20590715916E+02  0.51100000000E-03 0. -1.
         12    1    4    4    0    0 -0.35314661882E+01 -0.82182412366E+00 -0.39163278317E+00  0.36469198737E+01  0.00000000000E+00 0. -1.
</event>
<event>
 8    1  0.2466538E-006  0.9118800E+02  0.7816164E-02  0.1184000E+00
        -11   -1    0    0    0    0  0.00000000000E+00  0.00000000000E+00  0.45593999997E+02  0.45594000000E+02  0.51100000000E-03 0.  1.
         11   -1    0    0    0    0 -0.00000000000E+00 -0.00000000000E+00 -0.45593999997E+02  0.45594000000E+02  0.51100000000E-03 0. -1.
         23    2    1    2    0    0  0.00000000000E+00 -0.71054273576E-14  0.88817841970E-15  0.91188000000E+02  0.91188000000E+02 0.  0.
    9900012    2    3    3    0    0 -0.90523451905E+01 -0.34952476672E+02  0.72220614977E+01  0.54367098989E+02  0.40000033765E+02 0.  0.
        -12    1    3    3    0    0  0.90523451905E+01  0.34952476672E+02 -0.72220614977E+01  0.36820901011E+02  0.00000000000E+00 0.  1.
         11    1    4    4    0    0 -0.11016163161E+02 -0.18859687881E+02  0.32666728609E+01  0.22084266563E+02  0.51100000000E-03 0. -1.
        -11    1    4    4    0    0 -0.85623954836E+01 -0.14654342295E+02  0.10353348245E+02  0.19881050894E+02  0.51100000000E-03 0.  1.
        -12    1    4    4    0    0  0.10526213455E+02 -0.14384464965E+01 -0.63979596085E+01  0.12401781532E+02  0.00000000000E+00 0.  1.
</event>
<event>
 8    1  0.2466538E-006  0.9118800E+02  0.7816164E-02  0.1184000E+00
        -11   -1    0    0    0    0  0.00000000000E+00  0.00000000000E+00  0.45593999997E+02  0.45594000000E+02  0.51100000000E-03 0. -1.
         11   -1    0    0    0    0 -0.00000000000E+00 -0.00000000000E+00 -0.45593999997E+02  0.45594000000E+02  0.51100000000E-03 0.  1.
         23    2    1    2    0    0  0.88817841970E-15  0.00000000000E+00 -0.35527136788E-14  0.91188000000E+02  0.91188000000E+02 0.  0.
    9900012    2    3    3    0    0  0.50245169441E+01  0.25090136326E+02 -0.26476767457E+02  0.54367083032E+02  0.39999997388E+02 0.  0.
         12    1    3    3    0    0 -0.50245169441E+01 -0.25090136326E+02  0.26476767457E+02  0.36820916968E+02  0.00000000000E+00 0. -1.
         11    1    4    4    0    0 -0.10921371173E+02  0.14994743792E+02 -0.10350489245E+02  0.21242676799E+02  0.51100000000E-03 0. -1.
        -11    1    4    4    0    0  0.66895581621E+01  0.10498657430E+02 -0.19608608014E+02  0.23226482832E+02  0.51100000000E-03 0.  1.
        -12    1    4    4    0    0  0.92563299553E+01 -0.40326489611E+00  0.34823298014E+01  0.98979234016E+01  0.00000000000E+00 0.  1.
</event>
<event>
 8    1  0.2466538E-006  0.9118800E+02  0.7816164E-02  0.1184000E+00
        -11   -1    0    0    0    0  0.00000000000E+00  0.00000000000E+00  0.45593999997E+02  0.45594000000E+02  0.51100000000E-03 0. -1.
         11   -1    0    0    0    0 -0.00000000000E+00 -0.00000000000E+00 -0.45593999997E+02  0.45594000000E+02  0.51100000000E-03 0.  1.
         23    2    1    2    0    0 -0.34694469520E-15  0.00000000000E+00  0.35527136788E-14  0.91188000000E+02  0.91188000000E+02 0.  0.
    9900012    2    3    3    0    0  0.45250165628E-01 -0.19260060029E+02 -0.31381916986E+02  0.54367127202E+02  0.40000098081E+02 0.  0.
         12    1    3    3    0    0 -0.45250165628E-01  0.19260060029E+02  0.31381916986E+02  0.36820872798E+02  0.00000000000E+00 0. -1.
         11    1    4    4    0    0 -0.84677821678E+00  0.43244347830E+01 -0.40356928066E+01  0.59753314746E+01  0.51100000000E-03 0. -1.
        -11    1    4    4    0    0  0.10197167306E+02 -0.88394712777E+01  0.25964396992E+01  0.13742633405E+02  0.51100000000E-03 0.  1.
         12    1    4    4    0    0 -0.93051389240E+01 -0.14745023534E+02 -0.29942663879E+02  0.34649162322E+02  0.00000000000E+00 0. -1.
</event>
<event>
 8    1  0.2466538E-006  0.9118800E+02  0.7816164E-02  0.1184000E+00
        -11   -1    0    0    0    0  0.00000000000E+00  0.00000000000E+00  0.45593999997E+02  0.45594000000E+02  0.51100000000E-03 0.  1.
         11   -1    0    0    0    0 -0.00000000000E+00 -0.00000000000E+00 -0.45593999997E+02  0.45594000000E+02  0.51100000000E-03 0. -1.
         23    2    1    2    0    0 -0.17763568394E-14  0.00000000000E+00  0.00000000000E+00  0.91188000000E+02  0.91188000000E+02 0.  0.
    9900012    2    3    3    0    0 -0.10335060352E+02  0.18322819689E+02  0.30219914662E+02  0.54367048953E+02  0.39999919698E+02 0.  0.
         12    1    3    3    0    0  0.10335060352E+02 -0.18322819689E+02 -0.30219914662E+02  0.36820951047E+02  0.00000000000E+00 0. -1.
         11    1    4    4    0    0  0.16850291852E+01 -0.50360772443E+01  0.91921782482E+00  0.53894674167E+01  0.51100000000E-03 0. -1.
        -11    1    4    4    0    0 -0.10014746281E+02 -0.11474160856E+01  0.20531238493E+02  0.22872329594E+02  0.51100000000E-03 0.  1.
        -12    1    4    4    0    0 -0.20053432561E+01  0.24506313018E+02  0.87694583447E+01  0.26105251943E+02  0.00000000000E+00 0.  1.
</event>
<event>
 8    1  0.2466538E-006  0.9118800E+02  0.7816164E-02  0.1184000E+00
        -11   -1    0    0    0    0  0.00000000000E+00  0.00000000000E+00  0.45593999997E+02  0.45594000000E+02  0.51100000000E-03 0.  1.
         11   -1    0    0    0    0 -0.00000000000E+00 -0.00000000000E+00 -0.45593999997E+02  0.45594000000E+02  0.51100000000E-03 0. -1.
         23    2    1    2    0    0  0.35527136788E-14  0.00000000000E+00  0.35527136788E-14  0.91188000000E+02  0.91188000000E+02 0.  0.
    9900012    2    3    3    0    0 -0.23515811101E+02 -0.15684651310E+02 -0.23596129287E+02  0.54367095940E+02  0.40000026814E+02 0.  0.
        -12    1    3    3    0    0  0.23515811101E+02  0.15684651310E+02  0.23596129287E+02  0.36820904060E+02  0.00000000000E+00 0.  1.
         11    1    4    4    0    0 -0.12793193960E+02 -0.11909338104E+02 -0.15238903819E+02  0.23188840757E+02  0.51100000000E-03 0. -1.
        -11    1    4    4    0    0 -0.16148788001E+02  0.44736497861E+01  0.19915216314E+01  0.16874923851E+02  0.51100000000E-03 0.  1.
         12    1    4    4    0    0  0.54261708598E+01 -0.82489629919E+01 -0.10348747100E+02  0.14303331332E+02  0.00000000000E+00 0. -1.
</event>
<event>
 8    1  0.2466538E-006  0.9118800E+02  0.7816164E-02  0.1184000E+00
        -11   -1    0    0    0    0  0.00000000000E+00  0.00000000000E+00  0.45593999997E+02  0.45594000000E+02  0.51100000000E-03 0.  1.
         11   -1    0    0    0    0 -0.00000000000E+00 -0.00000000000E+00 -0.45593999997E+02  0.45594000000E+02  0.51100000000E-03 0. -1.
         23    2    1    2    0    0  0.71054273576E-14  0.00000000000E+00 -0.88817841970E-15  0.91188000000E+02  0.91188000000E+02 0.  0.
    9900012    2    3    3    0    0 -0.30528741523E+02 -0.19549183351E+02  0.64501412556E+01  0.54367096278E+02  0.40000027586E+02 0.  0.
         12    1    3    3    0    0  0.30528741523E+02  0.19549183351E+02 -0.64501412556E+01  0.36820903722E+02  0.00000000000E+00 0. -1.
         11    1    4    4    0    0 -0.76125920253E+01  0.44519400373E+01  0.12092774148E+02  0.14966847173E+02  0.51100000000E-03 0. -1.
        -11    1    4    4    0    0  0.38672627173E+01 -0.35718842175E+01 -0.14101379518E+01  0.54500061553E+01  0.51100000000E-03 0.  1.
        -12    1    4    4    0    0 -0.26783412215E+02 -0.20429239171E+02 -0.42324949404E+01  0.33950242950E+02  0.00000000000E+00 0.  1.
</event>
<event>
 8    1  0.2466538E-006  0.9118800E+02  0.7816164E-02  0.1184000E+00
        -11   -1    0    0    0    0  0.00000000000E+00  0.00000000000E+00  0.45593999997E+02  0.45594000000E+02  0.51100000000E-03 0.  1.
         11   -1    0    0    0    0 -0.00000000000E+00 -0.00000000000E+00 -0.45593999997E+02  0.45594000000E+02  0.51100000000E-03 0. -1.
         23    2    1    2    0    0  0.00000000000E+00 -0.35527136788E-14  0.35527136788E-14  0.91188000000E+02  0.91188000000E+02 0.  0.
    9900012    2    3    3    0    0 -0.20651872387E+02  0.25941399229E+02 -0.16010143978E+02  0.54367072021E+02  0.39999972286E+02 0.  0.
        -12    1    3    3    0    0  0.20651872387E+02 -0.25941399229E+02  0.16010143978E+02  0.36820927979E+02  0.00000000000E+00 0.  1.
         11    1    4    4    0    0  0.41157780903E+01 -0.31933442463E+01 -0.10625222881E+01  0.53165807280E+01  0.51100000000E-03 0. -1.
        -11    1    4    4    0    0 -0.26247242535E+02  0.16965324614E+02 -0.21469995266E+01  0.31326499760E+02  0.51100000000E-03 0.  1.
        -12    1    4    4    0    0  0.14795920581E+01  0.12169418862E+02 -0.12800622164E+02  0.17723991533E+02  0.00000000000E+00 0.  1.
</event>
<event>
 8    1  0.2466538E-006  0.9118800E+02  0.7816164E-02  0.1184000E+00
        -11   -1    0    0    0    0  0.00000000000E+00  0.00000000000E+00  0.45593999997E+02  0.45594000000E+02  0.51100000000E-03 0. -1.
         11   -1    0    0    0    0 -0.00000000000E+00 -0.00000000000E+00 -0.45593999997E+02  0.45594000000E+02  0.51100000000E-03 0.  1.
         23    2    1    2    0    0  0.00000000000E+00  0.00000000000E+00 -0.88817841970E-15  0.91188000000E+02  0.91188000000E+02 0.  0.
    9900012    2    3    3    0    0 -0.15239316781E+02 -0.33217870511E+02  0.44847542418E+01  0.54367126601E+02  0.40000096712E+02 0.  0.
        -12    1    3    3    0    0  0.15239316781E+02  0.33217870511E+02 -0.44847542418E+01  0.36820873399E+02  0.00000000000E+00 0.  1.
         11    1    4    4    0    0 -0.39053666560E+00 -0.17363061808E+02  0.92751955292E+01  0.19689024521E+02  0.51100000000E-03 0. -1.
        -11    1    4    4    0    0  0.28217699560E+01 -0.32288102519E+01  0.82842901760E+01  0.93282938048E+01  0.51100000000E-03 0.  1.
        -12    1    4    4    0    0 -0.17670550072E+02 -0.12625998451E+02 -0.13074731463E+02  0.25349808275E+02  0.00000000000E+00 0.  1.
</event>
<event>
 8    1  0.2466538E-006  0.9118800E+02  0.7816164E-02  0.1184000E+00
        -11   -1    0    0    0    0  0.00000000000E+00  0.00000000000E+00  0.45593999997E+02  0.45594000000E+02  0.51100000000E-03 0.  1.
         11   -1    0    0    0    0 -0.00000000000E+00 -0.00000000000E+00 -0.45593999997E+02  0.45594000000E+02  0.51100000000E-03 0. -1.
         23    2    1    2    0    0 -0.26645352591E-14 -0.44408920985E-15  0.71054273576E-14  0.91188000000E+02  0.91188000000E+02 0.  0.
    9900012    2    3    3    0    0  0.48004601875E+01 -0.39077968387E+01  0.36296678773E+02  0.54367296801E+02  0.40000484714E+02 0.  0.
         12    1    3    3    0    0 -0.48004601875E+01  0.39077968387E+01 -0.36296678773E+02  0.36820703199E+02  0.00000000000E+00 0. -1.
         11    1    4    4    0    0 -0.83207504391E+01  0.51052965903E+01  0.12972184669E+02  0.16235039775E+02  0.51100000000E-03 0. -1.
        -11    1    4    4    0    0  0.16100603458E+02  0.14624082069E+01  0.51914826140E+01  0.16979975308E+02  0.51100000000E-03 0.  1.
        -12    1    4    4    0    0 -0.29793928317E+01 -0.10475501636E+02  0.18133011490E+02  0.21152281718E+02  0.00000000000E+00 0.  1.
</event>
<event>
 8    1  0.2466538E-006  0.9118800E+02  0.7816164E-02  0.1184000E+00
        -11   -1    0    0    0    0  0.00000000000E+00  0.00000000000E+00  0.45593999997E+02  0.45594000000E+02  0.51100000000E-03 0.  1.
         11   -1    0    0    0    0 -0.00000000000E+00 -0.00000000000E+00 -0.45593999997E+02  0.45594000000E+02  0.51100000000E-03 0. -1.
         23    2    1    2    0    0  0.00000000000E+00  0.17763568394E-14  0.00000000000E+00  0.91188000000E+02  0.91188000000E+02 0.  0.
    9900012    2    3    3    0    0  0.32966980448E+02  0.13800378127E+02  0.88603650513E+01  0.54367105047E+02  0.40000047576E+02 0.  0.
        -12    1    3    3    0    0 -0.32966980448E+02 -0.13800378127E+02 -0.88603650513E+01  0.36820894953E+02  0.00000000000E+00 0.  1.
         11    1    4    4    0    0  0.97343217342E+01  0.28196482764E+01  0.94936706931E+01  0.13886584156E+02  0.51100000000E-03 0. -1.
        -11    1    4    4    0    0  0.15751526108E+02  0.11088747424E+01  0.14143849512E+02  0.21198789050E+02  0.51100000000E-03 0.  1.
        -12    1    4    4    0    0  0.74811326057E+01  0.98718551082E+01 -0.14777155154E+02  0.19281731841E+02  0.00000000000E+00 0.  1.
</event>
<event>
 8    1  0.2466538E-006  0.9118800E+02  0.7816164E-02  0.1184000E+00
        -11   -1    0    0    0    0  0.00000000000E+00  0.00000000000E+00  0.45593999997E+02  0.45594000000E+02  0.51100000000E-03 0. -1.
         11   -1    0    0    0    0 -0.00000000000E+00 -0.00000000000E+00 -0.45593999997E+02  0.45594000000E+02  0.51100000000E-03 0.  1.
         23    2    1    2    0    0 -0.11102230246E-14  0.00000000000E+00  0.00000000000E+00  0.91188000000E+02  0.91188000000E+02 0.  0.
    9900012    2    3    3    0    0  0.28996050410E+00 -0.36672498168E+02  0.32897773177E+01  0.54367097868E+02  0.40000031210E+02 0.  0.
         12    1    3    3    0    0 -0.28996050410E+00  0.36672498168E+02 -0.32897773177E+01  0.36820902132E+02  0.00000000000E+00 0. -1.
         11    1    4    4    0    0 -0.44877565790E+01 -0.67182105714E+01  0.44817129531E+01  0.92390510145E+01  0.51100000000E-03 0. -1.
        -11    1    4    4    0    0  0.69203342962E+01 -0.36358714804E+02  0.30761337855E+01  0.37139059874E+02  0.51100000000E-03 0.  1.
         12    1    4    4    0    0 -0.21426172132E+01  0.64044272075E+01 -0.42680694209E+01  0.79889869796E+01  0.00000000000E+00 0. -1.
</event>
<event>
 8    1  0.2466538E-006  0.9118800E+02  0.7816164E-02  0.1184000E+00
        -11   -1    0    0    0    0  0.00000000000E+00  0.00000000000E+00  0.45593999997E+02  0.45594000000E+02  0.51100000000E-03 0.  1.
         11   -1    0    0    0    0 -0.00000000000E+00 -0.00000000000E+00 -0.45593999997E+02  0.45594000000E+02  0.51100000000E-03 0. -1.
         23    2    1    2    0    0  0.00000000000E+00 -0.17763568394E-14 -0.35527136788E-14  0.91188000000E+02  0.91188000000E+02 0.  0.
    9900012    2    3    3    0    0  0.20630263372E+02  0.12001963966E+02  0.28037960380E+02  0.54367053134E+02  0.39999929229E+02 0.  0.
         12    1    3    3    0    0 -0.20630263372E+02 -0.12001963966E+02 -0.28037960380E+02  0.36820946866E+02  0.00000000000E+00 0. -1.
         11    1    4    4    0    0  0.21859220170E+02  0.32186388560E+01  0.12173535903E+02  0.25226575653E+02  0.51100000000E-03 0.  1.
        -11    1    4    4    0    0  0.35937644231E+01  0.14989723370E+02  0.14500775396E+02  0.21163162259E+02  0.51100000000E-03 0. -1.
         12    1    4    4    0    0 -0.48227212206E+01 -0.62063982600E+01  0.13636490808E+01  0.79773152219E+01  0.00000000000E+00 0. -1.
</event>
<event>
 8    1  0.2466538E-006  0.9118800E+02  0.7816164E-02  0.1184000E+00
        -11   -1    0    0    0    0  0.00000000000E+00  0.00000000000E+00  0.45593999997E+02  0.45594000000E+02  0.51100000000E-03 0. -1.
         11   -1    0    0    0    0 -0.00000000000E+00 -0.00000000000E+00 -0.45593999997E+02  0.45594000000E+02  0.51100000000E-03 0.  1.
         23    2    1    2    0    0 -0.88817841970E-15  0.00000000000E+00  0.88817841970E-15  0.91188000000E+02  0.91188000000E+02 0.  0.
    9900012    2    3    3    0    0  0.44638814573E+01  0.36187588225E+02  0.51294652852E+01  0.54367092987E+02  0.40000020082E+02 0.  0.
         12    1    3    3    0    0 -0.44638814573E+01 -0.36187588225E+02 -0.51294652852E+01  0.36820907013E+02  0.00000000000E+00 0. -1.
         11    1    4    4    0    0  0.71973774901E+01  0.59165347593E+01  0.38602241735E+01  0.10085085881E+02  0.51100000000E-03 0. -1.
        -11    1    4    4    0    0  0.55598242360E+01  0.32649780449E+02  0.70954831294E+01  0.33871310722E+02  0.51100000000E-03 0.  1.
        -12    1    4    4    0    0 -0.82933202688E+01 -0.23787269842E+01 -0.58262420177E+01  0.10410696384E+02  0.00000000000E+00 0.  1.
</event>
<event>
 8    1  0.2466538E-006  0.9118800E+02  0.7816164E-02  0.1184000E+00
        -11   -1    0    0    0    0  0.00000000000E+00  0.00000000000E+00  0.45593999997E+02  0.45594000000E+02  0.51100000000E-03 0.  1.
         11   -1    0    0    0    0 -0.00000000000E+00 -0.00000000000E+00 -0.45593999997E+02  0.45594000000E+02  0.51100000000E-03 0. -1.
         23    2    1    2    0    0  0.17763568394E-14 -0.35527136788E-14  0.35527136788E-14  0.91188000000E+02  0.91188000000E+02 0.  0.
    9900012    2    3    3    0    0  0.14412627686E+02 -0.23175186904E+02  0.24717748102E+02  0.54367079369E+02  0.39999989038E+02 0.  0.
         12    1    3    3    0    0 -0.14412627686E+02  0.23175186904E+02 -0.24717748102E+02  0.36820920631E+02  0.00000000000E+00 0. -1.
         11    1    4    4    0    0  0.96998660269E+01 -0.11215317660E+02  0.62000794073E+01  0.16072079395E+02  0.51100000000E-03 0. -1.
        -11    1    4    4    0    0  0.17725258259E+02 -0.78278545822E+01  0.76007318106E+01  0.20814206976E+02  0.51100000000E-03 0.  1.
         12    1    4    4    0    0 -0.13012496600E+02 -0.41320146619E+01  0.10916936884E+02  0.17480792999E+02  0.00000000000E+00 0. -1.
</event>
<event>
 8    1  0.2466538E-006  0.9118800E+02  0.7816164E-02  0.1184000E+00
        -11   -1    0    0    0    0  0.00000000000E+00  0.00000000000E+00  0.45593999997E+02  0.45594000000E+02  0.51100000000E-03 0.  1.
         11   -1    0    0    0    0 -0.00000000000E+00 -0.00000000000E+00 -0.45593999997E+02  0.45594000000E+02  0.51100000000E-03 0. -1.
         23    2    1    2    0    0  0.44408920985E-15  0.00000000000E+00 -0.35527136788E-14  0.91188000000E+02  0.91188000000E+02 0.  0.
    9900012    2    3    3    0    0 -0.25643003442E+01 -0.21276402066E+02 -0.29941924161E+02  0.54367085514E+02  0.40000003047E+02 0.  0.
        -12    1    3    3    0    0  0.25643003442E+01  0.21276402066E+02  0.29941924161E+02  0.36820914486E+02  0.00000000000E+00 0.  1.
         11    1    4    4    0    0  0.44938216951E+01 -0.74642926155E+01 -0.77892474172E+01  0.11686850442E+02  0.51100000000E-03 0. -1.
        -11    1    4    4    0    0 -0.16115112319E+01  0.47331885181E+01  0.64488207533E+01  0.81601060880E+01  0.51100000000E-03 0.  1.
        -12    1    4    4    0    0 -0.54466108074E+01 -0.18545297968E+02 -0.28601497497E+02  0.34520128984E+02  0.00000000000E+00 0.  1.
</event>
<event>
 8    1  0.2466538E-006  0.9118800E+02  0.7816164E-02  0.1184000E+00
        -11   -1    0    0    0    0  0.00000000000E+00  0.00000000000E+00  0.45593999997E+02  0.45594000000E+02  0.51100000000E-03 0.  1.
         11   -1    0    0    0    0 -0.00000000000E+00 -0.00000000000E+00 -0.45593999997E+02  0.45594000000E+02  0.51100000000E-03 0. -1.
         23    2    1    2    0    0 -0.17763568394E-14  0.00000000000E+00 -0.44408920985E-15  0.91188000000E+02  0.91188000000E+02 0.  0.
    9900012    2    3    3    0    0 -0.93758685568E+01  0.35590618227E+02  0.10864709332E+01  0.54367089690E+02  0.40000012566E+02 0.  0.
        -12    1    3    3    0    0  0.93758685568E+01 -0.35590618227E+02 -0.10864709332E+01  0.36820910310E+02  0.00000000000E+00 0.  1.
         11    1    4    4    0    0 -0.12722567001E+02  0.18991401218E+02  0.47531330793E+01  0.23348004319E+02  0.51100000000E-03 0. -1.
        -11    1    4    4    0    0 -0.48862822039E+00 -0.59688831971E+01 -0.53973000909E+01  0.80620824042E+01  0.51100000000E-03 0.  1.
        -12    1    4    4    0    0  0.38353266648E+01  0.22568100206E+02  0.17306379449E+01  0.22957002967E+02  0.00000000000E+00 0.  1.
</event>
<event>
 8    1  0.2466538E-006  0.9118800E+02  0.7816164E-02  0.1184000E+00
        -11   -1    0    0    0    0  0.00000000000E+00  0.00000000000E+00  0.45593999997E+02  0.45594000000E+02  0.51100000000E-03 0. -1.
         11   -1    0    0    0    0 -0.00000000000E+00 -0.00000000000E+00 -0.45593999997E+02  0.45594000000E+02  0.51100000000E-03 0.  1.
         23    2    1    2    0    0 -0.35527136788E-14 -0.17763568394E-14  0.00000000000E+00  0.91188000000E+02  0.91188000000E+02 0.  0.
    9900012    2    3    3    0    0 -0.27537119298E+02  0.14136391388E+02 -0.19941171338E+02  0.54367070964E+02  0.39999969877E+02 0.  0.
         12    1    3    3    0    0  0.27537119298E+02 -0.14136391388E+02  0.19941171338E+02  0.36820929036E+02  0.00000000000E+00 0. -1.
         11    1    4    4    0    0 -0.15940331789E+02  0.29703087406E+01 -0.49277437905E+01  0.16946963465E+02  0.51100000000E-03 0. -1.
        -11    1    4    4    0    0 -0.19676503847E+02  0.15527765772E+02 -0.10300783999E+02  0.27099491965E+02  0.51100000000E-03 0.  1.
         12    1    4    4    0    0  0.80797163382E+01 -0.43616831241E+01 -0.47126435489E+01  0.10320615534E+02  0.00000000000E+00 0. -1.
</event>
<event>
 8    1  0.2466538E-006  0.9118800E+02  0.7816164E-02  0.1184000E+00
        -11   -1    0    0    0    0  0.00000000000E+00  0.00000000000E+00  0.45593999997E+02  0.45594000000E+02  0.51100000000E-03 0. -1.
         11   -1    0    0    0    0 -0.00000000000E+00 -0.00000000000E+00 -0.45593999997E+02  0.45594000000E+02  0.51100000000E-03 0.  1.
         23    2    1    2    0    0  0.00000000000E+00 -0.16653345369E-14 -0.35527136788E-14  0.91188000000E+02  0.91188000000E+02 0.  0.
    9900012    2    3    3    0    0  0.25708792693E+02 -0.68717943495E+00  0.26350806111E+02  0.54367092624E+02  0.40000019254E+02 0.  0.
        -12    1    3    3    0    0 -0.25708792693E+02  0.68717943495E+00 -0.26350806111E+02  0.36820907376E+02  0.00000000000E+00 0.  1.
         11    1    4    4    0    0  0.16382218783E+01  0.94945669122E+01  0.21397779476E+02  0.23466903045E+02  0.51100000000E-03 0. -1.
        -11    1    4    4    0    0  0.22893126037E+02 -0.73289202158E+01  0.91244695869E+01  0.25711169494E+02  0.51100000000E-03 0.  1.
        -12    1    4    4    0    0  0.11774447781E+01 -0.28528261313E+01 -0.41714429514E+01  0.51890200845E+01  0.00000000000E+00 0.  1.
</event>
<event>
 8    1  0.2466538E-006  0.9118800E+02  0.7816164E-02  0.1184000E+00
        -11   -1    0    0    0    0  0.00000000000E+00  0.00000000000E+00  0.45593999997E+02  0.45594000000E+02  0.51100000000E-03 0.  1.
         11   -1    0    0    0    0 -0.00000000000E+00 -0.00000000000E+00 -0.45593999997E+02  0.45594000000E+02  0.51100000000E-03 0. -1.
         23    2    1    2    0    0  0.17763568394E-14  0.88817841970E-15  0.00000000000E+00  0.91188000000E+02  0.91188000000E+02 0.  0.
    9900012    2    3    3    0    0  0.15105063916E+02  0.58605798867E+01  0.33064644580E+02  0.54367081031E+02  0.39999992827E+02 0.  0.
         12    1    3    3    0    0 -0.15105063916E+02 -0.58605798867E+01 -0.33064644580E+02  0.36820918969E+02  0.00000000000E+00 0. -1.
         11    1    4    4    0    0  0.38042373521E+01 -0.38702950860E+01  0.79230415735E+01  0.96034365682E+01  0.51100000000E-03 0.  1.
        -11    1    4    4    0    0  0.73520456112E+01 -0.90196362349E+01 -0.17252322807E+01  0.11763623556E+02  0.51100000000E-03 0. -1.
         12    1    4    4    0    0  0.39487809530E+01  0.18750511208E+02  0.26866835287E+02  0.33000020907E+02  0.00000000000E+00 0. -1.
</event>
<event>
 8    1  0.2466538E-006  0.9118800E+02  0.7816164E-02  0.1184000E+00
        -11   -1    0    0    0    0  0.00000000000E+00  0.00000000000E+00  0.45593999997E+02  0.45594000000E+02  0.51100000000E-03 0. -1.
         11   -1    0    0    0    0 -0.00000000000E+00 -0.00000000000E+00 -0.45593999997E+02  0.45594000000E+02  0.51100000000E-03 0.  1.
         23    2    1    2    0    0  0.88817841970E-15  0.35527136788E-14  0.00000000000E+00  0.91188000000E+02  0.91188000000E+02 0.  0.
    9900012    2    3    3    0    0 -0.44120140651E+01  0.27281627802E+02  0.24331602461E+02  0.54367082549E+02  0.39999996287E+02 0.  0.
        -12    1    3    3    0    0  0.44120140651E+01 -0.27281627802E+02 -0.24331602461E+02  0.36820917451E+02  0.00000000000E+00 0.  1.
         11    1    4    4    0    0  0.10792434261E+02  0.57371353468E+01  0.53264067950E+01  0.13332740486E+02  0.51100000000E-03 0. -1.
        -11    1    4    4    0    0 -0.35884992277E+01 -0.10042820252E+01 -0.49161092039E+01  0.61687955923E+01  0.51100000000E-03 0.  1.
        -12    1    4    4    0    0 -0.11615949098E+02  0.22548774480E+02  0.23921304870E+02  0.34865546471E+02  0.00000000000E+00 0.  1.
</event>
<event>
 8    1  0.2466538E-006  0.9118800E+02  0.7816164E-02  0.1184000E+00
        -11   -1    0    0    0    0  0.00000000000E+00  0.00000000000E+00  0.45593999997E+02  0.45594000000E+02  0.51100000000E-03 0.  1.
         11   -1    0    0    0    0 -0.00000000000E+00 -0.00000000000E+00 -0.45593999997E+02  0.45594000000E+02  0.51100000000E-03 0. -1.
         23    2    1    2    0    0  0.17763568394E-14 -0.35527136788E-14  0.00000000000E+00  0.91188000000E+02  0.91188000000E+02 0.  0.
    9900012    2    3    3    0    0  0.85361962249E+01 -0.26217603296E+02  0.24403911421E+02  0.54367078485E+02  0.39999987023E+02 0.  0.
         12    1    3    3    0    0 -0.85361962249E+01  0.26217603296E+02 -0.24403911421E+02  0.36820921515E+02  0.00000000000E+00 0. -1.
         11    1    4    4    0    0  0.79525170067E+01 -0.11309342599E+01  0.18690923764E+02  0.20343848467E+02  0.51100000000E-03 0. -1.
        -11    1    4    4    0    0  0.87231823521E+01 -0.15433894422E+02 -0.39017922197E+01  0.18152768113E+02  0.51100000000E-03 0.  1.
        -12    1    4    4    0    0 -0.81395031339E+01 -0.96527746133E+01  0.96147798763E+01  0.15870461905E+02  0.00000000000E+00 0.  1.
</event>
<event>
 8    1  0.2466538E-006  0.9118800E+02  0.7816164E-02  0.1184000E+00
        -11   -1    0    0    0    0  0.00000000000E+00  0.00000000000E+00  0.45593999997E+02  0.45594000000E+02  0.51100000000E-03 0.  1.
         11   -1    0    0    0    0 -0.00000000000E+00 -0.00000000000E+00 -0.45593999997E+02  0.45594000000E+02  0.51100000000E-03 0. -1.
         23    2    1    2    0    0 -0.35527136788E-14  0.17763568394E-14  0.00000000000E+00  0.91188000000E+02  0.91188000000E+02 0.  0.
    9900012    2    3    3    0    0  0.29571696939E+02 -0.15783903262E+02  0.15236902416E+02  0.54367081254E+02  0.39999993336E+02 0.  0.
         12    1    3    3    0    0 -0.29571696939E+02  0.15783903262E+02 -0.15236902416E+02  0.36820918746E+02  0.00000000000E+00 0. -1.
         11    1    4    4    0    0 -0.19298462569E+01  0.18640193481E+01  0.25066653548E+01  0.36718178288E+01  0.51100000000E-03 0. -1.
        -11    1    4    4    0    0  0.18015077477E+02 -0.25565043058E+02  0.15350052861E+02  0.34838750927E+02  0.51100000000E-03 0.  1.
        -12    1    4    4    0    0  0.13486465719E+02  0.79171204482E+01 -0.26198158002E+01  0.15856512498E+02  0.00000000000E+00 0.  1.
</event>
<event>
 8    1  0.2466538E-006  0.9118800E+02  0.7816164E-02  0.1184000E+00
        -11   -1    0    0    0    0  0.00000000000E+00  0.00000000000E+00  0.45593999997E+02  0.45594000000E+02  0.51100000000E-03 0. -1.
         11   -1    0    0    0    0 -0.00000000000E+00 -0.00000000000E+00 -0.45593999997E+02  0.45594000000E+02  0.51100000000E-03 0.  1.
         23    2    1    2    0    0  0.00000000000E+00  0.00000000000E+00  0.88817841970E-15  0.91188000000E+02  0.91188000000E+02 0.  0.
    9900012    2    3    3    0    0 -0.35400955991E+02  0.81341594373E+01 -0.60322220098E+01  0.54367082885E+02  0.39999997053E+02 0.  0.
         12    1    3    3    0    0  0.35400955991E+02 -0.81341594373E+01  0.60322220098E+01  0.36820917115E+02  0.00000000000E+00 0. -1.
         11    1    4    4    0    0 -0.13905139190E+02  0.10335360832E+02  0.14740886834E+02  0.22747886151E+02  0.51100000000E-03 0. -1.
        -11    1    4    4    0    0 -0.22973442322E+01  0.31565993572E+01 -0.32569362307E+01  0.50842446730E+01  0.51100000000E-03 0.  1.
        -12    1    4    4    0    0 -0.19198472569E+02 -0.53578007517E+01 -0.17516172613E+02  0.26534952061E+02  0.00000000000E+00 0.  1.
</event>
<event>
 8    1  0.2466538E-006  0.9118800E+02  0.7816164E-02  0.1184000E+00
        -11   -1    0    0    0    0  0.00000000000E+00  0.00000000000E+00  0.45593999997E+02  0.45594000000E+02  0.51100000000E-03 0. -1.
         11   -1    0    0    0    0 -0.00000000000E+00 -0.00000000000E+00 -0.45593999997E+02  0.45594000000E+02  0.51100000000E-03 0.  1.
         23    2    1    2    0    0  0.00000000000E+00  0.00000000000E+00  0.00000000000E+00  0.91188000000E+02  0.91188000000E+02 0.  0.
    9900012    2    3    3    0    0  0.44124839620E+01 -0.16728441757E+02 -0.32503367425E+02  0.54367086482E+02  0.40000005253E+02 0.  0.
         12    1    3    3    0    0 -0.44124839620E+01  0.16728441757E+02  0.32503367425E+02  0.36820913518E+02  0.00000000000E+00 0. -1.
         11    1    4    4    0    0 -0.84598454977E+01  0.27846035448E+01 -0.71879128016E+01  0.11445046678E+02  0.51100000000E-03 0. -1.
        -11    1    4    4    0    0  0.18009982425E+02 -0.18118666720E+02 -0.27161088274E+02  0.37287669103E+02  0.51100000000E-03 0.  1.
        -12    1    4    4    0    0 -0.51376529655E+01 -0.13943785824E+01  0.18456336511E+01  0.56343707012E+01  0.00000000000E+00 0.  1.
</event>
<event>
 8    1  0.2466538E-006  0.9118800E+02  0.7816164E-02  0.1184000E+00
        -11   -1    0    0    0    0  0.00000000000E+00  0.00000000000E+00  0.45593999997E+02  0.45594000000E+02  0.51100000000E-03 0. -1.
         11   -1    0    0    0    0 -0.00000000000E+00 -0.00000000000E+00 -0.45593999997E+02  0.45594000000E+02  0.51100000000E-03 0.  1.
         23    2    1    2    0    0 -0.17763568394E-14  0.35527136788E-14  0.35527136788E-14  0.91188000000E+02  0.91188000000E+02 0.  0.
    9900012    2    3    3    0    0  0.11994375832E+02 -0.29918048190E+02 -0.17799586460E+02  0.54367082885E+02  0.39999997052E+02 0.  0.
         12    1    3    3    0    0 -0.11994375832E+02  0.29918048190E+02  0.17799586460E+02  0.36820917115E+02  0.00000000000E+00 0. -1.
         11    1    4    4    0    0  0.85575647998E+01 -0.22227799333E+02 -0.86279938659E+01  0.25332770415E+02  0.51100000000E-03 0.  1.
        -11    1    4    4    0    0  0.65936054077E+01  0.47990161977E+01  0.52485673786E+01  0.96981260317E+01  0.51100000000E-03 0. -1.
         12    1    4    4    0    0 -0.31567943751E+01 -0.12489265054E+02 -0.14420159972E+02  0.19336186438E+02  0.00000000000E+00 0. -1.
</event>
<event>
 8    1  0.2466538E-006  0.9118800E+02  0.7816164E-02  0.1184000E+00
        -11   -1    0    0    0    0  0.00000000000E+00  0.00000000000E+00  0.45593999997E+02  0.45594000000E+02  0.51100000000E-03 0.  1.
         11   -1    0    0    0    0 -0.00000000000E+00 -0.00000000000E+00 -0.45593999997E+02  0.45594000000E+02  0.51100000000E-03 0. -1.
         23    2    1    2    0    0  0.35527136788E-14 -0.17763568394E-14 -0.35527136788E-14  0.91188000000E+02  0.91188000000E+02 0.  0.
    9900012    2    3    3    0    0  0.17820872232E+02  0.97486163932E+01 -0.30710918751E+02  0.54367088289E+02  0.40000009373E+02 0.  0.
        -12    1    3    3    0    0 -0.17820872232E+02 -0.97486163932E+01  0.30710918751E+02  0.36820911711E+02  0.00000000000E+00 0.  1.
         11    1    4    4    0    0  0.46665468122E+01  0.11080374756E+02 -0.27370768008E+01  0.12330569880E+02  0.51100000000E-03 0. -1.
        -11    1    4    4    0    0  0.17991305751E+02 -0.10446203021E+02 -0.16103814873E+02  0.26308612543E+02  0.51100000000E-03 0.  1.
        -12    1    4    4    0    0 -0.48369803310E+01  0.91144446579E+01 -0.11870027077E+02  0.15727905867E+02  0.00000000000E+00 0.  1.
</event>
<event>
 8    1  0.2466538E-006  0.9118800E+02  0.7816164E-02  0.1184000E+00
        -11   -1    0    0    0    0  0.00000000000E+00  0.00000000000E+00  0.45593999997E+02  0.45594000000E+02  0.51100000000E-03 0. -1.
         11   -1    0    0    0    0 -0.00000000000E+00 -0.00000000000E+00 -0.45593999997E+02  0.45594000000E+02  0.51100000000E-03 0.  1.
         23    2    1    2    0    0 -0.71054273576E-14 -0.17763568394E-14  0.00000000000E+00  0.91188000000E+02  0.91188000000E+02 0.  0.
    9900012    2    3    3    0    0 -0.35123189950E+02 -0.65434102872E+01  0.89066434877E+01  0.54367041449E+02  0.39999902590E+02 0.  0.
        -12    1    3    3    0    0  0.35123189950E+02  0.65434102872E+01 -0.89066434877E+01  0.36820958551E+02  0.00000000000E+00 0.  1.
         11    1    4    4    0    0 -0.20417975829E+02  0.26268632354E+01 -0.70644031739E+01  0.21764648857E+02  0.51100000000E-03 0. -1.
        -11    1    4    4    0    0 -0.19995209914E+02 -0.10973085534E+02  0.13368727537E+02  0.26437471548E+02  0.51100000000E-03 0.  1.
         12    1    4    4    0    0  0.52899957934E+01  0.18028120114E+01  0.26023191248E+01  0.61649210433E+01  0.00000000000E+00 0. -1.
</event>
<event>
 8    1  0.2466538E-006  0.9118800E+02  0.7816164E-02  0.1184000E+00
        -11   -1    0    0    0    0  0.00000000000E+00  0.00000000000E+00  0.45593999997E+02  0.45594000000E+02  0.51100000000E-03 0.  1.
         11   -1    0    0    0    0 -0.00000000000E+00 -0.00000000000E+00 -0.45593999997E+02  0.45594000000E+02  0.51100000000E-03 0. -1.
         23    2    1    2    0    0 -0.71054273576E-14 -0.79103390505E-15  0.00000000000E+00  0.91188000000E+02  0.91188000000E+02 0.  0.
    9900012    2    3    3    0    0  0.32936011923E+02 -0.11043376947E+00 -0.16461623898E+02  0.54367107312E+02  0.40000052739E+02 0.  0.
        -12    1    3    3    0    0 -0.32936011923E+02  0.11043376947E+00  0.16461623898E+02  0.36820892688E+02  0.00000000000E+00 0.  1.
         11    1    4    4    0    0  0.15458428699E+02 -0.88176499657E+01 -0.11987611146E+02  0.21457324856E+02  0.51100000000E-03 0. -1.
        -11    1    4    4    0    0  0.20373932137E+02 -0.28848974912E+01 -0.17263442114E+01  0.20649455413E+02  0.51100000000E-03 0.  1.
         12    1    4    4    0    0 -0.28963489132E+01  0.11592113687E+02 -0.27476685406E+01  0.12260327042E+02  0.00000000000E+00 0. -1.
</event>
<event>
 8    1  0.2466538E-006  0.9118800E+02  0.7816164E-02  0.1184000E+00
        -11   -1    0    0    0    0  0.00000000000E+00  0.00000000000E+00  0.45593999997E+02  0.45594000000E+02  0.51100000000E-03 0.  1.
         11   -1    0    0    0    0 -0.00000000000E+00 -0.00000000000E+00 -0.45593999997E+02  0.45594000000E+02  0.51100000000E-03 0. -1.
         23    2    1    2    0    0  0.53290705182E-14  0.17763568394E-14  0.35527136788E-14  0.91188000000E+02  0.91188000000E+02 0.  0.
    9900012    2    3    3    0    0 -0.12997665222E+02 -0.13995753413E+02 -0.31479506442E+02  0.54367085554E+02  0.40000003138E+02 0.  0.
        -12    1    3    3    0    0  0.12997665222E+02  0.13995753413E+02  0.31479506442E+02  0.36820914446E+02  0.00000000000E+00 0.  1.
         11    1    4    4    0    0 -0.86287063432E+01 -0.59940839566E+01 -0.93359732848E+01  0.14055035150E+02  0.51100000000E-03 0. -1.
        -11    1    4    4    0    0  0.91360994853E+01 -0.72636954391E+01  0.27411359014E+01  0.11989304047E+02  0.51100000000E-03 0.  1.
        -12    1    4    4    0    0 -0.13505058364E+02 -0.73797401724E+00 -0.24884669058E+02  0.28322746357E+02  0.00000000000E+00 0.  1.
</event>
<event>
 8    1  0.2466538E-006  0.9118800E+02  0.7816164E-02  0.1184000E+00
        -11   -1    0    0    0    0  0.00000000000E+00  0.00000000000E+00  0.45593999997E+02  0.45594000000E+02  0.51100000000E-03 0. -1.
         11   -1    0    0    0    0 -0.00000000000E+00 -0.00000000000E+00 -0.45593999997E+02  0.45594000000E+02  0.51100000000E-03 0.  1.
         23    2    1    2    0    0  0.00000000000E+00  0.00000000000E+00 -0.35527136788E-14  0.91188000000E+02  0.91188000000E+02 0.  0.
    9900012    2    3    3    0    0  0.13622813063E+02 -0.17495198188E+02  0.29395859292E+02  0.54367088293E+02  0.40000009382E+02 0.  0.
        -12    1    3    3    0    0 -0.13622813063E+02  0.17495198188E+02 -0.29395859292E+02  0.36820911707E+02  0.00000000000E+00 0.  1.
         11    1    4    4    0    0 -0.10343801108E+02 -0.35229095633E+01  0.19799739137E+02  0.22614923907E+02  0.51100000000E-03 0. -1.
        -11    1    4    4    0    0  0.94960266552E+01 -0.28452438571E+01  0.91534289485E+01  0.13492783131E+02  0.51100000000E-03 0.  1.
        -12    1    4    4    0    0  0.14470587516E+02 -0.11127044768E+02  0.44269120637E+00  0.18259381255E+02  0.00000000000E+00 0.  1.
</event>
<event>
 8    1  0.2466538E-006  0.9118800E+02  0.7816164E-02  0.1184000E+00
        -11   -1    0    0    0    0  0.00000000000E+00  0.00000000000E+00  0.45593999997E+02  0.45594000000E+02  0.51100000000E-03 0.  1.
         11   -1    0    0    0    0 -0.00000000000E+00 -0.00000000000E+00 -0.45593999997E+02  0.45594000000E+02  0.51100000000E-03 0. -1.
         23    2    1    2    0    0  0.00000000000E+00  0.17763568394E-14  0.00000000000E+00  0.91188000000E+02  0.91188000000E+02 0.  0.
    9900012    2    3    3    0    0  0.13299132883E+02 -0.94120657538E+01 -0.33020067429E+02  0.54367098731E+02  0.40000033178E+02 0.  0.
        -12    1    3    3    0    0 -0.13299132883E+02  0.94120657538E+01  0.33020067429E+02  0.36820901269E+02  0.00000000000E+00 0.  1.
         11    1    4    4    0    0  0.13732095373E+02  0.57830523007E+01 -0.25894242291E+02  0.29875172323E+02  0.51100000000E-03 0. -1.
        -11    1    4    4    0    0  0.25789695144E+01 -0.14957681081E+02  0.15955901854E+01  0.15262018719E+02  0.51100000000E-03 0.  1.
         12    1    4    4    0    0 -0.30119320038E+01 -0.23743697381E+00 -0.87214153236E+01  0.92299076896E+01  0.00000000000E+00 0. -1.
</event>
<event>
 8    1  0.2466538E-006  0.9118800E+02  0.7816164E-02  0.1184000E+00
        -11   -1    0    0    0    0  0.00000000000E+00  0.00000000000E+00  0.45593999997E+02  0.45594000000E+02  0.51100000000E-03 0.  1.
         11   -1    0    0    0    0 -0.00000000000E+00 -0.00000000000E+00 -0.45593999997E+02  0.45594000000E+02  0.51100000000E-03 0. -1.
         23    2    1    2    0    0  0.00000000000E+00  0.88817841970E-15 -0.17763568394E-14  0.91188000000E+02  0.91188000000E+02 0.  0.
    9900012    2    3    3    0    0 -0.34071351712E+02  0.78795508851E+01 -0.11525494954E+02  0.54367063516E+02  0.39999952897E+02 0.  0.
        -12    1    3    3    0    0  0.34071351712E+02 -0.78795508851E+01  0.11525494954E+02  0.36820936484E+02  0.00000000000E+00 0.  1.
         11    1    4    4    0    0 -0.86839522508E+01  0.94144774814E+01 -0.78305667936E+01  0.15012034823E+02  0.51100000000E-03 0. -1.
        -11    1    4    4    0    0 -0.16585269230E+02 -0.89378752082E+01  0.10114264955E+02  0.21383524604E+02  0.51100000000E-03 0.  1.
        -12    1    4    4    0    0 -0.88021302317E+01  0.74029486119E+01 -0.13809193115E+02  0.17971504090E+02  0.00000000000E+00 0.  1.
</event>
<event>
 8    1  0.2466538E-006  0.9118800E+02  0.7816164E-02  0.1184000E+00
        -11   -1    0    0    0    0  0.00000000000E+00  0.00000000000E+00  0.45593999997E+02  0.45594000000E+02  0.51100000000E-03 0.  1.
         11   -1    0    0    0    0 -0.00000000000E+00 -0.00000000000E+00 -0.45593999997E+02  0.45594000000E+02  0.51100000000E-03 0. -1.
         23    2    1    2    0    0  0.00000000000E+00  0.00000000000E+00  0.35527136788E-14  0.91188000000E+02  0.91188000000E+02 0.  0.
    9900012    2    3    3    0    0  0.28142020573E+02  0.52952621636E+01  0.23146634864E+02  0.54367084357E+02  0.40000000408E+02 0.  0.
         12    1    3    3    0    0 -0.28142020573E+02 -0.52952621636E+01 -0.23146634864E+02  0.36820915643E+02  0.00000000000E+00 0. -1.
         11    1    4    4    0    0  0.78545779100E+01  0.80969351042E+01 -0.52741936920E+01  0.12452785696E+02  0.51100000000E-03 0. -1.
        -11    1    4    4    0    0  0.56997691888E+01 -0.71081675727E+00  0.26426121441E+02  0.27043160391E+02  0.51100000000E-03 0.  1.
         12    1    4    4    0    0  0.14587673474E+02 -0.20908561834E+01  0.19947071149E+01  0.14871138269E+02  0.00000000000E+00 0. -1.
</event>
<event>
 8    1  0.2466538E-006  0.9118800E+02  0.7816164E-02  0.1184000E+00
        -11   -1    0    0    0    0  0.00000000000E+00  0.00000000000E+00  0.45593999997E+02  0.45594000000E+02  0.51100000000E-03 0. -1.
         11   -1    0    0    0    0 -0.00000000000E+00 -0.00000000000E+00 -0.45593999997E+02  0.45594000000E+02  0.51100000000E-03 0.  1.
         23    2    1    2    0    0  0.17763568394E-14  0.00000000000E+00  0.00000000000E+00  0.91188000000E+02  0.91188000000E+02 0.  0.
    9900012    2    3    3    0    0  0.10915876655E+02 -0.82928830962E+01  0.34173868695E+02  0.54367060648E+02  0.39999946359E+02 0.  0.
        -12    1    3    3    0    0 -0.10915876655E+02  0.82928830962E+01 -0.34173868695E+02  0.36820939352E+02  0.00000000000E+00 0.  1.
         11    1    4    4    0    0  0.79700401245E+01 -0.25144423669E+01  0.21633874153E+01  0.86327403165E+01  0.51100000000E-03 0. -1.
        -11    1    4    4    0    0 -0.12140898343E+02 -0.26240035241E+01  0.26672882407E+02  0.29423280974E+02  0.51100000000E-03 0.  1.
        -12    1    4    4    0    0  0.15086734873E+02 -0.31544372052E+01  0.53375988725E+01  0.16311039358E+02  0.00000000000E+00 0.  1.
</event>
<event>
 8    1  0.2466538E-006  0.9118800E+02  0.7816164E-02  0.1184000E+00
        -11   -1    0    0    0    0  0.00000000000E+00  0.00000000000E+00  0.45593999997E+02  0.45594000000E+02  0.51100000000E-03 0. -1.
         11   -1    0    0    0    0 -0.00000000000E+00 -0.00000000000E+00 -0.45593999997E+02  0.45594000000E+02  0.51100000000E-03 0.  1.
         23    2    1    2    0    0  0.00000000000E+00 -0.35527136788E-14 -0.88817841970E-15  0.91188000000E+02  0.91188000000E+02 0.  0.
    9900012    2    3    3    0    0  0.20995704337E+02  0.29820794239E+02  0.50676333194E+01  0.54367078269E+02  0.39999986530E+02 0.  0.
        -12    1    3    3    0    0 -0.20995704337E+02 -0.29820794239E+02 -0.50676333194E+01  0.36820921731E+02  0.00000000000E+00 0.  1.
         11    1    4    4    0    0  0.13979467919E+02  0.74556853583E+01 -0.62027418643E+01  0.17014310869E+02  0.51100000000E-03 0. -1.
        -11    1    4    4    0    0  0.13730532812E+02  0.86039952919E+01  0.14454088962E+02  0.21713520080E+02  0.51100000000E-03 0.  1.
        -12    1    4    4    0    0 -0.67142963947E+01  0.13761113589E+02 -0.31837137783E+01  0.15639247319E+02  0.00000000000E+00 0.  1.
</event>
<event>
 8    1  0.2466538E-006  0.9118800E+02  0.7816164E-02  0.1184000E+00
        -11   -1    0    0    0    0  0.00000000000E+00  0.00000000000E+00  0.45593999997E+02  0.45594000000E+02  0.51100000000E-03 0.  1.
         11   -1    0    0    0    0 -0.00000000000E+00 -0.00000000000E+00 -0.45593999997E+02  0.45594000000E+02  0.51100000000E-03 0. -1.
         23    2    1    2    0    0  0.44408920985E-15  0.00000000000E+00  0.00000000000E+00  0.91188000000E+02  0.91188000000E+02 0.  0.
    9900012    2    3    3    0    0  0.36746722263E+01 -0.29930271873E+02 -0.21129496761E+02  0.54367081710E+02  0.39999994374E+02 0.  0.
        -12    1    3    3    0    0 -0.36746722263E+01  0.29930271873E+02  0.21129496761E+02  0.36820918290E+02  0.00000000000E+00 0.  1.
         11    1    4    4    0    0  0.14851148760E+01 -0.22754238004E+02 -0.13048550710E+02  0.26272144740E+02  0.51100000000E-03 0. -1.
        -11    1    4    4    0    0  0.64591978891E+01 -0.11247270400E+02  0.48774152668E+01  0.13856821741E+02  0.51100000000E-03 0.  1.
        -12    1    4    4    0    0 -0.42696405388E+01  0.40712365310E+01 -0.12958361318E+02  0.14238115229E+02  0.00000000000E+00 0.  1.
</event>
<event>
 8    1  0.2466538E-006  0.9118800E+02  0.7816164E-02  0.1184000E+00
        -11   -1    0    0    0    0  0.00000000000E+00  0.00000000000E+00  0.45593999997E+02  0.45594000000E+02  0.51100000000E-03 0. -1.
         11   -1    0    0    0    0 -0.00000000000E+00 -0.00000000000E+00 -0.45593999997E+02  0.45594000000E+02  0.51100000000E-03 0.  1.
         23    2    1    2    0    0  0.17763568394E-14  0.17763568394E-14  0.35527136788E-14  0.91188000000E+02  0.91188000000E+02 0.  0.
    9900012    2    3    3    0    0 -0.15771652737E+02 -0.14352643284E+02 -0.30017275783E+02  0.54367078708E+02  0.39999987531E+02 0.  0.
         12    1    3    3    0    0  0.15771652737E+02  0.14352643284E+02  0.30017275783E+02  0.36820921292E+02  0.00000000000E+00 0. -1.
         11    1    4    4    0    0  0.55460496572E+01 -0.18834195713E+02 -0.99792380985E+01  0.22024322651E+02  0.51100000000E-03 0. -1.
        -11    1    4    4    0    0 -0.13545233482E+02  0.80123683831E+01 -0.17277716030E+02  0.23370726747E+02  0.51100000000E-03 0.  1.
         12    1    4    4    0    0 -0.77724689125E+01 -0.35308159547E+01 -0.27603216545E+01  0.89720293099E+01  0.00000000000E+00 0. -1.
</event>
<event>
 8    1  0.2466538E-006  0.9118800E+02  0.7816164E-02  0.1184000E+00
        -11   -1    0    0    0    0  0.00000000000E+00  0.00000000000E+00  0.45593999997E+02  0.45594000000E+02  0.51100000000E-03 0.  1.
         11   -1    0    0    0    0 -0.00000000000E+00 -0.00000000000E+00 -0.45593999997E+02  0.45594000000E+02  0.51100000000E-03 0. -1.
         23    2    1    2    0    0  0.00000000000E+00  0.00000000000E+00  0.17763568394E-14  0.91188000000E+02  0.91188000000E+02 0.  0.
    9900012    2    3    3    0    0 -0.29645734817E+02  0.19343367164E+02  0.10136135216E+02  0.54367127072E+02  0.40000097786E+02 0.  0.
         12    1    3    3    0    0  0.29645734817E+02 -0.19343367164E+02 -0.10136135216E+02  0.36820872928E+02  0.00000000000E+00 0. -1.
         11    1    4    4    0    0 -0.19507722940E+02 -0.43917939605E+01  0.21951016668E+01  0.20116102508E+02  0.51100000000E-03 0. -1.
        -11    1    4    4    0    0 -0.94259087453E+01  0.80743186913E+01  0.12808882774E+02  0.17835634449E+02  0.51100000000E-03 0.  1.
         12    1    4    4    0    0 -0.71210313102E+00  0.15660842433E+02 -0.48678492250E+01  0.16415390116E+02  0.00000000000E+00 0. -1.
</event>
<event>
 8    1  0.2466538E-006  0.9118800E+02  0.7816164E-02  0.1184000E+00
        -11   -1    0    0    0    0  0.00000000000E+00  0.00000000000E+00  0.45593999997E+02  0.45594000000E+02  0.51100000000E-03 0. -1.
         11   -1    0    0    0    0 -0.00000000000E+00 -0.00000000000E+00 -0.45593999997E+02  0.45594000000E+02  0.51100000000E-03 0.  1.
         23    2    1    2    0    0 -0.13322676296E-14  0.00000000000E+00  0.00000000000E+00  0.91188000000E+02  0.91188000000E+02 0.  0.
    9900012    2    3    3    0    0 -0.39781750540E+01 -0.12153909987E+02  0.34528763247E+02  0.54367097022E+02  0.40000029281E+02 0.  0.
        -12    1    3    3    0    0  0.39781750540E+01  0.12153909987E+02 -0.34528763247E+02  0.36820902978E+02  0.00000000000E+00 0.  1.
         11    1    4    4    0    0 -0.31652856581E+01 -0.52243679549E+01 -0.25506973258E+01  0.66196005117E+01  0.51100000000E-03 0. -1.
        -11    1    4    4    0    0 -0.98286266848E+01  0.74781796313E+01  0.10560767096E+02  0.16249765384E+02  0.51100000000E-03 0.  1.
         12    1    4    4    0    0  0.90157372888E+01 -0.14407721663E+02  0.26518693477E+02  0.31497731126E+02  0.00000000000E+00 0. -1.
</event>
<event>
 8    1  0.2466538E-006  0.9118800E+02  0.7816164E-02  0.1184000E+00
        -11   -1    0    0    0    0  0.00000000000E+00  0.00000000000E+00  0.45593999997E+02  0.45594000000E+02  0.51100000000E-03 0.  1.
         11   -1    0    0    0    0 -0.00000000000E+00 -0.00000000000E+00 -0.45593999997E+02  0.45594000000E+02  0.51100000000E-03 0. -1.
         23    2    1    2    0    0  0.00000000000E+00  0.00000000000E+00 -0.35527136788E-14  0.91188000000E+02  0.91188000000E+02 0.  0.
    9900012    2    3    3    0    0 -0.25100246468E+02  0.15361806130E+02 -0.22130812626E+02  0.54367077580E+02  0.39999984960E+02 0.  0.
        -12    1    3    3    0    0  0.25100246468E+02 -0.15361806130E+02  0.22130812626E+02  0.36820922420E+02  0.00000000000E+00 0.  1.
         11    1    4    4    0    0 -0.17727126638E+02 -0.35695295253E+01 -0.19297803649E+02  0.26446129883E+02  0.51100000000E-03 0. -1.
        -11    1    4    4    0    0  0.48787106244E+01  0.21671108061E+00 -0.26406472158E+01  0.55517383789E+01  0.51100000000E-03 0.  1.
         12    1    4    4    0    0 -0.12251830454E+02  0.18714624575E+02 -0.19236176122E+00  0.22369209318E+02  0.00000000000E+00 0. -1.
</event>
<event>
 8    1  0.2466538E-006  0.9118800E+02  0.7816164E-02  0.1184000E+00
        -11   -1    0    0    0    0  0.00000000000E+00  0.00000000000E+00  0.45593999997E+02  0.45594000000E+02  0.51100000000E-03 0. -1.
         11   -1    0    0    0    0 -0.00000000000E+00 -0.00000000000E+00 -0.45593999997E+02  0.45594000000E+02  0.51100000000E-03 0.  1.
         23    2    1    2    0    0  0.00000000000E+00  0.00000000000E+00  0.88817841970E-15  0.91188000000E+02  0.91188000000E+02 0.  0.
    9900012    2    3    3    0    0 -0.15886223795E+02  0.32572233983E+02 -0.65159603554E+01  0.54367078333E+02  0.39999986675E+02 0.  0.
         12    1    3    3    0    0  0.15886223795E+02 -0.32572233983E+02  0.65159603554E+01  0.36820921667E+02  0.00000000000E+00 0. -1.
         11    1    4    4    0    0 -0.15202224578E+01  0.22139848730E+02  0.29363400612E+01  0.22385398618E+02  0.51100000000E-03 0. -1.
        -11    1    4    4    0    0  0.67999702692E+01  0.56780493971E+01 -0.28381021698E+01  0.93024010237E+01  0.51100000000E-03 0.  1.
         12    1    4    4    0    0 -0.21165971606E+02  0.47543358561E+01 -0.66141982469E+01  0.22679278690E+02  0.00000000000E+00 0. -1.
</event>
<event>
 8    1  0.2466538E-006  0.9118800E+02  0.7816164E-02  0.1184000E+00
        -11   -1    0    0    0    0  0.00000000000E+00  0.00000000000E+00  0.45593999997E+02  0.45594000000E+02  0.51100000000E-03 0. -1.
         11   -1    0    0    0    0 -0.00000000000E+00 -0.00000000000E+00 -0.45593999997E+02  0.45594000000E+02  0.51100000000E-03 0.  1.
         23    2    1    2    0    0 -0.17763568394E-14 -0.35527136788E-14  0.00000000000E+00  0.91188000000E+02  0.91188000000E+02 0.  0.
    9900012    2    3    3    0    0  0.13262977737E+02  0.22726003515E+02 -0.25756595602E+02  0.54367081608E+02  0.39999994142E+02 0.  0.
         12    1    3    3    0    0 -0.13262977737E+02 -0.22726003515E+02  0.25756595602E+02  0.36820918392E+02  0.00000000000E+00 0. -1.
         11    1    4    4    0    0  0.50929282211E+00 -0.78540367862E+01 -0.15055547221E+02  0.16988666086E+02  0.51100000000E-03 0. -1.
        -11    1    4    4    0    0  0.95454255132E+00  0.10654440958E+02 -0.93074670839E+01  0.14179464285E+02  0.51100000000E-03 0.  1.
         12    1    4    4    0    0  0.11799142364E+02  0.19925599342E+02 -0.13935812975E+01  0.23198951237E+02  0.00000000000E+00 0. -1.
</event>
<event>
 8    1  0.2466538E-006  0.9118800E+02  0.7816164E-02  0.1184000E+00
        -11   -1    0    0    0    0  0.00000000000E+00  0.00000000000E+00  0.45593999997E+02  0.45594000000E+02  0.51100000000E-03 0. -1.
         11   -1    0    0    0    0 -0.00000000000E+00 -0.00000000000E+00 -0.45593999997E+02  0.45594000000E+02  0.51100000000E-03 0.  1.
         23    2    1    2    0    0  0.00000000000E+00 -0.17763568394E-14  0.00000000000E+00  0.91188000000E+02  0.91188000000E+02 0.  0.
    9900012    2    3    3    0    0 -0.17007623602E+02  0.12013321119E+02  0.30367747661E+02  0.54367092313E+02  0.40000018546E+02 0.  0.
        -12    1    3    3    0    0  0.17007623602E+02 -0.12013321119E+02 -0.30367747661E+02  0.36820907687E+02  0.00000000000E+00 0.  1.
         11    1    4    4    0    0 -0.75797127764E+01 -0.30630702975E+01  0.12492054867E+02  0.14929363030E+02  0.51100000000E-03 0. -1.
        -11    1    4    4    0    0 -0.52189154968E+01  0.16990556624E+02 -0.30268184123E+01  0.18029911906E+02  0.51100000000E-03 0.  1.
        -12    1    4    4    0    0 -0.42089953292E+01 -0.19141652077E+01  0.20902511206E+02  0.21407817377E+02  0.00000000000E+00 0.  1.
</event>
<event>
 8    1  0.2466538E-006  0.9118800E+02  0.7816164E-02  0.1184000E+00
        -11   -1    0    0    0    0  0.00000000000E+00  0.00000000000E+00  0.45593999997E+02  0.45594000000E+02  0.51100000000E-03 0. -1.
         11   -1    0    0    0    0 -0.00000000000E+00 -0.00000000000E+00 -0.45593999997E+02  0.45594000000E+02  0.51100000000E-03 0.  1.
         23    2    1    2    0    0  0.00000000000E+00  0.35527136788E-14  0.00000000000E+00  0.91188000000E+02  0.91188000000E+02 0.  0.
    9900012    2    3    3    0    0  0.22427352826E+02  0.27520295949E+02 -0.97685917586E+01  0.54367106083E+02  0.40000049936E+02 0.  0.
         12    1    3    3    0    0 -0.22427352826E+02 -0.27520295949E+02  0.97685917586E+01  0.36820893917E+02  0.00000000000E+00 0. -1.
         11    1    4    4    0    0  0.26862486214E+02  0.26614861332E+01 -0.53025861149E+01  0.27509890836E+02  0.51100000000E-03 0. -1.
        -11    1    4    4    0    0 -0.97038042255E+00  0.20923533837E+02 -0.51493520902E+01  0.21569694796E+02  0.51100000000E-03 0.  1.
         12    1    4    4    0    0 -0.34647529656E+01  0.39352759794E+01  0.68334644647E+00  0.52875204504E+01  0.00000000000E+00 0. -1.
</event>
<event>
 8    1  0.2466538E-006  0.9118800E+02  0.7816164E-02  0.1184000E+00
        -11   -1    0    0    0    0  0.00000000000E+00  0.00000000000E+00  0.45593999997E+02  0.45594000000E+02  0.51100000000E-03 0.  1.
         11   -1    0    0    0    0 -0.00000000000E+00 -0.00000000000E+00 -0.45593999997E+02  0.45594000000E+02  0.51100000000E-03 0. -1.
         23    2    1    2    0    0  0.00000000000E+00  0.00000000000E+00  0.00000000000E+00  0.91188000000E+02  0.91188000000E+02 0.  0.
    9900012    2    3    3    0    0 -0.25514423693E+02  0.25219999943E+02  0.82912310428E+01  0.54367099336E+02  0.40000034556E+02 0.  0.
        -12    1    3    3    0    0  0.25514423693E+02 -0.25219999943E+02 -0.82912310428E+01  0.36820900664E+02  0.00000000000E+00 0.  1.
         11    1    4    4    0    0 -0.48166157518E+01 -0.15876661116E+01 -0.40649095294E+01  0.64995354238E+01  0.51100000000E-03 0. -1.
        -11    1    4    4    0    0 -0.23915181419E+02  0.21246178783E+02 -0.20892003297E+01  0.32057772435E+02  0.51100000000E-03 0.  1.
        -12    1    4    4    0    0  0.32173734783E+01  0.55614872717E+01  0.14445340902E+02  0.15809791477E+02  0.00000000000E+00 0.  1.
</event>
<event>
 8    1  0.2466538E-006  0.9118800E+02  0.7816164E-02  0.1184000E+00
        -11   -1    0    0    0    0  0.00000000000E+00  0.00000000000E+00  0.45593999997E+02  0.45594000000E+02  0.51100000000E-03 0. -1.
         11   -1    0    0    0    0 -0.00000000000E+00 -0.00000000000E+00 -0.45593999997E+02  0.45594000000E+02  0.51100000000E-03 0.  1.
         23    2    1    2    0    0  0.00000000000E+00  0.00000000000E+00  0.88817841970E-15  0.91188000000E+02  0.91188000000E+02 0.  0.
    9900012    2    3    3    0    0  0.45437115720E+01  0.35802125766E+02  0.73036343113E+01  0.54367073907E+02  0.39999976585E+02 0.  0.
         12    1    3    3    0    0 -0.45437115720E+01 -0.35802125766E+02 -0.73036343113E+01  0.36820926093E+02  0.00000000000E+00 0. -1.
         11    1    4    4    0    0 -0.25878461889E+01  0.58626598891E+01  0.14477840242E+02  0.15832737830E+02  0.51100000000E-03 0. -1.
        -11    1    4    4    0    0  0.13531809095E+02  0.14127131642E+02 -0.86959689035E+01  0.21408072806E+02  0.51100000000E-03 0.  1.
        -12    1    4    4    0    0 -0.64002513339E+01  0.15812334235E+02  0.15217629731E+01  0.17126263271E+02  0.00000000000E+00 0.  1.
</event>
<event>
 8    1  0.2466538E-006  0.9118800E+02  0.7816164E-02  0.1184000E+00
        -11   -1    0    0    0    0  0.00000000000E+00  0.00000000000E+00  0.45593999997E+02  0.45594000000E+02  0.51100000000E-03 0. -1.
         11   -1    0    0    0    0 -0.00000000000E+00 -0.00000000000E+00 -0.45593999997E+02  0.45594000000E+02  0.51100000000E-03 0.  1.
         23    2    1    2    0    0  0.00000000000E+00  0.00000000000E+00  0.00000000000E+00  0.91188000000E+02  0.91188000000E+02 0.  0.
    9900012    2    3    3    0    0  0.20188179271E+02  0.13926734167E+02  0.27463860546E+02  0.54367080092E+02  0.39999990685E+02 0.  0.
        -12    1    3    3    0    0 -0.20188179271E+02 -0.13926734167E+02 -0.27463860546E+02  0.36820919908E+02  0.00000000000E+00 0.  1.
         11    1    4    4    0    0  0.28620867802E+01 -0.32725120723E+01  0.22841322601E+02  0.23251384786E+02  0.51100000000E-03 0. -1.
        -11    1    4    4    0    0 -0.38277832109E+01  0.20120417922E+01  0.24838180105E+01  0.49869418137E+01  0.51100000000E-03 0.  1.
        -12    1    4    4    0    0  0.21153875701E+02  0.15187204447E+02  0.21387199335E+01  0.26128753492E+02  0.00000000000E+00 0.  1.
</event>
<event>
 8    1  0.2466538E-006  0.9118800E+02  0.7816164E-02  0.1184000E+00
        -11   -1    0    0    0    0  0.00000000000E+00  0.00000000000E+00  0.45593999997E+02  0.45594000000E+02  0.51100000000E-03 0.  1.
         11   -1    0    0    0    0 -0.00000000000E+00 -0.00000000000E+00 -0.45593999997E+02  0.45594000000E+02  0.51100000000E-03 0. -1.
         23    2    1    2    0    0 -0.44408920985E-15  0.00000000000E+00  0.71054273576E-14  0.91188000000E+02  0.91188000000E+02 0.  0.
    9900012    2    3    3    0    0  0.19398415005E+01  0.12130501058E+02 -0.34711205889E+02  0.54367083998E+02  0.39999999589E+02 0.  0.
        -12    1    3    3    0    0 -0.19398415005E+01 -0.12130501058E+02  0.34711205889E+02  0.36820916002E+02  0.00000000000E+00 0.  1.
         11    1    4    4    0    0  0.73091758794E+01  0.91070726054E+01 -0.13679960470E+02  0.17986220898E+02  0.51100000000E-03 0. -1.
        -11    1    4    4    0    0 -0.16307178520E+01  0.93223907258E+01 -0.25907065421E+02  0.27581556311E+02  0.51100000000E-03 0.  1.
        -12    1    4    4    0    0 -0.37386165270E+01 -0.62989622728E+01  0.48758200025E+01  0.87993067878E+01  0.00000000000E+00 0.  1.
</event>
<event>
 8    1  0.2466538E-006  0.9118800E+02  0.7816164E-02  0.1184000E+00
        -11   -1    0    0    0    0  0.00000000000E+00  0.00000000000E+00  0.45593999997E+02  0.45594000000E+02  0.51100000000E-03 0.  1.
         11   -1    0    0    0    0 -0.00000000000E+00 -0.00000000000E+00 -0.45593999997E+02  0.45594000000E+02  0.51100000000E-03 0. -1.
         23    2    1    2    0    0  0.00000000000E+00  0.15543122345E-14  0.00000000000E+00  0.91188000000E+02  0.91188000000E+02 0.  0.
    9900012    2    3    3    0    0 -0.13392541223E+02 -0.68533184920E+00  0.34292237973E+02  0.54366981201E+02  0.39999765244E+02 0.  0.
         12    1    3    3    0    0  0.13392541223E+02  0.68533184920E+00 -0.34292237973E+02  0.36821018799E+02  0.00000000000E+00 0. -1.
         11    1    4    4    0    0  0.21866486217E+01  0.57686262738E+01  0.68085286024E+00  0.62066127767E+01  0.51100000000E-03 0. -1.
        -11    1    4    4    0    0 -0.61894687041E+01  0.11038907163E+02  0.56309358163E+01  0.13851874697E+02  0.51100000000E-03 0.  1.
         12    1    4    4    0    0 -0.93897211407E+01 -0.17492865286E+02  0.27980449297E+02  0.34308493728E+02  0.00000000000E+00 0. -1.
</event>
<event>
 8    1  0.2466538E-006  0.9118800E+02  0.7816164E-02  0.1184000E+00
        -11   -1    0    0    0    0  0.00000000000E+00  0.00000000000E+00  0.45593999997E+02  0.45594000000E+02  0.51100000000E-03 0.  1.
         11   -1    0    0    0    0 -0.00000000000E+00 -0.00000000000E+00 -0.45593999997E+02  0.45594000000E+02  0.51100000000E-03 0. -1.
         23    2    1    2    0    0 -0.35527136788E-14  0.00000000000E+00  0.00000000000E+00  0.91188000000E+02  0.91188000000E+02 0.  0.
    9900012    2    3    3    0    0 -0.26870860484E+02 -0.22912388520E+02 -0.10428748189E+02  0.54367089098E+02  0.40000011217E+02 0.  0.
        -12    1    3    3    0    0  0.26870860484E+02  0.22912388520E+02  0.10428748189E+02  0.36820910902E+02  0.00000000000E+00 0.  1.
         11    1    4    4    0    0 -0.42851492902E+01 -0.32937191249E+01 -0.47408187813E+01  0.71893291127E+01  0.51100000000E-03 0. -1.
        -11    1    4    4    0    0 -0.17300039621E+01 -0.18584834063E+02 -0.15352903502E+02  0.24168173639E+02  0.51100000000E-03 0.  1.
        -12    1    4    4    0    0 -0.20855707231E+02 -0.10338353328E+01  0.96649740937E+01  0.23009586347E+02  0.00000000000E+00 0.  1.
</event>
<event>
 8    1  0.2466538E-006  0.9118800E+02  0.7816164E-02  0.1184000E+00
        -11   -1    0    0    0    0  0.00000000000E+00  0.00000000000E+00  0.45593999997E+02  0.45594000000E+02  0.51100000000E-03 0.  1.
         11   -1    0    0    0    0 -0.00000000000E+00 -0.00000000000E+00 -0.45593999997E+02  0.45594000000E+02  0.51100000000E-03 0. -1.
         23    2    1    2    0    0  0.35527136788E-14 -0.44408920985E-15  0.00000000000E+00  0.91188000000E+02  0.91188000000E+02 0.  0.
    9900012    2    3    3    0    0  0.21889558832E+02 -0.39303628743E+01  0.29345847186E+02  0.54367091738E+02  0.40000017235E+02 0.  0.
         12    1    3    3    0    0 -0.21889558832E+02  0.39303628743E+01 -0.29345847186E+02  0.36820908262E+02  0.00000000000E+00 0. -1.
         11    1    4    4    0    0  0.81036087223E+01 -0.13266678013E+01  0.10211766621E+01  0.82747401056E+01  0.51100000000E-03 0. -1.
        -11    1    4    4    0    0  0.21318920280E+02 -0.68813154560E+01  0.29824395632E+02  0.37300716339E+02  0.51100000000E-03 0.  1.
        -12    1    4    4    0    0 -0.75329701707E+01  0.42776203830E+01 -0.14997251077E+01  0.87916352934E+01  0.00000000000E+00 0.  1.
</event>
<event>
 8    1  0.2466538E-006  0.9118800E+02  0.7816164E-02  0.1184000E+00
        -11   -1    0    0    0    0  0.00000000000E+00  0.00000000000E+00  0.45593999997E+02  0.45594000000E+02  0.51100000000E-03 0.  1.
         11   -1    0    0    0    0 -0.00000000000E+00 -0.00000000000E+00 -0.45593999997E+02  0.45594000000E+02  0.51100000000E-03 0. -1.
         23    2    1    2    0    0  0.00000000000E+00  0.00000000000E+00  0.00000000000E+00  0.91188000000E+02  0.91188000000E+02 0.  0.
    9900012    2    3    3    0    0 -0.33766612004E+02 -0.61423908613E+01  0.13336748565E+02  0.54367056041E+02  0.39999935858E+02 0.  0.
         12    1    3    3    0    0  0.33766612004E+02  0.61423908613E+01 -0.13336748565E+02  0.36820943959E+02  0.00000000000E+00 0. -1.
         11    1    4    4    0    0 -0.34611019049E+01 -0.35802488301E+01 -0.20514557616E+01  0.53857106388E+01  0.51100000000E-03 0. -1.
        -11    1    4    4    0    0 -0.27853189517E+02  0.12890482537E+02  0.82308309445E+01  0.31775954503E+02  0.51100000000E-03 0.  1.
        -12    1    4    4    0    0 -0.24523205819E+01 -0.15452624568E+02  0.71573733820E+01  0.17205390899E+02  0.00000000000E+00 0.  1.
</event>
<event>
 8    1  0.2466538E-006  0.9118800E+02  0.7816164E-02  0.1184000E+00
        -11   -1    0    0    0    0  0.00000000000E+00  0.00000000000E+00  0.45593999997E+02  0.45594000000E+02  0.51100000000E-03 0.  1.
         11   -1    0    0    0    0 -0.00000000000E+00 -0.00000000000E+00 -0.45593999997E+02  0.45594000000E+02  0.51100000000E-03 0. -1.
         23    2    1    2    0    0  0.35527136788E-14 -0.44408920985E-15 -0.35527136788E-14  0.91188000000E+02  0.91188000000E+02 0.  0.
    9900012    2    3    3    0    0  0.21672246196E+02 -0.28699951329E+01  0.29628645367E+02  0.54367085380E+02  0.40000002740E+02 0.  0.
         12    1    3    3    0    0 -0.21672246196E+02  0.28699951329E+01 -0.29628645367E+02  0.36820914620E+02  0.00000000000E+00 0. -1.
         11    1    4    4    0    0 -0.45789501297E+01 -0.46582627142E+01  0.69677116327E+01  0.95506649749E+01  0.51100000000E-03 0. -1.
        -11    1    4    4    0    0 -0.13901004937E+01  0.75435103208E+01  0.12776303681E+02  0.14902042254E+02  0.51100000000E-03 0.  1.
         12    1    4    4    0    0  0.27641296819E+02 -0.57552427395E+01  0.98846300528E+01  0.29914378150E+02  0.00000000000E+00 0. -1.
</event>
<event>
 8    1  0.2466538E-006  0.9118800E+02  0.7816164E-02  0.1184000E+00
        -11   -1    0    0    0    0  0.00000000000E+00  0.00000000000E+00  0.45593999997E+02  0.45594000000E+02  0.51100000000E-03 0.  1.
         11   -1    0    0    0    0 -0.00000000000E+00 -0.00000000000E+00 -0.45593999997E+02  0.45594000000E+02  0.51100000000E-03 0. -1.
         23    2    1    2    0    0 -0.88817841970E-15 -0.71054273576E-14  0.13322676296E-14  0.91188000000E+02  0.91188000000E+02 0.  0.
    9900012    2    3    3    0    0 -0.12348243490E+01  0.36663169177E+02 -0.31731697705E+01  0.54367057974E+02  0.39999940264E+02 0.  0.
        -12    1    3    3    0    0  0.12348243490E+01 -0.36663169177E+02  0.31731697705E+01  0.36820942026E+02  0.00000000000E+00 0.  1.
         11    1    4    4    0    0  0.44964231947E+01  0.17420696805E+02  0.38805078290E+01  0.18405348136E+02  0.51100000000E-03 0. -1.
        -11    1    4    4    0    0  0.99292557055E+01  0.32221407730E+01  0.37467556069E+01  0.11091009326E+02  0.51100000000E-03 0.  1.
         12    1    4    4    0    0 -0.15660503249E+02  0.16020331599E+02 -0.10800433206E+02  0.24870700513E+02  0.00000000000E+00 0. -1.
</event>
<event>
 8    1  0.2466538E-006  0.9118800E+02  0.7816164E-02  0.1184000E+00
        -11   -1    0    0    0    0  0.00000000000E+00  0.00000000000E+00  0.45593999997E+02  0.45594000000E+02  0.51100000000E-03 0.  1.
         11   -1    0    0    0    0 -0.00000000000E+00 -0.00000000000E+00 -0.45593999997E+02  0.45594000000E+02  0.51100000000E-03 0. -1.
         23    2    1    2    0    0  0.35527136788E-14  0.17763568394E-14 -0.17763568394E-14  0.91188000000E+02  0.91188000000E+02 0.  0.
    9900012    2    3    3    0    0 -0.30506544130E+02 -0.14559579803E+02 -0.14599604636E+02  0.54367094874E+02  0.40000024384E+02 0.  0.
        -12    1    3    3    0    0  0.30506544130E+02  0.14559579803E+02  0.14599604636E+02  0.36820905126E+02  0.00000000000E+00 0.  1.
         11    1    4    4    0    0 -0.20423257813E+02 -0.18604811133E+02 -0.89341323307E+00  0.27641393678E+02  0.51100000000E-03 0. -1.
        -11    1    4    4    0    0 -0.10313808878E+02  0.11348578842E+02 -0.71971180945E+01  0.16939994228E+02  0.51100000000E-03 0.  1.
         12    1    4    4    0    0  0.23052256145E+00 -0.73033475119E+01 -0.65090733089E+01  0.97857069683E+01  0.00000000000E+00 0. -1.
</event>
<event>
 8    1  0.2466538E-006  0.9118800E+02  0.7816164E-02  0.1184000E+00
        -11   -1    0    0    0    0  0.00000000000E+00  0.00000000000E+00  0.45593999997E+02  0.45594000000E+02  0.51100000000E-03 0. -1.
         11   -1    0    0    0    0 -0.00000000000E+00 -0.00000000000E+00 -0.45593999997E+02  0.45594000000E+02  0.51100000000E-03 0.  1.
         23    2    1    2    0    0 -0.35527136788E-14 -0.17763568394E-14  0.00000000000E+00  0.91188000000E+02  0.91188000000E+02 0.  0.
    9900012    2    3    3    0    0 -0.31443169392E+02 -0.12693270563E+02  0.14352339587E+02  0.54367059346E+02  0.39999943391E+02 0.  0.
        -12    1    3    3    0    0  0.31443169392E+02  0.12693270563E+02 -0.14352339587E+02  0.36820940654E+02  0.00000000000E+00 0.  1.
         11    1    4    4    0    0 -0.77181379733E+01 -0.19508544167E+02 -0.10156394988E+01  0.21004391758E+02  0.51100000000E-03 0. -1.
        -11    1    4    4    0    0 -0.12318991643E+02  0.72481078941E+01  0.92112119520E-01  0.14293393860E+02  0.51100000000E-03 0.  1.
         12    1    4    4    0    0 -0.11406039776E+02 -0.43283429018E+00  0.15275866967E+02  0.19069273727E+02  0.00000000000E+00 0. -1.
</event>
<event>
 8    1  0.2466538E-006  0.9118800E+02  0.7816164E-02  0.1184000E+00
        -11   -1    0    0    0    0  0.00000000000E+00  0.00000000000E+00  0.45593999997E+02  0.45594000000E+02  0.51100000000E-03 0.  1.
         11   -1    0    0    0    0 -0.00000000000E+00 -0.00000000000E+00 -0.45593999997E+02  0.45594000000E+02  0.51100000000E-03 0. -1.
         23    2    1    2    0    0  0.35527136788E-14  0.35527136788E-14 -0.35527136788E-14  0.91188000000E+02  0.91188000000E+02 0.  0.
    9900012    2    3    3    0    0 -0.10561257092E+02 -0.16941014332E+02  0.30939317428E+02  0.54367089082E+02  0.40000011179E+02 0.  0.
         12    1    3    3    0    0  0.10561257092E+02  0.16941014332E+02 -0.30939317428E+02  0.36820910918E+02  0.00000000000E+00 0. -1.
         11    1    4    4    0    0  0.48621606150E+01 -0.58590162117E+01  0.94720496174E+01  0.12152711674E+02  0.51100000000E-03 0. -1.
        -11    1    4    4    0    0  0.76500795714E+00 -0.14080607547E+02 -0.12520641025E+01  0.14156850315E+02  0.51100000000E-03 0.  1.
        -12    1    4    4    0    0 -0.16188425664E+02  0.29986094267E+01  0.22719331913E+02  0.28057527093E+02  0.00000000000E+00 0.  1.
</event>
<event>
 8    1  0.2466538E-006  0.9118800E+02  0.7816164E-02  0.1184000E+00
        -11   -1    0    0    0    0  0.00000000000E+00  0.00000000000E+00  0.45593999997E+02  0.45594000000E+02  0.51100000000E-03 0. -1.
         11   -1    0    0    0    0 -0.00000000000E+00 -0.00000000000E+00 -0.45593999997E+02  0.45594000000E+02  0.51100000000E-03 0.  1.
         23    2    1    2    0    0  0.00000000000E+00  0.00000000000E+00  0.00000000000E+00  0.91188000000E+02  0.91188000000E+02 0.  0.
    9900012    2    3    3    0    0  0.10531778442E+02 -0.35186493420E+02  0.26023180217E+01  0.54367085625E+02  0.40000003299E+02 0.  0.
        -12    1    3    3    0    0 -0.10531778442E+02  0.35186493420E+02 -0.26023180217E+01  0.36820914375E+02  0.00000000000E+00 0.  1.
         11    1    4    4    0    0  0.24386367586E+02 -0.13670534446E+02  0.73186888166E+00  0.27966302373E+02  0.51100000000E-03 0. -1.
        -11    1    4    4    0    0 -0.98979747718E+01 -0.10871384902E+02 -0.83798164237E+00  0.14726137571E+02  0.51100000000E-03 0.  1.
         12    1    4    4    0    0 -0.39566143722E+01 -0.10644574073E+02  0.27084307824E+01  0.11674645681E+02  0.00000000000E+00 0. -1.
</event>
<event>
 8    1  0.2466538E-006  0.9118800E+02  0.7816164E-02  0.1184000E+00
        -11   -1    0    0    0    0  0.00000000000E+00  0.00000000000E+00  0.45593999997E+02  0.45594000000E+02  0.51100000000E-03 0. -1.
         11   -1    0    0    0    0 -0.00000000000E+00 -0.00000000000E+00 -0.45593999997E+02  0.45594000000E+02  0.51100000000E-03 0.  1.
         23    2    1    2    0    0  0.00000000000E+00 -0.11102230246E-14 -0.88817841970E-15  0.91188000000E+02  0.91188000000E+02 0.  0.
    9900012    2    3    3    0    0  0.36127756203E+02 -0.16263832755E+01  0.69226726907E+01  0.54367037384E+02  0.39999893324E+02 0.  0.
         12    1    3    3    0    0 -0.36127756203E+02  0.16263832755E+01 -0.69226726907E+01  0.36820962616E+02  0.00000000000E+00 0. -1.
         11    1    4    4    0    0 -0.44890243117E+01 -0.50634101289E+01  0.46912423700E+01  0.82339065236E+01  0.51100000000E-03 0. -1.
        -11    1    4    4    0    0  0.36794244167E+02  0.77001411751E+01  0.75228082058E+01  0.38336682453E+02  0.51100000000E-03 0.  1.
        -12    1    4    4    0    0  0.38225363475E+01 -0.42631143217E+01 -0.52913778851E+01  0.77964484075E+01  0.00000000000E+00 0.  1.
</event>
<event>
 8    1  0.2466538E-006  0.9118800E+02  0.7816164E-02  0.1184000E+00
        -11   -1    0    0    0    0  0.00000000000E+00  0.00000000000E+00  0.45593999997E+02  0.45594000000E+02  0.51100000000E-03 0.  1.
         11   -1    0    0    0    0 -0.00000000000E+00 -0.00000000000E+00 -0.45593999997E+02  0.45594000000E+02  0.51100000000E-03 0. -1.
         23    2    1    2    0    0  0.26367796835E-15  0.00000000000E+00 -0.35527136788E-14  0.91188000000E+02  0.91188000000E+02 0.  0.
    9900012    2    3    3    0    0 -0.69969869103E-01  0.21769981802E+02 -0.29695837942E+02  0.54367084822E+02  0.40000001469E+02 0.  0.
        -12    1    3    3    0    0  0.69969869103E-01 -0.21769981802E+02  0.29695837942E+02  0.36820915178E+02  0.00000000000E+00 0.  1.
         11    1    4    4    0    0  0.71869429358E+01 -0.66081752527E+01 -0.63538872678E+01  0.11648691455E+02  0.51100000000E-03 0.  1.
        -11    1    4    4    0    0 -0.27427190378E+01  0.24471634084E+02 -0.26323059801E+02  0.36045621925E+02  0.51100000000E-03 0. -1.
         12    1    4    4    0    0 -0.45141937671E+01  0.39065229712E+01  0.29811091264E+01  0.66727714418E+01  0.00000000000E+00 0. -1.
</event>
<event>
 8    1  0.2466538E-006  0.9118800E+02  0.7816164E-02  0.1184000E+00
        -11   -1    0    0    0    0  0.00000000000E+00  0.00000000000E+00  0.45593999997E+02  0.45594000000E+02  0.51100000000E-03 0.  1.
         11   -1    0    0    0    0 -0.00000000000E+00 -0.00000000000E+00 -0.45593999997E+02  0.45594000000E+02  0.51100000000E-03 0. -1.
         23    2    1    2    0    0  0.00000000000E+00  0.17763568394E-14  0.00000000000E+00  0.91188000000E+02  0.91188000000E+02 0.  0.
    9900012    2    3    3    0    0 -0.29834329167E+02  0.11810399347E+02 -0.18061208884E+02  0.54367082087E+02  0.39999995234E+02 0.  0.
        -12    1    3    3    0    0  0.29834329167E+02 -0.11810399347E+02  0.18061208884E+02  0.36820917913E+02  0.00000000000E+00 0.  1.
         11    1    4    4    0    0  0.81922256409E+01  0.58928647137E+01 -0.58615370063E+01  0.11670305558E+02  0.51100000000E-03 0. -1.
        -11    1    4    4    0    0 -0.15447333062E+02 -0.35990299363E+01 -0.82478556110E+01  0.17877366631E+02  0.51100000000E-03 0.  1.
         12    1    4    4    0    0 -0.22579221746E+02  0.95165645698E+01 -0.39518162669E+01  0.24819409898E+02  0.00000000000E+00 0. -1.
</event>
<event>
 8    1  0.2466538E-006  0.9118800E+02  0.7816164E-02  0.1184000E+00
        -11   -1    0    0    0    0  0.00000000000E+00  0.00000000000E+00  0.45593999997E+02  0.45594000000E+02  0.51100000000E-03 0. -1.
         11   -1    0    0    0    0 -0.00000000000E+00 -0.00000000000E+00 -0.45593999997E+02  0.45594000000E+02  0.51100000000E-03 0.  1.
         23    2    1    2    0    0  0.00000000000E+00  0.00000000000E+00 -0.17763568394E-14  0.91188000000E+02  0.91188000000E+02 0.  0.
    9900012    2    3    3    0    0  0.11878060767E+02 -0.32632341850E+02  0.12239887895E+02  0.54367178202E+02  0.40000214346E+02 0.  0.
         12    1    3    3    0    0 -0.11878060767E+02  0.32632341850E+02 -0.12239887895E+02  0.36820821798E+02  0.00000000000E+00 0. -1.
         11    1    4    4    0    0  0.10249651183E+02 -0.23348317332E+02  0.12932337433E+02  0.28590988499E+02  0.51100000000E-03 0. -1.
        -11    1    4    4    0    0  0.11531770670E+02 -0.10703177486E+02  0.17251203966E+00  0.15734341542E+02  0.51100000000E-03 0.  1.
        -12    1    4    4    0    0 -0.99033610866E+01  0.14191529677E+01 -0.86496157710E+00  0.10041848161E+02  0.00000000000E+00 0.  1.
</event>
<event>
 8    1  0.2466538E-006  0.9118800E+02  0.7816164E-02  0.1184000E+00
        -11   -1    0    0    0    0  0.00000000000E+00  0.00000000000E+00  0.45593999997E+02  0.45594000000E+02  0.51100000000E-03 0. -1.
         11   -1    0    0    0    0 -0.00000000000E+00 -0.00000000000E+00 -0.45593999997E+02  0.45594000000E+02  0.51100000000E-03 0.  1.
         23    2    1    2    0    0  0.71054273576E-14 -0.88817841970E-15  0.00000000000E+00  0.91188000000E+02  0.91188000000E+02 0.  0.
    9900012    2    3    3    0    0 -0.35164745435E+02  0.64201530197E+01 -0.88319132373E+01  0.54367076903E+02  0.39999983415E+02 0.  0.
         12    1    3    3    0    0  0.35164745435E+02 -0.64201530197E+01  0.88319132373E+01  0.36820923097E+02  0.00000000000E+00 0. -1.
         11    1    4    4    0    0 -0.11585868104E+02 -0.30321297607E+01  0.10385280428E+02  0.15851820099E+02  0.51100000000E-03 0.  1.
        -11    1    4    4    0    0 -0.51090267152E+01 -0.59242288961E+01 -0.12845089993E+00  0.78240106010E+01  0.51100000000E-03 0. -1.
        -12    1    4    4    0    0 -0.18469850616E+02  0.15376511676E+02 -0.19088742766E+02  0.30691246203E+02  0.00000000000E+00 0.  1.
</event>
<event>
 8    1  0.2466538E-006  0.9118800E+02  0.7816164E-02  0.1184000E+00
        -11   -1    0    0    0    0  0.00000000000E+00  0.00000000000E+00  0.45593999997E+02  0.45594000000E+02  0.51100000000E-03 0. -1.
         11   -1    0    0    0    0 -0.00000000000E+00 -0.00000000000E+00 -0.45593999997E+02  0.45594000000E+02  0.51100000000E-03 0.  1.
         23    2    1    2    0    0  0.00000000000E+00 -0.35527136788E-14  0.00000000000E+00  0.91188000000E+02  0.91188000000E+02 0.  0.
    9900012    2    3    3    0    0 -0.20260256246E+02 -0.26159879447E+02 -0.16154348586E+02  0.54367078582E+02  0.39999987243E+02 0.  0.
         12    1    3    3    0    0  0.20260256246E+02  0.26159879447E+02  0.16154348586E+02  0.36820921418E+02  0.00000000000E+00 0. -1.
         11    1    4    4    0    0  0.67129142798E+00  0.18432038544E+01 -0.51701325462E+01  0.55297652243E+01  0.51100000000E-03 0. -1.
        -11    1    4    4    0    0  0.83837114695E+01 -0.27914468653E+01 -0.92262244570E+00  0.88842572028E+01  0.51100000000E-03 0.  1.
        -12    1    4    4    0    0 -0.29315259143E+02 -0.25211636436E+02 -0.10061593594E+02  0.39953056155E+02  0.00000000000E+00 0.  1.
</event>
<event>
 8    1  0.2466538E-006  0.9118800E+02  0.7816164E-02  0.1184000E+00
        -11   -1    0    0    0    0  0.00000000000E+00  0.00000000000E+00  0.45593999997E+02  0.45594000000E+02  0.51100000000E-03 0.  1.
         11   -1    0    0    0    0 -0.00000000000E+00 -0.00000000000E+00 -0.45593999997E+02  0.45594000000E+02  0.51100000000E-03 0. -1.
         23    2    1    2    0    0 -0.35527136788E-14  0.00000000000E+00 -0.35527136788E-14  0.91188000000E+02  0.91188000000E+02 0.  0.
    9900012    2    3    3    0    0 -0.21898113964E+02  0.63331631462E+01  0.28916134058E+02  0.54367093446E+02  0.40000021129E+02 0.  0.
         12    1    3    3    0    0  0.21898113964E+02 -0.63331631462E+01 -0.28916134058E+02  0.36820906554E+02  0.00000000000E+00 0. -1.
         11    1    4    4    0    0  0.76820461784E+01  0.76369171830E+01  0.13511017281E+01  0.10916126313E+02  0.51100000000E-03 0. -1.
        -11    1    4    4    0    0 -0.16270730905E+02  0.42531951617E+01  0.22655788030E+02  0.28215440538E+02  0.51100000000E-03 0.  1.
        -12    1    4    4    0    0 -0.13309429237E+02 -0.55569491984E+01  0.49092443002E+01  0.15235526594E+02  0.00000000000E+00 0.  1.
</event>
<event>
 8    1  0.2466538E-006  0.9118800E+02  0.7816164E-02  0.1184000E+00
        -11   -1    0    0    0    0  0.00000000000E+00  0.00000000000E+00  0.45593999997E+02  0.45594000000E+02  0.51100000000E-03 0.  1.
         11   -1    0    0    0    0 -0.00000000000E+00 -0.00000000000E+00 -0.45593999997E+02  0.45594000000E+02  0.51100000000E-03 0. -1.
         23    2    1    2    0    0 -0.88817841970E-15  0.00000000000E+00  0.71054273576E-14  0.91188000000E+02  0.91188000000E+02 0.  0.
    9900012    2    3    3    0    0  0.38336624784E+01 -0.76349791621E+01  0.35816054066E+02  0.54367087414E+02  0.40000007378E+02 0.  0.
         12    1    3    3    0    0 -0.38336624784E+01  0.76349791621E+01 -0.35816054066E+02  0.36820912586E+02  0.00000000000E+00 0. -1.
         11    1    4    4    0    0 -0.42405548956E+01 -0.12051650633E+02 -0.18067058204E-01  0.12775950669E+02  0.51100000000E-03 0. -1.
        -11    1    4    4    0    0 -0.26952027901E+01  0.89290999890E+01  0.18030134259E+02  0.20299721337E+02  0.51100000000E-03 0.  1.
        -12    1    4    4    0    0  0.10769420164E+02 -0.45124285180E+01  0.17803986865E+02  0.21291415409E+02  0.00000000000E+00 0.  1.
</event>
<event>
 8    1  0.2466538E-006  0.9118800E+02  0.7816164E-02  0.1184000E+00
        -11   -1    0    0    0    0  0.00000000000E+00  0.00000000000E+00  0.45593999997E+02  0.45594000000E+02  0.51100000000E-03 0.  1.
         11   -1    0    0    0    0 -0.00000000000E+00 -0.00000000000E+00 -0.45593999997E+02  0.45594000000E+02  0.51100000000E-03 0. -1.
         23    2    1    2    0    0 -0.35527136788E-14 -0.35527136788E-14  0.88817841970E-15  0.91188000000E+02  0.91188000000E+02 0.  0.
    9900012    2    3    3    0    0 -0.30208304273E+02 -0.20048036564E+02  0.64275187695E+01  0.54367103561E+02  0.40000044187E+02 0.  0.
        -12    1    3    3    0    0  0.30208304273E+02  0.20048036564E+02 -0.64275187695E+01  0.36820896439E+02  0.00000000000E+00 0.  1.
         11    1    4    4    0    0 -0.36579136016E+01 -0.80396460583E+01 -0.70358870367E+01  0.11292473038E+02  0.51100000000E-03 0. -1.
        -11    1    4    4    0    0  0.45867397581E+01 -0.64753072527E+01 -0.15204958905E+01  0.80795849918E+01  0.51100000000E-03 0.  1.
        -12    1    4    4    0    0 -0.31137130429E+02 -0.55330832525E+01  0.14983901697E+02  0.34995045531E+02  0.00000000000E+00 0.  1.
</event>
<event>
 8    1  0.2466538E-006  0.9118800E+02  0.7816164E-02  0.1184000E+00
        -11   -1    0    0    0    0  0.00000000000E+00  0.00000000000E+00  0.45593999997E+02  0.45594000000E+02  0.51100000000E-03 0.  1.
         11   -1    0    0    0    0 -0.00000000000E+00 -0.00000000000E+00 -0.45593999997E+02  0.45594000000E+02  0.51100000000E-03 0. -1.
         23    2    1    2    0    0  0.00000000000E+00  0.00000000000E+00  0.00000000000E+00  0.91188000000E+02  0.91188000000E+02 0.  0.
    9900012    2    3    3    0    0 -0.57188934982E+01 -0.34598395481E+02 -0.11226137846E+02  0.54367070032E+02  0.39999967753E+02 0.  0.
        -12    1    3    3    0    0  0.57188934982E+01  0.34598395481E+02  0.11226137846E+02  0.36820929968E+02  0.00000000000E+00 0.  1.
         11    1    4    4    0    0 -0.86852677451E+01 -0.19509032783E+02 -0.13179659152E+02  0.25094613995E+02  0.51100000000E-03 0. -1.
        -11    1    4    4    0    0 -0.50898087903E+01 -0.14542942144E+02  0.95982794999E+01  0.18152969160E+02  0.51100000000E-03 0.  1.
         12    1    4    4    0    0  0.80561830372E+01 -0.54642055433E+00 -0.76447581948E+01  0.11119486877E+02  0.00000000000E+00 0. -1.
</event>
<event>
 8    1  0.2466538E-006  0.9118800E+02  0.7816164E-02  0.1184000E+00
        -11   -1    0    0    0    0  0.00000000000E+00  0.00000000000E+00  0.45593999997E+02  0.45594000000E+02  0.51100000000E-03 0.  1.
         11   -1    0    0    0    0 -0.00000000000E+00 -0.00000000000E+00 -0.45593999997E+02  0.45594000000E+02  0.51100000000E-03 0. -1.
         23    2    1    2    0    0  0.88817841970E-15  0.00000000000E+00  0.00000000000E+00  0.91188000000E+02  0.91188000000E+02 0.  0.
    9900012    2    3    3    0    0  0.40758024809E+01 -0.64344781663E+01 -0.36024499421E+02  0.54367092439E+02  0.40000018832E+02 0.  0.
        -12    1    3    3    0    0 -0.40758024809E+01  0.64344781663E+01  0.36024499421E+02  0.36820907561E+02  0.00000000000E+00 0.  1.
         11    1    4    4    0    0  0.12771133164E+02 -0.41511640441E+00 -0.13267834644E+02  0.18420358312E+02  0.51100000000E-03 0.  1.
        -11    1    4    4    0    0  0.67042364956E+01  0.42207747177E+01 -0.12501217957E+02  0.14800073543E+02  0.51100000000E-03 0. -1.
        -12    1    4    4    0    0 -0.15399567178E+02 -0.10240136480E+02 -0.10255446819E+02  0.21146660584E+02  0.00000000000E+00 0.  1.
</event>
<event>
 8    1  0.2466538E-006  0.9118800E+02  0.7816164E-02  0.1184000E+00
        -11   -1    0    0    0    0  0.00000000000E+00  0.00000000000E+00  0.45593999997E+02  0.45594000000E+02  0.51100000000E-03 0.  1.
         11   -1    0    0    0    0 -0.00000000000E+00 -0.00000000000E+00 -0.45593999997E+02  0.45594000000E+02  0.51100000000E-03 0. -1.
         23    2    1    2    0    0  0.00000000000E+00  0.00000000000E+00  0.00000000000E+00  0.91188000000E+02  0.91188000000E+02 0.  0.
    9900012    2    3    3    0    0 -0.27446031954E+02 -0.23877408854E+02 -0.56892057921E+01  0.54367049630E+02  0.39999921242E+02 0.  0.
         12    1    3    3    0    0  0.27446031954E+02  0.23877408854E+02  0.56892057921E+01  0.36820950370E+02  0.00000000000E+00 0. -1.
         11    1    4    4    0    0 -0.27401183876E+02 -0.36162252692E+01  0.30935691693E+00  0.27640507683E+02  0.51100000000E-03 0. -1.
        -11    1    4    4    0    0  0.71223783629E+01 -0.10617366492E+02  0.99545254646E+00  0.12823715172E+02  0.51100000000E-03 0.  1.
         12    1    4    4    0    0 -0.71672264411E+01 -0.96438170923E+01 -0.69940152555E+01  0.13902826776E+02  0.00000000000E+00 0. -1.
</event>
<event>
 8    1  0.2466538E-006  0.9118800E+02  0.7816164E-02  0.1184000E+00
        -11   -1    0    0    0    0  0.00000000000E+00  0.00000000000E+00  0.45593999997E+02  0.45594000000E+02  0.51100000000E-03 0.  1.
         11   -1    0    0    0    0 -0.00000000000E+00 -0.00000000000E+00 -0.45593999997E+02  0.45594000000E+02  0.51100000000E-03 0. -1.
         23    2    1    2    0    0 -0.35527136788E-14 -0.35527136788E-14  0.00000000000E+00  0.91188000000E+02  0.91188000000E+02 0.  0.
    9900012    2    3    3    0    0 -0.22647734209E+02 -0.24234728345E+02 -0.15985558700E+02  0.54367081901E+02  0.39999994809E+02 0.  0.
        -12    1    3    3    0    0  0.22647734209E+02  0.24234728345E+02  0.15985558700E+02  0.36820918099E+02  0.00000000000E+00 0.  1.
         11    1    4    4    0    0 -0.61485731262E+01 -0.16891264783E+02 -0.59066735070E+01  0.18921114387E+02  0.51100000000E-03 0. -1.
        -11    1    4    4    0    0 -0.79948718180E+01 -0.15379604738E+02  0.33293737851E+01  0.17650352613E+02  0.51100000000E-03 0.  1.
        -12    1    4    4    0    0 -0.85042892646E+01  0.80361411767E+01 -0.13408258978E+02  0.17795614901E+02  0.00000000000E+00 0.  1.
</event>
<event>
 8    1  0.2466538E-006  0.9118800E+02  0.7816164E-02  0.1184000E+00
        -11   -1    0    0    0    0  0.00000000000E+00  0.00000000000E+00  0.45593999997E+02  0.45594000000E+02  0.51100000000E-03 0. -1.
         11   -1    0    0    0    0 -0.00000000000E+00 -0.00000000000E+00 -0.45593999997E+02  0.45594000000E+02  0.51100000000E-03 0.  1.
         23    2    1    2    0    0 -0.17763568394E-14  0.00000000000E+00 -0.35527136788E-14  0.91188000000E+02  0.91188000000E+02 0.  0.
    9900012    2    3    3    0    0 -0.13862450331E+02  0.30004048139E+02 -0.16228670791E+02  0.54367079458E+02  0.39999989241E+02 0.  0.
         12    1    3    3    0    0  0.13862450331E+02 -0.30004048139E+02  0.16228670791E+02  0.36820920542E+02  0.00000000000E+00 0. -1.
         11    1    4    4    0    0 -0.10867273932E+01  0.93506815622E+01 -0.60943342828E+01  0.11214148774E+02  0.51100000000E-03 0. -1.
        -11    1    4    4    0    0 -0.12229418932E+02  0.18702487793E+02  0.88691900659E+01  0.24041719359E+02  0.51100000000E-03 0.  1.
         12    1    4    4    0    0 -0.54630400588E+00  0.19508787837E+01 -0.19003526574E+02  0.19111211326E+02  0.00000000000E+00 0. -1.
</event>
<event>
 8    1  0.2466538E-006  0.9118800E+02  0.7816164E-02  0.1184000E+00
        -11   -1    0    0    0    0  0.00000000000E+00  0.00000000000E+00  0.45593999997E+02  0.45594000000E+02  0.51100000000E-03 0. -1.
         11   -1    0    0    0    0 -0.00000000000E+00 -0.00000000000E+00 -0.45593999997E+02  0.45594000000E+02  0.51100000000E-03 0.  1.
         23    2    1    2    0    0  0.00000000000E+00  0.10658141036E-13  0.00000000000E+00  0.91188000000E+02  0.91188000000E+02 0.  0.
    9900012    2    3    3    0    0  0.72826548119E+01  0.29130009937E+02  0.21311606762E+02  0.54367093944E+02  0.40000022263E+02 0.  0.
         12    1    3    3    0    0 -0.72826548119E+01 -0.29130009937E+02 -0.21311606762E+02  0.36820906056E+02  0.00000000000E+00 0. -1.
         11    1    4    4    0    0  0.72723223993E-02 -0.72544533125E+01  0.33078725277E+01  0.79730274470E+01  0.51100000000E-03 0. -1.
        -11    1    4    4    0    0  0.12264975309E+02  0.10080095620E+02  0.83156287253E+01  0.17921708301E+02  0.51100000000E-03 0.  1.
         12    1    4    4    0    0 -0.49895928198E+01  0.26304367629E+02  0.96881055087E+01  0.28472358196E+02  0.00000000000E+00 0. -1.
</event>
<event>
 8    1  0.2466538E-006  0.9118800E+02  0.7816164E-02  0.1184000E+00
        -11   -1    0    0    0    0  0.00000000000E+00  0.00000000000E+00  0.45593999997E+02  0.45594000000E+02  0.51100000000E-03 0.  1.
         11   -1    0    0    0    0 -0.00000000000E+00 -0.00000000000E+00 -0.45593999997E+02  0.45594000000E+02  0.51100000000E-03 0. -1.
         23    2    1    2    0    0  0.00000000000E+00 -0.22204460493E-15  0.35527136788E-14  0.91188000000E+02  0.91188000000E+02 0.  0.
    9900012    2    3    3    0    0 -0.20593116120E+02  0.10988073039E+01 -0.30504069799E+02  0.54367053742E+02  0.39999930616E+02 0.  0.
        -12    1    3    3    0    0  0.20593116120E+02 -0.10988073039E+01  0.30504069799E+02  0.36820946258E+02  0.00000000000E+00 0.  1.
         11    1    4    4    0    0  0.26173678704E-02 -0.15789473292E+01 -0.16098514421E+02  0.16175761137E+02  0.51100000000E-03 0. -1.
        -11    1    4    4    0    0 -0.18782168686E+01 -0.86201792068E+00  0.82998697328E+01  0.85532807357E+01  0.51100000000E-03 0.  1.
        -12    1    4    4    0    0 -0.18717516619E+02  0.35397725537E+01 -0.22705425111E+02  0.29638011869E+02  0.00000000000E+00 0.  1.
</event>
<event>
 8    1  0.2466538E-006  0.9118800E+02  0.7816164E-02  0.1184000E+00
        -11   -1    0    0    0    0  0.00000000000E+00  0.00000000000E+00  0.45593999997E+02  0.45594000000E+02  0.51100000000E-03 0.  1.
         11   -1    0    0    0    0 -0.00000000000E+00 -0.00000000000E+00 -0.45593999997E+02  0.45594000000E+02  0.51100000000E-03 0. -1.
         23    2    1    2    0    0  0.00000000000E+00  0.00000000000E+00  0.00000000000E+00  0.91188000000E+02  0.91188000000E+02 0.  0.
    9900012    2    3    3    0    0 -0.30689052309E+02 -0.58721348084E+01  0.19480226027E+02  0.54367094187E+02  0.40000022819E+02 0.  0.
         12    1    3    3    0    0  0.30689052309E+02  0.58721348084E+01 -0.19480226027E+02  0.36820905813E+02  0.00000000000E+00 0. -1.
         11    1    4    4    0    0 -0.21188878767E+02 -0.95621773589E+01 -0.21497609806E+01  0.23345776744E+02  0.51100000000E-03 0. -1.
        -11    1    4    4    0    0  0.22021594929E+01 -0.55754476942E+01  0.11541545201E+02  0.13005475358E+02  0.51100000000E-03 0.  1.
        -12    1    4    4    0    0 -0.11702333034E+02  0.92654902448E+01  0.10088441807E+02  0.18015842084E+02  0.00000000000E+00 0.  1.
</event>
<event>
 8    1  0.2466538E-006  0.9118800E+02  0.7816164E-02  0.1184000E+00
        -11   -1    0    0    0    0  0.00000000000E+00  0.00000000000E+00  0.45593999997E+02  0.45594000000E+02  0.51100000000E-03 0. -1.
         11   -1    0    0    0    0 -0.00000000000E+00 -0.00000000000E+00 -0.45593999997E+02  0.45594000000E+02  0.51100000000E-03 0.  1.
         23    2    1    2    0    0  0.00000000000E+00  0.00000000000E+00  0.00000000000E+00  0.91188000000E+02  0.91188000000E+02 0.  0.
    9900012    2    3    3    0    0 -0.26265168052E+01  0.54388215061E+01  0.36322176244E+02  0.54367083973E+02  0.39999999534E+02 0.  0.
        -12    1    3    3    0    0  0.26265168052E+01 -0.54388215061E+01 -0.36322176244E+02  0.36820916027E+02  0.00000000000E+00 0.  1.
         11    1    4    4    0    0 -0.60824188905E+01 -0.85338946233E+01  0.73978747993E+01  0.12827771779E+02  0.51100000000E-03 0. -1.
        -11    1    4    4    0    0 -0.23547998689E+01 -0.21323450151E+01 -0.35893252936E+01  0.47932487950E+01  0.51100000000E-03 0.  1.
         12    1    4    4    0    0  0.58107019542E+01  0.16105061144E+02  0.32513626739E+02  0.36746063400E+02  0.00000000000E+00 0. -1.
</event>
<event>
 8    1  0.2466538E-006  0.9118800E+02  0.7816164E-02  0.1184000E+00
        -11   -1    0    0    0    0  0.00000000000E+00  0.00000000000E+00  0.45593999997E+02  0.45594000000E+02  0.51100000000E-03 0.  1.
         11   -1    0    0    0    0 -0.00000000000E+00 -0.00000000000E+00 -0.45593999997E+02  0.45594000000E+02  0.51100000000E-03 0. -1.
         23    2    1    2    0    0  0.35527136788E-14  0.35527136788E-14  0.35527136788E-14  0.91188000000E+02  0.91188000000E+02 0.  0.
    9900012    2    3    3    0    0 -0.18027261074E+02 -0.22872248461E+02 -0.22531240354E+02  0.54367099911E+02  0.40000035867E+02 0.  0.
        -12    1    3    3    0    0  0.18027261074E+02  0.22872248461E+02  0.22531240354E+02  0.36820900089E+02  0.00000000000E+00 0.  1.
         11    1    4    4    0    0 -0.35669173228E+01 -0.17517710260E+02 -0.12784825868E+02  0.21978281204E+02  0.51100000000E-03 0. -1.
        -11    1    4    4    0    0  0.63757861150E+01 -0.56837492575E+01  0.15565434299E+01  0.86820782026E+01  0.51100000000E-03 0.  1.
         12    1    4    4    0    0 -0.20836129866E+02  0.32921105637E+00 -0.11302957916E+02  0.23706740505E+02  0.00000000000E+00 0. -1.
</event>
<event>
 8    1  0.2466538E-006  0.9118800E+02  0.7816164E-02  0.1184000E+00
        -11   -1    0    0    0    0  0.00000000000E+00  0.00000000000E+00  0.45593999997E+02  0.45594000000E+02  0.51100000000E-03 0.  1.
         11   -1    0    0    0    0 -0.00000000000E+00 -0.00000000000E+00 -0.45593999997E+02  0.45594000000E+02  0.51100000000E-03 0. -1.
         23    2    1    2    0    0  0.00000000000E+00  0.00000000000E+00  0.17763568394E-14  0.91188000000E+02  0.91188000000E+02 0.  0.
    9900012    2    3    3    0    0  0.28684947254E+02 -0.17826091668E+02 -0.14669121578E+02  0.54367097363E+02  0.40000030057E+02 0.  0.
         12    1    3    3    0    0 -0.28684947254E+02  0.17826091668E+02  0.14669121578E+02  0.36820902637E+02  0.00000000000E+00 0. -1.
         11    1    4    4    0    0 -0.31235517714E+01  0.20021443409E+01 -0.47211760092E+01  0.60045533390E+01  0.51100000000E-03 0. -1.
        -11    1    4    4    0    0  0.64842100378E+00 -0.15565531559E+02 -0.58733621256E+01  0.16649402555E+02  0.51100000000E-03 0.  1.
        -12    1    4    4    0    0  0.31160078022E+02 -0.42627044500E+01 -0.40745834435E+01  0.31713141468E+02  0.00000000000E+00 0.  1.
</event>
<event>
 8    1  0.2466538E-006  0.9118800E+02  0.7816164E-02  0.1184000E+00
        -11   -1    0    0    0    0  0.00000000000E+00  0.00000000000E+00  0.45593999997E+02  0.45594000000E+02  0.51100000000E-03 0.  1.
         11   -1    0    0    0    0 -0.00000000000E+00 -0.00000000000E+00 -0.45593999997E+02  0.45594000000E+02  0.51100000000E-03 0. -1.
         23    2    1    2    0    0 -0.71054273576E-14 -0.17763568394E-14 -0.17763568394E-14  0.91188000000E+02  0.91188000000E+02 0.  0.
    9900012    2    3    3    0    0  0.32917529308E+02  0.10325178493E+02  0.12868821029E+02  0.54367087446E+02  0.40000007450E+02 0.  0.
         12    1    3    3    0    0 -0.32917529308E+02 -0.10325178493E+02 -0.12868821029E+02  0.36820912554E+02  0.00000000000E+00 0. -1.
         11    1    4    4    0    0  0.26188619357E+02  0.15604505969E+01  0.69394391975E+01  0.27137328655E+02  0.51100000000E-03 0. -1.
        -11    1    4    4    0    0  0.15323135729E+02  0.22128789981E+01  0.54463992739E+01  0.16412147554E+02  0.51100000000E-03 0.  1.
        -12    1    4    4    0    0 -0.85942257781E+01  0.65518488980E+01  0.48298255768E+00  0.10817611236E+02  0.00000000000E+00 0.  1.
</event>
<event>
 8    1  0.2466538E-006  0.9118800E+02  0.7816164E-02  0.1184000E+00
        -11   -1    0    0    0    0  0.00000000000E+00  0.00000000000E+00  0.45593999997E+02  0.45594000000E+02  0.51100000000E-03 0.  1.
         11   -1    0    0    0    0 -0.00000000000E+00 -0.00000000000E+00 -0.45593999997E+02  0.45594000000E+02  0.51100000000E-03 0. -1.
         23    2    1    2    0    0  0.35527136788E-14 -0.35527136788E-14 -0.17763568394E-14  0.91188000000E+02  0.91188000000E+02 0.  0.
    9900012    2    3    3    0    0  0.21093370090E+02  0.26182591246E+02 -0.15010718229E+02  0.54367081925E+02  0.39999994865E+02 0.  0.
        -12    1    3    3    0    0 -0.21093370090E+02 -0.26182591246E+02  0.15010718229E+02  0.36820918075E+02  0.00000000000E+00 0.  1.
         11    1    4    4    0    0  0.98429332506E+01  0.33138157649E+02 -0.18320336096E+01  0.34617584762E+02  0.51100000000E-03 0. -1.
        -11    1    4    4    0    0  0.82348836480E+01 -0.65151602966E+01 -0.63489854640E+01  0.12270706543E+02  0.51100000000E-03 0.  1.
         12    1    4    4    0    0  0.30155531910E+01 -0.44040610580E+00 -0.68296991558E+01  0.74787906204E+01  0.00000000000E+00 0. -1.
</event>
<event>
 8    1  0.2466538E-006  0.9118800E+02  0.7816164E-02  0.1184000E+00
        -11   -1    0    0    0    0  0.00000000000E+00  0.00000000000E+00  0.45593999997E+02  0.45594000000E+02  0.51100000000E-03 0. -1.
         11   -1    0    0    0    0 -0.00000000000E+00 -0.00000000000E+00 -0.45593999997E+02  0.45594000000E+02  0.51100000000E-03 0.  1.
         23    2    1    2    0    0  0.00000000000E+00 -0.22204460493E-15  0.00000000000E+00  0.91188000000E+02  0.91188000000E+02 0.  0.
    9900012    2    3    3    0    0  0.32602602673E+02  0.17907359886E+01 -0.17018919953E+02  0.54367081044E+02  0.39999992855E+02 0.  0.
         12    1    3    3    0    0 -0.32602602673E+02 -0.17907359886E+01  0.17018919953E+02  0.36820918956E+02  0.00000000000E+00 0. -1.
         11    1    4    4    0    0  0.86098785077E+00  0.43380134532E+01 -0.11446073809E+02  0.12270789163E+02  0.51100000000E-03 0. -1.
        -11    1    4    4    0    0  0.16729046997E+02 -0.80504575892E+00 -0.16449977549E+02  0.23475750759E+02  0.51100000000E-03 0.  1.
        -12    1    4    4    0    0  0.15012567826E+02 -0.17422317057E+01  0.10877131405E+02  0.18620541121E+02  0.00000000000E+00 0.  1.
</event>
<event>
 8    1  0.2466538E-006  0.9118800E+02  0.7816164E-02  0.1184000E+00
        -11   -1    0    0    0    0  0.00000000000E+00  0.00000000000E+00  0.45593999997E+02  0.45594000000E+02  0.51100000000E-03 0.  1.
         11   -1    0    0    0    0 -0.00000000000E+00 -0.00000000000E+00 -0.45593999997E+02  0.45594000000E+02  0.51100000000E-03 0. -1.
         23    2    1    2    0    0  0.00000000000E+00  0.17763568394E-14  0.00000000000E+00  0.91188000000E+02  0.91188000000E+02 0.  0.
    9900012    2    3    3    0    0  0.33114398325E+02 -0.11639408646E+02  0.11123907697E+02  0.54367074802E+02  0.39999978625E+02 0.  0.
         12    1    3    3    0    0 -0.33114398325E+02  0.11639408646E+02 -0.11123907697E+02  0.36820925198E+02  0.00000000000E+00 0. -1.
         11    1    4    4    0    0  0.28138636062E+01  0.26611485298E-01 -0.88196947283E+01  0.92577293073E+01  0.51100000000E-03 0. -1.
        -11    1    4    4    0    0  0.81929863272E+01 -0.14813035401E+02  0.14089857554E+02  0.22024421193E+02  0.51100000000E-03 0.  1.
        -12    1    4    4    0    0  0.22107548391E+02  0.31470152696E+01  0.58537448716E+01  0.23084924301E+02  0.00000000000E+00 0.  1.
</event>
<event>
 8    1  0.2466538E-006  0.9118800E+02  0.7816164E-02  0.1184000E+00
        -11   -1    0    0    0    0  0.00000000000E+00  0.00000000000E+00  0.45593999997E+02  0.45594000000E+02  0.51100000000E-03 0.  1.
         11   -1    0    0    0    0 -0.00000000000E+00 -0.00000000000E+00 -0.45593999997E+02  0.45594000000E+02  0.51100000000E-03 0. -1.
         23    2    1    2    0    0  0.88817841970E-15  0.00000000000E+00  0.00000000000E+00  0.91188000000E+02  0.91188000000E+02 0.  0.
    9900012    2    3    3    0    0 -0.66891913541E+01  0.31219621944E+02  0.18340400076E+02  0.54367077276E+02  0.39999984266E+02 0.  0.
        -12    1    3    3    0    0  0.66891913541E+01 -0.31219621944E+02 -0.18340400076E+02  0.36820922724E+02  0.00000000000E+00 0.  1.
         11    1    4    4    0    0 -0.23308592669E+01 -0.91434799410E+00 -0.12104746936E+01  0.27810405285E+01  0.51100000000E-03 0. -1.
        -11    1    4    4    0    0  0.25884705841E+01  0.18552273926E+02  0.28346665875E+02  0.33976764329E+02  0.51100000000E-03 0.  1.
        -12    1    4    4    0    0 -0.69468026714E+01  0.13581696012E+02 -0.87957911056E+01  0.17609272418E+02  0.00000000000E+00 0.  1.
</event>
<event>
 8    1  0.2466538E-006  0.9118800E+02  0.7816164E-02  0.1184000E+00
        -11   -1    0    0    0    0  0.00000000000E+00  0.00000000000E+00  0.45593999997E+02  0.45594000000E+02  0.51100000000E-03 0. -1.
         11   -1    0    0    0    0 -0.00000000000E+00 -0.00000000000E+00 -0.45593999997E+02  0.45594000000E+02  0.51100000000E-03 0.  1.
         23    2    1    2    0    0 -0.17763568394E-14  0.35527136788E-14 -0.35527136788E-14  0.91188000000E+02  0.91188000000E+02 0.  0.
    9900012    2    3    3    0    0  0.11144085891E+02 -0.24848259440E+02  0.24782126758E+02  0.54367075865E+02  0.39999981049E+02 0.  0.
        -12    1    3    3    0    0 -0.11144085891E+02  0.24848259440E+02 -0.24782126758E+02  0.36820924135E+02  0.00000000000E+00 0.  1.
         11    1    4    4    0    0 -0.58721768700E+01  0.56831677758E+01  0.17772700377E+01  0.83629866799E+01  0.51100000000E-03 0. -1.
        -11    1    4    4    0    0  0.55959185286E+01 -0.88886060282E+00 -0.15265610328E+01  0.58681143647E+01  0.51100000000E-03 0.  1.
        -12    1    4    4    0    0  0.11420344232E+02 -0.29642566613E+02  0.24531417753E+02  0.40135974820E+02  0.00000000000E+00 0.  1.
</event>
<event>
 8    1  0.2466538E-006  0.9118800E+02  0.7816164E-02  0.1184000E+00
        -11   -1    0    0    0    0  0.00000000000E+00  0.00000000000E+00  0.45593999997E+02  0.45594000000E+02  0.51100000000E-03 0.  1.
         11   -1    0    0    0    0 -0.00000000000E+00 -0.00000000000E+00 -0.45593999997E+02  0.45594000000E+02  0.51100000000E-03 0. -1.
         23    2    1    2    0    0  0.35527136788E-14  0.00000000000E+00  0.35527136788E-14  0.91188000000E+02  0.91188000000E+02 0.  0.
    9900012    2    3    3    0    0  0.15617054751E+02  0.18279484865E+02  0.27888132832E+02  0.54367083134E+02  0.39999997620E+02 0.  0.
         12    1    3    3    0    0 -0.15617054751E+02 -0.18279484865E+02 -0.27888132832E+02  0.36820916866E+02  0.00000000000E+00 0. -1.
         11    1    4    4    0    0  0.13649284118E+01  0.18825110985E+02  0.12440392736E+02  0.22605556947E+02  0.51100000000E-03 0. -1.
        -11    1    4    4    0    0  0.59238901465E+01 -0.54190956790E+01  0.19657488078E+02  0.21233838802E+02  0.51100000000E-03 0.  1.
         12    1    4    4    0    0  0.83282361923E+01  0.48734695586E+01 -0.42097479821E+01  0.10527687385E+02  0.00000000000E+00 0. -1.
</event>
<event>
 8    1  0.2466538E-006  0.9118800E+02  0.7816164E-02  0.1184000E+00
        -11   -1    0    0    0    0  0.00000000000E+00  0.00000000000E+00  0.45593999997E+02  0.45594000000E+02  0.51100000000E-03 0.  1.
         11   -1    0    0    0    0 -0.00000000000E+00 -0.00000000000E+00 -0.45593999997E+02  0.45594000000E+02  0.51100000000E-03 0. -1.
         23    2    1    2    0    0 -0.88817841970E-15  0.35527136788E-14  0.00000000000E+00  0.91188000000E+02  0.91188000000E+02 0.  0.
    9900012    2    3    3    0    0 -0.64127769449E+01  0.28776933240E+02 -0.22057749233E+02  0.54367083443E+02  0.39999998325E+02 0.  0.
        -12    1    3    3    0    0  0.64127769449E+01 -0.28776933240E+02  0.22057749233E+02  0.36820916557E+02  0.00000000000E+00 0.  1.
         11    1    4    4    0    0 -0.12885719949E+01 -0.49378522339E+00 -0.16310310694E+02  0.16368582004E+02  0.51100000000E-03 0. -1.
        -11    1    4    4    0    0 -0.13014610233E+02  0.22028012812E+02 -0.84635801110E+01  0.26948944627E+02  0.51100000000E-03 0.  1.
         12    1    4    4    0    0  0.78904052833E+01  0.72427056518E+01  0.27161415720E+01  0.11049556812E+02  0.00000000000E+00 0. -1.
</event>
<event>
 8    1  0.2466538E-006  0.9118800E+02  0.7816164E-02  0.1184000E+00
        -11   -1    0    0    0    0  0.00000000000E+00  0.00000000000E+00  0.45593999997E+02  0.45594000000E+02  0.51100000000E-03 0. -1.
         11   -1    0    0    0    0 -0.00000000000E+00 -0.00000000000E+00 -0.45593999997E+02  0.45594000000E+02  0.51100000000E-03 0.  1.
         23    2    1    2    0    0  0.00000000000E+00  0.17763568394E-14 -0.35527136788E-14  0.91188000000E+02  0.91188000000E+02 0.  0.
    9900012    2    3    3    0    0 -0.34864052612E+02  0.83020502315E+01 -0.84467108852E+01  0.54367175357E+02  0.40000207862E+02 0.  0.
         12    1    3    3    0    0  0.34864052612E+02 -0.83020502315E+01  0.84467108852E+01  0.36820824643E+02  0.00000000000E+00 0. -1.
         11    1    4    4    0    0  0.46822756583E+01  0.64074839028E+00  0.54660774777E+00  0.47574199027E+01  0.51100000000E-03 0. -1.
        -11    1    4    4    0    0 -0.23083733267E+02 -0.17159305904E+01 -0.17324788813E+02  0.28912825303E+02  0.51100000000E-03 0.  1.
        -12    1    4    4    0    0 -0.16462595003E+02  0.93772324316E+01  0.83314701803E+01  0.20696930151E+02  0.00000000000E+00 0.  1.
</event>
<event>
 8    1  0.2466538E-006  0.9118800E+02  0.7816164E-02  0.1184000E+00
        -11   -1    0    0    0    0  0.00000000000E+00  0.00000000000E+00  0.45593999997E+02  0.45594000000E+02  0.51100000000E-03 0.  1.
         11   -1    0    0    0    0 -0.00000000000E+00 -0.00000000000E+00 -0.45593999997E+02  0.45594000000E+02  0.51100000000E-03 0. -1.
         23    2    1    2    0    0  0.00000000000E+00  0.00000000000E+00  0.35527136788E-14  0.91188000000E+02  0.91188000000E+02 0.  0.
    9900012    2    3    3    0    0  0.10432044498E+02 -0.28017881882E+02  0.21493029700E+02  0.54367087691E+02  0.40000008010E+02 0.  0.
         12    1    3    3    0    0 -0.10432044498E+02  0.28017881882E+02 -0.21493029700E+02  0.36820912309E+02  0.00000000000E+00 0. -1.
         11    1    4    4    0    0  0.11068206658E+02 -0.45016284794E+01 -0.15000900910E+01  0.12042430325E+02  0.51100000000E-03 0. -1.
        -11    1    4    4    0    0  0.29851894631E+01 -0.27218019572E+02  0.11460856574E+02  0.29683045315E+02  0.51100000000E-03 0.  1.
        -12    1    4    4    0    0 -0.36213516228E+01  0.37017661688E+01  0.11532263217E+02  0.12641612051E+02  0.00000000000E+00 0.  1.
</event>
<event>
 8    1  0.2466538E-006  0.9118800E+02  0.7816164E-02  0.1184000E+00
        -11   -1    0    0    0    0  0.00000000000E+00  0.00000000000E+00  0.45593999997E+02  0.45594000000E+02  0.51100000000E-03 0.  1.
         11   -1    0    0    0    0 -0.00000000000E+00 -0.00000000000E+00 -0.45593999997E+02  0.45594000000E+02  0.51100000000E-03 0. -1.
         23    2    1    2    0    0 -0.35527136788E-14  0.00000000000E+00  0.00000000000E+00  0.91188000000E+02  0.91188000000E+02 0.  0.
    9900012    2    3    3    0    0  0.93001735608E+01 -0.18337561611E+02 -0.30545407476E+02  0.54367064217E+02  0.39999954495E+02 0.  0.
        -12    1    3    3    0    0 -0.93001735608E+01  0.18337561611E+02  0.30545407476E+02  0.36820935783E+02  0.00000000000E+00 0.  1.
         11    1    4    4    0    0  0.19496156337E+02 -0.52749129900E+01 -0.19615583761E+02  0.28154856518E+02  0.51100000000E-03 0. -1.
        -11    1    4    4    0    0 -0.13276823798E+01 -0.11689141676E+02 -0.12429122929E+02  0.17113791827E+02  0.51100000000E-03 0.  1.
        -12    1    4    4    0    0 -0.88683003966E+01 -0.13735069446E+01  0.14992992147E+01  0.90984158723E+01  0.00000000000E+00 0.  1.
</event>
<event>
 8    1  0.2466538E-006  0.9118800E+02  0.7816164E-02  0.1184000E+00
        -11   -1    0    0    0    0  0.00000000000E+00  0.00000000000E+00  0.45593999997E+02  0.45594000000E+02  0.51100000000E-03 0.  1.
         11   -1    0    0    0    0 -0.00000000000E+00 -0.00000000000E+00 -0.45593999997E+02  0.45594000000E+02  0.51100000000E-03 0. -1.
         23    2    1    2    0    0  0.00000000000E+00  0.00000000000E+00 -0.44408920985E-15  0.91188000000E+02  0.91188000000E+02 0.  0.
    9900012    2    3    3    0    0 -0.33949223229E+02  0.14105945696E+02 -0.20621144927E+01  0.54367085046E+02  0.40000001979E+02 0.  0.
         12    1    3    3    0    0  0.33949223229E+02 -0.14105945696E+02  0.20621144927E+01  0.36820914954E+02  0.00000000000E+00 0. -1.
         11    1    4    4    0    0 -0.93868587919E+00  0.15330026162E+01  0.77892225056E+01  0.79939486928E+01  0.51100000000E-03 0. -1.
        -11    1    4    4    0    0 -0.12074185423E+02  0.99962169264E+01  0.90065851744E+01  0.18078409312E+02  0.51100000000E-03 0.  1.
         12    1    4    4    0    0 -0.20936351927E+02  0.25767261538E+01 -0.18857922173E+02  0.28294727042E+02  0.00000000000E+00 0. -1.
</event>
<event>
 8    1  0.2466538E-006  0.9118800E+02  0.7816164E-02  0.1184000E+00
        -11   -1    0    0    0    0  0.00000000000E+00  0.00000000000E+00  0.45593999997E+02  0.45594000000E+02  0.51100000000E-03 0. -1.
         11   -1    0    0    0    0 -0.00000000000E+00 -0.00000000000E+00 -0.45593999997E+02  0.45594000000E+02  0.51100000000E-03 0.  1.
         23    2    1    2    0    0  0.00000000000E+00  0.00000000000E+00  0.00000000000E+00  0.91188000000E+02  0.91188000000E+02 0.  0.
    9900012    2    3    3    0    0  0.33987934633E+02  0.69876600749E+01 -0.12319688237E+02  0.54367057424E+02  0.39999939010E+02 0.  0.
         12    1    3    3    0    0 -0.33987934633E+02 -0.69876600749E+01  0.12319688237E+02  0.36820942576E+02  0.00000000000E+00 0. -1.
         11    1    4    4    0    0  0.31572325425E+01 -0.31188704618E+01  0.71979217269E+01  0.84560953006E+01  0.51100000000E-03 0. -1.
        -11    1    4    4    0    0  0.71805727659E+01  0.10377712078E+02  0.33030139372E+01  0.13044824052E+02  0.51100000000E-03 0.  1.
        -12    1    4    4    0    0  0.23650129324E+02 -0.27118154132E+00 -0.22820623901E+02  0.32866138071E+02  0.00000000000E+00 0.  1.
</event>
<event>
 8    1  0.2466538E-006  0.9118800E+02  0.7816164E-02  0.1184000E+00
        -11   -1    0    0    0    0  0.00000000000E+00  0.00000000000E+00  0.45593999997E+02  0.45594000000E+02  0.51100000000E-03 0.  1.
         11   -1    0    0    0    0 -0.00000000000E+00 -0.00000000000E+00 -0.45593999997E+02  0.45594000000E+02  0.51100000000E-03 0. -1.
         23    2    1    2    0    0  0.00000000000E+00  0.00000000000E+00  0.13322676296E-14  0.91188000000E+02  0.91188000000E+02 0.  0.
    9900012    2    3    3    0    0 -0.12153740697E+02 -0.34570359989E+02  0.35995616331E+01  0.54367081399E+02  0.39999993664E+02 0.  0.
        -12    1    3    3    0    0  0.12153740697E+02  0.34570359989E+02 -0.35995616331E+01  0.36820918601E+02  0.00000000000E+00 0.  1.
         11    1    4    4    0    0 -0.74114306866E+01 -0.85965792372E+01  0.60128483890E+01  0.12844641895E+02  0.51100000000E-03 0. -1.
        -11    1    4    4    0    0  0.80078983593E+00 -0.12847609371E+01  0.12205788410E+02  0.12299314858E+02  0.51100000000E-03 0.  1.
         12    1    4    4    0    0 -0.55430998460E+01 -0.24689019815E+02 -0.14619075165E+02  0.29223124645E+02  0.00000000000E+00 0. -1.
</event>
<event>
 8    1  0.2466538E-006  0.9118800E+02  0.7816164E-02  0.1184000E+00
        -11   -1    0    0    0    0  0.00000000000E+00  0.00000000000E+00  0.45593999997E+02  0.45594000000E+02  0.51100000000E-03 0. -1.
         11   -1    0    0    0    0 -0.00000000000E+00 -0.00000000000E+00 -0.45593999997E+02  0.45594000000E+02  0.51100000000E-03 0.  1.
         23    2    1    2    0    0  0.35527136788E-14  0.00000000000E+00 -0.35527136788E-14  0.91188000000E+02  0.91188000000E+02 0.  0.
    9900012    2    3    3    0    0  0.16971181346E+02  0.19807573712E+02 -0.25988813709E+02  0.54367090035E+02  0.40000013353E+02 0.  0.
         12    1    3    3    0    0 -0.16971181346E+02 -0.19807573712E+02  0.25988813709E+02  0.36820909965E+02  0.00000000000E+00 0. -1.
         11    1    4    4    0    0 -0.89466526721E+01  0.56484833447E+01  0.44814467458E+01  0.11490488385E+02  0.51100000000E-03 0. -1.
        -11    1    4    4    0    0  0.98672226018E+01  0.36625712235E+01 -0.14514503396E+02  0.17928951976E+02  0.51100000000E-03 0.  1.
         12    1    4    4    0    0  0.16050611416E+02  0.10496519144E+02 -0.15955757058E+02  0.24947649675E+02  0.00000000000E+00 0. -1.
</event>
<event>
 8    1  0.2466538E-006  0.9118800E+02  0.7816164E-02  0.1184000E+00
        -11   -1    0    0    0    0  0.00000000000E+00  0.00000000000E+00  0.45593999997E+02  0.45594000000E+02  0.51100000000E-03 0.  1.
         11   -1    0    0    0    0 -0.00000000000E+00 -0.00000000000E+00 -0.45593999997E+02  0.45594000000E+02  0.51100000000E-03 0. -1.
         23    2    1    2    0    0  0.35527136788E-14  0.71054273576E-14  0.00000000000E+00  0.91188000000E+02  0.91188000000E+02 0.  0.
    9900012    2    3    3    0    0  0.14559830718E+02  0.32711672055E+02 -0.85869889771E+01  0.54367101874E+02  0.40000040341E+02 0.  0.
        -12    1    3    3    0    0 -0.14559830718E+02 -0.32711672055E+02  0.85869889771E+01  0.36820898126E+02  0.00000000000E+00 0.  1.
         11    1    4    4    0    0 -0.57394931250E+01  0.10381525941E+02 -0.13714584737E+02  0.18133055368E+02  0.51100000000E-03 0. -1.
        -11    1    4    4    0    0  0.11214769194E+02 -0.30774790256E+00 -0.38739704174E+00  0.11225677421E+02  0.51100000000E-03 0.  1.
         12    1    4    4    0    0  0.90845546491E+01  0.22637894016E+02  0.55149928018E+01  0.25008369085E+02  0.00000000000E+00 0. -1.
</event>
<event>
 8    1  0.2466538E-006  0.9118800E+02  0.7816164E-02  0.1184000E+00
        -11   -1    0    0    0    0  0.00000000000E+00  0.00000000000E+00  0.45593999997E+02  0.45594000000E+02  0.51100000000E-03 0.  1.
         11   -1    0    0    0    0 -0.00000000000E+00 -0.00000000000E+00 -0.45593999997E+02  0.45594000000E+02  0.51100000000E-03 0. -1.
         23    2    1    2    0    0 -0.88817841970E-15  0.35527136788E-14 -0.35527136788E-14  0.91188000000E+02  0.91188000000E+02 0.  0.
    9900012    2    3    3    0    0 -0.50668795898E+01  0.26572064205E+02 -0.24980646043E+02  0.54367074677E+02  0.39999978342E+02 0.  0.
        -12    1    3    3    0    0  0.50668795898E+01 -0.26572064205E+02  0.24980646043E+02  0.36820925323E+02  0.00000000000E+00 0.  1.
         11    1    4    4    0    0 -0.12249036952E+02  0.18772600880E+02 -0.97660505961E+01  0.24450464097E+02  0.51100000000E-03 0. -1.
        -11    1    4    4    0    0 -0.59477810350E+00  0.38460711405E+01  0.59015522775E+01  0.70692534086E+01  0.51100000000E-03 0.  1.
        -12    1    4    4    0    0  0.77769354657E+01  0.39533921840E+01 -0.21116147725E+02  0.22847357172E+02  0.00000000000E+00 0.  1.
</event>
<event>
 8    1  0.2466538E-006  0.9118800E+02  0.7816164E-02  0.1184000E+00
        -11   -1    0    0    0    0  0.00000000000E+00  0.00000000000E+00  0.45593999997E+02  0.45594000000E+02  0.51100000000E-03 0.  1.
         11   -1    0    0    0    0 -0.00000000000E+00 -0.00000000000E+00 -0.45593999997E+02  0.45594000000E+02  0.51100000000E-03 0. -1.
         23    2    1    2    0    0  0.00000000000E+00  0.17763568394E-14  0.00000000000E+00  0.91188000000E+02  0.91188000000E+02 0.  0.
    9900012    2    3    3    0    0 -0.10585265642E+02  0.98592088940E+01 -0.33860385285E+02  0.54367115432E+02  0.40000071250E+02 0.  0.
        -12    1    3    3    0    0  0.10585265642E+02 -0.98592088940E+01  0.33860385285E+02  0.36820884568E+02  0.00000000000E+00 0.  1.
         11    1    4    4    0    0 -0.36018877628E+00  0.11650456823E+01 -0.16821305492E+02  0.16865449478E+02  0.51100000000E-03 0. -1.
        -11    1    4    4    0    0 -0.61304412087E+01 -0.72911658672E+00  0.81925931339E+01  0.10258289474E+02  0.51100000000E-03 0.  1.
        -12    1    4    4    0    0 -0.40946356569E+01  0.94232797984E+01 -0.25231672927E+02  0.27243376480E+02  0.00000000000E+00 0.  1.
</event>
<event>
 8    1  0.2466538E-006  0.9118800E+02  0.7816164E-02  0.1184000E+00
        -11   -1    0    0    0    0  0.00000000000E+00  0.00000000000E+00  0.45593999997E+02  0.45594000000E+02  0.51100000000E-03 0.  1.
         11   -1    0    0    0    0 -0.00000000000E+00 -0.00000000000E+00 -0.45593999997E+02  0.45594000000E+02  0.51100000000E-03 0. -1.
         23    2    1    2    0    0  0.00000000000E+00  0.00000000000E+00  0.00000000000E+00  0.91188000000E+02  0.91188000000E+02 0.  0.
    9900012    2    3    3    0    0  0.29536031064E+02  0.18221824115E+02  0.12303143332E+02  0.54367090981E+02  0.40000015510E+02 0.  0.
        -12    1    3    3    0    0 -0.29536031064E+02 -0.18221824115E+02 -0.12303143332E+02  0.36820909019E+02  0.00000000000E+00 0.  1.
         11    1    4    4    0    0  0.29085246252E+02  0.45638882048E+01 -0.56124652985E+01  0.29971326165E+02  0.51100000000E-03 0. -1.
        -11    1    4    4    0    0  0.40864752543E+01  0.11762121944E+02  0.13767885308E+02  0.18563444151E+02  0.51100000000E-03 0.  1.
         12    1    4    4    0    0 -0.36356904420E+01  0.18958139666E+01  0.41477233227E+01  0.58323206657E+01  0.00000000000E+00 0. -1.
</event>
<event>
 8    1  0.2466538E-006  0.9118800E+02  0.7816164E-02  0.1184000E+00
        -11   -1    0    0    0    0  0.00000000000E+00  0.00000000000E+00  0.45593999997E+02  0.45594000000E+02  0.51100000000E-03 0. -1.
         11   -1    0    0    0    0 -0.00000000000E+00 -0.00000000000E+00 -0.45593999997E+02  0.45594000000E+02  0.51100000000E-03 0.  1.
         23    2    1    2    0    0  0.00000000000E+00 -0.35527136788E-14  0.00000000000E+00  0.91188000000E+02  0.91188000000E+02 0.  0.
    9900012    2    3    3    0    0  0.24568290719E+02  0.13012309741E+02  0.24142395829E+02  0.54367131053E+02  0.40000106862E+02 0.  0.
        -12    1    3    3    0    0 -0.24568290719E+02 -0.13012309741E+02 -0.24142395829E+02  0.36820868947E+02  0.00000000000E+00 0.  1.
         11    1    4    4    0    0  0.10350905180E+02 -0.12537002649E+02  0.12003645488E+02  0.20209037056E+02  0.51100000000E-03 0.  1.
        -11    1    4    4    0    0  0.10521631551E+02  0.22921078071E+02  0.14451285695E+02  0.29067511227E+02  0.51100000000E-03 0. -1.
        -12    1    4    4    0    0  0.36957539884E+01  0.26282343181E+01 -0.23125353542E+01  0.50905827700E+01  0.00000000000E+00 0.  1.
</event>
<event>
 8    1  0.2466538E-006  0.9118800E+02  0.7816164E-02  0.1184000E+00
        -11   -1    0    0    0    0  0.00000000000E+00  0.00000000000E+00  0.45593999997E+02  0.45594000000E+02  0.51100000000E-03 0. -1.
         11   -1    0    0    0    0 -0.00000000000E+00 -0.00000000000E+00 -0.45593999997E+02  0.45594000000E+02  0.51100000000E-03 0.  1.
         23    2    1    2    0    0  0.71054273576E-14 -0.35527136788E-14  0.00000000000E+00  0.91188000000E+02  0.91188000000E+02 0.  0.
    9900012    2    3    3    0    0  0.32386756573E+02 -0.16241184913E+02  0.65651083393E+01  0.54367099194E+02  0.40000034232E+02 0.  0.
         12    1    3    3    0    0 -0.32386756573E+02  0.16241184913E+02 -0.65651083393E+01  0.36820900806E+02  0.00000000000E+00 0. -1.
         11    1    4    4    0    0  0.38770046041E+01 -0.67991731433E+01  0.54890821173E+01  0.95598087264E+01  0.51100000000E-03 0. -1.
        -11    1    4    4    0    0  0.83644938029E+01 -0.15205817914E+02  0.12075248269E+02  0.21142215495E+02  0.51100000000E-03 0.  1.
         12    1    4    4    0    0  0.20145258166E+02  0.57638061438E+01 -0.10999222047E+02  0.23665074973E+02  0.00000000000E+00 0. -1.
</event>
<event>
 8    1  0.2466538E-006  0.9118800E+02  0.7816164E-02  0.1184000E+00
        -11   -1    0    0    0    0  0.00000000000E+00  0.00000000000E+00  0.45593999997E+02  0.45594000000E+02  0.51100000000E-03 0. -1.
         11   -1    0    0    0    0 -0.00000000000E+00 -0.00000000000E+00 -0.45593999997E+02  0.45594000000E+02  0.51100000000E-03 0.  1.
         23    2    1    2    0    0 -0.17763568394E-14  0.00000000000E+00  0.44408920985E-15  0.91188000000E+02  0.91188000000E+02 0.  0.
    9900012    2    3    3    0    0 -0.10894720951E+02  0.34963259194E+02  0.38283401251E+01  0.54367073529E+02  0.39999975724E+02 0.  0.
        -12    1    3    3    0    0  0.10894720951E+02 -0.34963259194E+02 -0.38283401251E+01  0.36820926471E+02  0.00000000000E+00 0.  1.
         11    1    4    4    0    0  0.14816974415E+00  0.17820977854E+02  0.44913401359E+01  0.18378828647E+02  0.51100000000E-03 0. -1.
        -11    1    4    4    0    0  0.74818915344E+01 -0.32943074072E+01  0.15346788024E+01  0.83178363481E+01  0.51100000000E-03 0.  1.
        -12    1    4    4    0    0 -0.18524782229E+02  0.20436588748E+02 -0.21976788132E+01  0.27670408534E+02  0.00000000000E+00 0.  1.
</event>
<event>
 8    1  0.2466538E-006  0.9118800E+02  0.7816164E-02  0.1184000E+00
        -11   -1    0    0    0    0  0.00000000000E+00  0.00000000000E+00  0.45593999997E+02  0.45594000000E+02  0.51100000000E-03 0. -1.
         11   -1    0    0    0    0 -0.00000000000E+00 -0.00000000000E+00 -0.45593999997E+02  0.45594000000E+02  0.51100000000E-03 0.  1.
         23    2    1    2    0    0  0.00000000000E+00  0.44408920985E-15  0.00000000000E+00  0.91188000000E+02  0.91188000000E+02 0.  0.
    9900012    2    3    3    0    0 -0.58338968074E+01 -0.26063845916E+01 -0.36262333354E+02  0.54367022109E+02  0.39999858501E+02 0.  0.
         12    1    3    3    0    0  0.58338968074E+01  0.26063845916E+01  0.36262333354E+02  0.36820977891E+02  0.00000000000E+00 0. -1.
         11    1    4    4    0    0 -0.11742055072E+02  0.47518159177E+01 -0.36388524168E+01  0.13179410419E+02  0.51100000000E-03 0. -1.
        -11    1    4    4    0    0  0.63184146759E+01  0.48468803647E+01 -0.26211851319E+02  0.27394812705E+02  0.51100000000E-03 0.  1.
        -12    1    4    4    0    0 -0.41025641131E+00 -0.12205080874E+02 -0.64116296180E+01  0.13792798984E+02  0.00000000000E+00 0.  1.
</event>
<event>
 8    1  0.2466538E-006  0.9118800E+02  0.7816164E-02  0.1184000E+00
        -11   -1    0    0    0    0  0.00000000000E+00  0.00000000000E+00  0.45593999997E+02  0.45594000000E+02  0.51100000000E-03 0.  1.
         11   -1    0    0    0    0 -0.00000000000E+00 -0.00000000000E+00 -0.45593999997E+02  0.45594000000E+02  0.51100000000E-03 0. -1.
         23    2    1    2    0    0 -0.88817841970E-15  0.00000000000E+00  0.00000000000E+00  0.91188000000E+02  0.91188000000E+02 0.  0.
    9900012    2    3    3    0    0 -0.73864350329E+01  0.36041085726E+02  0.15028741395E+01  0.54367110366E+02  0.40000059700E+02 0.  0.
         12    1    3    3    0    0  0.73864350329E+01 -0.36041085726E+02 -0.15028741395E+01  0.36820889634E+02  0.00000000000E+00 0. -1.
         11    1    4    4    0    0 -0.67480785184E+01  0.18045820103E+02  0.22692600133E+01  0.19399425975E+02  0.51100000000E-03 0. -1.
        -11    1    4    4    0    0 -0.64887830251E+01  0.23819823824E+02  0.46117982857E+01  0.25114875987E+02  0.51100000000E-03 0.  1.
         12    1    4    4    0    0  0.58504265106E+01 -0.58245582011E+01 -0.53781841595E+01  0.98528084041E+01  0.00000000000E+00 0. -1.
</event>
<event>
 8    1  0.2466538E-006  0.9118800E+02  0.7816164E-02  0.1184000E+00
        -11   -1    0    0    0    0  0.00000000000E+00  0.00000000000E+00  0.45593999997E+02  0.45594000000E+02  0.51100000000E-03 0.  1.
         11   -1    0    0    0    0 -0.00000000000E+00 -0.00000000000E+00 -0.45593999997E+02  0.45594000000E+02  0.51100000000E-03 0. -1.
         23    2    1    2    0    0  0.00000000000E+00 -0.17763568394E-14 -0.35527136788E-14  0.91188000000E+02  0.91188000000E+02 0.  0.
    9900012    2    3    3    0    0  0.22469079188E+02  0.92253401207E+01  0.27673350505E+02  0.54367071874E+02  0.39999971950E+02 0.  0.
         12    1    3    3    0    0 -0.22469079188E+02 -0.92253401207E+01 -0.27673350505E+02  0.36820928126E+02  0.00000000000E+00 0. -1.
         11    1    4    4    0    0  0.32962859681E+01  0.15050288578E+02  0.31944043681E+01  0.15734703905E+02  0.51100000000E-03 0. -1.
        -11    1    4    4    0    0  0.19590317949E+02  0.86402785709E+00  0.86294914221E+01  0.21424173821E+02  0.51100000000E-03 0.  1.
        -12    1    4    4    0    0 -0.41752472846E+00 -0.66889763142E+01  0.15849454715E+02  0.17208194147E+02  0.00000000000E+00 0.  1.
</event>
<event>
 8    1  0.2466538E-006  0.9118800E+02  0.7816164E-02  0.1184000E+00
        -11   -1    0    0    0    0  0.00000000000E+00  0.00000000000E+00  0.45593999997E+02  0.45594000000E+02  0.51100000000E-03 0.  1.
         11   -1    0    0    0    0 -0.00000000000E+00 -0.00000000000E+00 -0.45593999997E+02  0.45594000000E+02  0.51100000000E-03 0. -1.
         23    2    1    2    0    0 -0.71054273576E-14 -0.88817841970E-15  0.00000000000E+00  0.91188000000E+02  0.91188000000E+02 0.  0.
    9900012    2    3    3    0    0 -0.29462819987E+02 -0.38964115897E+01 -0.21737992135E+02  0.54367080852E+02  0.39999992418E+02 0.  0.
        -12    1    3    3    0    0  0.29462819987E+02  0.38964115897E+01  0.21737992135E+02  0.36820919148E+02  0.00000000000E+00 0.  1.
         11    1    4    4    0    0 -0.68016489030E+01 -0.21556854832E+01 -0.22012700368E+02  0.23140189832E+02  0.51100000000E-03 0. -1.
        -11    1    4    4    0    0 -0.35433974952E+01 -0.53716487307E+01  0.80200691965E+01  0.10282596271E+02  0.51100000000E-03 0.  1.
         12    1    4    4    0    0 -0.19117773588E+02  0.36309226243E+01 -0.77453609638E+01  0.20944294749E+02  0.00000000000E+00 0. -1.
</event>
<event>
 8    1  0.2466538E-006  0.9118800E+02  0.7816164E-02  0.1184000E+00
        -11   -1    0    0    0    0  0.00000000000E+00  0.00000000000E+00  0.45593999997E+02  0.45594000000E+02  0.51100000000E-03 0. -1.
         11   -1    0    0    0    0 -0.00000000000E+00 -0.00000000000E+00 -0.45593999997E+02  0.45594000000E+02  0.51100000000E-03 0.  1.
         23    2    1    2    0    0  0.00000000000E+00 -0.35527136788E-14  0.00000000000E+00  0.91188000000E+02  0.91188000000E+02 0.  0.
    9900012    2    3    3    0    0 -0.22528362411E+02  0.28869900357E+02 -0.38449221367E+01  0.54367059140E+02  0.39999942922E+02 0.  0.
         12    1    3    3    0    0  0.22528362411E+02 -0.28869900357E+02  0.38449221367E+01  0.36820940860E+02  0.00000000000E+00 0. -1.
         11    1    4    4    0    0  0.31714861282E+01 -0.62104780720E+01 -0.31291193377E+01  0.76432813788E+01  0.51100000000E-03 0. -1.
        -11    1    4    4    0    0 -0.23511997687E+02  0.24510623489E+02 -0.63422552191E+01  0.34551539772E+02  0.51100000000E-03 0.  1.
         12    1    4    4    0    0 -0.21878508513E+01  0.10569754940E+02  0.56264524201E+01  0.12172237990E+02  0.00000000000E+00 0. -1.
</event>
<event>
 8    1  0.2466538E-006  0.9118800E+02  0.7816164E-02  0.1184000E+00
        -11   -1    0    0    0    0  0.00000000000E+00  0.00000000000E+00  0.45593999997E+02  0.45594000000E+02  0.51100000000E-03 0.  1.
         11   -1    0    0    0    0 -0.00000000000E+00 -0.00000000000E+00 -0.45593999997E+02  0.45594000000E+02  0.51100000000E-03 0. -1.
         23    2    1    2    0    0  0.00000000000E+00 -0.12490009027E-15  0.22204460493E-15  0.91188000000E+02  0.91188000000E+02 0.  0.
    9900012    2    3    3    0    0 -0.36817746675E+02  0.79267387495E-01  0.47683798461E+00  0.54367080294E+02  0.39999991146E+02 0.  0.
        -12    1    3    3    0    0  0.36817746675E+02 -0.79267387495E-01 -0.47683798461E+00  0.36820919706E+02  0.00000000000E+00 0.  1.
         11    1    4    4    0    0 -0.31026284826E+01  0.77631663223E+01 -0.42559634302E+01  0.93811662297E+01  0.51100000000E-03 0. -1.
        -11    1    4    4    0    0 -0.19890693255E+02 -0.30274012616E+01  0.16676489044E+02  0.26132549123E+02  0.51100000000E-03 0.  1.
        -12    1    4    4    0    0 -0.13824424938E+02 -0.46564976732E+01 -0.11943687629E+02  0.18853364941E+02  0.00000000000E+00 0.  1.
</event>
<event>
 8    1  0.2466538E-006  0.9118800E+02  0.7816164E-02  0.1184000E+00
        -11   -1    0    0    0    0  0.00000000000E+00  0.00000000000E+00  0.45593999997E+02  0.45594000000E+02  0.51100000000E-03 0.  1.
         11   -1    0    0    0    0 -0.00000000000E+00 -0.00000000000E+00 -0.45593999997E+02  0.45594000000E+02  0.51100000000E-03 0. -1.
         23    2    1    2    0    0  0.00000000000E+00  0.88817841970E-15 -0.35527136788E-14  0.91188000000E+02  0.91188000000E+02 0.  0.
    9900012    2    3    3    0    0 -0.19348656282E+02 -0.40943414960E+01  0.31058759744E+02  0.54367072675E+02  0.39999973778E+02 0.  0.
         12    1    3    3    0    0  0.19348656282E+02  0.40943414960E+01 -0.31058759744E+02  0.36820927325E+02  0.00000000000E+00 0. -1.
         11    1    4    4    0    0 -0.12246646643E+02 -0.14197517579E+02  0.87732784103E+01  0.20700731237E+02  0.51100000000E-03 0. -1.
        -11    1    4    4    0    0 -0.84375893027E+01  0.28890986908E+01  0.24442829898E+02  0.26019064898E+02  0.51100000000E-03 0.  1.
         12    1    4    4    0    0  0.13355796641E+01  0.72140773923E+01 -0.21573485638E+01  0.76472765405E+01  0.00000000000E+00 0. -1.
</event>
<event>
 8    1  0.2466538E-006  0.9118800E+02  0.7816164E-02  0.1184000E+00
        -11   -1    0    0    0    0  0.00000000000E+00  0.00000000000E+00  0.45593999997E+02  0.45594000000E+02  0.51100000000E-03 0.  1.
         11   -1    0    0    0    0 -0.00000000000E+00 -0.00000000000E+00 -0.45593999997E+02  0.45594000000E+02  0.51100000000E-03 0. -1.
         23    2    1    2    0    0  0.00000000000E+00  0.00000000000E+00  0.88817841970E-15  0.91188000000E+02  0.91188000000E+02 0.  0.
    9900012    2    3    3    0    0  0.28737857257E+02 -0.22207429876E+02  0.60615836560E+01  0.54367120355E+02  0.40000082472E+02 0.  0.
         12    1    3    3    0    0 -0.28737857257E+02  0.22207429876E+02 -0.60615836560E+01  0.36820879645E+02  0.00000000000E+00 0. -1.
         11    1    4    4    0    0  0.20065799648E+02 -0.17330124669E+02  0.18341932027E+02  0.32239665124E+02  0.51100000000E-03 0. -1.
        -11    1    4    4    0    0  0.10707722588E+02  0.21366499731E+01 -0.58008207369E+01  0.12364065577E+02  0.51100000000E-03 0.  1.
         12    1    4    4    0    0 -0.20356649782E+01 -0.70139551798E+01 -0.64795276336E+01  0.97633896533E+01  0.00000000000E+00 0. -1.
</event>
<event>
 8    1  0.2466538E-006  0.9118800E+02  0.7816164E-02  0.1184000E+00
        -11   -1    0    0    0    0  0.00000000000E+00  0.00000000000E+00  0.45593999997E+02  0.45594000000E+02  0.51100000000E-03 0. -1.
         11   -1    0    0    0    0 -0.00000000000E+00 -0.00000000000E+00 -0.45593999997E+02  0.45594000000E+02  0.51100000000E-03 0.  1.
         23    2    1    2    0    0  0.35527136788E-14 -0.17763568394E-14  0.00000000000E+00  0.91188000000E+02  0.91188000000E+02 0.  0.
    9900012    2    3    3    0    0 -0.23110821710E+02 -0.10891595155E+02 -0.26514958886E+02  0.54367082441E+02  0.39999996041E+02 0.  0.
         12    1    3    3    0    0  0.23110821710E+02  0.10891595155E+02  0.26514958886E+02  0.36820917559E+02  0.00000000000E+00 0. -1.
         11    1    4    4    0    0 -0.30371003849E+01  0.88735797462E+01  0.20775795500E+01  0.96062861350E+01  0.51100000000E-03 0. -1.
        -11    1    4    4    0    0 -0.18627228666E+02 -0.19086316669E+02 -0.14075228739E+02  0.30155815295E+02  0.51100000000E-03 0.  1.
         12    1    4    4    0    0 -0.14464926592E+01 -0.67885823192E+00 -0.14517309697E+02  0.14604981012E+02  0.00000000000E+00 0. -1.
</event>
<event>
 8    1  0.2466538E-006  0.9118800E+02  0.7816164E-02  0.1184000E+00
        -11   -1    0    0    0    0  0.00000000000E+00  0.00000000000E+00  0.45593999997E+02  0.45594000000E+02  0.51100000000E-03 0.  1.
         11   -1    0    0    0    0 -0.00000000000E+00 -0.00000000000E+00 -0.45593999997E+02  0.45594000000E+02  0.51100000000E-03 0. -1.
         23    2    1    2    0    0  0.00000000000E+00  0.00000000000E+00  0.00000000000E+00  0.91188000000E+02  0.91188000000E+02 0.  0.
    9900012    2    3    3    0    0  0.84712967243E+01  0.28435489487E+02  0.21804584030E+02  0.54367084541E+02  0.40000000827E+02 0.  0.
         12    1    3    3    0    0 -0.84712967243E+01 -0.28435489487E+02 -0.21804584030E+02  0.36820915459E+02  0.00000000000E+00 0. -1.
         11    1    4    4    0    0 -0.61931616653E+00  0.95290684862E+01 -0.85739805001E+01  0.12833543572E+02  0.51100000000E-03 0. -1.
        -11    1    4    4    0    0  0.14416196917E+02  0.17480111961E+02  0.26042357286E+02  0.34519348502E+02  0.51100000000E-03 0.  1.
        -12    1    4    4    0    0 -0.53255840261E+01  0.14263090391E+01  0.43362072444E+01  0.70141924667E+01  0.00000000000E+00 0.  1.
</event>
<event>
 8    1  0.2466538E-006  0.9118800E+02  0.7816164E-02  0.1184000E+00
        -11   -1    0    0    0    0  0.00000000000E+00  0.00000000000E+00  0.45593999997E+02  0.45594000000E+02  0.51100000000E-03 0.  1.
         11   -1    0    0    0    0 -0.00000000000E+00 -0.00000000000E+00 -0.45593999997E+02  0.45594000000E+02  0.51100000000E-03 0. -1.
         23    2    1    2    0    0 -0.35527136788E-14  0.00000000000E+00 -0.35527136788E-14  0.91188000000E+02  0.91188000000E+02 0.  0.
    9900012    2    3    3    0    0 -0.31009121528E+02 -0.27442993963E+01 -0.19664249105E+02  0.54367088958E+02  0.40000010897E+02 0.  0.
        -12    1    3    3    0    0  0.31009121528E+02  0.27442993963E+01  0.19664249105E+02  0.36820911042E+02  0.00000000000E+00 0.  1.
         11    1    4    4    0    0 -0.15297414763E+02 -0.10125177941E+02 -0.18714164929E+02  0.26205917195E+02  0.51100000000E-03 0. -1.
        -11    1    4    4    0    0 -0.12487907517E+02  0.31531408569E+01 -0.10904465542E+02  0.16875944431E+02  0.51100000000E-03 0.  1.
        -12    1    4    4    0    0 -0.32237992473E+01  0.42277376878E+01  0.99543813660E+01  0.11285227332E+02  0.00000000000E+00 0.  1.
</event>
<event>
 8    1  0.2466538E-006  0.9118800E+02  0.7816164E-02  0.1184000E+00
        -11   -1    0    0    0    0  0.00000000000E+00  0.00000000000E+00  0.45593999997E+02  0.45594000000E+02  0.51100000000E-03 0. -1.
         11   -1    0    0    0    0 -0.00000000000E+00 -0.00000000000E+00 -0.45593999997E+02  0.45594000000E+02  0.51100000000E-03 0.  1.
         23    2    1    2    0    0  0.88817841970E-15 -0.15543122345E-14  0.00000000000E+00  0.91188000000E+02  0.91188000000E+02 0.  0.
    9900012    2    3    3    0    0  0.48305886281E+01 -0.30782921983E+00  0.36501403547E+02  0.54367057505E+02  0.39999939194E+02 0.  0.
        -12    1    3    3    0    0 -0.48305886281E+01  0.30782921983E+00 -0.36501403547E+02  0.36820942495E+02  0.00000000000E+00 0.  1.
         11    1    4    4    0    0  0.99184908966E+01  0.94965490795E+01  0.21197440080E+02  0.25256531280E+02  0.51100000000E-03 0. -1.
        -11    1    4    4    0    0  0.39757908203E+01  0.20124487307E+01 -0.31055136592E+01  0.54314894724E+01  0.51100000000E-03 0.  1.
         12    1    4    4    0    0 -0.90636930887E+01 -0.11816827030E+02  0.18409477126E+02  0.23679036753E+02  0.00000000000E+00 0. -1.
</event>
<event>
 8    1  0.2466538E-006  0.9118800E+02  0.7816164E-02  0.1184000E+00
        -11   -1    0    0    0    0  0.00000000000E+00  0.00000000000E+00  0.45593999997E+02  0.45594000000E+02  0.51100000000E-03 0. -1.
         11   -1    0    0    0    0 -0.00000000000E+00 -0.00000000000E+00 -0.45593999997E+02  0.45594000000E+02  0.51100000000E-03 0.  1.
         23    2    1    2    0    0 -0.35527136788E-14 -0.26645352591E-14  0.00000000000E+00  0.91188000000E+02  0.91188000000E+02 0.  0.
    9900012    2    3    3    0    0 -0.18574672532E+02 -0.73020955270E+01  0.30942516246E+02  0.54367104161E+02  0.40000045555E+02 0.  0.
        -12    1    3    3    0    0  0.18574672532E+02  0.73020955270E+01 -0.30942516246E+02  0.36820895839E+02  0.00000000000E+00 0.  1.
         11    1    4    4    0    0 -0.21410690185E+01  0.56782152852E+01  0.52600976957E+01  0.80308737630E+01  0.51100000000E-03 0. -1.
        -11    1    4    4    0    0 -0.27220873744E+01 -0.36810057589E+01 -0.77629083496E+01  0.90123420584E+01  0.51100000000E-03 0.  1.
         12    1    4    4    0    0 -0.13711516139E+02 -0.92993050533E+01  0.33445326900E+02  0.37323888339E+02  0.00000000000E+00 0. -1.
</event>
<event>
 8    1  0.2466538E-006  0.9118800E+02  0.7816164E-02  0.1184000E+00
        -11   -1    0    0    0    0  0.00000000000E+00  0.00000000000E+00  0.45593999997E+02  0.45594000000E+02  0.51100000000E-03 0. -1.
         11   -1    0    0    0    0 -0.00000000000E+00 -0.00000000000E+00 -0.45593999997E+02  0.45594000000E+02  0.51100000000E-03 0.  1.
         23    2    1    2    0    0  0.71054273576E-14  0.00000000000E+00  0.35527136788E-14  0.91188000000E+02  0.91188000000E+02 0.  0.
    9900012    2    3    3    0    0 -0.22393300243E+02 -0.24076498405E+01 -0.29129414549E+02  0.54367089290E+02  0.40000011654E+02 0.  0.
         12    1    3    3    0    0  0.22393300243E+02  0.24076498405E+01  0.29129414549E+02  0.36820910710E+02  0.00000000000E+00 0. -1.
         11    1    4    4    0    0 -0.11770857821E+02  0.69773337805E+01 -0.74844479216E+01  0.15596577877E+02  0.51100000000E-03 0. -1.
        -11    1    4    4    0    0 -0.74891287909E+01  0.10017264434E+02 -0.80845678292E+01  0.14892712111E+02  0.51100000000E-03 0.  1.
        -12    1    4    4    0    0 -0.31333136309E+01 -0.19402248055E+02 -0.13560398798E+02  0.23877799301E+02  0.00000000000E+00 0.  1.
</event>
<event>
 8    1  0.2466538E-006  0.9118800E+02  0.7816164E-02  0.1184000E+00
        -11   -1    0    0    0    0  0.00000000000E+00  0.00000000000E+00  0.45593999997E+02  0.45594000000E+02  0.51100000000E-03 0. -1.
         11   -1    0    0    0    0 -0.00000000000E+00 -0.00000000000E+00 -0.45593999997E+02  0.45594000000E+02  0.51100000000E-03 0.  1.
         23    2    1    2    0    0  0.44408920985E-15 -0.71054273576E-14 -0.88817841970E-15  0.91188000000E+02  0.91188000000E+02 0.  0.
    9900012    2    3    3    0    0 -0.23640909499E+01  0.36625769713E+02  0.29569348260E+01  0.54367090225E+02  0.40000013785E+02 0.  0.
         12    1    3    3    0    0  0.23640909499E+01 -0.36625769713E+02 -0.29569348260E+01  0.36820909775E+02  0.00000000000E+00 0. -1.
         11    1    4    4    0    0 -0.55829952319E+01  0.32463278925E+02 -0.11348580407E+02  0.34839985532E+02  0.51100000000E-03 0.  1.
        -11    1    4    4    0    0 -0.40175193065E+01  0.45077177839E+01  0.68513727465E+01  0.91324306605E+01  0.51100000000E-03 0. -1.
        -12    1    4    4    0    0  0.72364235885E+01 -0.34522699572E+00  0.74541424867E+01  0.10394674033E+02  0.00000000000E+00 0.  1.
</event>
<event>
 8    1  0.2466538E-006  0.9118800E+02  0.7816164E-02  0.1184000E+00
        -11   -1    0    0    0    0  0.00000000000E+00  0.00000000000E+00  0.45593999997E+02  0.45594000000E+02  0.51100000000E-03 0.  1.
         11   -1    0    0    0    0 -0.00000000000E+00 -0.00000000000E+00 -0.45593999997E+02  0.45594000000E+02  0.51100000000E-03 0. -1.
         23    2    1    2    0    0  0.44408920985E-15  0.35527136788E-14  0.00000000000E+00  0.91188000000E+02  0.91188000000E+02 0.  0.
    9900012    2    3    3    0    0 -0.22726744132E+01 -0.18031408501E+02 -0.32023168863E+02  0.54367080871E+02  0.39999992461E+02 0.  0.
        -12    1    3    3    0    0  0.22726744132E+01  0.18031408501E+02  0.32023168863E+02  0.36820919129E+02  0.00000000000E+00 0.  1.
         11    1    4    4    0    0  0.38383120734E+01 -0.74409543847E+01 -0.31477400815E+01  0.89447587787E+01  0.51100000000E-03 0. -1.
        -11    1    4    4    0    0 -0.35593942118E+01  0.78914799429E+01  0.24187171829E+01  0.89886003313E+01  0.51100000000E-03 0.  1.
        -12    1    4    4    0    0 -0.25515922749E+01 -0.18481934059E+02 -0.31294145964E+02  0.36433721761E+02  0.00000000000E+00 0.  1.
</event>
<event>
 8    1  0.2466538E-006  0.9118800E+02  0.7816164E-02  0.1184000E+00
        -11   -1    0    0    0    0  0.00000000000E+00  0.00000000000E+00  0.45593999997E+02  0.45594000000E+02  0.51100000000E-03 0.  1.
         11   -1    0    0    0    0 -0.00000000000E+00 -0.00000000000E+00 -0.45593999997E+02  0.45594000000E+02  0.51100000000E-03 0. -1.
         23    2    1    2    0    0  0.88817841970E-15  0.00000000000E+00  0.00000000000E+00  0.91188000000E+02  0.91188000000E+02 0.  0.
    9900012    2    3    3    0    0  0.36166693934E+01  0.18562594684E+02 -0.31593184902E+02  0.54367088127E+02  0.40000009003E+02 0.  0.
        -12    1    3    3    0    0 -0.36166693934E+01 -0.18562594684E+02  0.31593184902E+02  0.36820911873E+02  0.00000000000E+00 0.  1.
         11    1    4    4    0    0  0.73820252856E+01  0.97326998265E+01  0.53597184611E+00  0.12227305889E+02  0.51100000000E-03 0. -1.
        -11    1    4    4    0    0  0.50199261143E+01  0.14624305620E+02 -0.12560782919E+02  0.19920924699E+02  0.51100000000E-03 0.  1.
        -12    1    4    4    0    0 -0.87852820065E+01 -0.57944107623E+01 -0.19568373829E+02  0.22218857539E+02  0.00000000000E+00 0.  1.
</event>
<event>
 8    1  0.2466538E-006  0.9118800E+02  0.7816164E-02  0.1184000E+00
        -11   -1    0    0    0    0  0.00000000000E+00  0.00000000000E+00  0.45593999997E+02  0.45594000000E+02  0.51100000000E-03 0. -1.
         11   -1    0    0    0    0 -0.00000000000E+00 -0.00000000000E+00 -0.45593999997E+02  0.45594000000E+02  0.51100000000E-03 0.  1.
         23    2    1    2    0    0 -0.35527136788E-14  0.00000000000E+00 -0.44408920985E-15  0.91188000000E+02  0.91188000000E+02 0.  0.
    9900012    2    3    3    0    0  0.29651258915E+02 -0.21824637244E+02  0.51748072783E+00  0.54367085666E+02  0.40000003394E+02 0.  0.
        -12    1    3    3    0    0 -0.29651258915E+02  0.21824637244E+02 -0.51748072783E+00  0.36820914334E+02  0.00000000000E+00 0.  1.
         11    1    4    4    0    0  0.82757111786E+01 -0.18520451092E+02 -0.14096963244E+01  0.20334250617E+02  0.51100000000E-03 0. -1.
        -11    1    4    4    0    0 -0.15953092373E+01  0.70198474060E+01  0.48490510616E+01  0.86796639119E+01  0.51100000000E-03 0.  1.
        -12    1    4    4    0    0  0.22970856974E+02 -0.10324033557E+02 -0.29218740094E+01  0.25353171137E+02  0.00000000000E+00 0.  1.
</event>
<event>
 8    1  0.2466538E-006  0.9118800E+02  0.7816164E-02  0.1184000E+00
        -11   -1    0    0    0    0  0.00000000000E+00  0.00000000000E+00  0.45593999997E+02  0.45594000000E+02  0.51100000000E-03 0. -1.
         11   -1    0    0    0    0 -0.00000000000E+00 -0.00000000000E+00 -0.45593999997E+02  0.45594000000E+02  0.51100000000E-03 0.  1.
         23    2    1    2    0    0 -0.71054273576E-14 -0.88817841970E-15 -0.88817841970E-15  0.91188000000E+02  0.91188000000E+02 0.  0.
    9900012    2    3    3    0    0  0.35983085384E+02  0.49981170054E+01  0.60012893154E+01  0.54367094514E+02  0.40000023564E+02 0.  0.
        -12    1    3    3    0    0 -0.35983085384E+02 -0.49981170054E+01 -0.60012893154E+01  0.36820905486E+02  0.00000000000E+00 0.  1.
         11    1    4    4    0    0 -0.75741816986E+01 -0.23598253500E+01  0.45564118186E+01  0.91486552568E+01  0.51100000000E-03 0.  1.
        -11    1    4    4    0    0  0.31372649217E+02  0.59043028068E+01  0.52907510834E+01  0.32358862122E+02  0.51100000000E-03 0. -1.
        -12    1    4    4    0    0  0.12184617865E+02  0.14536395486E+01 -0.38458735866E+01  0.12859577135E+02  0.00000000000E+00 0.  1.
</event>
<event>
 8    1  0.2466538E-006  0.9118800E+02  0.7816164E-02  0.1184000E+00
        -11   -1    0    0    0    0  0.00000000000E+00  0.00000000000E+00  0.45593999997E+02  0.45594000000E+02  0.51100000000E-03 0.  1.
         11   -1    0    0    0    0 -0.00000000000E+00 -0.00000000000E+00 -0.45593999997E+02  0.45594000000E+02  0.51100000000E-03 0. -1.
         23    2    1    2    0    0 -0.26645352591E-14 -0.35527136788E-14  0.35527136788E-14  0.91188000000E+02  0.91188000000E+02 0.  0.
    9900012    2    3    3    0    0  0.56178078556E+01  0.31855952868E+02 -0.17590254147E+02  0.54367101869E+02  0.40000040331E+02 0.  0.
         12    1    3    3    0    0 -0.56178078556E+01 -0.31855952868E+02  0.17590254147E+02  0.36820898131E+02  0.00000000000E+00 0. -1.
         11    1    4    4    0    0 -0.60001064848E+01 -0.34685934305E+01  0.26596669597E+01  0.74233581896E+01  0.51100000000E-03 0.  1.
        -11    1    4    4    0    0 -0.55701161681E+01  0.12839636293E+02 -0.78227226779E+01  0.16033634792E+02  0.51100000000E-03 0. -1.
        -12    1    4    4    0    0  0.17188030509E+02  0.22484910005E+02 -0.12427198429E+02  0.30910108888E+02  0.00000000000E+00 0.  1.
</event>
<event>
 8    1  0.2466538E-006  0.9118800E+02  0.7816164E-02  0.1184000E+00
        -11   -1    0    0    0    0  0.00000000000E+00  0.00000000000E+00  0.45593999997E+02  0.45594000000E+02  0.51100000000E-03 0. -1.
         11   -1    0    0    0    0 -0.00000000000E+00 -0.00000000000E+00 -0.45593999997E+02  0.45594000000E+02  0.51100000000E-03 0.  1.
         23    2    1    2    0    0 -0.17763568394E-14 -0.88817841970E-15  0.00000000000E+00  0.91188000000E+02  0.91188000000E+02 0.  0.
    9900012    2    3    3    0    0  0.10775721323E+02 -0.50455562020E+01 -0.34845458314E+02  0.54367085121E+02  0.40000002151E+02 0.  0.
         12    1    3    3    0    0 -0.10775721323E+02  0.50455562020E+01  0.34845458314E+02  0.36820914879E+02  0.00000000000E+00 0. -1.
         11    1    4    4    0    0  0.11654488354E+02  0.13741550379E+02 -0.46517386371E+01  0.18609029481E+02  0.51100000000E-03 0. -1.
        -11    1    4    4    0    0  0.10986556212E+01 -0.26804196208E+01 -0.38646656345E+01  0.48298379109E+01  0.51100000000E-03 0.  1.
        -12    1    4    4    0    0 -0.19774226522E+01 -0.16106686960E+02 -0.26329054042E+02  0.30928217730E+02  0.00000000000E+00 0.  1.
</event>
<event>
 8    1  0.2466538E-006  0.9118800E+02  0.7816164E-02  0.1184000E+00
        -11   -1    0    0    0    0  0.00000000000E+00  0.00000000000E+00  0.45593999997E+02  0.45594000000E+02  0.51100000000E-03 0.  1.
         11   -1    0    0    0    0 -0.00000000000E+00 -0.00000000000E+00 -0.45593999997E+02  0.45594000000E+02  0.51100000000E-03 0. -1.
         23    2    1    2    0    0  0.00000000000E+00 -0.17763568394E-14 -0.35527136788E-14  0.91188000000E+02  0.91188000000E+02 0.  0.
    9900012    2    3    3    0    0 -0.28274393367E+02  0.12817997200E+02 -0.19799741755E+02  0.54367188683E+02  0.40000238240E+02 0.  0.
        -12    1    3    3    0    0  0.28274393367E+02 -0.12817997200E+02  0.19799741755E+02  0.36820811317E+02  0.00000000000E+00 0.  1.
         11    1    4    4    0    0 -0.24642435312E+02 -0.91780264710E+00 -0.11177217190E+02  0.27074382064E+02  0.51100000000E-03 0. -1.
        -11    1    4    4    0    0 -0.84150471078E+01  0.55121069865E+01  0.45526637693E+01  0.11041878867E+02  0.51100000000E-03 0.  1.
         12    1    4    4    0    0  0.47830890524E+01  0.82236928608E+01 -0.13175188334E+02  0.16250927752E+02  0.00000000000E+00 0. -1.
</event>
<event>
 8    1  0.2466538E-006  0.9118800E+02  0.7816164E-02  0.1184000E+00
        -11   -1    0    0    0    0  0.00000000000E+00  0.00000000000E+00  0.45593999997E+02  0.45594000000E+02  0.51100000000E-03 0. -1.
         11   -1    0    0    0    0 -0.00000000000E+00 -0.00000000000E+00 -0.45593999997E+02  0.45594000000E+02  0.51100000000E-03 0.  1.
         23    2    1    2    0    0  0.00000000000E+00  0.35527136788E-14 -0.35527136788E-14  0.91188000000E+02  0.91188000000E+02 0.  0.
    9900012    2    3    3    0    0  0.29194007524E+02  0.80696602211E+01 -0.20937294715E+02  0.54367084729E+02  0.40000001257E+02 0.  0.
         12    1    3    3    0    0 -0.29194007524E+02 -0.80696602211E+01  0.20937294715E+02  0.36820915271E+02  0.00000000000E+00 0. -1.
         11    1    4    4    0    0  0.13385756497E+02  0.14851836531E+02  0.17087294306E+01  0.20066770589E+02  0.51100000000E-03 0. -1.
        -11    1    4    4    0    0  0.50837404845E+01 -0.80662780966E+01 -0.36769759292E+00  0.95417221415E+01  0.51100000000E-03 0.  1.
        -12    1    4    4    0    0  0.10724510542E+02  0.12841017863E+01 -0.22278326552E+02  0.24758591998E+02  0.00000000000E+00 0.  1.
</event>
<event>
 8    1  0.2466538E-006  0.9118800E+02  0.7816164E-02  0.1184000E+00
        -11   -1    0    0    0    0  0.00000000000E+00  0.00000000000E+00  0.45593999997E+02  0.45594000000E+02  0.51100000000E-03 0. -1.
         11   -1    0    0    0    0 -0.00000000000E+00 -0.00000000000E+00 -0.45593999997E+02  0.45594000000E+02  0.51100000000E-03 0.  1.
         23    2    1    2    0    0  0.17763568394E-14 -0.77715611724E-15  0.00000000000E+00  0.91188000000E+02  0.91188000000E+02 0.  0.
    9900012    2    3    3    0    0 -0.10423422184E+02 -0.93891978250E+00  0.35302388655E+02  0.54366974144E+02  0.39999749155E+02 0.  0.
        -12    1    3    3    0    0  0.10423422184E+02  0.93891978250E+00 -0.35302388655E+02  0.36821025856E+02  0.00000000000E+00 0.  1.
         11    1    4    4    0    0 -0.19027700984E+02 -0.11529355883E+02  0.17738485123E+02  0.28454056065E+02  0.51100000000E-03 0. -1.
        -11    1    4    4    0    0  0.28349193126E+01  0.11452696901E+02  0.66642007493E+01  0.13550372899E+02  0.51100000000E-03 0.  1.
        -12    1    4    4    0    0  0.57693594878E+01 -0.86226080044E+00  0.10899702782E+02  0.12362545180E+02  0.00000000000E+00 0.  1.
</event>
<event>
 8    1  0.2466538E-006  0.9118800E+02  0.7816164E-02  0.1184000E+00
        -11   -1    0    0    0    0  0.00000000000E+00  0.00000000000E+00  0.45593999997E+02  0.45594000000E+02  0.51100000000E-03 0.  1.
         11   -1    0    0    0    0 -0.00000000000E+00 -0.00000000000E+00 -0.45593999997E+02  0.45594000000E+02  0.51100000000E-03 0. -1.
         23    2    1    2    0    0  0.00000000000E+00  0.00000000000E+00  0.00000000000E+00  0.91188000000E+02  0.91188000000E+02 0.  0.
    9900012    2    3    3    0    0 -0.14118733882E+02  0.96974074663E+01 -0.32594489723E+02  0.54367094005E+02  0.40000022402E+02 0.  0.
        -12    1    3    3    0    0  0.14118733882E+02 -0.96974074663E+01  0.32594489723E+02  0.36820905995E+02  0.00000000000E+00 0.  1.
         11    1    4    4    0    0 -0.16118474243E+02  0.99085810526E+01 -0.35203491621E+01  0.19245208465E+02  0.51100000000E-03 0. -1.
        -11    1    4    4    0    0  0.68165448223E+01 -0.42361320073E+01 -0.34423806035E+01  0.87327018831E+01  0.51100000000E-03 0.  1.
         12    1    4    4    0    0 -0.48168044615E+01  0.40249584209E+01 -0.25631759958E+02  0.26389183656E+02  0.00000000000E+00 0. -1.
</event>
<event>
 8    1  0.2466538E-006  0.9118800E+02  0.7816164E-02  0.1184000E+00
        -11   -1    0    0    0    0  0.00000000000E+00  0.00000000000E+00  0.45593999997E+02  0.45594000000E+02  0.51100000000E-03 0.  1.
         11   -1    0    0    0    0 -0.00000000000E+00 -0.00000000000E+00 -0.45593999997E+02  0.45594000000E+02  0.51100000000E-03 0. -1.
         23    2    1    2    0    0 -0.35527136788E-14  0.71054273576E-14 -0.10658141036E-13  0.91188000000E+02  0.91188000000E+02 0.  0.
    9900012    2    3    3    0    0  0.10956237629E+02 -0.22160028812E+02  0.27288913670E+02  0.54366934980E+02  0.39999659872E+02 0.  0.
         12    1    3    3    0    0 -0.10956237629E+02  0.22160028812E+02 -0.27288913670E+02  0.36821065020E+02  0.00000000000E+00 0. -1.
         11    1    4    4    0    0  0.74185211944E+01 -0.84695922402E+01  0.10780022348E+01  0.11310638289E+02  0.51100000000E-03 0. -1.
        -11    1    4    4    0    0  0.48935724197E+01 -0.23568930549E+02  0.16880624445E+02  0.29400629588E+02  0.51100000000E-03 0.  1.
         12    1    4    4    0    0 -0.13558559853E+01  0.98784939772E+01  0.93302869905E+01  0.13655667103E+02  0.00000000000E+00 0. -1.
</event>
<event>
 8    1  0.2466538E-006  0.9118800E+02  0.7816164E-02  0.1184000E+00
        -11   -1    0    0    0    0  0.00000000000E+00  0.00000000000E+00  0.45593999997E+02  0.45594000000E+02  0.51100000000E-03 0.  1.
         11   -1    0    0    0    0 -0.00000000000E+00 -0.00000000000E+00 -0.45593999997E+02  0.45594000000E+02  0.51100000000E-03 0. -1.
         23    2    1    2    0    0  0.44408920985E-14  0.17763568394E-14  0.71054273576E-14  0.91188000000E+02  0.91188000000E+02 0.  0.
    9900012    2    3    3    0    0  0.79044881286E+01 -0.12891573799E+02 -0.33572397513E+02  0.54367089062E+02  0.40000011134E+02 0.  0.
        -12    1    3    3    0    0 -0.79044881286E+01  0.12891573799E+02  0.33572397513E+02  0.36820910938E+02  0.00000000000E+00 0.  1.
         11    1    4    4    0    0  0.25701022712E+01 -0.35000697535E+01 -0.32637780620E+01  0.54321415172E+01  0.51100000000E-03 0. -1.
        -11    1    4    4    0    0 -0.93217142337E+01 -0.60355385432E+01  0.37371121944E+01  0.11717000025E+02  0.51100000000E-03 0.  1.
        -12    1    4    4    0    0  0.14656100091E+02 -0.33559655020E+01 -0.34045731645E+02  0.37217947520E+02  0.00000000000E+00 0.  1.
</event>
<event>
 8    1  0.2466538E-006  0.9118800E+02  0.7816164E-02  0.1184000E+00
        -11   -1    0    0    0    0  0.00000000000E+00  0.00000000000E+00  0.45593999997E+02  0.45594000000E+02  0.51100000000E-03 0. -1.
         11   -1    0    0    0    0 -0.00000000000E+00 -0.00000000000E+00 -0.45593999997E+02  0.45594000000E+02  0.51100000000E-03 0.  1.
         23    2    1    2    0    0 -0.44408920985E-15  0.35527136788E-14 -0.35527136788E-14  0.91188000000E+02  0.91188000000E+02 0.  0.
    9900012    2    3    3    0    0 -0.35196025722E+01  0.17943748101E+02 -0.31959547661E+02  0.54367103964E+02  0.40000045107E+02 0.  0.
         12    1    3    3    0    0  0.35196025722E+01 -0.17943748101E+02  0.31959547661E+02  0.36820896036E+02  0.00000000000E+00 0. -1.
         11    1    4    4    0    0  0.24014516785E+01  0.17716938469E+02 -0.48263653668E+01  0.18518927663E+02  0.51100000000E-03 0. -1.
        -11    1    4    4    0    0 -0.60474769550E+01  0.83435885381E+01 -0.35373080150E+01  0.10894952752E+02  0.51100000000E-03 0.  1.
        -12    1    4    4    0    0  0.12642270434E+00 -0.81167789059E+01 -0.23595874279E+02  0.24953223549E+02  0.00000000000E+00 0.  1.
</event>
<event>
 8    1  0.2466538E-006  0.9118800E+02  0.7816164E-02  0.1184000E+00
        -11   -1    0    0    0    0  0.00000000000E+00  0.00000000000E+00  0.45593999997E+02  0.45594000000E+02  0.51100000000E-03 0.  1.
         11   -1    0    0    0    0 -0.00000000000E+00 -0.00000000000E+00 -0.45593999997E+02  0.45594000000E+02  0.51100000000E-03 0. -1.
         23    2    1    2    0    0 -0.17763568394E-14  0.44408920985E-15  0.00000000000E+00  0.91188000000E+02  0.91188000000E+02 0.  0.
    9900012    2    3    3    0    0 -0.15029112518E+02 -0.10909006569E+01  0.33596322977E+02  0.54367119987E+02  0.40000081634E+02 0.  0.
         12    1    3    3    0    0  0.15029112518E+02  0.10909006569E+01 -0.33596322977E+02  0.36820880013E+02  0.00000000000E+00 0. -1.
         11    1    4    4    0    0 -0.72455997180E+00 -0.10088844634E+02  0.77672506088E+01  0.12753037108E+02  0.51100000000E-03 0. -1.
        -11    1    4    4    0    0 -0.98420580660E+01 -0.15838333582E+01  0.28180373044E+02  0.29891605180E+02  0.51100000000E-03 0.  1.
        -12    1    4    4    0    0 -0.44624944805E+01  0.10581777335E+02 -0.23513006749E+01  0.11722477699E+02  0.00000000000E+00 0.  1.
</event>
<event>
 8    1  0.2466538E-006  0.9118800E+02  0.7816164E-02  0.1184000E+00
        -11   -1    0    0    0    0  0.00000000000E+00  0.00000000000E+00  0.45593999997E+02  0.45594000000E+02  0.51100000000E-03 0. -1.
         11   -1    0    0    0    0 -0.00000000000E+00 -0.00000000000E+00 -0.45593999997E+02  0.45594000000E+02  0.51100000000E-03 0.  1.
         23    2    1    2    0    0 -0.17763568394E-14 -0.13322676296E-14  0.00000000000E+00  0.91188000000E+02  0.91188000000E+02 0.  0.
    9900012    2    3    3    0    0 -0.84066964575E+01  0.12011257062E+01  0.35828267551E+02  0.54367081978E+02  0.39999994986E+02 0.  0.
        -12    1    3    3    0    0  0.84066964575E+01 -0.12011257062E+01 -0.35828267551E+02  0.36820918022E+02  0.00000000000E+00 0.  1.
         11    1    4    4    0    0 -0.16588038511E+01 -0.12862592712E+02  0.15969417912E+02  0.20572317084E+02  0.51100000000E-03 0. -1.
        -11    1    4    4    0    0  0.32806272052E+01 -0.47843432287E+01  0.59729311515E+01  0.83263654611E+01  0.51100000000E-03 0.  1.
         12    1    4    4    0    0 -0.10028519812E+02  0.18848061647E+02  0.13885918487E+02  0.25468399433E+02  0.00000000000E+00 0. -1.
</event>
<event>
 8    1  0.2466538E-006  0.9118800E+02  0.7816164E-02  0.1184000E+00
        -11   -1    0    0    0    0  0.00000000000E+00  0.00000000000E+00  0.45593999997E+02  0.45594000000E+02  0.51100000000E-03 0. -1.
         11   -1    0    0    0    0 -0.00000000000E+00 -0.00000000000E+00 -0.45593999997E+02  0.45594000000E+02  0.51100000000E-03 0.  1.
         23    2    1    2    0    0 -0.35527136788E-14  0.00000000000E+00  0.00000000000E+00  0.91188000000E+02  0.91188000000E+02 0.  0.
    9900012    2    3    3    0    0 -0.21427180728E+02  0.10981517519E+02 -0.27857844048E+02  0.54367119023E+02  0.40000079436E+02 0.  0.
         12    1    3    3    0    0  0.21427180728E+02 -0.10981517519E+02  0.27857844048E+02  0.36820880977E+02  0.00000000000E+00 0. -1.
         11    1    4    4    0    0 -0.21155085160E+02  0.80712308709E+01 -0.11285043146E+02  0.25298905015E+02  0.51100000000E-03 0. -1.
        -11    1    4    4    0    0 -0.56164975595E+01  0.11968297385E+02 -0.76395184272E+01  0.15269165963E+02  0.51100000000E-03 0.  1.
        -12    1    4    4    0    0  0.53444019923E+01 -0.90580107367E+01 -0.89332824747E+01  0.13799048045E+02  0.00000000000E+00 0.  1.
</event>
<event>
 8    1  0.2466538E-006  0.9118800E+02  0.7816164E-02  0.1184000E+00
        -11   -1    0    0    0    0  0.00000000000E+00  0.00000000000E+00  0.45593999997E+02  0.45594000000E+02  0.51100000000E-03 0.  1.
         11   -1    0    0    0    0 -0.00000000000E+00 -0.00000000000E+00 -0.45593999997E+02  0.45594000000E+02  0.51100000000E-03 0. -1.
         23    2    1    2    0    0 -0.35527136788E-14 -0.17763568394E-14  0.00000000000E+00  0.91188000000E+02  0.91188000000E+02 0.  0.
    9900012    2    3    3    0    0 -0.22450310889E+02 -0.75001813409E+01  0.28204776224E+02  0.54367101301E+02  0.40000039035E+02 0.  0.
         12    1    3    3    0    0  0.22450310889E+02  0.75001813409E+01 -0.28204776224E+02  0.36820898699E+02  0.00000000000E+00 0. -1.
         11    1    4    4    0    0 -0.24335207800E+02 -0.24340195830E+01  0.10359367365E+01  0.24478561134E+02  0.51100000000E-03 0. -1.
        -11    1    4    4    0    0 -0.32504313081E+01  0.13566411605E+01  0.13360800917E+02  0.13817263851E+02  0.51100000000E-03 0.  1.
         12    1    4    4    0    0  0.51353282190E+01 -0.64228029184E+01  0.13808038571E+02  0.16071276316E+02  0.00000000000E+00 0. -1.
</event>
<event>
 8    1  0.2466538E-006  0.9118800E+02  0.7816164E-02  0.1184000E+00
        -11   -1    0    0    0    0  0.00000000000E+00  0.00000000000E+00  0.45593999997E+02  0.45594000000E+02  0.51100000000E-03 0. -1.
         11   -1    0    0    0    0 -0.00000000000E+00 -0.00000000000E+00 -0.45593999997E+02  0.45594000000E+02  0.51100000000E-03 0.  1.
         23    2    1    2    0    0  0.00000000000E+00  0.00000000000E+00 -0.44408920985E-15  0.91188000000E+02  0.91188000000E+02 0.  0.
    9900012    2    3    3    0    0 -0.36707109884E+02 -0.27429239766E+01 -0.91855955056E+00  0.54367091543E+02  0.40000016791E+02 0.  0.
         12    1    3    3    0    0  0.36707109884E+02  0.27429239766E+01  0.91855955056E+00  0.36820908457E+02  0.00000000000E+00 0. -1.
         11    1    4    4    0    0 -0.44816562505E+01  0.56842846338E+00  0.10275163575E+02  0.11224408244E+02  0.51100000000E-03 0. -1.
        -11    1    4    4    0    0 -0.26591721032E+02  0.77856417491E+01 -0.22145168401E+01  0.27796401385E+02  0.51100000000E-03 0.  1.
        -12    1    4    4    0    0 -0.56337326014E+01 -0.11096994189E+02 -0.89792062859E+01  0.15346281914E+02  0.00000000000E+00 0.  1.
</event>
<event>
 8    1  0.2466538E-006  0.9118800E+02  0.7816164E-02  0.1184000E+00
        -11   -1    0    0    0    0  0.00000000000E+00  0.00000000000E+00  0.45593999997E+02  0.45594000000E+02  0.51100000000E-03 0.  1.
         11   -1    0    0    0    0 -0.00000000000E+00 -0.00000000000E+00 -0.45593999997E+02  0.45594000000E+02  0.51100000000E-03 0. -1.
         23    2    1    2    0    0 -0.35527136788E-14 -0.88817841970E-15  0.00000000000E+00  0.91188000000E+02  0.91188000000E+02 0.  0.
    9900012    2    3    3    0    0 -0.18242017131E+02 -0.56605229771E+01  0.31479627082E+02  0.54367087048E+02  0.40000006544E+02 0.  0.
         12    1    3    3    0    0  0.18242017131E+02  0.56605229771E+01 -0.31479627082E+02  0.36820912952E+02  0.00000000000E+00 0. -1.
         11    1    4    4    0    0  0.18618610096E+01  0.53874873912E+01  0.23800754211E+01  0.61770790897E+01  0.51100000000E-03 0. -1.
        -11    1    4    4    0    0  0.77519549677E+01  0.14340806341E+01  0.62582476717E+01  0.10065538101E+02  0.51100000000E-03 0.  1.
        -12    1    4    4    0    0 -0.27855833109E+02 -0.12482091002E+02  0.22841303989E+02  0.38124469857E+02  0.00000000000E+00 0.  1.
</event>
<event>
 8    1  0.2466538E-006  0.9118800E+02  0.7816164E-02  0.1184000E+00
        -11   -1    0    0    0    0  0.00000000000E+00  0.00000000000E+00  0.45593999997E+02  0.45594000000E+02  0.51100000000E-03 0.  1.
         11   -1    0    0    0    0 -0.00000000000E+00 -0.00000000000E+00 -0.45593999997E+02  0.45594000000E+02  0.51100000000E-03 0. -1.
         23    2    1    2    0    0 -0.35527136788E-14 -0.35527136788E-14 -0.35527136788E-14  0.91188000000E+02  0.91188000000E+02 0.  0.
    9900012    2    3    3    0    0  0.16730759508E+02  0.12387464274E+02  0.30371249467E+02  0.54367076885E+02  0.39999983375E+02 0.  0.
         12    1    3    3    0    0 -0.16730759508E+02 -0.12387464274E+02 -0.30371249467E+02  0.36820923115E+02  0.00000000000E+00 0. -1.
         11    1    4    4    0    0  0.67545808861E-01  0.15123343695E+02 -0.14215032439E+01  0.15190153346E+02  0.51100000000E-03 0. -1.
        -11    1    4    4    0    0  0.73824998450E+00  0.50774189701E+01  0.78822059842E+01  0.94050182283E+01  0.51100000000E-03 0.  1.
        -12    1    4    4    0    0  0.15924963715E+02 -0.78132983906E+01  0.23910546726E+02  0.29771905310E+02  0.00000000000E+00 0.  1.
</event>
<event>
 8    1  0.2466538E-006  0.9118800E+02  0.7816164E-02  0.1184000E+00
        -11   -1    0    0    0    0  0.00000000000E+00  0.00000000000E+00  0.45593999997E+02  0.45594000000E+02  0.51100000000E-03 0. -1.
         11   -1    0    0    0    0 -0.00000000000E+00 -0.00000000000E+00 -0.45593999997E+02  0.45594000000E+02  0.51100000000E-03 0.  1.
         23    2    1    2    0    0  0.00000000000E+00  0.17763568394E-14  0.00000000000E+00  0.91188000000E+02  0.91188000000E+02 0.  0.
    9900012    2    3    3    0    0 -0.36234067629E+02 -0.65459066482E+01  0.16821708313E+00  0.54367016203E+02  0.39999845037E+02 0.  0.
         12    1    3    3    0    0  0.36234067629E+02  0.65459066482E+01 -0.16821708313E+00  0.36820983797E+02  0.00000000000E+00 0. -1.
         11    1    4    4    0    0 -0.69274824508E+01  0.59357596003E+01  0.20318124994E+01  0.93462033699E+01  0.51100000000E-03 0. -1.
        -11    1    4    4    0    0 -0.33148263477E+02 -0.18133878215E+02  0.50574280960E+00  0.37787573179E+02  0.51100000000E-03 0.  1.
         12    1    4    4    0    0  0.38416782985E+01  0.56522119669E+01 -0.23693382259E+01  0.72332396543E+01  0.00000000000E+00 0. -1.
</event>
<event>
 8    1  0.2466538E-006  0.9118800E+02  0.7816164E-02  0.1184000E+00
        -11   -1    0    0    0    0  0.00000000000E+00  0.00000000000E+00  0.45593999997E+02  0.45594000000E+02  0.51100000000E-03 0.  1.
         11   -1    0    0    0    0 -0.00000000000E+00 -0.00000000000E+00 -0.45593999997E+02  0.45594000000E+02  0.51100000000E-03 0. -1.
         23    2    1    2    0    0  0.00000000000E+00  0.00000000000E+00  0.00000000000E+00  0.91188000000E+02  0.91188000000E+02 0.  0.
    9900012    2    3    3    0    0 -0.52011144268E+01 -0.11298192642E+02  0.34656577618E+02  0.54367093976E+02  0.40000022337E+02 0.  0.
         12    1    3    3    0    0  0.52011144268E+01  0.11298192642E+02 -0.34656577618E+02  0.36820906024E+02  0.00000000000E+00 0. -1.
         11    1    4    4    0    0 -0.16107012420E+02  0.45764661940E+01  0.27471559736E+02  0.32172449184E+02  0.51100000000E-03 0. -1.
        -11    1    4    4    0    0  0.13140376060E+01 -0.49599286729E+01  0.55724574760E+01  0.75749501552E+01  0.51100000000E-03 0.  1.
         12    1    4    4    0    0  0.95918603870E+01 -0.10914730163E+02  0.16125604056E+01  0.14619694637E+02  0.00000000000E+00 0. -1.
</event>
<event>
 8    1  0.2466538E-006  0.9118800E+02  0.7816164E-02  0.1184000E+00
        -11   -1    0    0    0    0  0.00000000000E+00  0.00000000000E+00  0.45593999997E+02  0.45594000000E+02  0.51100000000E-03 0. -1.
         11   -1    0    0    0    0 -0.00000000000E+00 -0.00000000000E+00 -0.45593999997E+02  0.45594000000E+02  0.51100000000E-03 0.  1.
         23    2    1    2    0    0  0.00000000000E+00 -0.24424906542E-14  0.00000000000E+00  0.91188000000E+02  0.91188000000E+02 0.  0.
    9900012    2    3    3    0    0  0.50060840560E+01 -0.39908599527E+00  0.36476830455E+02  0.54367091439E+02  0.40000016554E+02 0.  0.
        -12    1    3    3    0    0 -0.50060840560E+01  0.39908599527E+00 -0.36476830455E+02  0.36820908561E+02  0.00000000000E+00 0.  1.
         11    1    4    4    0    0  0.59306014011E+01 -0.28261374533E+00  0.12801148754E+02  0.14111035156E+02  0.51100000000E-03 0. -1.
        -11    1    4    4    0    0 -0.56347771581E+01  0.12777921831E+02  0.22495298822E+02  0.26477622048E+02  0.51100000000E-03 0.  1.
        -12    1    4    4    0    0  0.47102598129E+01 -0.12894394081E+02  0.11803828789E+01  0.13778434235E+02  0.00000000000E+00 0.  1.
</event>
<event>
 8    1  0.2466538E-006  0.9118800E+02  0.7816164E-02  0.1184000E+00
        -11   -1    0    0    0    0  0.00000000000E+00  0.00000000000E+00  0.45593999997E+02  0.45594000000E+02  0.51100000000E-03 0. -1.
         11   -1    0    0    0    0 -0.00000000000E+00 -0.00000000000E+00 -0.45593999997E+02  0.45594000000E+02  0.51100000000E-03 0.  1.
         23    2    1    2    0    0  0.00000000000E+00  0.17763568394E-14  0.00000000000E+00  0.91188000000E+02  0.91188000000E+02 0.  0.
    9900012    2    3    3    0    0  0.16470942449E+02 -0.15500358187E+02  0.29055567566E+02  0.54367094856E+02  0.40000024342E+02 0.  0.
        -12    1    3    3    0    0 -0.16470942449E+02  0.15500358187E+02 -0.29055567566E+02  0.36820905144E+02  0.00000000000E+00 0.  1.
         11    1    4    4    0    0  0.15320116944E+02 -0.58837677574E+01  0.21206655231E+02  0.26815050485E+02  0.51100000000E-03 0. -1.
        -11    1    4    4    0    0 -0.22236546911E+01  0.74385370496E+01  0.64795932663E+01  0.10112447912E+02  0.51100000000E-03 0.  1.
        -12    1    4    4    0    0  0.33744801965E+01 -0.17055127479E+02  0.13693190694E+01  0.17439596458E+02  0.00000000000E+00 0.  1.
</event>
<event>
 8    1  0.2466538E-006  0.9118800E+02  0.7816164E-02  0.1184000E+00
        -11   -1    0    0    0    0  0.00000000000E+00  0.00000000000E+00  0.45593999997E+02  0.45594000000E+02  0.51100000000E-03 0.  1.
         11   -1    0    0    0    0 -0.00000000000E+00 -0.00000000000E+00 -0.45593999997E+02  0.45594000000E+02  0.51100000000E-03 0. -1.
         23    2    1    2    0    0  0.00000000000E+00  0.00000000000E+00  0.17763568394E-14  0.91188000000E+02  0.91188000000E+02 0.  0.
    9900012    2    3    3    0    0  0.34475991499E+02 -0.33543256280E+01 -0.12487431064E+02  0.54367062684E+02  0.39999951000E+02 0.  0.
        -12    1    3    3    0    0 -0.34475991499E+02  0.33543256280E+01  0.12487431064E+02  0.36820937316E+02  0.00000000000E+00 0.  1.
         11    1    4    4    0    0  0.14653811399E+02  0.13243466513E+02 -0.17546643781E+02  0.26419846745E+02  0.51100000000E-03 0. -1.
        -11    1    4    4    0    0  0.34983993311E+01 -0.86479606077E+01  0.17230066582E+01  0.94865574766E+01  0.51100000000E-03 0.  1.
         12    1    4    4    0    0  0.16323780769E+02 -0.79498315328E+01  0.33362060585E+01  0.18460658462E+02  0.00000000000E+00 0. -1.
</event>
<event>
 8    1  0.2466538E-006  0.9118800E+02  0.7816164E-02  0.1184000E+00
        -11   -1    0    0    0    0  0.00000000000E+00  0.00000000000E+00  0.45593999997E+02  0.45594000000E+02  0.51100000000E-03 0. -1.
         11   -1    0    0    0    0 -0.00000000000E+00 -0.00000000000E+00 -0.45593999997E+02  0.45594000000E+02  0.51100000000E-03 0.  1.
         23    2    1    2    0    0  0.00000000000E+00  0.00000000000E+00  0.00000000000E+00  0.91188000000E+02  0.91188000000E+02 0.  0.
    9900012    2    3    3    0    0 -0.99637023911E+01 -0.98459212890E+01  0.34052346047E+02  0.54367084711E+02  0.40000001217E+02 0.  0.
        -12    1    3    3    0    0  0.99637023911E+01  0.98459212890E+01 -0.34052346047E+02  0.36820915289E+02  0.00000000000E+00 0.  1.
         11    1    4    4    0    0  0.51682602054E+01 -0.60496090012E+01  0.28437188323E+02  0.29529347480E+02  0.51100000000E-03 0. -1.
        -11    1    4    4    0    0 -0.12804315403E+02 -0.56954151764E+01  0.11566851784E+02  0.18170864245E+02  0.51100000000E-03 0.  1.
         12    1    4    4    0    0 -0.23276471938E+01  0.18991028886E+01 -0.59516940596E+01  0.66668729865E+01  0.00000000000E+00 0. -1.
</event>
<event>
 8    1  0.2466538E-006  0.9118800E+02  0.7816164E-02  0.1184000E+00
        -11   -1    0    0    0    0  0.00000000000E+00  0.00000000000E+00  0.45593999997E+02  0.45594000000E+02  0.51100000000E-03 0.  1.
         11   -1    0    0    0    0 -0.00000000000E+00 -0.00000000000E+00 -0.45593999997E+02  0.45594000000E+02  0.51100000000E-03 0. -1.
         23    2    1    2    0    0  0.00000000000E+00 -0.17763568394E-14 -0.88817841970E-15  0.91188000000E+02  0.91188000000E+02 0.  0.
    9900012    2    3    3    0    0 -0.33178966181E+02 -0.14038751395E+02 -0.76060081128E+01  0.54367058989E+02  0.39999942576E+02 0.  0.
        -12    1    3    3    0    0  0.33178966181E+02  0.14038751395E+02  0.76060081128E+01  0.36820941011E+02  0.00000000000E+00 0.  1.
         11    1    4    4    0    0 -0.19955455474E+01 -0.55706635749E+01 -0.17933293936E+01  0.61830837995E+01  0.51100000000E-03 0. -1.
        -11    1    4    4    0    0 -0.45278620793E+01  0.11357287550E+02 -0.84454853651E+01  0.14859870081E+02  0.51100000000E-03 0.  1.
         12    1    4    4    0    0 -0.26655558554E+02 -0.19825375371E+02  0.26328066460E+01  0.33324105108E+02  0.00000000000E+00 0. -1.
</event>
<event>
 8    1  0.2466538E-006  0.9118800E+02  0.7816164E-02  0.1184000E+00
        -11   -1    0    0    0    0  0.00000000000E+00  0.00000000000E+00  0.45593999997E+02  0.45594000000E+02  0.51100000000E-03 0.  1.
         11   -1    0    0    0    0 -0.00000000000E+00 -0.00000000000E+00 -0.45593999997E+02  0.45594000000E+02  0.51100000000E-03 0. -1.
         23    2    1    2    0    0  0.35527136788E-14 -0.17763568394E-14  0.00000000000E+00  0.91188000000E+02  0.91188000000E+02 0.  0.
    9900012    2    3    3    0    0 -0.25199346046E+02  0.81394412973E+01 -0.25583974902E+02  0.54366846873E+02  0.39999459013E+02 0.  0.
        -12    1    3    3    0    0  0.25199346046E+02 -0.81394412973E+01  0.25583974902E+02  0.36821153127E+02  0.00000000000E+00 0.  1.
         11    1    4    4    0    0 -0.26117856105E+02  0.45150257313E+01 -0.14860340848E+02  0.30386799688E+02  0.51100000000E-03 0. -1.
        -11    1    4    4    0    0 -0.85772034199E+01  0.66721071346E+01 -0.27441518348E+01  0.11207845541E+02  0.51100000000E-03 0.  1.
        -12    1    4    4    0    0  0.94957134785E+01 -0.30476915686E+01 -0.79794822192E+01  0.12772201645E+02  0.00000000000E+00 0.  1.
</event>
<event>
 8    1  0.2466538E-006  0.9118800E+02  0.7816164E-02  0.1184000E+00
        -11   -1    0    0    0    0  0.00000000000E+00  0.00000000000E+00  0.45593999997E+02  0.45594000000E+02  0.51100000000E-03 0. -1.
         11   -1    0    0    0    0 -0.00000000000E+00 -0.00000000000E+00 -0.45593999997E+02  0.45594000000E+02  0.51100000000E-03 0.  1.
         23    2    1    2    0    0  0.13322676296E-14  0.88817841970E-15  0.00000000000E+00  0.91188000000E+02  0.91188000000E+02 0.  0.
    9900012    2    3    3    0    0  0.21098757136E+01 -0.63530120024E+01  0.36207278907E+02  0.54367090412E+02  0.40000014213E+02 0.  0.
        -12    1    3    3    0    0 -0.21098757136E+01  0.63530120024E+01 -0.36207278907E+02  0.36820909588E+02  0.00000000000E+00 0.  1.
         11    1    4    4    0    0 -0.12105328783E+02 -0.50205036918E+01  0.68090821465E+01  0.14768481377E+02  0.51100000000E-03 0.  1.
        -11    1    4    4    0    0  0.94357023207E+01  0.90633628099E+01  0.80057978057E+01  0.15338507831E+02  0.51100000000E-03 0. -1.
        -12    1    4    4    0    0  0.47795021757E+01 -0.10395871121E+02  0.21392398954E+02  0.24260101204E+02  0.00000000000E+00 0.  1.
</event>
<event>
 8    1  0.2466538E-006  0.9118800E+02  0.7816164E-02  0.1184000E+00
        -11   -1    0    0    0    0  0.00000000000E+00  0.00000000000E+00  0.45593999997E+02  0.45594000000E+02  0.51100000000E-03 0. -1.
         11   -1    0    0    0    0 -0.00000000000E+00 -0.00000000000E+00 -0.45593999997E+02  0.45594000000E+02  0.51100000000E-03 0.  1.
         23    2    1    2    0    0  0.00000000000E+00  0.71054273576E-14  0.44408920985E-15  0.91188000000E+02  0.91188000000E+02 0.  0.
    9900012    2    3    3    0    0  0.11139694515E+02 -0.35065530766E+02  0.14471453680E+01  0.54367102788E+02  0.40000042427E+02 0.  0.
        -12    1    3    3    0    0 -0.11139694515E+02  0.35065530766E+02 -0.14471453680E+01  0.36820897212E+02  0.00000000000E+00 0.  1.
         11    1    4    4    0    0  0.91049797056E+00 -0.17091893796E+02 -0.11303665563E+01  0.17153412748E+02  0.51100000000E-03 0. -1.
        -11    1    4    4    0    0  0.60512818179E+01  0.72127914751E+01 -0.48957159094E+01  0.10611805079E+02  0.51100000000E-03 0.  1.
         12    1    4    4    0    0  0.41779147263E+01 -0.25186428445E+02  0.74732278337E+01  0.26601884962E+02  0.00000000000E+00 0. -1.
</event>
<event>
 8    1  0.2466538E-006  0.9118800E+02  0.7816164E-02  0.1184000E+00
        -11   -1    0    0    0    0  0.00000000000E+00  0.00000000000E+00  0.45593999997E+02  0.45594000000E+02  0.51100000000E-03 0.  1.
         11   -1    0    0    0    0 -0.00000000000E+00 -0.00000000000E+00 -0.45593999997E+02  0.45594000000E+02  0.51100000000E-03 0. -1.
         23    2    1    2    0    0 -0.17763568394E-14 -0.44408920985E-15 -0.71054273576E-14  0.91188000000E+02  0.91188000000E+02 0.  0.
    9900012    2    3    3    0    0  0.14333120109E+02 -0.23932137916E+01  0.33832151306E+02  0.54367078416E+02  0.39999986865E+02 0.  0.
         12    1    3    3    0    0 -0.14333120109E+02  0.23932137916E+01 -0.33832151306E+02  0.36820921584E+02  0.00000000000E+00 0. -1.
         11    1    4    4    0    0  0.23716036258E+01  0.11456579154E-01  0.15148549667E+02  0.15333075109E+02  0.51100000000E-03 0. -1.
        -11    1    4    4    0    0  0.16900750639E+02  0.15225863422E+01  0.24928536044E+02  0.30156020143E+02  0.51100000000E-03 0.  1.
         12    1    4    4    0    0 -0.49392341555E+01 -0.39272567130E+01 -0.62449344052E+01  0.88779831638E+01  0.00000000000E+00 0. -1.
</event>
<event>
 8    1  0.2466538E-006  0.9118800E+02  0.7816164E-02  0.1184000E+00
        -11   -1    0    0    0    0  0.00000000000E+00  0.00000000000E+00  0.45593999997E+02  0.45594000000E+02  0.51100000000E-03 0. -1.
         11   -1    0    0    0    0 -0.00000000000E+00 -0.00000000000E+00 -0.45593999997E+02  0.45594000000E+02  0.51100000000E-03 0.  1.
         23    2    1    2    0    0 -0.77715611724E-15  0.88817841970E-15 -0.71054273576E-14  0.91188000000E+02  0.91188000000E+02 0.  0.
    9900012    2    3    3    0    0 -0.87855604524E+00  0.32146185922E+01  0.36669816285E+02  0.54367067641E+02  0.39999962301E+02 0.  0.
        -12    1    3    3    0    0  0.87855604524E+00 -0.32146185922E+01 -0.36669816285E+02  0.36820932359E+02  0.00000000000E+00 0.  1.
         11    1    4    4    0    0 -0.66037506454E+01 -0.46880553712E+01 -0.47163377899E+01  0.93718316331E+01  0.51100000000E-03 0. -1.
        -11    1    4    4    0    0 -0.39221286631E+01  0.68316329632E+01  0.20585390609E+02  0.22041157161E+02  0.51100000000E-03 0.  1.
         12    1    4    4    0    0  0.96473232632E+01  0.10710410001E+01  0.20800763466E+02  0.22954078847E+02  0.00000000000E+00 0. -1.
</event>
<event>
 8    1  0.2466538E-006  0.9118800E+02  0.7816164E-02  0.1184000E+00
        -11   -1    0    0    0    0  0.00000000000E+00  0.00000000000E+00  0.45593999997E+02  0.45594000000E+02  0.51100000000E-03 0. -1.
         11   -1    0    0    0    0 -0.00000000000E+00 -0.00000000000E+00 -0.45593999997E+02  0.45594000000E+02  0.51100000000E-03 0.  1.
         23    2    1    2    0    0 -0.17763568394E-14  0.00000000000E+00  0.00000000000E+00  0.91188000000E+02  0.91188000000E+02 0.  0.
    9900012    2    3    3    0    0  0.15103105076E+02 -0.20618914647E+02  0.26505401478E+02  0.54367085676E+02  0.40000003415E+02 0.  0.
        -12    1    3    3    0    0 -0.15103105076E+02  0.20618914647E+02 -0.26505401478E+02  0.36820914324E+02  0.00000000000E+00 0.  1.
         11    1    4    4    0    0  0.13088427505E+02 -0.98276989818E+01  0.18846494425E+02  0.24961589577E+02  0.51100000000E-03 0.  1.
        -11    1    4    4    0    0  0.75669846374E+00  0.75180586399E+01  0.80609516569E+01  0.11048653319E+02  0.51100000000E-03 0. -1.
        -12    1    4    4    0    0  0.12579791072E+01 -0.18309274305E+02 -0.40204460341E+00  0.18356842780E+02  0.00000000000E+00 0.  1.
</event>
<event>
 8    1  0.2466538E-006  0.9118800E+02  0.7816164E-02  0.1184000E+00
        -11   -1    0    0    0    0  0.00000000000E+00  0.00000000000E+00  0.45593999997E+02  0.45594000000E+02  0.51100000000E-03 0. -1.
         11   -1    0    0    0    0 -0.00000000000E+00 -0.00000000000E+00 -0.45593999997E+02  0.45594000000E+02  0.51100000000E-03 0.  1.
         23    2    1    2    0    0  0.35527136788E-14  0.00000000000E+00 -0.35527136788E-14  0.91188000000E+02  0.91188000000E+02 0.  0.
    9900012    2    3    3    0    0 -0.23349175724E+02  0.22675822718E+02  0.17216156690E+02  0.54367177167E+02  0.40000211987E+02 0.  0.
        -12    1    3    3    0    0  0.23349175724E+02 -0.22675822718E+02 -0.17216156690E+02  0.36820822833E+02  0.00000000000E+00 0.  1.
         11    1    4    4    0    0 -0.81003034053E+01  0.18988996596E+02  0.13646714049E+02  0.24747317260E+02  0.51100000000E-03 0. -1.
        -11    1    4    4    0    0 -0.18809479112E+02 -0.38499498526E+01  0.72304521596E+01  0.20515800180E+02  0.51100000000E-03 0.  1.
        -12    1    4    4    0    0  0.35606067929E+01  0.75367759746E+01 -0.36610095179E+01  0.91040597272E+01  0.00000000000E+00 0.  1.
</event>
<event>
 8    1  0.2466538E-006  0.9118800E+02  0.7816164E-02  0.1184000E+00
        -11   -1    0    0    0    0  0.00000000000E+00  0.00000000000E+00  0.45593999997E+02  0.45594000000E+02  0.51100000000E-03 0. -1.
         11   -1    0    0    0    0 -0.00000000000E+00 -0.00000000000E+00 -0.45593999997E+02  0.45594000000E+02  0.51100000000E-03 0.  1.
         23    2    1    2    0    0  0.00000000000E+00 -0.35527136788E-14  0.22204460493E-15  0.91188000000E+02  0.91188000000E+02 0.  0.
    9900012    2    3    3    0    0  0.25545863743E+02  0.26469016164E+02  0.16063991435E+01  0.54367075388E+02  0.39999979961E+02 0.  0.
        -12    1    3    3    0    0 -0.25545863743E+02 -0.26469016164E+02 -0.16063991435E+01  0.36820924612E+02  0.00000000000E+00 0.  1.
         11    1    4    4    0    0  0.18399836130E+02  0.11673097664E+02 -0.48961501270E-01  0.21790309226E+02  0.51100000000E-03 0. -1.
        -11    1    4    4    0    0  0.12435769903E+02  0.20614528145E+02 -0.14581153635E+01  0.24119146843E+02  0.51100000000E-03 0.  1.
        -12    1    4    4    0    0 -0.52897422898E+01 -0.58186096449E+01  0.31134760083E+01  0.84576193190E+01  0.00000000000E+00 0.  1.
</event>
<event>
 8    1  0.2466538E-006  0.9118800E+02  0.7816164E-02  0.1184000E+00
        -11   -1    0    0    0    0  0.00000000000E+00  0.00000000000E+00  0.45593999997E+02  0.45594000000E+02  0.51100000000E-03 0. -1.
         11   -1    0    0    0    0 -0.00000000000E+00 -0.00000000000E+00 -0.45593999997E+02  0.45594000000E+02  0.51100000000E-03 0.  1.
         23    2    1    2    0    0  0.00000000000E+00  0.00000000000E+00  0.00000000000E+00  0.91188000000E+02  0.91188000000E+02 0.  0.
    9900012    2    3    3    0    0  0.80134825199E+01 -0.30512766622E+02 -0.18987736425E+02  0.54367096106E+02  0.40000027193E+02 0.  0.
         12    1    3    3    0    0 -0.80134825199E+01  0.30512766622E+02  0.18987736425E+02  0.36820903894E+02  0.00000000000E+00 0. -1.
         11    1    4    4    0    0  0.35835666827E+01 -0.42124065024E+00  0.40228057188E+01  0.54039207958E+01  0.51100000000E-03 0. -1.
        -11    1    4    4    0    0 -0.12515946048E+02 -0.17829792833E+02 -0.15512796697E+02  0.26743172578E+02  0.51100000000E-03 0.  1.
        -12    1    4    4    0    0  0.16945861885E+02 -0.12261733139E+02 -0.74977454465E+01  0.22220002732E+02  0.00000000000E+00 0.  1.
</event>
<event>
 8    1  0.2466538E-006  0.9118800E+02  0.7816164E-02  0.1184000E+00
        -11   -1    0    0    0    0  0.00000000000E+00  0.00000000000E+00  0.45593999997E+02  0.45594000000E+02  0.51100000000E-03 0. -1.
         11   -1    0    0    0    0 -0.00000000000E+00 -0.00000000000E+00 -0.45593999997E+02  0.45594000000E+02  0.51100000000E-03 0.  1.
         23    2    1    2    0    0  0.00000000000E+00  0.00000000000E+00 -0.35527136788E-14  0.91188000000E+02  0.91188000000E+02 0.  0.
    9900012    2    3    3    0    0  0.54266120228E+01 -0.23934717628E+02 -0.27449234648E+02  0.54367091419E+02  0.40000016507E+02 0.  0.
         12    1    3    3    0    0 -0.54266120228E+01  0.23934717628E+02  0.27449234648E+02  0.36820908581E+02  0.00000000000E+00 0. -1.
         11    1    4    4    0    0 -0.19060030801E+01  0.57186179848E+01  0.21127446010E+01  0.63874196204E+01  0.51100000000E-03 0. -1.
        -11    1    4    4    0    0 -0.50763575594E+01 -0.21546049334E+02 -0.12666620896E+02  0.25503821932E+02  0.51100000000E-03 0.  1.
        -12    1    4    4    0    0  0.12408972662E+02 -0.81072862796E+01 -0.16895358353E+02  0.22475849866E+02  0.00000000000E+00 0.  1.
</event>
<event>
 8    1  0.2466538E-006  0.9118800E+02  0.7816164E-02  0.1184000E+00
        -11   -1    0    0    0    0  0.00000000000E+00  0.00000000000E+00  0.45593999997E+02  0.45594000000E+02  0.51100000000E-03 0.  1.
         11   -1    0    0    0    0 -0.00000000000E+00 -0.00000000000E+00 -0.45593999997E+02  0.45594000000E+02  0.51100000000E-03 0. -1.
         23    2    1    2    0    0  0.00000000000E+00 -0.17763568394E-14  0.00000000000E+00  0.91188000000E+02  0.91188000000E+02 0.  0.
    9900012    2    3    3    0    0 -0.45404505061E+01 -0.11034184731E+02 -0.34834043488E+02  0.54367088697E+02  0.40000010303E+02 0.  0.
        -12    1    3    3    0    0  0.45404505061E+01  0.11034184731E+02  0.34834043488E+02  0.36820911303E+02  0.00000000000E+00 0.  1.
         11    1    4    4    0    0 -0.17501608072E+01 -0.47552971920E+01 -0.34122763136E+02  0.34496940133E+02  0.51100000000E-03 0. -1.
        -11    1    4    4    0    0 -0.96991233102E+00 -0.10521449620E+02 -0.65463395220E+01  0.12429649771E+02  0.51100000000E-03 0.  1.
         12    1    4    4    0    0 -0.18203773679E+01  0.42425620808E+01  0.58350591703E+01  0.74404987932E+01  0.00000000000E+00 0. -1.
</event>
<event>
 8    1  0.2466538E-006  0.9118800E+02  0.7816164E-02  0.1184000E+00
        -11   -1    0    0    0    0  0.00000000000E+00  0.00000000000E+00  0.45593999997E+02  0.45594000000E+02  0.51100000000E-03 0. -1.
         11   -1    0    0    0    0 -0.00000000000E+00 -0.00000000000E+00 -0.45593999997E+02  0.45594000000E+02  0.51100000000E-03 0.  1.
         23    2    1    2    0    0  0.00000000000E+00  0.17763568394E-14  0.00000000000E+00  0.91188000000E+02  0.91188000000E+02 0.  0.
    9900012    2    3    3    0    0  0.22200646388E+02 -0.68207404111E+01 -0.28572315273E+02  0.54367239554E+02  0.40000354209E+02 0.  0.
         12    1    3    3    0    0 -0.22200646388E+02  0.68207404111E+01  0.28572315273E+02  0.36820760446E+02  0.00000000000E+00 0. -1.
         11    1    4    4    0    0  0.33527582284E+01  0.42962239218E+01 -0.29928048930E+01  0.62173474338E+01  0.51100000000E-03 0. -1.
        -11    1    4    4    0    0 -0.75535790179E+01 -0.11317285725E+02 -0.13317164386E+02  0.19039022552E+02  0.51100000000E-03 0.  1.
         12    1    4    4    0    0  0.26401467177E+02  0.20032139220E+00 -0.12262345993E+02  0.29110869568E+02  0.00000000000E+00 0. -1.
</event>
<event>
 8    1  0.2466538E-006  0.9118800E+02  0.7816164E-02  0.1184000E+00
        -11   -1    0    0    0    0  0.00000000000E+00  0.00000000000E+00  0.45593999997E+02  0.45594000000E+02  0.51100000000E-03 0. -1.
         11   -1    0    0    0    0 -0.00000000000E+00 -0.00000000000E+00 -0.45593999997E+02  0.45594000000E+02  0.51100000000E-03 0.  1.
         23    2    1    2    0    0  0.00000000000E+00  0.35527136788E-14 -0.35527136788E-14  0.91188000000E+02  0.91188000000E+02 0.  0.
    9900012    2    3    3    0    0  0.10348485373E+02  0.20237888202E+02  0.28967523797E+02  0.54367072481E+02  0.39999973336E+02 0.  0.
        -12    1    3    3    0    0 -0.10348485373E+02 -0.20237888202E+02 -0.28967523797E+02  0.36820927519E+02  0.00000000000E+00 0.  1.
         11    1    4    4    0    0  0.12795756741E+02  0.35895323784E+00  0.10661039999E+01  0.12845108642E+02  0.51100000000E-03 0.  1.
        -11    1    4    4    0    0 -0.20672128930E+01  0.24790525004E+02  0.26614407449E+02  0.36430347009E+02  0.51100000000E-03 0. -1.
        -12    1    4    4    0    0 -0.38005847498E+00 -0.49115900397E+01  0.12870123484E+01  0.50916168304E+01  0.00000000000E+00 0.  1.
</event>
<event>
 8    1  0.2466538E-006  0.9118800E+02  0.7816164E-02  0.1184000E+00
        -11   -1    0    0    0    0  0.00000000000E+00  0.00000000000E+00  0.45593999997E+02  0.45594000000E+02  0.51100000000E-03 0.  1.
         11   -1    0    0    0    0 -0.00000000000E+00 -0.00000000000E+00 -0.45593999997E+02  0.45594000000E+02  0.51100000000E-03 0. -1.
         23    2    1    2    0    0  0.00000000000E+00  0.35527136788E-14 -0.35527136788E-14  0.91188000000E+02  0.91188000000E+02 0.  0.
    9900012    2    3    3    0    0  0.21811753099E+02  0.25587537576E+02 -0.15010203021E+02  0.54367070528E+02  0.39999968882E+02 0.  0.
         12    1    3    3    0    0 -0.21811753099E+02 -0.25587537576E+02  0.15010203021E+02  0.36820929472E+02  0.00000000000E+00 0. -1.
         11    1    4    4    0    0  0.31535910949E+01  0.15184814683E+02  0.71659948127E+01  0.17084355875E+02  0.51100000000E-03 0.  1.
        -11    1    4    4    0    0  0.12386538868E+02  0.85429387970E+01 -0.25753414681E+02  0.29826942793E+02  0.51100000000E-03 0. -1.
         12    1    4    4    0    0  0.62716231359E+01  0.18597840960E+01  0.35772168468E+01  0.74557718588E+01  0.00000000000E+00 0. -1.
</event>
<event>
 8    1  0.2466538E-006  0.9118800E+02  0.7816164E-02  0.1184000E+00
        -11   -1    0    0    0    0  0.00000000000E+00  0.00000000000E+00  0.45593999997E+02  0.45594000000E+02  0.51100000000E-03 0.  1.
         11   -1    0    0    0    0 -0.00000000000E+00 -0.00000000000E+00 -0.45593999997E+02  0.45594000000E+02  0.51100000000E-03 0. -1.
         23    2    1    2    0    0  0.22204460493E-15  0.35527136788E-14  0.00000000000E+00  0.91188000000E+02  0.91188000000E+02 0.  0.
    9900012    2    3    3    0    0  0.15701741199E+01 -0.31394012698E+02  0.19176308027E+02  0.54367078371E+02  0.39999986762E+02 0.  0.
         12    1    3    3    0    0 -0.15701741199E+01  0.31394012698E+02 -0.19176308027E+02  0.36820921629E+02  0.00000000000E+00 0. -1.
         11    1    4    4    0    0  0.48375579509E+01  0.31673088970E+01  0.15935613549E+01  0.59977704717E+01  0.51100000000E-03 0. -1.
        -11    1    4    4    0    0  0.10131492010E+02 -0.28215740863E+02  0.14152090123E+02  0.33152025849E+02  0.51100000000E-03 0.  1.
         12    1    4    4    0    0 -0.13398875841E+02 -0.63455807320E+01  0.34306565497E+01  0.15217282050E+02  0.00000000000E+00 0. -1.
</event>
<event>
 8    1  0.2466538E-006  0.9118800E+02  0.7816164E-02  0.1184000E+00
        -11   -1    0    0    0    0  0.00000000000E+00  0.00000000000E+00  0.45593999997E+02  0.45594000000E+02  0.51100000000E-03 0.  1.
         11   -1    0    0    0    0 -0.00000000000E+00 -0.00000000000E+00 -0.45593999997E+02  0.45594000000E+02  0.51100000000E-03 0. -1.
         23    2    1    2    0    0 -0.35527136788E-14  0.16653345369E-15 -0.71054273576E-14  0.91188000000E+02  0.91188000000E+02 0.  0.
    9900012    2    3    3    0    0 -0.22134337501E+02 -0.30518794202E+00 -0.29423763886E+02  0.54367083152E+02  0.39999997663E+02 0.  0.
        -12    1    3    3    0    0  0.22134337501E+02  0.30518794202E+00  0.29423763886E+02  0.36820916848E+02  0.00000000000E+00 0.  1.
         11    1    4    4    0    0 -0.62192788802E+01  0.19184025372E+02 -0.13320738125E+02  0.24169160592E+02  0.51100000000E-03 0.  1.
        -11    1    4    4    0    0 -0.15816716653E+01 -0.38417595211E+01 -0.40089939641E+01  0.57734594777E+01  0.51100000000E-03 0. -1.
        -12    1    4    4    0    0 -0.14333386955E+02 -0.15647453793E+02 -0.12094031796E+02  0.24424463083E+02  0.00000000000E+00 0.  1.
</event>
<event>
 8    1  0.2466538E-006  0.9118800E+02  0.7816164E-02  0.1184000E+00
        -11   -1    0    0    0    0  0.00000000000E+00  0.00000000000E+00  0.45593999997E+02  0.45594000000E+02  0.51100000000E-03 0. -1.
         11   -1    0    0    0    0 -0.00000000000E+00 -0.00000000000E+00 -0.45593999997E+02  0.45594000000E+02  0.51100000000E-03 0.  1.
         23    2    1    2    0    0  0.00000000000E+00 -0.71054273576E-14  0.17763568394E-14  0.91188000000E+02  0.91188000000E+02 0.  0.
    9900012    2    3    3    0    0  0.12725465122E+02 -0.32394556626E+02  0.12018092007E+02  0.54367091578E+02  0.40000016869E+02 0.  0.
         12    1    3    3    0    0 -0.12725465122E+02  0.32394556626E+02 -0.12018092007E+02  0.36820908422E+02  0.00000000000E+00 0. -1.
         11    1    4    4    0    0  0.46286454937E+01  0.50178257518E+00  0.53308443089E+01  0.70777147559E+01  0.51100000000E-03 0. -1.
        -11    1    4    4    0    0  0.78991929057E+01 -0.36324000199E+02 -0.27227834826E+01  0.37272560808E+02  0.51100000000E-03 0.  1.
        -12    1    4    4    0    0  0.19762672263E+00  0.34276609979E+01  0.94100311805E+01  0.10016816014E+02  0.00000000000E+00 0.  1.
</event>
<event>
 8    1  0.2466538E-006  0.9118800E+02  0.7816164E-02  0.1184000E+00
        -11   -1    0    0    0    0  0.00000000000E+00  0.00000000000E+00  0.45593999997E+02  0.45594000000E+02  0.51100000000E-03 0.  1.
         11   -1    0    0    0    0 -0.00000000000E+00 -0.00000000000E+00 -0.45593999997E+02  0.45594000000E+02  0.51100000000E-03 0. -1.
         23    2    1    2    0    0  0.22204460493E-15  0.00000000000E+00  0.44408920985E-15  0.91188000000E+02  0.91188000000E+02 0.  0.
    9900012    2    3    3    0    0  0.19809585719E+01  0.36683366987E+02 -0.24874128814E+01  0.54367070718E+02  0.39999969315E+02 0.  0.
        -12    1    3    3    0    0 -0.19809585719E+01 -0.36683366987E+02  0.24874128814E+01  0.36820929282E+02  0.00000000000E+00 0.  1.
         11    1    4    4    0    0  0.12009477438E+01  0.83092781819E+01 -0.27424954453E+00  0.84000947888E+01  0.51100000000E-03 0. -1.
        -11    1    4    4    0    0  0.75238055259E+00  0.25336028887E+02  0.14350076595E+02  0.29127394920E+02  0.51100000000E-03 0.  1.
         12    1    4    4    0    0  0.27630275508E-01  0.30380599177E+01 -0.16563239932E+02  0.16839581009E+02  0.00000000000E+00 0. -1.
</event>
<event>
 8    1  0.2466538E-006  0.9118800E+02  0.7816164E-02  0.1184000E+00
        -11   -1    0    0    0    0  0.00000000000E+00  0.00000000000E+00  0.45593999997E+02  0.45594000000E+02  0.51100000000E-03 0. -1.
         11   -1    0    0    0    0 -0.00000000000E+00 -0.00000000000E+00 -0.45593999997E+02  0.45594000000E+02  0.51100000000E-03 0.  1.
         23    2    1    2    0    0 -0.35527136788E-14  0.00000000000E+00 -0.71054273576E-14  0.91188000000E+02  0.91188000000E+02 0.  0.
    9900012    2    3    3    0    0  0.16566101365E+02 -0.31857252292E+01 -0.32729125539E+02  0.54367079069E+02  0.39999988353E+02 0.  0.
         12    1    3    3    0    0 -0.16566101365E+02  0.31857252292E+01  0.32729125539E+02  0.36820920931E+02  0.00000000000E+00 0. -1.
         11    1    4    4    0    0  0.18979816481E+02 -0.37651444658E+01 -0.12667345051E+02  0.23127286426E+02  0.51100000000E-03 0. -1.
        -11    1    4    4    0    0 -0.40905647344E+01 -0.74916371771E+01 -0.21260244011E+02  0.22909721149E+02  0.51100000000E-03 0.  1.
        -12    1    4    4    0    0  0.16768496179E+01  0.80710564138E+01  0.11984635234E+01  0.83300714938E+01  0.00000000000E+00 0.  1.
</event>
<event>
 8    1  0.2466538E-006  0.9118800E+02  0.7816164E-02  0.1184000E+00
        -11   -1    0    0    0    0  0.00000000000E+00  0.00000000000E+00  0.45593999997E+02  0.45594000000E+02  0.51100000000E-03 0. -1.
         11   -1    0    0    0    0 -0.00000000000E+00 -0.00000000000E+00 -0.45593999997E+02  0.45594000000E+02  0.51100000000E-03 0.  1.
         23    2    1    2    0    0 -0.71054273576E-14  0.17763568394E-14 -0.35527136788E-14  0.91188000000E+02  0.91188000000E+02 0.  0.
    9900012    2    3    3    0    0 -0.32276177689E+02  0.14788407625E+02 -0.97637987652E+01  0.54367076429E+02  0.39999982335E+02 0.  0.
         12    1    3    3    0    0  0.32276177689E+02 -0.14788407625E+02  0.97637987652E+01  0.36820923571E+02  0.00000000000E+00 0. -1.
         11    1    4    4    0    0 -0.10376759941E+02 -0.24878989619E+01  0.39769429420E-01  0.10670912332E+02  0.51100000000E-03 0. -1.
        -11    1    4    4    0    0 -0.18884238648E+02 -0.26768891424E+01  0.36819766605E+01  0.19425168138E+02  0.51100000000E-03 0.  1.
        -12    1    4    4    0    0 -0.30151791002E+01  0.19953195730E+02 -0.13485544855E+02  0.24270995960E+02  0.00000000000E+00 0.  1.
</event>
<event>
 8    1  0.2466538E-006  0.9118800E+02  0.7816164E-02  0.1184000E+00
        -11   -1    0    0    0    0  0.00000000000E+00  0.00000000000E+00  0.45593999997E+02  0.45594000000E+02  0.51100000000E-03 0. -1.
         11   -1    0    0    0    0 -0.00000000000E+00 -0.00000000000E+00 -0.45593999997E+02  0.45594000000E+02  0.51100000000E-03 0.  1.
         23    2    1    2    0    0  0.00000000000E+00  0.00000000000E+00  0.00000000000E+00  0.91188000000E+02  0.91188000000E+02 0.  0.
    9900012    2    3    3    0    0  0.30877478218E+02  0.18130414628E+02  0.85818493032E+01  0.54367099235E+02  0.40000034326E+02 0.  0.
        -12    1    3    3    0    0 -0.30877478218E+02 -0.18130414628E+02 -0.85818493032E+01  0.36820900765E+02  0.00000000000E+00 0.  1.
         11    1    4    4    0    0  0.32703414289E+01 -0.25524873414E+01  0.14655736863E+02  0.15231577329E+02  0.51100000000E-03 0. -1.
        -11    1    4    4    0    0  0.16798059632E+02  0.53418630030E+01  0.36476493709E+01  0.18000434827E+02  0.51100000000E-03 0.  1.
        -12    1    4    4    0    0  0.10809077157E+02  0.15341038966E+02 -0.97215369303E+01  0.21135087079E+02  0.00000000000E+00 0.  1.
</event>
<event>
 8    1  0.2466538E-006  0.9118800E+02  0.7816164E-02  0.1184000E+00
        -11   -1    0    0    0    0  0.00000000000E+00  0.00000000000E+00  0.45593999997E+02  0.45594000000E+02  0.51100000000E-03 0.  1.
         11   -1    0    0    0    0 -0.00000000000E+00 -0.00000000000E+00 -0.45593999997E+02  0.45594000000E+02  0.51100000000E-03 0. -1.
         23    2    1    2    0    0  0.00000000000E+00  0.00000000000E+00 -0.35527136788E-14  0.91188000000E+02  0.91188000000E+02 0.  0.
    9900012    2    3    3    0    0 -0.19928053688E+01 -0.32772222905E+02  0.16667036472E+02  0.54367082411E+02  0.39999995973E+02 0.  0.
         12    1    3    3    0    0  0.19928053688E+01  0.32772222905E+02 -0.16667036472E+02  0.36820917589E+02  0.00000000000E+00 0. -1.
         11    1    4    4    0    0 -0.39950127727E+01 -0.26788341543E+01  0.80949565528E+01  0.94161882592E+01  0.51100000000E-03 0. -1.
        -11    1    4    4    0    0  0.16723876015E+02 -0.17830315813E+02  0.13784663235E+01  0.24484859824E+02  0.51100000000E-03 0.  1.
         12    1    4    4    0    0 -0.14721668611E+02 -0.12263072938E+02  0.71936135952E+01  0.20466034328E+02  0.00000000000E+00 0. -1.
</event>
<event>
 8    1  0.2466538E-006  0.9118800E+02  0.7816164E-02  0.1184000E+00
        -11   -1    0    0    0    0  0.00000000000E+00  0.00000000000E+00  0.45593999997E+02  0.45594000000E+02  0.51100000000E-03 0. -1.
         11   -1    0    0    0    0 -0.00000000000E+00 -0.00000000000E+00 -0.45593999997E+02  0.45594000000E+02  0.51100000000E-03 0.  1.
         23    2    1    2    0    0  0.00000000000E+00  0.00000000000E+00  0.00000000000E+00  0.91188000000E+02  0.91188000000E+02 0.  0.
    9900012    2    3    3    0    0 -0.69842695855E+01 -0.32038542625E+02 -0.16749023504E+02  0.54367108871E+02  0.40000056293E+02 0.  0.
        -12    1    3    3    0    0  0.69842695855E+01  0.32038542625E+02  0.16749023504E+02  0.36820891129E+02  0.00000000000E+00 0.  1.
         11    1    4    4    0    0  0.98971299159E+01 -0.31736399332E+01  0.25168353071E+01  0.10693906266E+02  0.51100000000E-03 0. -1.
        -11    1    4    4    0    0 -0.72172351831E+01  0.48678031078E+00  0.45139065921E-01  0.72337733276E+01  0.51100000000E-03 0.  1.
        -12    1    4    4    0    0 -0.96641643183E+01 -0.29351683003E+02 -0.19310997877E+02  0.36439429278E+02  0.00000000000E+00 0.  1.
</event>
<event>
 8    1  0.2466538E-006  0.9118800E+02  0.7816164E-02  0.1184000E+00
        -11   -1    0    0    0    0  0.00000000000E+00  0.00000000000E+00  0.45593999997E+02  0.45594000000E+02  0.51100000000E-03 0.  1.
         11   -1    0    0    0    0 -0.00000000000E+00 -0.00000000000E+00 -0.45593999997E+02  0.45594000000E+02  0.51100000000E-03 0. -1.
         23    2    1    2    0    0  0.17763568394E-14 -0.35527136788E-14 -0.71054273576E-14  0.91188000000E+02  0.91188000000E+02 0.  0.
    9900012    2    3    3    0    0 -0.12634605879E+02  0.28049270355E+02  0.20233254486E+02  0.54367089905E+02  0.40000013056E+02 0.  0.
         12    1    3    3    0    0  0.12634605879E+02 -0.28049270355E+02 -0.20233254486E+02  0.36820910095E+02  0.00000000000E+00 0. -1.
         11    1    4    4    0    0 -0.16816147139E+02  0.57283047724E+01 -0.40790646324E+01  0.18227316004E+02  0.51100000000E-03 0. -1.
        -11    1    4    4    0    0  0.51157368915E+01  0.18523024186E+01  0.18759537064E+01  0.57550839058E+01  0.51100000000E-03 0.  1.
         12    1    4    4    0    0 -0.93419563067E+00  0.20468663164E+02  0.22436365412E+02  0.30384689995E+02  0.00000000000E+00 0. -1.
</event>
<event>
 8    1  0.2466538E-006  0.9118800E+02  0.7816164E-02  0.1184000E+00
        -11   -1    0    0    0    0  0.00000000000E+00  0.00000000000E+00  0.45593999997E+02  0.45594000000E+02  0.51100000000E-03 0.  1.
         11   -1    0    0    0    0 -0.00000000000E+00 -0.00000000000E+00 -0.45593999997E+02  0.45594000000E+02  0.51100000000E-03 0. -1.
         23    2    1    2    0    0  0.22204460493E-15 -0.11102230246E-15  0.00000000000E+00  0.91188000000E+02  0.91188000000E+02 0.  0.
    9900012    2    3    3    0    0  0.74555044138E+00 -0.85004008855E+00  0.36803528258E+02  0.54367107753E+02  0.40000053744E+02 0.  0.
         12    1    3    3    0    0 -0.74555044138E+00  0.85004008855E+00 -0.36803528258E+02  0.36820892247E+02  0.00000000000E+00 0. -1.
         11    1    4    4    0    0 -0.62355591767E+01  0.16434470136E+02  0.15434881218E+02  0.23392510882E+02  0.51100000000E-03 0. -1.
        -11    1    4    4    0    0  0.92371121431E+01 -0.13887470075E+02  0.11395886797E+02  0.20200304502E+02  0.51100000000E-03 0.  1.
         12    1    4    4    0    0 -0.22560025250E+01 -0.33970401492E+01  0.99727602440E+01  0.10774292369E+02  0.00000000000E+00 0. -1.
</event>
<event>
 8    1  0.2466538E-006  0.9118800E+02  0.7816164E-02  0.1184000E+00
        -11   -1    0    0    0    0  0.00000000000E+00  0.00000000000E+00  0.45593999997E+02  0.45594000000E+02  0.51100000000E-03 0.  1.
         11   -1    0    0    0    0 -0.00000000000E+00 -0.00000000000E+00 -0.45593999997E+02  0.45594000000E+02  0.51100000000E-03 0. -1.
         23    2    1    2    0    0  0.17763568394E-14  0.00000000000E+00  0.00000000000E+00  0.91188000000E+02  0.91188000000E+02 0.  0.
    9900012    2    3    3    0    0 -0.43683045557E+01 -0.19250595310E+02  0.31082287021E+02  0.54367135386E+02  0.40000116739E+02 0.  0.
         12    1    3    3    0    0  0.43683045557E+01  0.19250595310E+02 -0.31082287021E+02  0.36820864614E+02  0.00000000000E+00 0. -1.
         11    1    4    4    0    0 -0.11966281703E+02 -0.19430486780E+01  0.38568394258E+00  0.12129142110E+02  0.51100000000E-03 0. -1.
        -11    1    4    4    0    0  0.13831779884E+02 -0.13005315052E+02  0.13060362621E+02  0.23044075734E+02  0.51100000000E-03 0.  1.
        -12    1    4    4    0    0 -0.62338027369E+01 -0.43022315801E+01  0.17636240457E+02  0.19193917542E+02  0.00000000000E+00 0.  1.
</event>
<event>
 8    1  0.2466538E-006  0.9118800E+02  0.7816164E-02  0.1184000E+00
        -11   -1    0    0    0    0  0.00000000000E+00  0.00000000000E+00  0.45593999997E+02  0.45594000000E+02  0.51100000000E-03 0.  1.
         11   -1    0    0    0    0 -0.00000000000E+00 -0.00000000000E+00 -0.45593999997E+02  0.45594000000E+02  0.51100000000E-03 0. -1.
         23    2    1    2    0    0 -0.71054273576E-14 -0.44408920985E-15 -0.26645352591E-14  0.91188000000E+02  0.91188000000E+02 0.  0.
    9900012    2    3    3    0    0  0.36738129144E+02  0.20989642405E+01  0.12976732181E+01  0.54367085568E+02  0.40000003169E+02 0.  0.
        -12    1    3    3    0    0 -0.36738129144E+02 -0.20989642405E+01 -0.12976732181E+01  0.36820914432E+02  0.00000000000E+00 0.  1.
         11    1    4    4    0    0  0.24897928657E+02  0.60458280608E+01 -0.76239634065E+01  0.26731698536E+02  0.51100000000E-03 0. -1.
        -11    1    4    4    0    0 -0.61022220521E+01  0.29055703556E+01  0.88892071420E+00  0.68168638949E+01  0.51100000000E-03 0.  1.
         12    1    4    4    0    0  0.17942422538E+02 -0.68524341759E+01  0.80327159104E+01  0.20818523136E+02  0.00000000000E+00 0. -1.
</event>
<event>
 8    1  0.2466538E-006  0.9118800E+02  0.7816164E-02  0.1184000E+00
        -11   -1    0    0    0    0  0.00000000000E+00  0.00000000000E+00  0.45593999997E+02  0.45594000000E+02  0.51100000000E-03 0. -1.
         11   -1    0    0    0    0 -0.00000000000E+00 -0.00000000000E+00 -0.45593999997E+02  0.45594000000E+02  0.51100000000E-03 0.  1.
         23    2    1    2    0    0  0.00000000000E+00  0.00000000000E+00 -0.35527136788E-14  0.91188000000E+02  0.91188000000E+02 0.  0.
    9900012    2    3    3    0    0 -0.81282242624E+01  0.17463638228E+02 -0.31380459262E+02  0.54367083209E+02  0.39999997791E+02 0.  0.
         12    1    3    3    0    0  0.81282242624E+01 -0.17463638228E+02  0.31380459262E+02  0.36820916791E+02  0.00000000000E+00 0. -1.
         11    1    4    4    0    0  0.73045760073E+01  0.45447305966E+01  0.59350392232E+01  0.10451607421E+02  0.51100000000E-03 0. -1.
        -11    1    4    4    0    0 -0.10184050188E+00 -0.11716105908E+01 -0.72418615439E+01  0.73367296356E+01  0.51100000000E-03 0.  1.
         12    1    4    4    0    0 -0.15330959768E+02  0.14090518222E+02 -0.30073636942E+02  0.36578746152E+02  0.00000000000E+00 0. -1.
</event>
<event>
 8    1  0.2466538E-006  0.9118800E+02  0.7816164E-02  0.1184000E+00
        -11   -1    0    0    0    0  0.00000000000E+00  0.00000000000E+00  0.45593999997E+02  0.45594000000E+02  0.51100000000E-03 0. -1.
         11   -1    0    0    0    0 -0.00000000000E+00 -0.00000000000E+00 -0.45593999997E+02  0.45594000000E+02  0.51100000000E-03 0.  1.
         23    2    1    2    0    0  0.00000000000E+00  0.17763568394E-14 -0.88817841970E-15  0.91188000000E+02  0.91188000000E+02 0.  0.
    9900012    2    3    3    0    0 -0.34989431259E+02  0.10348571274E+02  0.49423318319E+01  0.54367083781E+02  0.39999999097E+02 0.  0.
        -12    1    3    3    0    0  0.34989431259E+02 -0.10348571274E+02 -0.49423318319E+01  0.36820916219E+02  0.00000000000E+00 0.  1.
         11    1    4    4    0    0 -0.94145888580E+01 -0.39741317507E+01  0.99974627558E+01  0.14296064786E+02  0.51100000000E-03 0. -1.
        -11    1    4    4    0    0 -0.20862667787E+02  0.20870314538E+01 -0.13066945758E+02  0.24705296582E+02  0.51100000000E-03 0.  1.
         12    1    4    4    0    0 -0.47121746136E+01  0.12235671570E+02  0.80118148339E+01  0.15365722414E+02  0.00000000000E+00 0. -1.
</event>
<event>
 8    1  0.2466538E-006  0.9118800E+02  0.7816164E-02  0.1184000E+00
        -11   -1    0    0    0    0  0.00000000000E+00  0.00000000000E+00  0.45593999997E+02  0.45594000000E+02  0.51100000000E-03 0. -1.
         11   -1    0    0    0    0 -0.00000000000E+00 -0.00000000000E+00 -0.45593999997E+02  0.45594000000E+02  0.51100000000E-03 0.  1.
         23    2    1    2    0    0 -0.35527136788E-14 -0.35527136788E-14  0.00000000000E+00  0.91188000000E+02  0.91188000000E+02 0.  0.
    9900012    2    3    3    0    0 -0.28772008501E+02 -0.11682063552E+02  0.19785861797E+02  0.54367090056E+02  0.40000013401E+02 0.  0.
        -12    1    3    3    0    0  0.28772008501E+02  0.11682063552E+02 -0.19785861797E+02  0.36820909944E+02  0.00000000000E+00 0.  1.
         11    1    4    4    0    0 -0.30028694665E+01  0.10981062672E+02  0.11124872689E+02  0.15917404155E+02  0.51100000000E-03 0. -1.
        -11    1    4    4    0    0 -0.26304763350E+02 -0.16493680699E+02  0.56273978847E+01  0.31553917112E+02  0.51100000000E-03 0.  1.
        -12    1    4    4    0    0  0.53562431482E+00 -0.61694455245E+01  0.30335912232E+01  0.68957687893E+01  0.00000000000E+00 0.  1.
</event>
<event>
 8    1  0.2466538E-006  0.9118800E+02  0.7816164E-02  0.1184000E+00
        -11   -1    0    0    0    0  0.00000000000E+00  0.00000000000E+00  0.45593999997E+02  0.45594000000E+02  0.51100000000E-03 0. -1.
         11   -1    0    0    0    0 -0.00000000000E+00 -0.00000000000E+00 -0.45593999997E+02  0.45594000000E+02  0.51100000000E-03 0.  1.
         23    2    1    2    0    0  0.88817841970E-15  0.35527136788E-14  0.00000000000E+00  0.91188000000E+02  0.91188000000E+02 0.  0.
    9900012    2    3    3    0    0  0.36901140638E+01  0.24866375483E+02  0.26904037529E+02  0.54367071076E+02  0.39999970132E+02 0.  0.
        -12    1    3    3    0    0 -0.36901140638E+01 -0.24866375483E+02 -0.26904037529E+02  0.36820928924E+02  0.00000000000E+00 0.  1.
         11    1    4    4    0    0  0.18454235221E+02  0.99448759831E+01  0.11474955847E+02  0.23898409316E+02  0.51100000000E-03 0. -1.
        -11    1    4    4    0    0 -0.87970013247E+01  0.31969751015E+01 -0.10093080750E+01  0.94141693823E+01  0.51100000000E-03 0.  1.
         12    1    4    4    0    0 -0.59671198320E+01  0.11724524398E+02  0.16438389757E+02  0.21054492377E+02  0.00000000000E+00 0. -1.
</event>
<event>
 8    1  0.2466538E-006  0.9118800E+02  0.7816164E-02  0.1184000E+00
        -11   -1    0    0    0    0  0.00000000000E+00  0.00000000000E+00  0.45593999997E+02  0.45594000000E+02  0.51100000000E-03 0. -1.
         11   -1    0    0    0    0 -0.00000000000E+00 -0.00000000000E+00 -0.45593999997E+02  0.45594000000E+02  0.51100000000E-03 0.  1.
         23    2    1    2    0    0 -0.17763568394E-14  0.35527136788E-14  0.00000000000E+00  0.91188000000E+02  0.91188000000E+02 0.  0.
    9900012    2    3    3    0    0  0.94557626847E+01  0.31734235611E+02 -0.16102979377E+02  0.54367094218E+02  0.40000022889E+02 0.  0.
         12    1    3    3    0    0 -0.94557626847E+01 -0.31734235611E+02  0.16102979377E+02  0.36820905782E+02  0.00000000000E+00 0. -1.
         11    1    4    4    0    0  0.20308106669E+01  0.43799548871E+01 -0.11562448273E+02  0.12529900522E+02  0.51100000000E-03 0. -1.
        -11    1    4    4    0    0  0.16019678847E+02  0.22917775352E+02  0.48236342834E+01  0.28374671547E+02  0.51100000000E-03 0.  1.
         12    1    4    4    0    0 -0.85947268296E+01  0.44365053719E+01 -0.93641653880E+01  0.13462522149E+02  0.00000000000E+00 0. -1.
</event>
<event>
 8    1  0.2466538E-006  0.9118800E+02  0.7816164E-02  0.1184000E+00
        -11   -1    0    0    0    0  0.00000000000E+00  0.00000000000E+00  0.45593999997E+02  0.45594000000E+02  0.51100000000E-03 0. -1.
         11   -1    0    0    0    0 -0.00000000000E+00 -0.00000000000E+00 -0.45593999997E+02  0.45594000000E+02  0.51100000000E-03 0.  1.
         23    2    1    2    0    0  0.00000000000E+00 -0.71054273576E-14 -0.44408920985E-15  0.91188000000E+02  0.91188000000E+02 0.  0.
    9900012    2    3    3    0    0  0.12470364591E+02 -0.34453327790E+02  0.36388486740E+01  0.54367041179E+02  0.39999901975E+02 0.  0.
        -12    1    3    3    0    0 -0.12470364591E+02  0.34453327790E+02 -0.36388486740E+01  0.36820958821E+02  0.00000000000E+00 0.  1.
         11    1    4    4    0    0  0.15256490555E+02 -0.21695231611E+02  0.44393995912E+01  0.26891482809E+02  0.51100000000E-03 0. -1.
        -11    1    4    4    0    0 -0.57174836072E+01 -0.16719521995E+02  0.63628012628E+01  0.18780768747E+02  0.51100000000E-03 0.  1.
         12    1    4    4    0    0  0.29313576435E+01  0.39614258157E+01 -0.71633521800E+01  0.86947896226E+01  0.00000000000E+00 0. -1.
</event>
<event>
 8    1  0.2466538E-006  0.9118800E+02  0.7816164E-02  0.1184000E+00
        -11   -1    0    0    0    0  0.00000000000E+00  0.00000000000E+00  0.45593999997E+02  0.45594000000E+02  0.51100000000E-03 0.  1.
         11   -1    0    0    0    0 -0.00000000000E+00 -0.00000000000E+00 -0.45593999997E+02  0.45594000000E+02  0.51100000000E-03 0. -1.
         23    2    1    2    0    0 -0.35527136788E-14 -0.17763568394E-14  0.35527136788E-14  0.91188000000E+02  0.91188000000E+02 0.  0.
    9900012    2    3    3    0    0 -0.20817162294E+02 -0.62757385196E+01  0.29715992901E+02  0.54367090532E+02  0.40000014486E+02 0.  0.
         12    1    3    3    0    0  0.20817162294E+02  0.62757385196E+01 -0.29715992901E+02  0.36820909468E+02  0.00000000000E+00 0. -1.
         11    1    4    4    0    0 -0.86184652353E+00  0.56207689044E+01  0.11597867856E+01  0.58035272168E+01  0.51100000000E-03 0. -1.
        -11    1    4    4    0    0 -0.12879409400E+02  0.65930933581E+01  0.24349944566E+02  0.28324333481E+02  0.51100000000E-03 0.  1.
         12    1    4    4    0    0 -0.70759063701E+01 -0.18489600782E+02  0.42062615496E+01  0.20239229834E+02  0.00000000000E+00 0. -1.
</event>
<event>
 8    1  0.2466538E-006  0.9118800E+02  0.7816164E-02  0.1184000E+00
        -11   -1    0    0    0    0  0.00000000000E+00  0.00000000000E+00  0.45593999997E+02  0.45594000000E+02  0.51100000000E-03 0.  1.
         11   -1    0    0    0    0 -0.00000000000E+00 -0.00000000000E+00 -0.45593999997E+02  0.45594000000E+02  0.51100000000E-03 0. -1.
         23    2    1    2    0    0 -0.35527136788E-14  0.17763568394E-14  0.00000000000E+00  0.91188000000E+02  0.91188000000E+02 0.  0.
    9900012    2    3    3    0    0 -0.16158073978E+01 -0.14244165880E+02  0.33915685414E+02  0.54367071003E+02  0.39999969964E+02 0.  0.
         12    1    3    3    0    0  0.16158073978E+01  0.14244165880E+02 -0.33915685414E+02  0.36820928997E+02  0.00000000000E+00 0. -1.
         11    1    4    4    0    0 -0.16939989967E+02 -0.16130500691E+02  0.11785833465E+02  0.26192788767E+02  0.51100000000E-03 0. -1.
        -11    1    4    4    0    0  0.82499993378E+01  0.42794889583E+01  0.83173330598E+01  0.12472150749E+02  0.51100000000E-03 0.  1.
         12    1    4    4    0    0  0.70741832317E+01 -0.23931541464E+01  0.13812518889E+02  0.15702131487E+02  0.00000000000E+00 0. -1.
</event>
<event>
 8    1  0.2466538E-006  0.9118800E+02  0.7816164E-02  0.1184000E+00
        -11   -1    0    0    0    0  0.00000000000E+00  0.00000000000E+00  0.45593999997E+02  0.45594000000E+02  0.51100000000E-03 0.  1.
         11   -1    0    0    0    0 -0.00000000000E+00 -0.00000000000E+00 -0.45593999997E+02  0.45594000000E+02  0.51100000000E-03 0. -1.
         23    2    1    2    0    0 -0.17763568394E-14 -0.35527136788E-14  0.00000000000E+00  0.91188000000E+02  0.91188000000E+02 0.  0.
    9900012    2    3    3    0    0  0.95778170900E+01 -0.10564570340E+02 -0.33947534291E+02  0.54367084597E+02  0.40000000956E+02 0.  0.
        -12    1    3    3    0    0 -0.95778170900E+01  0.10564570340E+02  0.33947534291E+02  0.36820915403E+02  0.00000000000E+00 0.  1.
         11    1    4    4    0    0 -0.47302536546E+01  0.45918611367E+01 -0.60464030905E+01  0.89453607490E+01  0.51100000000E-03 0. -1.
        -11    1    4    4    0    0 -0.37947475009E+01  0.63160964987E+01 -0.32531816792E+01  0.80545871946E+01  0.51100000000E-03 0.  1.
         12    1    4    4    0    0  0.18102818245E+02 -0.21472527976E+02 -0.24647949521E+02  0.37367136654E+02  0.00000000000E+00 0. -1.
</event>
<event>
 8    1  0.2466538E-006  0.9118800E+02  0.7816164E-02  0.1184000E+00
        -11   -1    0    0    0    0  0.00000000000E+00  0.00000000000E+00  0.45593999997E+02  0.45594000000E+02  0.51100000000E-03 0. -1.
         11   -1    0    0    0    0 -0.00000000000E+00 -0.00000000000E+00 -0.45593999997E+02  0.45594000000E+02  0.51100000000E-03 0.  1.
         23    2    1    2    0    0  0.71054273576E-14  0.17763568394E-14  0.00000000000E+00  0.91188000000E+02  0.91188000000E+02 0.  0.
    9900012    2    3    3    0    0  0.32065374382E+02  0.76295312309E+01  0.16412767725E+02  0.54367123782E+02  0.40000090286E+02 0.  0.
        -12    1    3    3    0    0 -0.32065374382E+02 -0.76295312309E+01 -0.16412767725E+02  0.36820876218E+02  0.00000000000E+00 0.  1.
         11    1    4    4    0    0 -0.20367908361E+01  0.25748485403E+01  0.61306065966E+01  0.69543295449E+01  0.51100000000E-03 0. -1.
        -11    1    4    4    0    0  0.10051650495E+02 -0.11496279489E+02 -0.26194824563E+01  0.15493928113E+02  0.51100000000E-03 0.  1.
        -12    1    4    4    0    0  0.24050514723E+02  0.16550962179E+02  0.12901643585E+02  0.31918866124E+02  0.00000000000E+00 0.  1.
</event>
<event>
 8    1  0.2466538E-006  0.9118800E+02  0.7816164E-02  0.1184000E+00
        -11   -1    0    0    0    0  0.00000000000E+00  0.00000000000E+00  0.45593999997E+02  0.45594000000E+02  0.51100000000E-03 0. -1.
         11   -1    0    0    0    0 -0.00000000000E+00 -0.00000000000E+00 -0.45593999997E+02  0.45594000000E+02  0.51100000000E-03 0.  1.
         23    2    1    2    0    0  0.00000000000E+00  0.00000000000E+00 -0.35527136788E-14  0.91188000000E+02  0.91188000000E+02 0.  0.
    9900012    2    3    3    0    0 -0.18277943029E+02 -0.12166664545E+02  0.29557891824E+02  0.54367083436E+02  0.39999998309E+02 0.  0.
        -12    1    3    3    0    0  0.18277943029E+02  0.12166664545E+02 -0.29557891824E+02  0.36820916564E+02  0.00000000000E+00 0.  1.
         11    1    4    4    0    0 -0.19286754586E+02 -0.56089617705E+01  0.11934518249E+02  0.23363905510E+02  0.51100000000E-03 0. -1.
        -11    1    4    4    0    0  0.27503830285E+00 -0.15862033465E+02  0.13367808358E+02  0.20745555000E+02  0.51100000000E-03 0.  1.
         12    1    4    4    0    0  0.73377325402E+00  0.93043306897E+01  0.42555652169E+01  0.10257622926E+02  0.00000000000E+00 0. -1.
</event>
<event>
 8    1  0.2466538E-006  0.9118800E+02  0.7816164E-02  0.1184000E+00
        -11   -1    0    0    0    0  0.00000000000E+00  0.00000000000E+00  0.45593999997E+02  0.45594000000E+02  0.51100000000E-03 0.  1.
         11   -1    0    0    0    0 -0.00000000000E+00 -0.00000000000E+00 -0.45593999997E+02  0.45594000000E+02  0.51100000000E-03 0. -1.
         23    2    1    2    0    0  0.00000000000E+00 -0.71054273576E-14  0.00000000000E+00  0.91188000000E+02  0.91188000000E+02 0.  0.
    9900012    2    3    3    0    0  0.14641268887E+02 -0.31199495047E+02  0.12961749900E+02  0.54367052072E+02  0.39999926809E+02 0.  0.
         12    1    3    3    0    0 -0.14641268887E+02  0.31199495047E+02 -0.12961749900E+02  0.36820947928E+02  0.00000000000E+00 0. -1.
         11    1    4    4    0    0 -0.16087164418E+00  0.48799505288E+01  0.58687088799E+00  0.49177448642E+01  0.51100000000E-03 0.  1.
        -11    1    4    4    0    0 -0.29518001553E+01  0.57352499637E+00 -0.44612743819E+01  0.53800580341E+01  0.51100000000E-03 0. -1.
        -12    1    4    4    0    0  0.17753940686E+02 -0.36652970572E+02  0.16836153394E+02  0.44069249174E+02  0.00000000000E+00 0.  1.
</event>
<event>
 8    1  0.2466538E-006  0.9118800E+02  0.7816164E-02  0.1184000E+00
        -11   -1    0    0    0    0  0.00000000000E+00  0.00000000000E+00  0.45593999997E+02  0.45594000000E+02  0.51100000000E-03 0.  1.
         11   -1    0    0    0    0 -0.00000000000E+00 -0.00000000000E+00 -0.45593999997E+02  0.45594000000E+02  0.51100000000E-03 0. -1.
         23    2    1    2    0    0  0.35527136788E-14  0.00000000000E+00 -0.35527136788E-14  0.91188000000E+02  0.91188000000E+02 0.  0.
    9900012    2    3    3    0    0 -0.18593438413E+02  0.20702928157E+02 -0.24113330495E+02  0.54367083474E+02  0.39999998395E+02 0.  0.
        -12    1    3    3    0    0  0.18593438413E+02 -0.20702928157E+02  0.24113330495E+02  0.36820916526E+02  0.00000000000E+00 0.  1.
         11    1    4    4    0    0 -0.24712171343E+01  0.84364531258E+01 -0.20668635678E+02  0.22460479882E+02  0.51100000000E-03 0. -1.
        -11    1    4    4    0    0  0.36421328848E+00  0.14999093344E+02 -0.13403357243E+01  0.15063265004E+02  0.51100000000E-03 0.  1.
        -12    1    4    4    0    0 -0.16486434567E+02 -0.27326183135E+01 -0.21043590927E+01  0.16843338587E+02  0.00000000000E+00 0.  1.
</event>
<event>
 8    1  0.2466538E-006  0.9118800E+02  0.7816164E-02  0.1184000E+00
        -11   -1    0    0    0    0  0.00000000000E+00  0.00000000000E+00  0.45593999997E+02  0.45594000000E+02  0.51100000000E-03 0. -1.
         11   -1    0    0    0    0 -0.00000000000E+00 -0.00000000000E+00 -0.45593999997E+02  0.45594000000E+02  0.51100000000E-03 0.  1.
         23    2    1    2    0    0  0.00000000000E+00  0.00000000000E+00  0.35527136788E-14  0.91188000000E+02  0.91188000000E+02 0.  0.
    9900012    2    3    3    0    0 -0.17267493003E+02  0.20354570981E+02  0.25363604591E+02  0.54366982737E+02  0.39999768745E+02 0.  0.
        -12    1    3    3    0    0  0.17267493003E+02 -0.20354570981E+02 -0.25363604591E+02  0.36821017263E+02  0.00000000000E+00 0.  1.
         11    1    4    4    0    0 -0.32285854371E+00  0.15535058128E+02  0.22957379336E+02  0.27721535580E+02  0.51100000000E-03 0. -1.
        -11    1    4    4    0    0 -0.72873338467E+00 -0.37492009071E+00  0.85156886465E+01  0.85550318998E+01  0.51100000000E-03 0.  1.
        -12    1    4    4    0    0 -0.16215901074E+02  0.51944329442E+01 -0.61094633909E+01  0.18090415257E+02  0.00000000000E+00 0.  1.
</event>
<event>
 8    1  0.2466538E-006  0.9118800E+02  0.7816164E-02  0.1184000E+00
        -11   -1    0    0    0    0  0.00000000000E+00  0.00000000000E+00  0.45593999997E+02  0.45594000000E+02  0.51100000000E-03 0. -1.
         11   -1    0    0    0    0 -0.00000000000E+00 -0.00000000000E+00 -0.45593999997E+02  0.45594000000E+02  0.51100000000E-03 0.  1.
         23    2    1    2    0    0  0.00000000000E+00  0.00000000000E+00  0.00000000000E+00  0.91188000000E+02  0.91188000000E+02 0.  0.
    9900012    2    3    3    0    0 -0.12265284827E+02  0.32530096894E+02  0.12129940360E+02  0.54367083811E+02  0.39999999165E+02 0.  0.
        -12    1    3    3    0    0  0.12265284827E+02 -0.32530096894E+02 -0.12129940360E+02  0.36820916189E+02  0.00000000000E+00 0.  1.
         11    1    4    4    0    0  0.83858609635E+00  0.17268237507E+02  0.15621699847E+02  0.23300917570E+02  0.51100000000E-03 0. -1.
        -11    1    4    4    0    0  0.21999475201E+01 -0.46049609391E+01 -0.31278026201E+01  0.59856982744E+01  0.51100000000E-03 0.  1.
         12    1    4    4    0    0 -0.15303818444E+02  0.19866820326E+02 -0.36395686725E+00  0.25080467967E+02  0.00000000000E+00 0. -1.
</event>
<event>
 8    1  0.2466538E-006  0.9118800E+02  0.7816164E-02  0.1184000E+00
        -11   -1    0    0    0    0  0.00000000000E+00  0.00000000000E+00  0.45593999997E+02  0.45594000000E+02  0.51100000000E-03 0.  1.
         11   -1    0    0    0    0 -0.00000000000E+00 -0.00000000000E+00 -0.45593999997E+02  0.45594000000E+02  0.51100000000E-03 0. -1.
         23    2    1    2    0    0  0.00000000000E+00  0.35527136788E-14  0.00000000000E+00  0.91188000000E+02  0.91188000000E+02 0.  0.
    9900012    2    3    3    0    0 -0.22825827639E+02 -0.11752631983E+02 -0.26393873062E+02  0.54367091522E+02  0.40000016743E+02 0.  0.
         12    1    3    3    0    0  0.22825827639E+02  0.11752631983E+02  0.26393873062E+02  0.36820908478E+02  0.00000000000E+00 0. -1.
         11    1    4    4    0    0 -0.97463606603E+01  0.73173595946E+01 -0.17474058737E+02  0.21304413312E+02  0.51100000000E-03 0. -1.
        -11    1    4    4    0    0 -0.10721187379E+02 -0.23981774755E+02 -0.62855158060E+01  0.27010684709E+02  0.51100000000E-03 0.  1.
        -12    1    4    4    0    0 -0.23582795997E+01  0.49117831774E+01 -0.26342985188E+01  0.60519935011E+01  0.00000000000E+00 0.  1.
</event>
<event>
 8    1  0.2466538E-006  0.9118800E+02  0.7816164E-02  0.1184000E+00
        -11   -1    0    0    0    0  0.00000000000E+00  0.00000000000E+00  0.45593999997E+02  0.45594000000E+02  0.51100000000E-03 0.  1.
         11   -1    0    0    0    0 -0.00000000000E+00 -0.00000000000E+00 -0.45593999997E+02  0.45594000000E+02  0.51100000000E-03 0. -1.
         23    2    1    2    0    0  0.00000000000E+00 -0.17763568394E-14  0.00000000000E+00  0.91188000000E+02  0.91188000000E+02 0.  0.
    9900012    2    3    3    0    0 -0.19986331061E+02 -0.12855195510E+02  0.28125964199E+02  0.54367090953E+02  0.40000015446E+02 0.  0.
         12    1    3    3    0    0  0.19986331061E+02  0.12855195510E+02 -0.28125964199E+02  0.36820909047E+02  0.00000000000E+00 0. -1.
         11    1    4    4    0    0 -0.23149681091E+02 -0.57859235765E+01  0.21031834832E+02  0.31807589078E+02  0.51100000000E-03 0. -1.
        -11    1    4    4    0    0 -0.37304965411E+01  0.26767885065E+01  0.93443653954E+01  0.10411482414E+02  0.51100000000E-03 0.  1.
         12    1    4    4    0    0  0.68938465713E+01 -0.97460604404E+01 -0.22502360288E+01  0.12148019462E+02  0.00000000000E+00 0. -1.
</event>
<event>
 8    1  0.2466538E-006  0.9118800E+02  0.7816164E-02  0.1184000E+00
        -11   -1    0    0    0    0  0.00000000000E+00  0.00000000000E+00  0.45593999997E+02  0.45594000000E+02  0.51100000000E-03 0.  1.
         11   -1    0    0    0    0 -0.00000000000E+00 -0.00000000000E+00 -0.45593999997E+02  0.45594000000E+02  0.51100000000E-03 0. -1.
         23    2    1    2    0    0 -0.88817841970E-15 -0.35527136788E-14  0.00000000000E+00  0.91188000000E+02  0.91188000000E+02 0.  0.
    9900012    2    3    3    0    0 -0.55984789689E+00  0.19774990941E+02  0.31055048580E+02  0.54367085580E+02  0.40000003198E+02 0.  0.
         12    1    3    3    0    0  0.55984789689E+00 -0.19774990941E+02 -0.31055048580E+02  0.36820914420E+02  0.00000000000E+00 0. -1.
         11    1    4    4    0    0 -0.39505759200E+01  0.15366374226E+01 -0.10269805091E-01  0.42389161820E+01  0.51100000000E-03 0. -1.
        -11    1    4    4    0    0 -0.43134908361E+01  0.10234164274E+02  0.36217494422E+02  0.37882069954E+02  0.51100000000E-03 0.  1.
        -12    1    4    4    0    0  0.77042188592E+01  0.80041892439E+01 -0.51521760364E+01  0.12246099444E+02  0.00000000000E+00 0.  1.
</event>
<event>
 8    1  0.2466538E-006  0.9118800E+02  0.7816164E-02  0.1184000E+00
        -11   -1    0    0    0    0  0.00000000000E+00  0.00000000000E+00  0.45593999997E+02  0.45594000000E+02  0.51100000000E-03 0. -1.
         11   -1    0    0    0    0 -0.00000000000E+00 -0.00000000000E+00 -0.45593999997E+02  0.45594000000E+02  0.51100000000E-03 0.  1.
         23    2    1    2    0    0 -0.71054273576E-14  0.13322676296E-14  0.00000000000E+00  0.91188000000E+02  0.91188000000E+02 0.  0.
    9900012    2    3    3    0    0 -0.26422873213E+02  0.37307162757E+01  0.25371114694E+02  0.54367082934E+02  0.39999997164E+02 0.  0.
        -12    1    3    3    0    0  0.26422873213E+02 -0.37307162757E+01 -0.25371114694E+02  0.36820917066E+02  0.00000000000E+00 0.  1.
         11    1    4    4    0    0 -0.25906631119E+02  0.11894828282E+02  0.12064445643E+02  0.30954665637E+02  0.51100000000E-03 0. -1.
        -11    1    4    4    0    0 -0.71277111781E+01 -0.84988799909E+00  0.11243277542E+02  0.13339335306E+02  0.51100000000E-03 0.  1.
        -12    1    4    4    0    0  0.66114690835E+01 -0.73142240071E+01  0.20633915089E+01  0.10073081990E+02  0.00000000000E+00 0.  1.
</event>
<event>
 8    1  0.2466538E-006  0.9118800E+02  0.7816164E-02  0.1184000E+00
        -11   -1    0    0    0    0  0.00000000000E+00  0.00000000000E+00  0.45593999997E+02  0.45594000000E+02  0.51100000000E-03 0. -1.
         11   -1    0    0    0    0 -0.00000000000E+00 -0.00000000000E+00 -0.45593999997E+02  0.45594000000E+02  0.51100000000E-03 0.  1.
         23    2    1    2    0    0  0.35527136788E-14  0.00000000000E+00  0.35527136788E-14  0.91188000000E+02  0.91188000000E+02 0.  0.
    9900012    2    3    3    0    0  0.24625164844E+02 -0.90518488347E+01  0.25834959960E+02  0.54367083837E+02  0.39999999224E+02 0.  0.
        -12    1    3    3    0    0 -0.24625164844E+02  0.90518488347E+01 -0.25834959960E+02  0.36820916163E+02  0.00000000000E+00 0.  1.
         11    1    4    4    0    0 -0.26047294553E+01 -0.10285357235E+01  0.16605215538E+02  0.16839705597E+02  0.51100000000E-03 0. -1.
        -11    1    4    4    0    0  0.69767692201E+01  0.61910487103E+01 -0.31690595732E+01  0.98512604129E+01  0.51100000000E-03 0.  1.
         12    1    4    4    0    0  0.20253125080E+02 -0.14214361821E+02  0.12398803995E+02  0.27676117827E+02  0.00000000000E+00 0. -1.
</event>
<event>
 8    1  0.2466538E-006  0.9118800E+02  0.7816164E-02  0.1184000E+00
        -11   -1    0    0    0    0  0.00000000000E+00  0.00000000000E+00  0.45593999997E+02  0.45594000000E+02  0.51100000000E-03 0. -1.
         11   -1    0    0    0    0 -0.00000000000E+00 -0.00000000000E+00 -0.45593999997E+02  0.45594000000E+02  0.51100000000E-03 0.  1.
         23    2    1    2    0    0  0.35527136788E-14  0.00000000000E+00  0.44408920985E-15  0.91188000000E+02  0.91188000000E+02 0.  0.
    9900012    2    3    3    0    0 -0.61630910405E+01 -0.36097089336E+02 -0.38465754097E+01  0.54367086213E+02  0.40000004640E+02 0.  0.
         12    1    3    3    0    0  0.61630910405E+01  0.36097089336E+02  0.38465754097E+01  0.36820913787E+02  0.00000000000E+00 0. -1.
         11    1    4    4    0    0 -0.17785367434E+02 -0.51308843997E+01  0.32427931012E+01  0.18792577706E+02  0.51100000000E-03 0. -1.
        -11    1    4    4    0    0 -0.37743027544E+00 -0.35437206651E+00  0.15037778553E+01  0.15904028652E+01  0.51100000000E-03 0.  1.
        -12    1    4    4    0    0  0.11999706669E+02 -0.30611832870E+02 -0.85931463662E+01  0.33984105642E+02  0.00000000000E+00 0.  1.
</event>
<event>
 8    1  0.2466538E-006  0.9118800E+02  0.7816164E-02  0.1184000E+00
        -11   -1    0    0    0    0  0.00000000000E+00  0.00000000000E+00  0.45593999997E+02  0.45594000000E+02  0.51100000000E-03 0.  1.
         11   -1    0    0    0    0 -0.00000000000E+00 -0.00000000000E+00 -0.45593999997E+02  0.45594000000E+02  0.51100000000E-03 0. -1.
         23    2    1    2    0    0  0.00000000000E+00 -0.99920072216E-15  0.22204460493E-15  0.91188000000E+02  0.91188000000E+02 0.  0.
    9900012    2    3    3    0    0 -0.36772963478E+02 -0.12774039675E+00 -0.18745239288E+01  0.54367068446E+02  0.39999964135E+02 0.  0.
        -12    1    3    3    0    0  0.36772963478E+02  0.12774039675E+00  0.18745239288E+01  0.36820931554E+02  0.00000000000E+00 0.  1.
         11    1    4    4    0    0 -0.42413229090E+01 -0.54748753104E+01  0.73508359488E+01  0.10099399442E+02  0.51100000000E-03 0.  1.
        -11    1    4    4    0    0 -0.17087654547E+02 -0.66846217565E+01  0.61739259518E+01  0.19359480051E+02  0.51100000000E-03 0. -1.
         12    1    4    4    0    0 -0.15443986022E+02  0.12031756670E+02 -0.15399285829E+02  0.24908188952E+02  0.00000000000E+00 0. -1.
</event>
<event>
 8    1  0.2466538E-006  0.9118800E+02  0.7816164E-02  0.1184000E+00
        -11   -1    0    0    0    0  0.00000000000E+00  0.00000000000E+00  0.45593999997E+02  0.45594000000E+02  0.51100000000E-03 0. -1.
         11   -1    0    0    0    0 -0.00000000000E+00 -0.00000000000E+00 -0.45593999997E+02  0.45594000000E+02  0.51100000000E-03 0.  1.
         23    2    1    2    0    0  0.17763568394E-14  0.00000000000E+00 -0.22204460493E-15  0.91188000000E+02  0.91188000000E+02 0.  0.
    9900012    2    3    3    0    0 -0.12378626551E+02 -0.34627803187E+02 -0.18613567490E+01  0.54367084778E+02  0.40000001368E+02 0.  0.
         12    1    3    3    0    0  0.12378626551E+02  0.34627803187E+02  0.18613567490E+01  0.36820915222E+02  0.00000000000E+00 0. -1.
         11    1    4    4    0    0 -0.44843373049E+01 -0.15188444781E+02  0.15159661354E+02  0.21922898270E+02  0.51100000000E-03 0. -1.
        -11    1    4    4    0    0  0.36962980012E+01 -0.52826443226E+01  0.12719568208E+01  0.65716683093E+01  0.51100000000E-03 0.  1.
         12    1    4    4    0    0 -0.11590587248E+02 -0.14156714083E+02 -0.18292974924E+02  0.25872518199E+02  0.00000000000E+00 0. -1.
</event>
<event>
 8    1  0.2466538E-006  0.9118800E+02  0.7816164E-02  0.1184000E+00
        -11   -1    0    0    0    0  0.00000000000E+00  0.00000000000E+00  0.45593999997E+02  0.45594000000E+02  0.51100000000E-03 0.  1.
         11   -1    0    0    0    0 -0.00000000000E+00 -0.00000000000E+00 -0.45593999997E+02  0.45594000000E+02  0.51100000000E-03 0. -1.
         23    2    1    2    0    0  0.00000000000E+00  0.00000000000E+00  0.00000000000E+00  0.91188000000E+02  0.91188000000E+02 0.  0.
    9900012    2    3    3    0    0 -0.22424281033E+02 -0.28744333617E+02 -0.51668205601E+01  0.54367066693E+02  0.39999960139E+02 0.  0.
        -12    1    3    3    0    0  0.22424281033E+02  0.28744333617E+02  0.51668205601E+01  0.36820933307E+02  0.00000000000E+00 0.  1.
         11    1    4    4    0    0 -0.14131482032E+02 -0.26237872867E+02 -0.55642425334E-01  0.29801474013E+02  0.51100000000E-03 0. -1.
        -11    1    4    4    0    0  0.75206444212E+01  0.17725936782E+00 -0.39175901964E+01  0.84816877213E+01  0.51100000000E-03 0.  1.
        -12    1    4    4    0    0 -0.15813443422E+02 -0.26837201171E+01 -0.11935879383E+01  0.16083904958E+02  0.00000000000E+00 0.  1.
</event>
<event>
 8    1  0.2466538E-006  0.9118800E+02  0.7816164E-02  0.1184000E+00
        -11   -1    0    0    0    0  0.00000000000E+00  0.00000000000E+00  0.45593999997E+02  0.45594000000E+02  0.51100000000E-03 0.  1.
         11   -1    0    0    0    0 -0.00000000000E+00 -0.00000000000E+00 -0.45593999997E+02  0.45594000000E+02  0.51100000000E-03 0. -1.
         23    2    1    2    0    0  0.35527136788E-14 -0.17763568394E-14  0.35527136788E-14  0.91188000000E+02  0.91188000000E+02 0.  0.
    9900012    2    3    3    0    0 -0.28727529769E+02  0.69417675311E+01 -0.21961791744E+02  0.54367090184E+02  0.40000013691E+02 0.  0.
        -12    1    3    3    0    0  0.28727529769E+02 -0.69417675311E+01  0.21961791744E+02  0.36820909816E+02  0.00000000000E+00 0.  1.
         11    1    4    4    0    0 -0.27101443731E+02  0.42156712050E+01 -0.16368645744E+02  0.31940455535E+02  0.51100000000E-03 0. -1.
        -11    1    4    4    0    0  0.21756457419E+01  0.11664231870E+02 -0.18091797703E+01  0.12002536033E+02  0.51100000000E-03 0.  1.
        -12    1    4    4    0    0 -0.38017317801E+01 -0.89381355440E+01 -0.37839662299E+01  0.10424098616E+02  0.00000000000E+00 0.  1.
</event>
<event>
 8    1  0.2466538E-006  0.9118800E+02  0.7816164E-02  0.1184000E+00
        -11   -1    0    0    0    0  0.00000000000E+00  0.00000000000E+00  0.45593999997E+02  0.45594000000E+02  0.51100000000E-03 0. -1.
         11   -1    0    0    0    0 -0.00000000000E+00 -0.00000000000E+00 -0.45593999997E+02  0.45594000000E+02  0.51100000000E-03 0.  1.
         23    2    1    2    0    0  0.71054273576E-14  0.00000000000E+00 -0.17763568394E-14  0.91188000000E+02  0.91188000000E+02 0.  0.
    9900012    2    3    3    0    0  0.33329872767E+02 -0.85912893231E+01 -0.13080087503E+02  0.54367090723E+02  0.40000014921E+02 0.  0.
        -12    1    3    3    0    0 -0.33329872767E+02  0.85912893231E+01  0.13080087503E+02  0.36820909277E+02  0.00000000000E+00 0.  1.
         11    1    4    4    0    0  0.15090711340E+02  0.84593136640E+01 -0.94938026235E+00  0.17326017417E+02  0.51100000000E-03 0. -1.
        -11    1    4    4    0    0 -0.14990973653E+01 -0.11211030853E+02  0.27515191893E+01  0.11640677120E+02  0.51100000000E-03 0.  1.
        -12    1    4    4    0    0  0.19738258793E+02 -0.58395721342E+01 -0.14882226430E+02  0.25400396186E+02  0.00000000000E+00 0.  1.
</event>
<event>
 8    1  0.2466538E-006  0.9118800E+02  0.7816164E-02  0.1184000E+00
        -11   -1    0    0    0    0  0.00000000000E+00  0.00000000000E+00  0.45593999997E+02  0.45594000000E+02  0.51100000000E-03 0.  1.
         11   -1    0    0    0    0 -0.00000000000E+00 -0.00000000000E+00 -0.45593999997E+02  0.45594000000E+02  0.51100000000E-03 0. -1.
         23    2    1    2    0    0  0.00000000000E+00  0.00000000000E+00  0.00000000000E+00  0.91188000000E+02  0.91188000000E+02 0.  0.
    9900012    2    3    3    0    0  0.18197000446E+02 -0.29432790666E+02  0.12584104760E+02  0.54367086320E+02  0.40000004883E+02 0.  0.
         12    1    3    3    0    0 -0.18197000446E+02  0.29432790666E+02 -0.12584104760E+02  0.36820913680E+02  0.00000000000E+00 0. -1.
         11    1    4    4    0    0  0.12333354343E+02 -0.84494699141E+01 -0.55756389567E+01  0.15955968201E+02  0.51100000000E-03 0. -1.
        -11    1    4    4    0    0 -0.45631846792E+00 -0.22150152492E+02  0.35330766055E+01  0.22434796913E+02  0.51100000000E-03 0.  1.
         12    1    4    4    0    0  0.63199645712E+01  0.11668317400E+01  0.14626667111E+02  0.15976321206E+02  0.00000000000E+00 0. -1.
</event>
<event>
 8    1  0.2466538E-006  0.9118800E+02  0.7816164E-02  0.1184000E+00
        -11   -1    0    0    0    0  0.00000000000E+00  0.00000000000E+00  0.45593999997E+02  0.45594000000E+02  0.51100000000E-03 0. -1.
         11   -1    0    0    0    0 -0.00000000000E+00 -0.00000000000E+00 -0.45593999997E+02  0.45594000000E+02  0.51100000000E-03 0.  1.
         23    2    1    2    0    0 -0.35527136788E-14 -0.17763568394E-14 -0.35527136788E-14  0.91188000000E+02  0.91188000000E+02 0.  0.
    9900012    2    3    3    0    0 -0.19822736596E+02 -0.10408792665E+02  0.29231788934E+02  0.54367063901E+02  0.39999953775E+02 0.  0.
        -12    1    3    3    0    0  0.19822736596E+02  0.10408792665E+02 -0.29231788934E+02  0.36820936099E+02  0.00000000000E+00 0.  1.
         11    1    4    4    0    0 -0.15440484650E+02 -0.66364602567E+01  0.14001465941E+02  0.21874465016E+02  0.51100000000E-03 0. -1.
        -11    1    4    4    0    0 -0.15794439155E+02  0.16511398874E+01  0.10306117107E+02  0.18931630179E+02  0.51100000000E-03 0.  1.
        -12    1    4    4    0    0  0.11412187209E+02 -0.54234722960E+01  0.49242058860E+01  0.13560968706E+02  0.00000000000E+00 0.  1.
</event>
<event>
 8    1  0.2466538E-006  0.9118800E+02  0.7816164E-02  0.1184000E+00
        -11   -1    0    0    0    0  0.00000000000E+00  0.00000000000E+00  0.45593999997E+02  0.45594000000E+02  0.51100000000E-03 0.  1.
         11   -1    0    0    0    0 -0.00000000000E+00 -0.00000000000E+00 -0.45593999997E+02  0.45594000000E+02  0.51100000000E-03 0. -1.
         23    2    1    2    0    0 -0.26645352591E-14  0.00000000000E+00  0.00000000000E+00  0.91188000000E+02  0.91188000000E+02 0.  0.
    9900012    2    3    3    0    0  0.51469157324E+01 -0.33794356900E+02 -0.13683207096E+02  0.54367089415E+02  0.40000011940E+02 0.  0.
        -12    1    3    3    0    0 -0.51469157324E+01  0.33794356900E+02  0.13683207096E+02  0.36820910585E+02  0.00000000000E+00 0.  1.
         11    1    4    4    0    0 -0.80142042463E+01 -0.30672668629E+02 -0.68897520561E+01  0.32442391314E+02  0.51100000000E-03 0. -1.
        -11    1    4    4    0    0  0.14658840242E+02 -0.67250170226E+01 -0.28515277182E+01  0.16377993216E+02  0.51100000000E-03 0.  1.
         12    1    4    4    0    0 -0.14977202631E+01  0.36033287515E+01 -0.39419273215E+01  0.55467048854E+01  0.00000000000E+00 0. -1.
</event>
<event>
 8    1  0.2466538E-006  0.9118800E+02  0.7816164E-02  0.1184000E+00
        -11   -1    0    0    0    0  0.00000000000E+00  0.00000000000E+00  0.45593999997E+02  0.45594000000E+02  0.51100000000E-03 0. -1.
         11   -1    0    0    0    0 -0.00000000000E+00 -0.00000000000E+00 -0.45593999997E+02  0.45594000000E+02  0.51100000000E-03 0.  1.
         23    2    1    2    0    0  0.00000000000E+00  0.00000000000E+00 -0.35527136788E-14  0.91188000000E+02  0.91188000000E+02 0.  0.
    9900012    2    3    3    0    0 -0.23116452318E+02 -0.94642264311E+01 -0.27052442424E+02  0.54367128326E+02  0.40000100644E+02 0.  0.
         12    1    3    3    0    0  0.23116452318E+02  0.94642264311E+01  0.27052442424E+02  0.36820871674E+02  0.00000000000E+00 0. -1.
         11    1    4    4    0    0 -0.10114169828E+01 -0.78643180737E+01 -0.52462163481E+01  0.95075364480E+01  0.51100000000E-03 0. -1.
        -11    1    4    4    0    0 -0.26391862869E+02 -0.10391476029E+02 -0.11374621055E+02  0.30559699020E+02  0.51100000000E-03 0.  1.
         12    1    4    4    0    0  0.42868275337E+01  0.87915676716E+01 -0.10431605021E+02  0.14299892858E+02  0.00000000000E+00 0. -1.
</event>
<event>
 8    1  0.2466538E-006  0.9118800E+02  0.7816164E-02  0.1184000E+00
        -11   -1    0    0    0    0  0.00000000000E+00  0.00000000000E+00  0.45593999997E+02  0.45594000000E+02  0.51100000000E-03 0.  1.
         11   -1    0    0    0    0 -0.00000000000E+00 -0.00000000000E+00 -0.45593999997E+02  0.45594000000E+02  0.51100000000E-03 0. -1.
         23    2    1    2    0    0  0.00000000000E+00  0.00000000000E+00  0.11102230246E-14  0.91188000000E+02  0.91188000000E+02 0.  0.
    9900012    2    3    3    0    0  0.34217417844E+02 -0.13546575637E+02  0.11977400992E+01  0.54367136665E+02  0.40000119655E+02 0.  0.
         12    1    3    3    0    0 -0.34217417844E+02  0.13546575637E+02 -0.11977400992E+01  0.36820863335E+02  0.00000000000E+00 0. -1.
         11    1    4    4    0    0  0.29778560093E+02  0.37721650659E+01 -0.86207161117E+01  0.31229931429E+02  0.51100000000E-03 0. -1.
        -11    1    4    4    0    0  0.37535396179E+01 -0.28194976982E+00  0.79883239647E+00  0.38479460488E+01  0.51100000000E-03 0.  1.
         12    1    4    4    0    0  0.68531813269E+00 -0.17036790934E+02  0.90196238144E+01  0.19289259188E+02  0.00000000000E+00 0. -1.
</event>
<event>
 8    1  0.2466538E-006  0.9118800E+02  0.7816164E-02  0.1184000E+00
        -11   -1    0    0    0    0  0.00000000000E+00  0.00000000000E+00  0.45593999997E+02  0.45594000000E+02  0.51100000000E-03 0. -1.
         11   -1    0    0    0    0 -0.00000000000E+00 -0.00000000000E+00 -0.45593999997E+02  0.45594000000E+02  0.51100000000E-03 0.  1.
         23    2    1    2    0    0  0.17763568394E-14  0.00000000000E+00  0.00000000000E+00  0.91188000000E+02  0.91188000000E+02 0.  0.
    9900012    2    3    3    0    0 -0.14540107328E+02  0.28971264392E+02 -0.17465118536E+02  0.54367092257E+02  0.40000018419E+02 0.  0.
         12    1    3    3    0    0  0.14540107328E+02 -0.28971264392E+02  0.17465118536E+02  0.36820907743E+02  0.00000000000E+00 0. -1.
         11    1    4    4    0    0 -0.35091688286E+01 -0.17032710575E+01  0.80804121489E+01  0.89726506072E+01  0.51100000000E-03 0. -1.
        -11    1    4    4    0    0 -0.14760014782E+02  0.14899294854E+02 -0.11346974090E+02  0.23845352687E+02  0.51100000000E-03 0.  1.
        -12    1    4    4    0    0  0.37290762830E+01  0.15775240595E+02 -0.14198556594E+02  0.21549088963E+02  0.00000000000E+00 0.  1.
</event>
<event>
 8    1  0.2466538E-006  0.9118800E+02  0.7816164E-02  0.1184000E+00
        -11   -1    0    0    0    0  0.00000000000E+00  0.00000000000E+00  0.45593999997E+02  0.45594000000E+02  0.51100000000E-03 0.  1.
         11   -1    0    0    0    0 -0.00000000000E+00 -0.00000000000E+00 -0.45593999997E+02  0.45594000000E+02  0.51100000000E-03 0. -1.
         23    2    1    2    0    0  0.00000000000E+00 -0.66613381478E-15  0.00000000000E+00  0.91188000000E+02  0.91188000000E+02 0.  0.
    9900012    2    3    3    0    0  0.34407998863E+02 -0.17325436692E+01 -0.12994833192E+02  0.54367112138E+02  0.40000063740E+02 0.  0.
         12    1    3    3    0    0 -0.34407998863E+02  0.17325436692E+01  0.12994833192E+02  0.36820887862E+02  0.00000000000E+00 0. -1.
         11    1    4    4    0    0 -0.43889266434E+01 -0.77712352689E+01  0.23988393000E+01  0.92417100655E+01  0.51100000000E-03 0. -1.
        -11    1    4    4    0    0  0.23312830270E+02  0.20596913800E+01 -0.17188957882E+02  0.29037745386E+02  0.51100000000E-03 0.  1.
        -12    1    4    4    0    0  0.15484095236E+02  0.39790002197E+01  0.17952853898E+01  0.16087656686E+02  0.00000000000E+00 0.  1.
</event>
<event>
 8    1  0.2466538E-006  0.9118800E+02  0.7816164E-02  0.1184000E+00
        -11   -1    0    0    0    0  0.00000000000E+00  0.00000000000E+00  0.45593999997E+02  0.45594000000E+02  0.51100000000E-03 0.  1.
         11   -1    0    0    0    0 -0.00000000000E+00 -0.00000000000E+00 -0.45593999997E+02  0.45594000000E+02  0.51100000000E-03 0. -1.
         23    2    1    2    0    0  0.00000000000E+00  0.00000000000E+00  0.00000000000E+00  0.91188000000E+02  0.91188000000E+02 0.  0.
    9900012    2    3    3    0    0 -0.35949729497E+02 -0.48500205709E+01  0.63146099155E+01  0.54367081369E+02  0.39999993597E+02 0.  0.
         12    1    3    3    0    0  0.35949729497E+02  0.48500205709E+01 -0.63146099155E+01  0.36820918631E+02  0.00000000000E+00 0. -1.
         11    1    4    4    0    0  0.52336406453E+01 -0.20920715450E+00  0.63435571713E+01  0.82265107964E+01  0.51100000000E-03 0. -1.
        -11    1    4    4    0    0 -0.14602236751E+02  0.80587107018E+01 -0.26974314462E+00  0.16680554486E+02  0.51100000000E-03 0.  1.
         12    1    4    4    0    0 -0.26581133391E+02 -0.12699524118E+02  0.24079588881E+00  0.29460016087E+02  0.00000000000E+00 0. -1.
</event>
<event>
 8    1  0.2466538E-006  0.9118800E+02  0.7816164E-02  0.1184000E+00
        -11   -1    0    0    0    0  0.00000000000E+00  0.00000000000E+00  0.45593999997E+02  0.45594000000E+02  0.51100000000E-03 0.  1.
         11   -1    0    0    0    0 -0.00000000000E+00 -0.00000000000E+00 -0.45593999997E+02  0.45594000000E+02  0.51100000000E-03 0. -1.
         23    2    1    2    0    0  0.00000000000E+00 -0.17763568394E-14 -0.71054273576E-14  0.91188000000E+02  0.91188000000E+02 0.  0.
    9900012    2    3    3    0    0  0.26788353541E+02 -0.80974610860E+01 -0.23928945274E+02  0.54367093121E+02  0.40000020388E+02 0.  0.
        -12    1    3    3    0    0 -0.26788353541E+02  0.80974610860E+01  0.23928945274E+02  0.36820906879E+02  0.00000000000E+00 0.  1.
         11    1    4    4    0    0  0.43545296685E+01  0.24344291559E+01 -0.11882490704E+01  0.51283827922E+01  0.51100000000E-03 0. -1.
        -11    1    4    4    0    0 -0.13610503114E+01  0.10261927482E+02 -0.78160721224E-01  0.10352087855E+02  0.51100000000E-03 0.  1.
         12    1    4    4    0    0  0.23794874184E+02 -0.20793817724E+02 -0.22662535482E+02  0.38886622474E+02  0.00000000000E+00 0. -1.
</event>
<event>
 8    1  0.2466538E-006  0.9118800E+02  0.7816164E-02  0.1184000E+00
        -11   -1    0    0    0    0  0.00000000000E+00  0.00000000000E+00  0.45593999997E+02  0.45594000000E+02  0.51100000000E-03 0.  1.
         11   -1    0    0    0    0 -0.00000000000E+00 -0.00000000000E+00 -0.45593999997E+02  0.45594000000E+02  0.51100000000E-03 0. -1.
         23    2    1    2    0    0  0.00000000000E+00 -0.17763568394E-14 -0.35527136788E-14  0.91188000000E+02  0.91188000000E+02 0.  0.
    9900012    2    3    3    0    0  0.25207019265E+02  0.80089019819E+01  0.25617361994E+02  0.54367006441E+02  0.39999822783E+02 0.  0.
         12    1    3    3    0    0 -0.25207019265E+02 -0.80089019819E+01 -0.25617361994E+02  0.36820993559E+02  0.00000000000E+00 0. -1.
         11    1    4    4    0    0  0.52478760691E+01  0.70663255913E+01  0.47325274452E+01  0.99934967293E+01  0.51100000000E-03 0. -1.
        -11    1    4    4    0    0  0.25889841058E+02 -0.20252690983E+01  0.40543039961E+01  0.26283511297E+02  0.51100000000E-03 0.  1.
        -12    1    4    4    0    0 -0.59306978625E+01  0.29678454890E+01  0.16830530552E+02  0.18089998415E+02  0.00000000000E+00 0.  1.
</event>
<event>
 8    1  0.2466538E-006  0.9118800E+02  0.7816164E-02  0.1184000E+00
        -11   -1    0    0    0    0  0.00000000000E+00  0.00000000000E+00  0.45593999997E+02  0.45594000000E+02  0.51100000000E-03 0.  1.
         11   -1    0    0    0    0 -0.00000000000E+00 -0.00000000000E+00 -0.45593999997E+02  0.45594000000E+02  0.51100000000E-03 0. -1.
         23    2    1    2    0    0  0.71054273576E-14  0.00000000000E+00  0.00000000000E+00  0.91188000000E+02  0.91188000000E+02 0.  0.
    9900012    2    3    3    0    0 -0.30002788843E+02 -0.21236740614E+02  0.21477617623E+01  0.54367090575E+02  0.40000014584E+02 0.  0.
         12    1    3    3    0    0  0.30002788843E+02  0.21236740614E+02 -0.21477617623E+01  0.36820909425E+02  0.00000000000E+00 0. -1.
         11    1    4    4    0    0  0.54179302045E+01 -0.36610934256E+01  0.14444624994E+01  0.66965696401E+01  0.51100000000E-03 0. -1.
        -11    1    4    4    0    0 -0.17228950358E+02 -0.12772336302E+02 -0.12370706289E+02  0.24758911111E+02  0.51100000000E-03 0.  1.
         12    1    4    4    0    0 -0.18191768690E+02 -0.48033108869E+01  0.13074005552E+02  0.22911609824E+02  0.00000000000E+00 0. -1.
</event>
<event>
 8    1  0.2466538E-006  0.9118800E+02  0.7816164E-02  0.1184000E+00
        -11   -1    0    0    0    0  0.00000000000E+00  0.00000000000E+00  0.45593999997E+02  0.45594000000E+02  0.51100000000E-03 0. -1.
         11   -1    0    0    0    0 -0.00000000000E+00 -0.00000000000E+00 -0.45593999997E+02  0.45594000000E+02  0.51100000000E-03 0.  1.
         23    2    1    2    0    0  0.00000000000E+00 -0.88817841970E-15  0.35527136788E-14  0.91188000000E+02  0.91188000000E+02 0.  0.
    9900012    2    3    3    0    0  0.21114705987E+02  0.47494993220E+01  0.29789116836E+02  0.54367081563E+02  0.39999994038E+02 0.  0.
        -12    1    3    3    0    0 -0.21114705987E+02 -0.47494993220E+01 -0.29789116836E+02  0.36820918437E+02  0.00000000000E+00 0.  1.
         11    1    4    4    0    0  0.21155192525E+02  0.15302488838E+02  0.44109324700E+01  0.26479513986E+02  0.51100000000E-03 0. -1.
        -11    1    4    4    0    0 -0.14845369097E+01 -0.96339237354E+00  0.27677441396E+01  0.32851761878E+01  0.51100000000E-03 0.  1.
         12    1    4    4    0    0  0.14440503718E+01 -0.95895971426E+01  0.22610440226E+02  0.24602391389E+02  0.00000000000E+00 0. -1.
</event>
<event>
 8    1  0.2466538E-006  0.9118800E+02  0.7816164E-02  0.1184000E+00
        -11   -1    0    0    0    0  0.00000000000E+00  0.00000000000E+00  0.45593999997E+02  0.45594000000E+02  0.51100000000E-03 0. -1.
         11   -1    0    0    0    0 -0.00000000000E+00 -0.00000000000E+00 -0.45593999997E+02  0.45594000000E+02  0.51100000000E-03 0.  1.
         23    2    1    2    0    0  0.00000000000E+00  0.17763568394E-14  0.00000000000E+00  0.91188000000E+02  0.91188000000E+02 0.  0.
    9900012    2    3    3    0    0 -0.27106746022E+01  0.68266202159E+01 -0.36080793459E+02  0.54367161376E+02  0.40000175988E+02 0.  0.
         12    1    3    3    0    0  0.27106746022E+01 -0.68266202159E+01  0.36080793459E+02  0.36820838624E+02  0.00000000000E+00 0. -1.
         11    1    4    4    0    0  0.90466865805E+01 -0.76969924064E+00  0.30162543365E+01  0.95672757612E+01  0.51100000000E-03 0. -1.
        -11    1    4    4    0    0 -0.86444471963E+01 -0.41058731523E+01 -0.14339978491E+02  0.17240059311E+02  0.51100000000E-03 0.  1.
         12    1    4    4    0    0 -0.31129139864E+01  0.11702192609E+02 -0.24757069304E+02  0.27559826304E+02  0.00000000000E+00 0. -1.
</event>
<event>
 8    1  0.2466538E-006  0.9118800E+02  0.7816164E-02  0.1184000E+00
        -11   -1    0    0    0    0  0.00000000000E+00  0.00000000000E+00  0.45593999997E+02  0.45594000000E+02  0.51100000000E-03 0. -1.
         11   -1    0    0    0    0 -0.00000000000E+00 -0.00000000000E+00 -0.45593999997E+02  0.45594000000E+02  0.51100000000E-03 0.  1.
         23    2    1    2    0    0 -0.71054273576E-14 -0.88817841970E-15  0.71054273576E-14  0.91188000000E+02  0.91188000000E+02 0.  0.
    9900012    2    3    3    0    0 -0.29368712014E+02 -0.65558419901E+01  0.21219774169E+02  0.54367093909E+02  0.40000022185E+02 0.  0.
         12    1    3    3    0    0  0.29368712014E+02  0.65558419901E+01 -0.21219774169E+02  0.36820906091E+02  0.00000000000E+00 0. -1.
         11    1    4    4    0    0 -0.46817648644E+01 -0.92263076089E+01 -0.80357559380E+01  0.13100269008E+02  0.51100000000E-03 0.  1.
        -11    1    4    4    0    0 -0.48747066038E+00 -0.29186322057E+01  0.91802212363E-01  0.29604846739E+01  0.51100000000E-03 0. -1.
        -12    1    4    4    0    0 -0.24199476489E+02  0.55890978245E+01  0.29163727895E+02  0.38306340227E+02  0.00000000000E+00 0.  1.
</event>
<event>
 8    1  0.2466538E-006  0.9118800E+02  0.7816164E-02  0.1184000E+00
        -11   -1    0    0    0    0  0.00000000000E+00  0.00000000000E+00  0.45593999997E+02  0.45594000000E+02  0.51100000000E-03 0. -1.
         11   -1    0    0    0    0 -0.00000000000E+00 -0.00000000000E+00 -0.45593999997E+02  0.45594000000E+02  0.51100000000E-03 0.  1.
         23    2    1    2    0    0 -0.35527136788E-14  0.44408920985E-15  0.35527136788E-14  0.91188000000E+02  0.91188000000E+02 0.  0.
    9900012    2    3    3    0    0 -0.20564201798E+02  0.16061298427E+01  0.30501036437E+02  0.54367091912E+02  0.40000017633E+02 0.  0.
        -12    1    3    3    0    0  0.20564201798E+02 -0.16061298427E+01 -0.30501036437E+02  0.36820908088E+02  0.00000000000E+00 0.  1.
         11    1    4    4    0    0 -0.27270517288E+01  0.13301818007E+02  0.18224133017E+02  0.22726508704E+02  0.51100000000E-03 0. -1.
        -11    1    4    4    0    0 -0.23499979615E+01 -0.48971976356E+00  0.12292273718E+02  0.12524468424E+02  0.51100000000E-03 0.  1.
        -12    1    4    4    0    0 -0.15487152108E+02 -0.11205968400E+02 -0.15370298188E-01  0.19116114784E+02  0.00000000000E+00 0.  1.
</event>
<event>
 8    1  0.2466538E-006  0.9118800E+02  0.7816164E-02  0.1184000E+00
        -11   -1    0    0    0    0  0.00000000000E+00  0.00000000000E+00  0.45593999997E+02  0.45594000000E+02  0.51100000000E-03 0.  1.
         11   -1    0    0    0    0 -0.00000000000E+00 -0.00000000000E+00 -0.45593999997E+02  0.45594000000E+02  0.51100000000E-03 0. -1.
         23    2    1    2    0    0  0.00000000000E+00  0.00000000000E+00 -0.71054273576E-14  0.91188000000E+02  0.91188000000E+02 0.  0.
    9900012    2    3    3    0    0 -0.92919948997E+01  0.70816192402E+01  0.34918335740E+02  0.54367072919E+02  0.39999974333E+02 0.  0.
         12    1    3    3    0    0  0.92919948997E+01 -0.70816192402E+01 -0.34918335740E+02  0.36820927081E+02  0.00000000000E+00 0. -1.
         11    1    4    4    0    0 -0.27773926663E+01 -0.58522208334E+01  0.18733744775E+02  0.19822098584E+02  0.51100000000E-03 0. -1.
        -11    1    4    4    0    0 -0.63632865342E+01 -0.45072204012E+00 -0.59203652252E+01  0.87031770369E+01  0.51100000000E-03 0.  1.
        -12    1    4    4    0    0 -0.15131569917E+00  0.13384562114E+02  0.22104956190E+02  0.25841797298E+02  0.00000000000E+00 0.  1.
</event>
<event>
 8    1  0.2466538E-006  0.9118800E+02  0.7816164E-02  0.1184000E+00
        -11   -1    0    0    0    0  0.00000000000E+00  0.00000000000E+00  0.45593999997E+02  0.45594000000E+02  0.51100000000E-03 0.  1.
         11   -1    0    0    0    0 -0.00000000000E+00 -0.00000000000E+00 -0.45593999997E+02  0.45594000000E+02  0.51100000000E-03 0. -1.
         23    2    1    2    0    0  0.00000000000E+00  0.35527136788E-14  0.00000000000E+00  0.91188000000E+02  0.91188000000E+02 0.  0.
    9900012    2    3    3    0    0  0.82839897821E+01  0.27188389785E+02 -0.23408299521E+02  0.54367061497E+02  0.39999948294E+02 0.  0.
        -12    1    3    3    0    0 -0.82839897821E+01 -0.27188389785E+02  0.23408299521E+02  0.36820938503E+02  0.00000000000E+00 0.  1.
         11    1    4    4    0    0  0.23471750921E+01  0.87645693568E+01 -0.18365027666E+02  0.20484168237E+02  0.51100000000E-03 0. -1.
        -11    1    4    4    0    0  0.14443781156E+02  0.18357538353E+02 -0.82772029130E+01  0.24781729495E+02  0.51100000000E-03 0.  1.
         12    1    4    4    0    0 -0.85069664664E+01  0.66282075313E-01  0.32339310583E+01  0.91011637643E+01  0.00000000000E+00 0. -1.
</event>
<event>
 8    1  0.2466538E-006  0.9118800E+02  0.7816164E-02  0.1184000E+00
        -11   -1    0    0    0    0  0.00000000000E+00  0.00000000000E+00  0.45593999997E+02  0.45594000000E+02  0.51100000000E-03 0.  1.
         11   -1    0    0    0    0 -0.00000000000E+00 -0.00000000000E+00 -0.45593999997E+02  0.45594000000E+02  0.51100000000E-03 0. -1.
         23    2    1    2    0    0  0.00000000000E+00  0.00000000000E+00  0.00000000000E+00  0.91188000000E+02  0.91188000000E+02 0.  0.
    9900012    2    3    3    0    0 -0.12161544992E+02 -0.32903698756E+02 -0.11190326867E+02  0.54367082252E+02  0.39999995610E+02 0.  0.
        -12    1    3    3    0    0  0.12161544992E+02  0.32903698756E+02  0.11190326867E+02  0.36820917748E+02  0.00000000000E+00 0.  1.
         11    1    4    4    0    0 -0.14844848809E+02 -0.22656021073E+01 -0.10123334569E+02  0.18110339371E+02  0.51100000000E-03 0. -1.
        -11    1    4    4    0    0 -0.60746945984E+00 -0.32459476861E+02 -0.12708383823E+01  0.32490024434E+02  0.51100000000E-03 0.  1.
        -12    1    4    4    0    0  0.32907732769E+01  0.18213802123E+01  0.20384608403E+00  0.37667184476E+01  0.00000000000E+00 0.  1.
</event>
<event>
 8    1  0.2466538E-006  0.9118800E+02  0.7816164E-02  0.1184000E+00
        -11   -1    0    0    0    0  0.00000000000E+00  0.00000000000E+00  0.45593999997E+02  0.45594000000E+02  0.51100000000E-03 0.  1.
         11   -1    0    0    0    0 -0.00000000000E+00 -0.00000000000E+00 -0.45593999997E+02  0.45594000000E+02  0.51100000000E-03 0. -1.
         23    2    1    2    0    0 -0.35527136788E-14  0.00000000000E+00  0.00000000000E+00  0.91188000000E+02  0.91188000000E+02 0.  0.
    9900012    2    3    3    0    0 -0.26748866769E+02 -0.14482762081E+02 -0.20749194730E+02  0.54367063661E+02  0.39999953229E+02 0.  0.
        -12    1    3    3    0    0  0.26748866769E+02  0.14482762081E+02  0.20749194730E+02  0.36820936339E+02  0.00000000000E+00 0.  1.
         11    1    4    4    0    0 -0.10478362919E+01  0.28191549285E+01  0.17944295515E+01  0.35022240194E+01  0.51100000000E-03 0. -1.
        -11    1    4    4    0    0 -0.22578381984E+01  0.28323794935E+01  0.71456637490E+01  0.80112868879E+01  0.51100000000E-03 0.  1.
         12    1    4    4    0    0 -0.23443192278E+02 -0.20134296503E+02 -0.29689288031E+02  0.42853552754E+02  0.00000000000E+00 0. -1.
</event>
<event>
 8    1  0.2466538E-006  0.9118800E+02  0.7816164E-02  0.1184000E+00
        -11   -1    0    0    0    0  0.00000000000E+00  0.00000000000E+00  0.45593999997E+02  0.45594000000E+02  0.51100000000E-03 0. -1.
         11   -1    0    0    0    0 -0.00000000000E+00 -0.00000000000E+00 -0.45593999997E+02  0.45594000000E+02  0.51100000000E-03 0.  1.
         23    2    1    2    0    0  0.35527136788E-14 -0.17763568394E-14  0.35527136788E-14  0.91188000000E+02  0.91188000000E+02 0.  0.
    9900012    2    3    3    0    0 -0.28914265295E+02  0.11793637545E+02 -0.19510387571E+02  0.54367084106E+02  0.39999999836E+02 0.  0.
        -12    1    3    3    0    0  0.28914265295E+02 -0.11793637545E+02  0.19510387571E+02  0.36820915894E+02  0.00000000000E+00 0.  1.
         11    1    4    4    0    0 -0.11564943430E+02 -0.32562569792E+01 -0.23549366285E+02  0.26437166617E+02  0.51100000000E-03 0.  1.
        -11    1    4    4    0    0 -0.12228025350E+02  0.87915423169E+01  0.98290816131E+01  0.17984067001E+02  0.51100000000E-03 0. -1.
         12    1    4    4    0    0 -0.51212965150E+01  0.62583522075E+01 -0.57901028992E+01  0.99458504880E+01  0.00000000000E+00 0. -1.
</event>
<event>
 8    1  0.2466538E-006  0.9118800E+02  0.7816164E-02  0.1184000E+00
        -11   -1    0    0    0    0  0.00000000000E+00  0.00000000000E+00  0.45593999997E+02  0.45594000000E+02  0.51100000000E-03 0. -1.
         11   -1    0    0    0    0 -0.00000000000E+00 -0.00000000000E+00 -0.45593999997E+02  0.45594000000E+02  0.51100000000E-03 0.  1.
         23    2    1    2    0    0  0.00000000000E+00 -0.17763568394E-14  0.00000000000E+00  0.91188000000E+02  0.91188000000E+02 0.  0.
    9900012    2    3    3    0    0 -0.20917875477E+02 -0.11666319980E+02 -0.27966397931E+02  0.54367082717E+02  0.39999996669E+02 0.  0.
         12    1    3    3    0    0  0.20917875477E+02  0.11666319980E+02  0.27966397931E+02  0.36820917283E+02  0.00000000000E+00 0. -1.
         11    1    4    4    0    0 -0.46196163675E+01  0.38722769710E+01 -0.21264124431E+02  0.22101999285E+02  0.51100000000E-03 0. -1.
        -11    1    4    4    0    0 -0.10674463413E+02  0.81034804676E+00 -0.10017189740E+02  0.14661000091E+02  0.51100000000E-03 0.  1.
         12    1    4    4    0    0 -0.56237956963E+01 -0.16348944997E+02  0.33149162404E+01  0.17604083340E+02  0.00000000000E+00 0. -1.
</event>
<event>
 8    1  0.2466538E-006  0.9118800E+02  0.7816164E-02  0.1184000E+00
        -11   -1    0    0    0    0  0.00000000000E+00  0.00000000000E+00  0.45593999997E+02  0.45594000000E+02  0.51100000000E-03 0. -1.
         11   -1    0    0    0    0 -0.00000000000E+00 -0.00000000000E+00 -0.45593999997E+02  0.45594000000E+02  0.51100000000E-03 0.  1.
         23    2    1    2    0    0  0.88817841970E-15  0.00000000000E+00  0.00000000000E+00  0.91188000000E+02  0.91188000000E+02 0.  0.
    9900012    2    3    3    0    0  0.43796619190E+01 -0.31460081710E+02 -0.18624218108E+02  0.54367086379E+02  0.40000005019E+02 0.  0.
         12    1    3    3    0    0 -0.43796619190E+01  0.31460081710E+02  0.18624218108E+02  0.36820913621E+02  0.00000000000E+00 0. -1.
         11    1    4    4    0    0  0.24787799401E+01 -0.11263537876E+01 -0.55260417661E+01  0.61603701762E+01  0.51100000000E-03 0. -1.
        -11    1    4    4    0    0  0.32496879371E+01 -0.71385629354E+01 -0.21976208693E+02  0.23333951686E+02  0.51100000000E-03 0.  1.
         12    1    4    4    0    0 -0.13488059582E+01 -0.23195164987E+02  0.88780323515E+01  0.24872764517E+02  0.00000000000E+00 0. -1.
</event>
<event>
 8    1  0.2466538E-006  0.9118800E+02  0.7816164E-02  0.1184000E+00
        -11   -1    0    0    0    0  0.00000000000E+00  0.00000000000E+00  0.45593999997E+02  0.45594000000E+02  0.51100000000E-03 0. -1.
         11   -1    0    0    0    0 -0.00000000000E+00 -0.00000000000E+00 -0.45593999997E+02  0.45594000000E+02  0.51100000000E-03 0.  1.
         23    2    1    2    0    0 -0.17763568394E-14  0.00000000000E+00  0.00000000000E+00  0.91188000000E+02  0.91188000000E+02 0.  0.
    9900012    2    3    3    0    0  0.12316375521E+02 -0.32489860210E+02 -0.12185832050E+02  0.54367100701E+02  0.40000037669E+02 0.  0.
         12    1    3    3    0    0 -0.12316375521E+02  0.32489860210E+02  0.12185832050E+02  0.36820899299E+02  0.00000000000E+00 0. -1.
         11    1    4    4    0    0  0.16215151179E+02 -0.86605183456E+01 -0.59886319171E+01  0.19333892993E+02  0.51100000000E-03 0. -1.
        -11    1    4    4    0    0 -0.94153338656E+01 -0.21614438851E+00 -0.52127547839E+01  0.10764201916E+02  0.51100000000E-03 0.  1.
         12    1    4    4    0    0  0.55165582072E+01 -0.23613197476E+02 -0.98444534878E+00  0.24269005792E+02  0.00000000000E+00 0. -1.
</event>
<event>
 8    1  0.2466538E-006  0.9118800E+02  0.7816164E-02  0.1184000E+00
        -11   -1    0    0    0    0  0.00000000000E+00  0.00000000000E+00  0.45593999997E+02  0.45594000000E+02  0.51100000000E-03 0.  1.
         11   -1    0    0    0    0 -0.00000000000E+00 -0.00000000000E+00 -0.45593999997E+02  0.45594000000E+02  0.51100000000E-03 0. -1.
         23    2    1    2    0    0 -0.71054273576E-14 -0.88817841970E-15  0.17763568394E-14  0.91188000000E+02  0.91188000000E+02 0.  0.
    9900012    2    3    3    0    0 -0.32994643247E+02 -0.56260961321E+01  0.15345340344E+02  0.54367096820E+02  0.40000028821E+02 0.  0.
        -12    1    3    3    0    0  0.32994643247E+02  0.56260961321E+01 -0.15345340344E+02  0.36820903180E+02  0.00000000000E+00 0.  1.
         11    1    4    4    0    0 -0.21608993770E+02  0.30588445156E+01 -0.18007637541E+01  0.21898581961E+02  0.51100000000E-03 0. -1.
        -11    1    4    4    0    0 -0.17992764080E+02 -0.38144151303E+01  0.15596702696E+02  0.24115274356E+02  0.51100000000E-03 0.  1.
        -12    1    4    4    0    0  0.66071146032E+01 -0.48705255174E+01  0.15494014025E+01  0.83532405030E+01  0.00000000000E+00 0.  1.
</event>
<event>
 8    1  0.2466538E-006  0.9118800E+02  0.7816164E-02  0.1184000E+00
        -11   -1    0    0    0    0  0.00000000000E+00  0.00000000000E+00  0.45593999997E+02  0.45594000000E+02  0.51100000000E-03 0. -1.
         11   -1    0    0    0    0 -0.00000000000E+00 -0.00000000000E+00 -0.45593999997E+02  0.45594000000E+02  0.51100000000E-03 0.  1.
         23    2    1    2    0    0  0.00000000000E+00  0.00000000000E+00  0.00000000000E+00  0.91188000000E+02  0.91188000000E+02 0.  0.
    9900012    2    3    3    0    0 -0.26287540965E+02 -0.17692895168E+02 -0.18753846397E+02  0.54367080619E+02  0.39999991887E+02 0.  0.
         12    1    3    3    0    0  0.26287540965E+02  0.17692895168E+02  0.18753846397E+02  0.36820919381E+02  0.00000000000E+00 0. -1.
         11    1    4    4    0    0 -0.13665767161E+02 -0.45777219634E+01  0.28726354425E+01  0.14695603599E+02  0.51100000000E-03 0. -1.
        -11    1    4    4    0    0  0.78013904222E+01 -0.57935176920E+01 -0.13212606809E+02  0.16401204795E+02  0.51100000000E-03 0.  1.
        -12    1    4    4    0    0 -0.20423164226E+02 -0.73216555122E+01 -0.84138750301E+01  0.23270272225E+02  0.00000000000E+00 0.  1.
</event>
<event>
 8    1  0.2466538E-006  0.9118800E+02  0.7816164E-02  0.1184000E+00
        -11   -1    0    0    0    0  0.00000000000E+00  0.00000000000E+00  0.45593999997E+02  0.45594000000E+02  0.51100000000E-03 0. -1.
         11   -1    0    0    0    0 -0.00000000000E+00 -0.00000000000E+00 -0.45593999997E+02  0.45594000000E+02  0.51100000000E-03 0.  1.
         23    2    1    2    0    0  0.00000000000E+00  0.00000000000E+00 -0.71054273576E-14  0.91188000000E+02  0.91188000000E+02 0.  0.
    9900012    2    3    3    0    0  0.85669069959E+01  0.12040917244E+02  0.33725411572E+02  0.54367096029E+02  0.40000027017E+02 0.  0.
        -12    1    3    3    0    0 -0.85669069959E+01 -0.12040917244E+02 -0.33725411572E+02  0.36820903971E+02  0.00000000000E+00 0.  1.
         11    1    4    4    0    0  0.13500482577E+01  0.13501722916E+02 -0.89621920419E+00  0.13598616148E+02  0.51100000000E-03 0. -1.
        -11    1    4    4    0    0 -0.17185813724E+01  0.13743165438E+01 -0.19954007230E+01  0.29705036951E+01  0.51100000000E-03 0.  1.
         12    1    4    4    0    0  0.89354401106E+01 -0.28351222157E+01  0.36617031499E+02  0.37797976186E+02  0.00000000000E+00 0. -1.
</event>
<event>
 8    1  0.2466538E-006  0.9118800E+02  0.7816164E-02  0.1184000E+00
        -11   -1    0    0    0    0  0.00000000000E+00  0.00000000000E+00  0.45593999997E+02  0.45594000000E+02  0.51100000000E-03 0.  1.
         11   -1    0    0    0    0 -0.00000000000E+00 -0.00000000000E+00 -0.45593999997E+02  0.45594000000E+02  0.51100000000E-03 0. -1.
         23    2    1    2    0    0  0.17763568394E-14  0.00000000000E+00  0.00000000000E+00  0.91188000000E+02  0.91188000000E+02 0.  0.
    9900012    2    3    3    0    0  0.80509567829E+01 -0.27342766576E+01  0.35825793999E+02  0.54367059088E+02  0.39999942803E+02 0.  0.
         12    1    3    3    0    0 -0.80509567829E+01  0.27342766576E+01 -0.35825793999E+02  0.36820940912E+02  0.00000000000E+00 0. -1.
         11    1    4    4    0    0 -0.12103741968E+00  0.81433718415E+01  0.80209880175E+01  0.11430896905E+02  0.51100000000E-03 0. -1.
        -11    1    4    4    0    0  0.18284437633E+02 -0.12219471158E+02  0.15261705614E+02  0.26768559795E+02  0.51100000000E-03 0.  1.
        -12    1    4    4    0    0 -0.10112443430E+02  0.13418226593E+01  0.12543100367E+02  0.16167602389E+02  0.00000000000E+00 0.  1.
</event>
<event>
 8    1  0.2466538E-006  0.9118800E+02  0.7816164E-02  0.1184000E+00
        -11   -1    0    0    0    0  0.00000000000E+00  0.00000000000E+00  0.45593999997E+02  0.45594000000E+02  0.51100000000E-03 0. -1.
         11   -1    0    0    0    0 -0.00000000000E+00 -0.00000000000E+00 -0.45593999997E+02  0.45594000000E+02  0.51100000000E-03 0.  1.
         23    2    1    2    0    0  0.22204460493E-15  0.35527136788E-14  0.00000000000E+00  0.91188000000E+02  0.91188000000E+02 0.  0.
    9900012    2    3    3    0    0 -0.10142245608E+01  0.29621112919E+02 -0.21848120229E+02  0.54367091000E+02  0.40000015554E+02 0.  0.
         12    1    3    3    0    0  0.10142245608E+01 -0.29621112919E+02  0.21848120229E+02  0.36820909000E+02  0.00000000000E+00 0. -1.
         11    1    4    4    0    0  0.47575363932E+01 -0.14531917638E+01 -0.47489038911E+01  0.68773546704E+01  0.51100000000E-03 0. -1.
        -11    1    4    4    0    0 -0.89327505639E+01  0.34800318920E+02 -0.20658787909E+02  0.41444441699E+02  0.51100000000E-03 0.  1.
        -12    1    4    4    0    0  0.31609896099E+01 -0.37260142371E+01  0.35595715713E+01  0.60452946314E+01  0.00000000000E+00 0.  1.
</event>
<event>
 8    1  0.2466538E-006  0.9118800E+02  0.7816164E-02  0.1184000E+00
        -11   -1    0    0    0    0  0.00000000000E+00  0.00000000000E+00  0.45593999997E+02  0.45594000000E+02  0.51100000000E-03 0.  1.
         11   -1    0    0    0    0 -0.00000000000E+00 -0.00000000000E+00 -0.45593999997E+02  0.45594000000E+02  0.51100000000E-03 0. -1.
         23    2    1    2    0    0  0.00000000000E+00  0.00000000000E+00 -0.35527136788E-14  0.91188000000E+02  0.91188000000E+02 0.  0.
    9900012    2    3    3    0    0 -0.86918558403E+01  0.19410584411E+02 -0.30057621677E+02  0.54367085210E+02  0.40000002353E+02 0.  0.
        -12    1    3    3    0    0  0.86918558403E+01 -0.19410584411E+02  0.30057621677E+02  0.36820914790E+02  0.00000000000E+00 0.  1.
         11    1    4    4    0    0  0.48361661239E+01 -0.55091161981E+00 -0.14724049105E+02  0.15507728031E+02  0.51100000000E-03 0. -1.
        -11    1    4    4    0    0 -0.15199887859E+02  0.25373817486E+02 -0.10417887392E+02  0.31359202520E+02  0.51100000000E-03 0.  1.
        -12    1    4    4    0    0  0.16718658946E+01 -0.54123214554E+01 -0.49156851804E+01  0.75001546583E+01  0.00000000000E+00 0.  1.
</event>
<event>
 8    1  0.2466538E-006  0.9118800E+02  0.7816164E-02  0.1184000E+00
        -11   -1    0    0    0    0  0.00000000000E+00  0.00000000000E+00  0.45593999997E+02  0.45594000000E+02  0.51100000000E-03 0.  1.
         11   -1    0    0    0    0 -0.00000000000E+00 -0.00000000000E+00 -0.45593999997E+02  0.45594000000E+02  0.51100000000E-03 0. -1.
         23    2    1    2    0    0  0.00000000000E+00  0.00000000000E+00 -0.35527136788E-14  0.91188000000E+02  0.91188000000E+02 0.  0.
    9900012    2    3    3    0    0  0.18613039259E+02  0.16400101218E+02 -0.27209767023E+02  0.54367082415E+02  0.39999995981E+02 0.  0.
        -12    1    3    3    0    0 -0.18613039259E+02 -0.16400101218E+02  0.27209767023E+02  0.36820917585E+02  0.00000000000E+00 0.  1.
         11    1    4    4    0    0  0.49567949613E+01  0.16027601470E+02 -0.26364041758E+02  0.31249264364E+02  0.51100000000E-03 0. -1.
        -11    1    4    4    0    0  0.91515618241E+01  0.72384404816E+01 -0.62993999849E+01  0.13260035628E+02  0.51100000000E-03 0.  1.
         12    1    4    4    0    0  0.45046824733E+01 -0.68659407337E+01  0.54536747206E+01  0.98577824231E+01  0.00000000000E+00 0. -1.
</event>
<event>
 8    1  0.2466538E-006  0.9118800E+02  0.7816164E-02  0.1184000E+00
        -11   -1    0    0    0    0  0.00000000000E+00  0.00000000000E+00  0.45593999997E+02  0.45594000000E+02  0.51100000000E-03 0. -1.
         11   -1    0    0    0    0 -0.00000000000E+00 -0.00000000000E+00 -0.45593999997E+02  0.45594000000E+02  0.51100000000E-03 0.  1.
         23    2    1    2    0    0  0.44408920985E-15  0.88817841970E-15  0.00000000000E+00  0.91188000000E+02  0.91188000000E+02 0.  0.
    9900012    2    3    3    0    0  0.24544776741E+01 -0.61703355370E+01  0.36217089282E+02  0.54367149149E+02  0.40000148116E+02 0.  0.
        -12    1    3    3    0    0 -0.24544776741E+01  0.61703355370E+01 -0.36217089282E+02  0.36820850851E+02  0.00000000000E+00 0.  1.
         11    1    4    4    0    0 -0.10552057706E+02 -0.65798654003E+01  0.17770368300E+02  0.21689318576E+02  0.51100000000E-03 0. -1.
        -11    1    4    4    0    0  0.19041318034E+02  0.26018110004E+01  0.17850769613E+02  0.26229586138E+02  0.51100000000E-03 0.  1.
        -12    1    4    4    0    0 -0.60347826536E+01 -0.21922811371E+01  0.59595136969E+00  0.64482444351E+01  0.00000000000E+00 0.  1.
</event>
<event>
 8    1  0.2466538E-006  0.9118800E+02  0.7816164E-02  0.1184000E+00
        -11   -1    0    0    0    0  0.00000000000E+00  0.00000000000E+00  0.45593999997E+02  0.45594000000E+02  0.51100000000E-03 0.  1.
         11   -1    0    0    0    0 -0.00000000000E+00 -0.00000000000E+00 -0.45593999997E+02  0.45594000000E+02  0.51100000000E-03 0. -1.
         23    2    1    2    0    0  0.00000000000E+00 -0.17763568394E-14  0.00000000000E+00  0.91188000000E+02  0.91188000000E+02 0.  0.
    9900012    2    3    3    0    0 -0.15478866172E+02 -0.14542661478E+02 -0.30078146127E+02  0.54367093231E+02  0.40000020639E+02 0.  0.
        -12    1    3    3    0    0  0.15478866172E+02  0.14542661478E+02  0.30078146127E+02  0.36820906769E+02  0.00000000000E+00 0.  1.
         11    1    4    4    0    0 -0.12837406628E+01  0.45841578171E+01 -0.16819119081E+00  0.47634841785E+01  0.51100000000E-03 0. -1.
        -11    1    4    4    0    0  0.34955100119E+00 -0.77558155005E+01  0.56057403720E+01  0.95759691603E+01  0.51100000000E-03 0.  1.
         12    1    4    4    0    0 -0.14544676511E+02 -0.11371003795E+02 -0.35515695308E+02  0.40027639892E+02  0.00000000000E+00 0. -1.
</event>
<event>
 8    1  0.2466538E-006  0.9118800E+02  0.7816164E-02  0.1184000E+00
        -11   -1    0    0    0    0  0.00000000000E+00  0.00000000000E+00  0.45593999997E+02  0.45594000000E+02  0.51100000000E-03 0.  1.
         11   -1    0    0    0    0 -0.00000000000E+00 -0.00000000000E+00 -0.45593999997E+02  0.45594000000E+02  0.51100000000E-03 0. -1.
         23    2    1    2    0    0  0.17763568394E-14  0.00000000000E+00  0.00000000000E+00  0.91188000000E+02  0.91188000000E+02 0.  0.
    9900012    2    3    3    0    0 -0.10832098927E+02 -0.23512428586E+02 -0.26184168800E+02  0.54367090710E+02  0.40000014893E+02 0.  0.
        -12    1    3    3    0    0  0.10832098927E+02  0.23512428586E+02  0.26184168800E+02  0.36820909290E+02  0.00000000000E+00 0.  1.
         11    1    4    4    0    0 -0.65121652714E+01  0.99927677822E+00 -0.11403223455E+02  0.13169675623E+02  0.51100000000E-03 0. -1.
        -11    1    4    4    0    0 -0.12179310806E+01 -0.13279739314E+02 -0.23242762371E+02  0.26796657166E+02  0.51100000000E-03 0.  1.
        -12    1    4    4    0    0 -0.31020025749E+01 -0.11231966050E+02  0.84618170260E+01  0.14400757921E+02  0.00000000000E+00 0.  1.
</event>
<event>
 8    1  0.2466538E-006  0.9118800E+02  0.7816164E-02  0.1184000E+00
        -11   -1    0    0    0    0  0.00000000000E+00  0.00000000000E+00  0.45593999997E+02  0.45594000000E+02  0.51100000000E-03 0.  1.
         11   -1    0    0    0    0 -0.00000000000E+00 -0.00000000000E+00 -0.45593999997E+02  0.45594000000E+02  0.51100000000E-03 0. -1.
         23    2    1    2    0    0 -0.44408920985E-15  0.00000000000E+00  0.14432899320E-14  0.91188000000E+02  0.91188000000E+02 0.  0.
    9900012    2    3    3    0    0  0.32692897521E+01  0.36668339562E+02  0.72440960862E+00  0.54367079981E+02  0.39999990434E+02 0.  0.
         12    1    3    3    0    0 -0.32692897521E+01 -0.36668339562E+02 -0.72440960862E+00  0.36820920019E+02  0.00000000000E+00 0. -1.
         11    1    4    4    0    0  0.67373634265E+01  0.34611107627E+01  0.11317153964E+01  0.76584681009E+01  0.51100000000E-03 0. -1.
        -11    1    4    4    0    0  0.52685968448E+01  0.32925725451E+02  0.83090373795E+01  0.34364249033E+02  0.51100000000E-03 0.  1.
         12    1    4    4    0    0 -0.87366705192E+01  0.28150334865E+00 -0.87163431673E+01  0.12344362847E+02  0.00000000000E+00 0. -1.
</event>
<event>
 8    1  0.2466538E-006  0.9118800E+02  0.7816164E-02  0.1184000E+00
        -11   -1    0    0    0    0  0.00000000000E+00  0.00000000000E+00  0.45593999997E+02  0.45594000000E+02  0.51100000000E-03 0.  1.
         11   -1    0    0    0    0 -0.00000000000E+00 -0.00000000000E+00 -0.45593999997E+02  0.45594000000E+02  0.51100000000E-03 0. -1.
         23    2    1    2    0    0  0.00000000000E+00  0.00000000000E+00 -0.88817841970E-15  0.91188000000E+02  0.91188000000E+02 0.  0.
    9900012    2    3    3    0    0  0.30728522170E+02  0.20111418926E+02  0.26587459541E+01  0.54367079642E+02  0.39999989660E+02 0.  0.
        -12    1    3    3    0    0 -0.30728522170E+02 -0.20111418926E+02 -0.26587459541E+01  0.36820920358E+02  0.00000000000E+00 0.  1.
         11    1    4    4    0    0  0.14768986363E+02 -0.66012012134E+01 -0.78032601078E+01  0.17960781837E+02  0.51100000000E-03 0. -1.
        -11    1    4    4    0    0  0.17187712176E+02  0.14648293479E+02  0.84593809575E+01  0.24115370164E+02  0.51100000000E-03 0.  1.
        -12    1    4    4    0    0 -0.12281763687E+01  0.12064326661E+02  0.20026251044E+01  0.12290927641E+02  0.00000000000E+00 0.  1.
</event>
<event>
 8    1  0.2466538E-006  0.9118800E+02  0.7816164E-02  0.1184000E+00
        -11   -1    0    0    0    0  0.00000000000E+00  0.00000000000E+00  0.45593999997E+02  0.45594000000E+02  0.51100000000E-03 0.  1.
         11   -1    0    0    0    0 -0.00000000000E+00 -0.00000000000E+00 -0.45593999997E+02  0.45594000000E+02  0.51100000000E-03 0. -1.
         23    2    1    2    0    0  0.00000000000E+00  0.00000000000E+00 -0.35527136788E-14  0.91188000000E+02  0.91188000000E+02 0.  0.
    9900012    2    3    3    0    0  0.94230832375E+01  0.24951575648E+02  0.25385097895E+02  0.54367098053E+02  0.40000031631E+02 0.  0.
         12    1    3    3    0    0 -0.94230832375E+01 -0.24951575648E+02 -0.25385097895E+02  0.36820901947E+02  0.00000000000E+00 0. -1.
         11    1    4    4    0    0 -0.96208160221E+00  0.26789866073E+02  0.10687758232E+02  0.28859152820E+02  0.51100000000E-03 0. -1.
        -11    1    4    4    0    0  0.14908594741E+02 -0.44881286819E+01  0.10330151873E+02  0.18684794197E+02  0.51100000000E-03 0.  1.
        -12    1    4    4    0    0 -0.45234299011E+01  0.26498382577E+01  0.43671877910E+01  0.68231510363E+01  0.00000000000E+00 0.  1.
</event>
<event>
 8    1  0.2466538E-006  0.9118800E+02  0.7816164E-02  0.1184000E+00
        -11   -1    0    0    0    0  0.00000000000E+00  0.00000000000E+00  0.45593999997E+02  0.45594000000E+02  0.51100000000E-03 0. -1.
         11   -1    0    0    0    0 -0.00000000000E+00 -0.00000000000E+00 -0.45593999997E+02  0.45594000000E+02  0.51100000000E-03 0.  1.
         23    2    1    2    0    0  0.88817841970E-15  0.00000000000E+00  0.00000000000E+00  0.91188000000E+02  0.91188000000E+02 0.  0.
    9900012    2    3    3    0    0  0.43344191499E+01 -0.23513638761E+02  0.28001845481E+02  0.54367058302E+02  0.39999941012E+02 0.  0.
        -12    1    3    3    0    0 -0.43344191499E+01  0.23513638761E+02 -0.28001845481E+02  0.36820941698E+02  0.00000000000E+00 0.  1.
         11    1    4    4    0    0 -0.36196924119E+01 -0.16394761051E+01  0.11346461734E+02  0.12022156595E+02  0.51100000000E-03 0. -1.
        -11    1    4    4    0    0 -0.69278300306E+01  0.42859839388E+01  0.69893971227E+01  0.10733879059E+02  0.51100000000E-03 0.  1.
         12    1    4    4    0    0  0.14881941592E+02 -0.26160146595E+02  0.96659866242E+01  0.31611022648E+02  0.00000000000E+00 0. -1.
</event>
<event>
 8    1  0.2466538E-006  0.9118800E+02  0.7816164E-02  0.1184000E+00
        -11   -1    0    0    0    0  0.00000000000E+00  0.00000000000E+00  0.45593999997E+02  0.45594000000E+02  0.51100000000E-03 0. -1.
         11   -1    0    0    0    0 -0.00000000000E+00 -0.00000000000E+00 -0.45593999997E+02  0.45594000000E+02  0.51100000000E-03 0.  1.
         23    2    1    2    0    0  0.00000000000E+00  0.00000000000E+00  0.00000000000E+00  0.91188000000E+02  0.91188000000E+02 0.  0.
    9900012    2    3    3    0    0 -0.27852978168E+02  0.23880170501E+02  0.31191156527E+01  0.54367084498E+02  0.40000000729E+02 0.  0.
        -12    1    3    3    0    0  0.27852978168E+02 -0.23880170501E+02 -0.31191156527E+01  0.36820915502E+02  0.00000000000E+00 0.  1.
         11    1    4    4    0    0 -0.46126560706E+01  0.96689106698E+01  0.31794022938E+01  0.11174660119E+02  0.51100000000E-03 0. -1.
        -11    1    4    4    0    0  0.84593359744E+01  0.54912870039E+01 -0.19044594236E+01  0.10263603853E+02  0.51100000000E-03 0.  1.
         12    1    4    4    0    0 -0.31699658072E+02  0.87199728269E+01  0.18441727824E+01  0.32928820526E+02  0.00000000000E+00 0. -1.
</event>
<event>
 8    1  0.2466538E-006  0.9118800E+02  0.7816164E-02  0.1184000E+00
        -11   -1    0    0    0    0  0.00000000000E+00  0.00000000000E+00  0.45593999997E+02  0.45594000000E+02  0.51100000000E-03 0.  1.
         11   -1    0    0    0    0 -0.00000000000E+00 -0.00000000000E+00 -0.45593999997E+02  0.45594000000E+02  0.51100000000E-03 0. -1.
         23    2    1    2    0    0  0.00000000000E+00  0.00000000000E+00  0.11102230246E-15  0.91188000000E+02  0.91188000000E+02 0.  0.
    9900012    2    3    3    0    0 -0.48580080197E+01  0.36496753369E+02 -0.41438702355E+00  0.54367014611E+02  0.39999841410E+02 0.  0.
        -12    1    3    3    0    0  0.48580080197E+01 -0.36496753369E+02  0.41438702355E+00  0.36820985389E+02  0.00000000000E+00 0.  1.
         11    1    4    4    0    0 -0.43322370443E+01 -0.80196298159E+01  0.64102737240E-01  0.91151988247E+01  0.51100000000E-03 0. -1.
        -11    1    4    4    0    0 -0.32456731568E+01  0.34552371056E+02 -0.22288605276E+01  0.34775976756E+02  0.51100000000E-03 0.  1.
         12    1    4    4    0    0  0.27199021814E+01  0.99640121288E+01  0.17503707668E+01  0.10475839031E+02  0.00000000000E+00 0. -1.
</event>
<event>
 8    1  0.2466538E-006  0.9118800E+02  0.7816164E-02  0.1184000E+00
        -11   -1    0    0    0    0  0.00000000000E+00  0.00000000000E+00  0.45593999997E+02  0.45594000000E+02  0.51100000000E-03 0. -1.
         11   -1    0    0    0    0 -0.00000000000E+00 -0.00000000000E+00 -0.45593999997E+02  0.45594000000E+02  0.51100000000E-03 0.  1.
         23    2    1    2    0    0  0.00000000000E+00  0.17763568394E-14 -0.35527136788E-14  0.91188000000E+02  0.91188000000E+02 0.  0.
    9900012    2    3    3    0    0 -0.26575360650E+02 -0.95394282334E+01  0.23633218496E+02  0.54367088806E+02  0.40000010551E+02 0.  0.
         12    1    3    3    0    0  0.26575360650E+02  0.95394282334E+01 -0.23633218496E+02  0.36820911194E+02  0.00000000000E+00 0. -1.
         11    1    4    4    0    0  0.18644001623E+01 -0.26157928897E+01  0.79790929879E+01  0.86014118363E+01  0.51100000000E-03 0. -1.
        -11    1    4    4    0    0  0.55873216481E+01 -0.42414619600E+01  0.82682778967E+01  0.10843089154E+02  0.51100000000E-03 0.  1.
         12    1    4    4    0    0 -0.34027082460E+02 -0.26821733837E+01  0.73858476116E+01  0.34922587816E+02  0.00000000000E+00 0. -1.
</event>
<event>
 8    1  0.2466538E-006  0.9118800E+02  0.7816164E-02  0.1184000E+00
        -11   -1    0    0    0    0  0.00000000000E+00  0.00000000000E+00  0.45593999997E+02  0.45594000000E+02  0.51100000000E-03 0.  1.
         11   -1    0    0    0    0 -0.00000000000E+00 -0.00000000000E+00 -0.45593999997E+02  0.45594000000E+02  0.51100000000E-03 0. -1.
         23    2    1    2    0    0  0.88817841970E-15  0.00000000000E+00 -0.17763568394E-14  0.91188000000E+02  0.91188000000E+02 0.  0.
    9900012    2    3    3    0    0  0.78271661918E+01  0.34476904856E+02  0.10288721011E+02  0.54367091822E+02  0.40000017426E+02 0.  0.
         12    1    3    3    0    0 -0.78271661918E+01 -0.34476904856E+02 -0.10288721011E+02  0.36820908178E+02  0.00000000000E+00 0. -1.
         11    1    4    4    0    0  0.61667989838E+01  0.16144159468E+02 -0.14356346100E+02  0.22467041822E+02  0.51100000000E-03 0. -1.
        -11    1    4    4    0    0  0.45778946131E+01  0.15008531948E+02  0.20686898526E+02  0.25964609013E+02  0.51100000000E-03 0.  1.
         12    1    4    4    0    0 -0.29175274051E+01  0.33242134404E+01  0.39581685851E+01  0.59354409866E+01  0.00000000000E+00 0. -1.
</event>
<event>
 8    1  0.2466538E-006  0.9118800E+02  0.7816164E-02  0.1184000E+00
        -11   -1    0    0    0    0  0.00000000000E+00  0.00000000000E+00  0.45593999997E+02  0.45594000000E+02  0.51100000000E-03 0.  1.
         11   -1    0    0    0    0 -0.00000000000E+00 -0.00000000000E+00 -0.45593999997E+02  0.45594000000E+02  0.51100000000E-03 0. -1.
         23    2    1    2    0    0  0.55511151231E-15 -0.35527136788E-14  0.00000000000E+00  0.91188000000E+02  0.91188000000E+02 0.  0.
    9900012    2    3    3    0    0  0.35441166849E+00  0.23246229905E+02 -0.28552875196E+02  0.54367088898E+02  0.40000010761E+02 0.  0.
        -12    1    3    3    0    0 -0.35441166849E+00 -0.23246229905E+02  0.28552875196E+02  0.36820911102E+02  0.00000000000E+00 0.  1.
         11    1    4    4    0    0  0.31201247770E+01  0.33719741257E+01  0.35316671974E+01  0.57946580213E+01  0.51100000000E-03 0. -1.
        -11    1    4    4    0    0 -0.61676573434E+01  0.11273618960E+02  0.22218565606E+01  0.13041132175E+02  0.51100000000E-03 0.  1.
         12    1    4    4    0    0  0.34019442348E+01  0.86006368193E+01 -0.34306398954E+02  0.35531298702E+02  0.00000000000E+00 0. -1.
</event>
<event>
 8    1  0.2466538E-006  0.9118800E+02  0.7816164E-02  0.1184000E+00
        -11   -1    0    0    0    0  0.00000000000E+00  0.00000000000E+00  0.45593999997E+02  0.45594000000E+02  0.51100000000E-03 0. -1.
         11   -1    0    0    0    0 -0.00000000000E+00 -0.00000000000E+00 -0.45593999997E+02  0.45594000000E+02  0.51100000000E-03 0.  1.
         23    2    1    2    0    0 -0.22204460493E-15 -0.44408920985E-15  0.71054273576E-14  0.91188000000E+02  0.91188000000E+02 0.  0.
    9900012    2    3    3    0    0 -0.17236283505E+01 -0.26993097754E+01  0.36681363901E+02  0.54367087116E+02  0.40000006698E+02 0.  0.
        -12    1    3    3    0    0  0.17236283505E+01  0.26993097754E+01 -0.36681363901E+02  0.36820912884E+02  0.00000000000E+00 0.  1.
         11    1    4    4    0    0  0.14875871067E+01 -0.32783236545E+01  0.18254016343E+02  0.18605629103E+02  0.51100000000E-03 0.  1.
        -11    1    4    4    0    0 -0.12441054310E+01  0.57251997262E+00  0.26965183822E+02  0.26999939190E+02  0.51100000000E-03 0. -1.
        -12    1    4    4    0    0 -0.19671100262E+01  0.64939064306E-02 -0.85378362639E+01  0.87615188235E+01  0.00000000000E+00 0.  1.
</event>
<event>
 8    1  0.2466538E-006  0.9118800E+02  0.7816164E-02  0.1184000E+00
        -11   -1    0    0    0    0  0.00000000000E+00  0.00000000000E+00  0.45593999997E+02  0.45594000000E+02  0.51100000000E-03 0. -1.
         11   -1    0    0    0    0 -0.00000000000E+00 -0.00000000000E+00 -0.45593999997E+02  0.45594000000E+02  0.51100000000E-03 0.  1.
         23    2    1    2    0    0 -0.17763568394E-14  0.00000000000E+00 -0.17763568394E-14  0.91188000000E+02  0.91188000000E+02 0.  0.
    9900012    2    3    3    0    0  0.68581446184E+01  0.32825771919E+02 -0.15205897277E+02  0.54367017372E+02  0.39999847702E+02 0.  0.
         12    1    3    3    0    0 -0.68581446184E+01 -0.32825771919E+02  0.15205897277E+02  0.36820982628E+02  0.00000000000E+00 0. -1.
         11    1    4    4    0    0 -0.11979513253E+01  0.73126479980E+01  0.58703843231E+01  0.94536405941E+01  0.51100000000E-03 0. -1.
        -11    1    4    4    0    0  0.27233753876E+01  0.25029290115E+02 -0.21778818949E+01  0.25271036919E+02  0.51100000000E-03 0.  1.
        -12    1    4    4    0    0  0.53327205561E+01  0.48383380620E+00 -0.18898399705E+02  0.19642339858E+02  0.00000000000E+00 0.  1.
</event>
<event>
 8    1  0.2466538E-006  0.9118800E+02  0.7816164E-02  0.1184000E+00
        -11   -1    0    0    0    0  0.00000000000E+00  0.00000000000E+00  0.45593999997E+02  0.45594000000E+02  0.51100000000E-03 0. -1.
         11   -1    0    0    0    0 -0.00000000000E+00 -0.00000000000E+00 -0.45593999997E+02  0.45594000000E+02  0.51100000000E-03 0.  1.
         23    2    1    2    0    0  0.35527136788E-14  0.00000000000E+00 -0.35527136788E-14  0.91188000000E+02  0.91188000000E+02 0.  0.
    9900012    2    3    3    0    0  0.23930806522E+02 -0.21234562254E+02 -0.18226290741E+02  0.54366975991E+02  0.39999753366E+02 0.  0.
         12    1    3    3    0    0 -0.23930806522E+02  0.21234562254E+02  0.18226290741E+02  0.36821024009E+02  0.00000000000E+00 0. -1.
         11    1    4    4    0    0  0.11916581433E+02 -0.39332393116E+01  0.11986800556E+02  0.17353923832E+02  0.51100000000E-03 0. -1.
        -11    1    4    4    0    0  0.28650194264E+01 -0.22470034812E+01 -0.67902869217E+01  0.77048918032E+01  0.51100000000E-03 0.  1.
         12    1    4    4    0    0  0.91492056631E+01 -0.15054319461E+02 -0.23422804374E+02  0.29308160356E+02  0.00000000000E+00 0. -1.
</event>
<event>
 8    1  0.2466538E-006  0.9118800E+02  0.7816164E-02  0.1184000E+00
        -11   -1    0    0    0    0  0.00000000000E+00  0.00000000000E+00  0.45593999997E+02  0.45594000000E+02  0.51100000000E-03 0.  1.
         11   -1    0    0    0    0 -0.00000000000E+00 -0.00000000000E+00 -0.45593999997E+02  0.45594000000E+02  0.51100000000E-03 0. -1.
         23    2    1    2    0    0  0.00000000000E+00  0.00000000000E+00  0.35527136788E-14  0.91188000000E+02  0.91188000000E+02 0.  0.
    9900012    2    3    3    0    0 -0.15592795418E+02  0.23055797606E+02 -0.24105505567E+02  0.54367075639E+02  0.39999980533E+02 0.  0.
        -12    1    3    3    0    0  0.15592795418E+02 -0.23055797606E+02  0.24105505567E+02  0.36820924361E+02  0.00000000000E+00 0.  1.
         11    1    4    4    0    0 -0.16311895432E+02  0.10385434041E+02 -0.20729954455E+02  0.28349006769E+02  0.51100000000E-03 0. -1.
        -11    1    4    4    0    0  0.23786947913E+01 -0.48301848475E+01 -0.62022317750E+01  0.82131938868E+01  0.51100000000E-03 0.  1.
        -12    1    4    4    0    0 -0.16595947765E+01  0.17500548413E+02  0.28266806635E+01  0.17804874983E+02  0.00000000000E+00 0.  1.
</event>
<event>
 8    1  0.2466538E-006  0.9118800E+02  0.7816164E-02  0.1184000E+00
        -11   -1    0    0    0    0  0.00000000000E+00  0.00000000000E+00  0.45593999997E+02  0.45594000000E+02  0.51100000000E-03 0. -1.
         11   -1    0    0    0    0 -0.00000000000E+00 -0.00000000000E+00 -0.45593999997E+02  0.45594000000E+02  0.51100000000E-03 0.  1.
         23    2    1    2    0    0  0.00000000000E+00  0.26645352591E-14 -0.17763568394E-14  0.91188000000E+02  0.91188000000E+02 0.  0.
    9900012    2    3    3    0    0 -0.32494765392E+02 -0.79297002505E+01  0.15394476997E+02  0.54367084124E+02  0.39999999876E+02 0.  0.
         12    1    3    3    0    0  0.32494765392E+02  0.79297002505E+01 -0.15394476997E+02  0.36820915876E+02  0.00000000000E+00 0. -1.
         11    1    4    4    0    0 -0.16807414631E+02  0.99188660814E+01  0.47592719498E+01  0.20087900853E+02  0.51100000000E-03 0. -1.
        -11    1    4    4    0    0  0.23685081318E+01 -0.11128326226E+02 -0.15508386304E+01  0.11482794786E+02  0.51100000000E-03 0.  1.
         12    1    4    4    0    0 -0.18055858893E+02 -0.67202401056E+01  0.12186043678E+02  0.22796388485E+02  0.00000000000E+00 0. -1.
</event>
<event>
 8    1  0.2466538E-006  0.9118800E+02  0.7816164E-02  0.1184000E+00
        -11   -1    0    0    0    0  0.00000000000E+00  0.00000000000E+00  0.45593999997E+02  0.45594000000E+02  0.51100000000E-03 0.  1.
         11   -1    0    0    0    0 -0.00000000000E+00 -0.00000000000E+00 -0.45593999997E+02  0.45594000000E+02  0.51100000000E-03 0. -1.
         23    2    1    2    0    0  0.17763568394E-14  0.00000000000E+00  0.17763568394E-14  0.91188000000E+02  0.91188000000E+02 0.  0.
    9900012    2    3    3    0    0 -0.15323717009E+02 -0.29854481880E+02 -0.15154991216E+02  0.54367079995E+02  0.39999990464E+02 0.  0.
        -12    1    3    3    0    0  0.15323717009E+02  0.29854481880E+02  0.15154991216E+02  0.36820920005E+02  0.00000000000E+00 0.  1.
         11    1    4    4    0    0 -0.10291317074E+00 -0.30630261239E+02 -0.13427167845E+02  0.33444167373E+02  0.51100000000E-03 0. -1.
        -11    1    4    4    0    0 -0.56233874685E+01  0.39143768353E+00  0.62646319188E+01  0.84274149904E+01  0.51100000000E-03 0.  1.
         12    1    4    4    0    0 -0.95974163699E+01  0.38434167551E+00 -0.79924552899E+01  0.12495497632E+02  0.00000000000E+00 0. -1.
</event>
<event>
 8    1  0.2466538E-006  0.9118800E+02  0.7816164E-02  0.1184000E+00
        -11   -1    0    0    0    0  0.00000000000E+00  0.00000000000E+00  0.45593999997E+02  0.45594000000E+02  0.51100000000E-03 0. -1.
         11   -1    0    0    0    0 -0.00000000000E+00 -0.00000000000E+00 -0.45593999997E+02  0.45594000000E+02  0.51100000000E-03 0.  1.
         23    2    1    2    0    0  0.00000000000E+00 -0.17763568394E-14 -0.17763568394E-14  0.91188000000E+02  0.91188000000E+02 0.  0.
    9900012    2    3    3    0    0 -0.32408787568E+02  0.10943713007E+02 -0.13626572919E+02  0.54367111152E+02  0.40000061494E+02 0.  0.
         12    1    3    3    0    0  0.32408787568E+02 -0.10943713007E+02  0.13626572919E+02  0.36820888848E+02  0.00000000000E+00 0. -1.
         11    1    4    4    0    0 -0.92373755271E+01 -0.12052644482E+02  0.41334025994E+00  0.15190990621E+02  0.51100000000E-03 0. -1.
        -11    1    4    4    0    0 -0.21961144674E+02  0.13139128106E+02 -0.14152615039E+02  0.29244231490E+02  0.51100000000E-03 0.  1.
        -12    1    4    4    0    0 -0.12102673678E+01  0.98572293827E+01  0.11270186082E+00  0.99318890405E+01  0.00000000000E+00 0.  1.
</event>
<event>
 8    1  0.2466538E-006  0.9118800E+02  0.7816164E-02  0.1184000E+00
        -11   -1    0    0    0    0  0.00000000000E+00  0.00000000000E+00  0.45593999997E+02  0.45594000000E+02  0.51100000000E-03 0. -1.
         11   -1    0    0    0    0 -0.00000000000E+00 -0.00000000000E+00 -0.45593999997E+02  0.45594000000E+02  0.51100000000E-03 0.  1.
         23    2    1    2    0    0 -0.17763568394E-14  0.00000000000E+00  0.17763568394E-14  0.91188000000E+02  0.91188000000E+02 0.  0.
    9900012    2    3    3    0    0  0.94078376191E+01 -0.32642595485E+02 -0.14203404053E+02  0.54367039457E+02  0.39999898049E+02 0.  0.
         12    1    3    3    0    0 -0.94078376191E+01  0.32642595485E+02  0.14203404053E+02  0.36820960543E+02  0.00000000000E+00 0. -1.
         11    1    4    4    0    0 -0.16502312611E+00 -0.11171807121E+02  0.67862505008E+01  0.13072478843E+02  0.51100000000E-03 0. -1.
        -11    1    4    4    0    0  0.16380646265E+02 -0.83836697088E+01 -0.40683858095E+01  0.18845775473E+02  0.51100000000E-03 0.  1.
        -12    1    4    4    0    0 -0.68077855196E+01 -0.13087118655E+02 -0.16921268744E+02  0.22448785140E+02  0.00000000000E+00 0.  1.
</event>
<event>
 8    1  0.2466538E-006  0.9118800E+02  0.7816164E-02  0.1184000E+00
        -11   -1    0    0    0    0  0.00000000000E+00  0.00000000000E+00  0.45593999997E+02  0.45594000000E+02  0.51100000000E-03 0. -1.
         11   -1    0    0    0    0 -0.00000000000E+00 -0.00000000000E+00 -0.45593999997E+02  0.45594000000E+02  0.51100000000E-03 0.  1.
         23    2    1    2    0    0  0.00000000000E+00  0.17763568394E-14  0.71054273576E-14  0.91188000000E+02  0.91188000000E+02 0.  0.
    9900012    2    3    3    0    0 -0.18372424094E+02  0.10724768735E+02  0.30053511531E+02  0.54367079494E+02  0.39999989324E+02 0.  0.
        -12    1    3    3    0    0  0.18372424094E+02 -0.10724768735E+02 -0.30053511531E+02  0.36820920506E+02  0.00000000000E+00 0.  1.
         11    1    4    4    0    0 -0.83003461295E+01  0.72795369770E+01  0.98706538188E+01  0.14809362294E+02  0.51100000000E-03 0. -1.
        -11    1    4    4    0    0 -0.14548133282E+02 -0.65061501985E+01 -0.74705613421E+00  0.15954192725E+02  0.51100000000E-03 0.  1.
        -12    1    4    4    0    0  0.44760553168E+01  0.99513819567E+01  0.20929913846E+02  0.23603524476E+02  0.00000000000E+00 0.  1.
</event>
<event>
 8    1  0.2466538E-006  0.9118800E+02  0.7816164E-02  0.1184000E+00
        -11   -1    0    0    0    0  0.00000000000E+00  0.00000000000E+00  0.45593999997E+02  0.45594000000E+02  0.51100000000E-03 0.  1.
         11   -1    0    0    0    0 -0.00000000000E+00 -0.00000000000E+00 -0.45593999997E+02  0.45594000000E+02  0.51100000000E-03 0. -1.
         23    2    1    2    0    0 -0.35527136788E-14  0.00000000000E+00 -0.17763568394E-14  0.91188000000E+02  0.91188000000E+02 0.  0.
    9900012    2    3    3    0    0 -0.25737918552E+02  0.21611575699E+02 -0.15042609599E+02  0.54367071724E+02  0.39999971610E+02 0.  0.
        -12    1    3    3    0    0  0.25737918552E+02 -0.21611575699E+02  0.15042609599E+02  0.36820928276E+02  0.00000000000E+00 0.  1.
         11    1    4    4    0    0 -0.58392632376E+01  0.96671196086E+01 -0.16022835288E+02  0.19603097908E+02  0.51100000000E-03 0. -1.
        -11    1    4    4    0    0  0.48145997495E+01  0.76609163109E+01  0.31685400582E+01  0.95869523746E+01  0.51100000000E-03 0.  1.
        -12    1    4    4    0    0 -0.24713255064E+02  0.42835397791E+01 -0.21883143696E+01  0.25177021441E+02  0.00000000000E+00 0.  1.
</event>
<event>
 8    1  0.2466538E-006  0.9118800E+02  0.7816164E-02  0.1184000E+00
        -11   -1    0    0    0    0  0.00000000000E+00  0.00000000000E+00  0.45593999997E+02  0.45594000000E+02  0.51100000000E-03 0.  1.
         11   -1    0    0    0    0 -0.00000000000E+00 -0.00000000000E+00 -0.45593999997E+02  0.45594000000E+02  0.51100000000E-03 0. -1.
         23    2    1    2    0    0 -0.35527136788E-14  0.00000000000E+00  0.00000000000E+00  0.91188000000E+02  0.91188000000E+02 0.  0.
    9900012    2    3    3    0    0  0.30604136546E+02  0.12692454783E+02  0.16064519400E+02  0.54367077066E+02  0.39999983788E+02 0.  0.
         12    1    3    3    0    0 -0.30604136546E+02 -0.12692454783E+02 -0.16064519400E+02  0.36820922934E+02  0.00000000000E+00 0. -1.
         11    1    4    4    0    0  0.16862148980E+01 -0.77947064692E+00 -0.47217038463E+01  0.50739908007E+01  0.51100000000E-03 0. -1.
        -11    1    4    4    0    0 -0.12515201436E+01 -0.46525296826E+01  0.12126208249E+02  0.13048266623E+02  0.51100000000E-03 0.  1.
        -12    1    4    4    0    0  0.30169441791E+02  0.18124455113E+02  0.86600149976E+01  0.36244819642E+02  0.00000000000E+00 0.  1.
</event>
<event>
 8    1  0.2466538E-006  0.9118800E+02  0.7816164E-02  0.1184000E+00
        -11   -1    0    0    0    0  0.00000000000E+00  0.00000000000E+00  0.45593999997E+02  0.45594000000E+02  0.51100000000E-03 0. -1.
         11   -1    0    0    0    0 -0.00000000000E+00 -0.00000000000E+00 -0.45593999997E+02  0.45594000000E+02  0.51100000000E-03 0.  1.
         23    2    1    2    0    0  0.13322676296E-14 -0.61062266354E-15  0.00000000000E+00  0.91188000000E+02  0.91188000000E+02 0.  0.
    9900012    2    3    3    0    0 -0.35955464760E+01  0.29063986933E+00 -0.36643834570E+02  0.54367040778E+02  0.39999901062E+02 0.  0.
         12    1    3    3    0    0  0.35955464760E+01 -0.29063986933E+00  0.36643834570E+02  0.36820959222E+02  0.00000000000E+00 0. -1.
         11    1    4    4    0    0 -0.64283313286E+01 -0.89310159024E+01  0.31891806589E+01  0.11456760548E+02  0.51100000000E-03 0. -1.
        -11    1    4    4    0    0  0.53867252185E+01  0.62576882714E+01 -0.37405301839E+02  0.38305770805E+02  0.51100000000E-03 0.  1.
        -12    1    4    4    0    0 -0.25539403659E+01  0.29639675003E+01 -0.24277133905E+01  0.46045094247E+01  0.00000000000E+00 0.  1.
</event>
<event>
 8    1  0.2466538E-006  0.9118800E+02  0.7816164E-02  0.1184000E+00
        -11   -1    0    0    0    0  0.00000000000E+00  0.00000000000E+00  0.45593999997E+02  0.45594000000E+02  0.51100000000E-03 0.  1.
         11   -1    0    0    0    0 -0.00000000000E+00 -0.00000000000E+00 -0.45593999997E+02  0.45594000000E+02  0.51100000000E-03 0. -1.
         23    2    1    2    0    0 -0.35527136788E-14 -0.35527136788E-14  0.00000000000E+00  0.91188000000E+02  0.91188000000E+02 0.  0.
    9900012    2    3    3    0    0 -0.20807889488E+02 -0.14980943733E+02  0.26426940196E+02  0.54367080563E+02  0.39999991759E+02 0.  0.
         12    1    3    3    0    0  0.20807889488E+02  0.14980943733E+02 -0.26426940196E+02  0.36820919437E+02  0.00000000000E+00 0. -1.
         11    1    4    4    0    0 -0.14769676166E+02 -0.20477369883E+02  0.81356155651E+01  0.26526482094E+02  0.51100000000E-03 0. -1.
        -11    1    4    4    0    0 -0.12738626768E+02  0.18720145120E+01  0.84717974972E+01  0.15412605340E+02  0.51100000000E-03 0.  1.
        -12    1    4    4    0    0  0.67004134468E+01  0.36244116383E+01  0.98195271339E+01  0.12427993129E+02  0.00000000000E+00 0.  1.
</event>
<event>
 8    1  0.2466538E-006  0.9118800E+02  0.7816164E-02  0.1184000E+00
        -11   -1    0    0    0    0  0.00000000000E+00  0.00000000000E+00  0.45593999997E+02  0.45594000000E+02  0.51100000000E-03 0. -1.
         11   -1    0    0    0    0 -0.00000000000E+00 -0.00000000000E+00 -0.45593999997E+02  0.45594000000E+02  0.51100000000E-03 0.  1.
         23    2    1    2    0    0 -0.35527136788E-14  0.35527136788E-14  0.44408920985E-15  0.91188000000E+02  0.91188000000E+02 0.  0.
    9900012    2    3    3    0    0  0.23873160835E+02 -0.27796768446E+02  0.36320746381E+01  0.54367080532E+02  0.39999991689E+02 0.  0.
        -12    1    3    3    0    0 -0.23873160835E+02  0.27796768446E+02 -0.36320746381E+01  0.36820919468E+02  0.00000000000E+00 0.  1.
         11    1    4    4    0    0  0.49371529876E+01 -0.18659961571E+02 -0.12175667750E+02  0.22821405102E+02  0.51100000000E-03 0. -1.
        -11    1    4    4    0    0  0.72495323841E+01  0.25923031862E+01  0.12469993919E+02  0.14655255173E+02  0.51100000000E-03 0.  1.
         12    1    4    4    0    0  0.11686475463E+02 -0.11729110062E+02  0.33377484689E+01  0.16890420256E+02  0.00000000000E+00 0. -1.
</event>
<event>
 8    1  0.2466538E-006  0.9118800E+02  0.7816164E-02  0.1184000E+00
        -11   -1    0    0    0    0  0.00000000000E+00  0.00000000000E+00  0.45593999997E+02  0.45594000000E+02  0.51100000000E-03 0. -1.
         11   -1    0    0    0    0 -0.00000000000E+00 -0.00000000000E+00 -0.45593999997E+02  0.45594000000E+02  0.51100000000E-03 0.  1.
         23    2    1    2    0    0  0.00000000000E+00 -0.17763568394E-14  0.00000000000E+00  0.91188000000E+02  0.91188000000E+02 0.  0.
    9900012    2    3    3    0    0 -0.32726215900E+02  0.79097727854E+01 -0.14906717634E+02  0.54367082802E+02  0.39999996864E+02 0.  0.
         12    1    3    3    0    0  0.32726215900E+02 -0.79097727854E+01  0.14906717634E+02  0.36820917198E+02  0.00000000000E+00 0. -1.
         11    1    4    4    0    0  0.40709331545E+01 -0.23492600262E+01 -0.87908620665E+00  0.47816641705E+01  0.51100000000E-03 0. -1.
        -11    1    4    4    0    0 -0.12914077586E+02  0.16308899260E+02 -0.13768867964E+02  0.24946649479E+02  0.51100000000E-03 0.  1.
        -12    1    4    4    0    0 -0.23883071469E+02 -0.60498664480E+01 -0.25876346333E+00  0.24638769152E+02  0.00000000000E+00 0.  1.
</event>
<event>
 8    1  0.2466538E-006  0.9118800E+02  0.7816164E-02  0.1184000E+00
        -11   -1    0    0    0    0  0.00000000000E+00  0.00000000000E+00  0.45593999997E+02  0.45594000000E+02  0.51100000000E-03 0.  1.
         11   -1    0    0    0    0 -0.00000000000E+00 -0.00000000000E+00 -0.45593999997E+02  0.45594000000E+02  0.51100000000E-03 0. -1.
         23    2    1    2    0    0 -0.66613381478E-15  0.00000000000E+00  0.00000000000E+00  0.91188000000E+02  0.91188000000E+02 0.  0.
    9900012    2    3    3    0    0 -0.17986555062E+01 -0.25949761543E+02  0.26060409998E+02  0.54367214362E+02  0.40000296780E+02 0.  0.
        -12    1    3    3    0    0  0.17986555062E+01  0.25949761543E+02 -0.26060409998E+02  0.36820785638E+02  0.00000000000E+00 0.  1.
         11    1    4    4    0    0 -0.52685123773E+01 -0.97281030604E+00  0.11653286380E+02  0.12825859281E+02  0.51100000000E-03 0.  1.
        -11    1    4    4    0    0 -0.94958161496E+01  0.13661710685E+01  0.31769680893E+01  0.10105942521E+02  0.51100000000E-03 0. -1.
         12    1    4    4    0    0  0.12965673021E+02 -0.26343122305E+02  0.11230155528E+02  0.31435412560E+02  0.00000000000E+00 0. -1.
</event>
<event>
 8    1  0.2466538E-006  0.9118800E+02  0.7816164E-02  0.1184000E+00
        -11   -1    0    0    0    0  0.00000000000E+00  0.00000000000E+00  0.45593999997E+02  0.45594000000E+02  0.51100000000E-03 0.  1.
         11   -1    0    0    0    0 -0.00000000000E+00 -0.00000000000E+00 -0.45593999997E+02  0.45594000000E+02  0.51100000000E-03 0. -1.
         23    2    1    2    0    0  0.00000000000E+00  0.35527136788E-14  0.00000000000E+00  0.91188000000E+02  0.91188000000E+02 0.  0.
    9900012    2    3    3    0    0 -0.44482314153E+01 -0.28621200358E+02 -0.22733732058E+02  0.54367048818E+02  0.39999919391E+02 0.  0.
        -12    1    3    3    0    0  0.44482314153E+01  0.28621200358E+02  0.22733732058E+02  0.36820951182E+02  0.00000000000E+00 0.  1.
         11    1    4    4    0    0  0.18386976211E+01  0.92997673511E+00 -0.18622749035E+02  0.18736393665E+02  0.51100000000E-03 0. -1.
        -11    1    4    4    0    0  0.35153156800E+01 -0.12622998730E+01 -0.42938991598E+01  0.56910821076E+01  0.51100000000E-03 0.  1.
         12    1    4    4    0    0 -0.98022447165E+01 -0.28288877220E+02  0.18291613727E+00  0.29939573046E+02  0.00000000000E+00 0. -1.
</event>
<event>
 8    1  0.2466538E-006  0.9118800E+02  0.7816164E-02  0.1184000E+00
        -11   -1    0    0    0    0  0.00000000000E+00  0.00000000000E+00  0.45593999997E+02  0.45594000000E+02  0.51100000000E-03 0.  1.
         11   -1    0    0    0    0 -0.00000000000E+00 -0.00000000000E+00 -0.45593999997E+02  0.45594000000E+02  0.51100000000E-03 0. -1.
         23    2    1    2    0    0  0.00000000000E+00  0.00000000000E+00  0.35527136788E-14  0.91188000000E+02  0.91188000000E+02 0.  0.
    9900012    2    3    3    0    0  0.28522162285E+02  0.68995102680E+01 -0.22241031781E+02  0.54367075540E+02  0.39999980309E+02 0.  0.
        -12    1    3    3    0    0 -0.28522162285E+02 -0.68995102680E+01  0.22241031781E+02  0.36820924460E+02  0.00000000000E+00 0.  1.
         11    1    4    4    0    0  0.92848418809E+00  0.57821068029E+01 -0.17215293831E+02  0.18184091507E+02  0.51100000000E-03 0. -1.
        -11    1    4    4    0    0  0.67131143048E+01 -0.80025645818E+01  0.46432979243E+01  0.11430973687E+02  0.51100000000E-03 0.  1.
        -12    1    4    4    0    0  0.20880563793E+02  0.91199680469E+01 -0.96690358739E+01  0.24752010347E+02  0.00000000000E+00 0.  1.
</event>
<event>
 8    1  0.2466538E-006  0.9118800E+02  0.7816164E-02  0.1184000E+00
        -11   -1    0    0    0    0  0.00000000000E+00  0.00000000000E+00  0.45593999997E+02  0.45594000000E+02  0.51100000000E-03 0. -1.
         11   -1    0    0    0    0 -0.00000000000E+00 -0.00000000000E+00 -0.45593999997E+02  0.45594000000E+02  0.51100000000E-03 0.  1.
         23    2    1    2    0    0  0.00000000000E+00  0.00000000000E+00  0.00000000000E+00  0.91188000000E+02  0.91188000000E+02 0.  0.
    9900012    2    3    3    0    0 -0.92408075247E+01  0.35383660738E+02 -0.42876205064E+01  0.54367086642E+02  0.40000005617E+02 0.  0.
        -12    1    3    3    0    0  0.92408075247E+01 -0.35383660738E+02  0.42876205064E+01  0.36820913358E+02  0.00000000000E+00 0.  1.
         11    1    4    4    0    0  0.26387427842E+01  0.14936728685E+02  0.10905870245E+02  0.18681724582E+02  0.51100000000E-03 0. -1.
        -11    1    4    4    0    0 -0.13286557502E+02  0.70529180939E+01  0.44238937914E+00  0.15048985763E+02  0.51100000000E-03 0.  1.
        -12    1    4    4    0    0  0.14070071926E+01  0.13394013959E+02 -0.15635880131E+02  0.20636376296E+02  0.00000000000E+00 0.  1.
</event>
<event>
 8    1  0.2466538E-006  0.9118800E+02  0.7816164E-02  0.1184000E+00
        -11   -1    0    0    0    0  0.00000000000E+00  0.00000000000E+00  0.45593999997E+02  0.45594000000E+02  0.51100000000E-03 0.  1.
         11   -1    0    0    0    0 -0.00000000000E+00 -0.00000000000E+00 -0.45593999997E+02  0.45594000000E+02  0.51100000000E-03 0. -1.
         23    2    1    2    0    0  0.13322676296E-14  0.00000000000E+00  0.00000000000E+00  0.91188000000E+02  0.91188000000E+02 0.  0.
    9900012    2    3    3    0    0  0.10982925973E+01  0.24592857967E+02 -0.27381858817E+02  0.54367067069E+02  0.39999960998E+02 0.  0.
        -12    1    3    3    0    0 -0.10982925973E+01 -0.24592857967E+02  0.27381858817E+02  0.36820932931E+02  0.00000000000E+00 0.  1.
         11    1    4    4    0    0 -0.42361082959E+01  0.53256259212E+01 -0.89228728801E+01  0.11221611544E+02  0.51100000000E-03 0. -1.
        -11    1    4    4    0    0  0.11928453320E+02  0.13084700453E+02 -0.25943711824E+02  0.31409768672E+02  0.51100000000E-03 0.  1.
        -12    1    4    4    0    0 -0.65940524272E+01  0.61825315933E+01  0.74847258874E+01  0.11735686854E+02  0.00000000000E+00 0.  1.
</event>
<event>
 8    1  0.2466538E-006  0.9118800E+02  0.7816164E-02  0.1184000E+00
        -11   -1    0    0    0    0  0.00000000000E+00  0.00000000000E+00  0.45593999997E+02  0.45594000000E+02  0.51100000000E-03 0. -1.
         11   -1    0    0    0    0 -0.00000000000E+00 -0.00000000000E+00 -0.45593999997E+02  0.45594000000E+02  0.51100000000E-03 0.  1.
         23    2    1    2    0    0  0.00000000000E+00  0.00000000000E+00  0.88817841970E-15  0.91188000000E+02  0.91188000000E+02 0.  0.
    9900012    2    3    3    0    0  0.20899532803E+02  0.29419735008E+02 -0.73122567536E+01  0.54367076897E+02  0.39999983402E+02 0.  0.
        -12    1    3    3    0    0 -0.20899532803E+02 -0.29419735008E+02  0.73122567536E+01  0.36820923103E+02  0.00000000000E+00 0.  1.
         11    1    4    4    0    0  0.23362700236E+02  0.20498674904E+02  0.70710166942E+01  0.31874922941E+02  0.51100000000E-03 0. -1.
        -11    1    4    4    0    0 -0.80000273427E+01  0.42641648629E+01 -0.41765681318E+01  0.99813456548E+01  0.51100000000E-03 0.  1.
         12    1    4    4    0    0  0.55368599095E+01  0.46568952409E+01 -0.10206705316E+02  0.12510808301E+02  0.00000000000E+00 0. -1.
</event>
<event>
 8    1  0.2466538E-006  0.9118800E+02  0.7816164E-02  0.1184000E+00
        -11   -1    0    0    0    0  0.00000000000E+00  0.00000000000E+00  0.45593999997E+02  0.45594000000E+02  0.51100000000E-03 0. -1.
         11   -1    0    0    0    0 -0.00000000000E+00 -0.00000000000E+00 -0.45593999997E+02  0.45594000000E+02  0.51100000000E-03 0.  1.
         23    2    1    2    0    0  0.00000000000E+00  0.00000000000E+00 -0.17763568394E-14  0.91188000000E+02  0.91188000000E+02 0.  0.
    9900012    2    3    3    0    0 -0.81867810096E+01  0.34261768737E+02  0.10718548702E+02  0.54367089275E+02  0.40000011621E+02 0.  0.
        -12    1    3    3    0    0  0.81867810096E+01 -0.34261768737E+02 -0.10718548702E+02  0.36820910725E+02  0.00000000000E+00 0.  1.
         11    1    4    4    0    0 -0.14268396996E+02  0.26986871061E+02  0.65597059259E+00  0.30533729877E+02  0.51100000000E-03 0. -1.
        -11    1    4    4    0    0 -0.71222910747E+01  0.26333090827E+01  0.39717702979E+01  0.85694986107E+01  0.51100000000E-03 0.  1.
         12    1    4    4    0    0  0.13203907061E+02  0.46415885933E+01  0.60908078117E+01  0.15263860788E+02  0.00000000000E+00 0. -1.
</event>
<event>
 8    1  0.2466538E-006  0.9118800E+02  0.7816164E-02  0.1184000E+00
        -11   -1    0    0    0    0  0.00000000000E+00  0.00000000000E+00  0.45593999997E+02  0.45594000000E+02  0.51100000000E-03 0.  1.
         11   -1    0    0    0    0 -0.00000000000E+00 -0.00000000000E+00 -0.45593999997E+02  0.45594000000E+02  0.51100000000E-03 0. -1.
         23    2    1    2    0    0  0.00000000000E+00 -0.71054273576E-14  0.22204460493E-15  0.91188000000E+02  0.91188000000E+02 0.  0.
    9900012    2    3    3    0    0 -0.91332891733E+01 -0.35633639415E+02 -0.16146017897E+01  0.54367079751E+02  0.39999989908E+02 0.  0.
        -12    1    3    3    0    0  0.91332891733E+01  0.35633639415E+02  0.16146017897E+01  0.36820920249E+02  0.00000000000E+00 0.  1.
         11    1    4    4    0    0  0.11481371212E+01 -0.43453437288E+01 -0.87462997971E+01  0.98335136839E+01  0.51100000000E-03 0. -1.
        -11    1    4    4    0    0 -0.57671125845E+00  0.41797276637E+01  0.65085337497E+01  0.77565282859E+01  0.51100000000E-03 0.  1.
         12    1    4    4    0    0 -0.97047150361E+01 -0.35468023349E+02  0.62316425767E+00  0.36777037781E+02  0.00000000000E+00 0. -1.
</event>
<event>
 8    1  0.2466538E-006  0.9118800E+02  0.7816164E-02  0.1184000E+00
        -11   -1    0    0    0    0  0.00000000000E+00  0.00000000000E+00  0.45593999997E+02  0.45594000000E+02  0.51100000000E-03 0. -1.
         11   -1    0    0    0    0 -0.00000000000E+00 -0.00000000000E+00 -0.45593999997E+02  0.45594000000E+02  0.51100000000E-03 0.  1.
         23    2    1    2    0    0  0.00000000000E+00 -0.26645352591E-14  0.00000000000E+00  0.91188000000E+02  0.91188000000E+02 0.  0.
    9900012    2    3    3    0    0 -0.27369177094E+02 -0.27855729790E+01  0.24473432838E+02  0.54367079500E+02  0.39999989336E+02 0.  0.
        -12    1    3    3    0    0  0.27369177094E+02  0.27855729790E+01 -0.24473432838E+02  0.36820920500E+02  0.00000000000E+00 0.  1.
         11    1    4    4    0    0  0.10318586609E+01  0.19124048285E+01  0.51313757372E+01  0.55725256161E+01  0.51100000000E-03 0. -1.
        -11    1    4    4    0    0 -0.55675787318E+01 -0.14694376192E+02  0.17912021929E+02  0.23827781148E+02  0.51100000000E-03 0.  1.
        -12    1    4    4    0    0 -0.22833457023E+02  0.99963983841E+01  0.14300351723E+01  0.24966772736E+02  0.00000000000E+00 0.  1.
</event>
<event>
 8    1  0.2466538E-006  0.9118800E+02  0.7816164E-02  0.1184000E+00
        -11   -1    0    0    0    0  0.00000000000E+00  0.00000000000E+00  0.45593999997E+02  0.45594000000E+02  0.51100000000E-03 0.  1.
         11   -1    0    0    0    0 -0.00000000000E+00 -0.00000000000E+00 -0.45593999997E+02  0.45594000000E+02  0.51100000000E-03 0. -1.
         23    2    1    2    0    0  0.35527136788E-14  0.17763568394E-14 -0.35527136788E-14  0.91188000000E+02  0.91188000000E+02 0.  0.
    9900012    2    3    3    0    0 -0.20466707741E+02 -0.13796039851E+02 -0.27323297895E+02  0.54367089512E+02  0.40000012160E+02 0.  0.
        -12    1    3    3    0    0  0.20466707741E+02  0.13796039851E+02  0.27323297895E+02  0.36820910488E+02  0.00000000000E+00 0.  1.
         11    1    4    4    0    0 -0.31385674483E+01  0.51216462716E+01 -0.11339752728E+02  0.12832453326E+02  0.51100000000E-03 0. -1.
        -11    1    4    4    0    0 -0.16192952622E+02  0.28846182161E+01 -0.79852558694E+01  0.18283791960E+02  0.51100000000E-03 0.  1.
         12    1    4    4    0    0 -0.11351876706E+01 -0.21802304339E+02 -0.79982892974E+01  0.23250844226E+02  0.00000000000E+00 0. -1.
</event>
<event>
 8    1  0.2466538E-006  0.9118800E+02  0.7816164E-02  0.1184000E+00
        -11   -1    0    0    0    0  0.00000000000E+00  0.00000000000E+00  0.45593999997E+02  0.45594000000E+02  0.51100000000E-03 0. -1.
         11   -1    0    0    0    0 -0.00000000000E+00 -0.00000000000E+00 -0.45593999997E+02  0.45594000000E+02  0.51100000000E-03 0.  1.
         23    2    1    2    0    0  0.00000000000E+00 -0.88817841970E-15 -0.26645352591E-14  0.91188000000E+02  0.91188000000E+02 0.  0.
    9900012    2    3    3    0    0  0.36402923893E+02  0.48138088356E+01  0.27268911601E+01  0.54367060864E+02  0.39999946851E+02 0.  0.
         12    1    3    3    0    0 -0.36402923893E+02 -0.48138088356E+01 -0.27268911601E+01  0.36820939136E+02  0.00000000000E+00 0. -1.
         11    1    4    4    0    0  0.24712176433E+02 -0.17649746877E+00 -0.14051459651E+02  0.28428266461E+02  0.51100000000E-03 0. -1.
        -11    1    4    4    0    0  0.14844024230E+02  0.65858663424E+01  0.14059954802E+02  0.21480247208E+02  0.51100000000E-03 0.  1.
         12    1    4    4    0    0 -0.31532767701E+01 -0.15955600381E+01  0.27183960086E+01  0.44585471943E+01  0.00000000000E+00 0. -1.
</event>
<event>
 8    1  0.2466538E-006  0.9118800E+02  0.7816164E-02  0.1184000E+00
        -11   -1    0    0    0    0  0.00000000000E+00  0.00000000000E+00  0.45593999997E+02  0.45594000000E+02  0.51100000000E-03 0. -1.
         11   -1    0    0    0    0 -0.00000000000E+00 -0.00000000000E+00 -0.45593999997E+02  0.45594000000E+02  0.51100000000E-03 0.  1.
         23    2    1    2    0    0  0.00000000000E+00  0.17763568394E-14  0.00000000000E+00  0.91188000000E+02  0.91188000000E+02 0.  0.
    9900012    2    3    3    0    0  0.16752937662E+02  0.11333310919E+02  0.30767974827E+02  0.54367175299E+02  0.40000207728E+02 0.  0.
        -12    1    3    3    0    0 -0.16752937662E+02 -0.11333310919E+02 -0.30767974827E+02  0.36820824701E+02  0.00000000000E+00 0.  1.
         11    1    4    4    0    0  0.98881089648E+00 -0.88556821938E+01  0.18117774295E+02  0.20190458136E+02  0.51100000000E-03 0. -1.
        -11    1    4    4    0    0  0.13878708460E+02  0.16745869804E+02  0.17515286752E+02  0.27925400163E+02  0.51100000000E-03 0.  1.
        -12    1    4    4    0    0  0.18854183059E+01  0.34431233090E+01 -0.48650862188E+01  0.62513169993E+01  0.00000000000E+00 0.  1.
</event>
<event>
 8    1  0.2466538E-006  0.9118800E+02  0.7816164E-02  0.1184000E+00
        -11   -1    0    0    0    0  0.00000000000E+00  0.00000000000E+00  0.45593999997E+02  0.45594000000E+02  0.51100000000E-03 0.  1.
         11   -1    0    0    0    0 -0.00000000000E+00 -0.00000000000E+00 -0.45593999997E+02  0.45594000000E+02  0.51100000000E-03 0. -1.
         23    2    1    2    0    0  0.17763568394E-14  0.00000000000E+00  0.35527136788E-14  0.91188000000E+02  0.91188000000E+02 0.  0.
    9900012    2    3    3    0    0 -0.10141475124E+02 -0.18959885932E+02 -0.29890691346E+02  0.54367079026E+02  0.39999988255E+02 0.  0.
        -12    1    3    3    0    0  0.10141475124E+02  0.18959885932E+02  0.29890691346E+02  0.36820920974E+02  0.00000000000E+00 0.  1.
         11    1    4    4    0    0 -0.69742307841E+01 -0.22736124905E+02 -0.71902269045E+01  0.24844931755E+02  0.51100000000E-03 0. -1.
        -11    1    4    4    0    0  0.22907163325E+01 -0.81966356825E+00  0.24058489228E+01  0.34215988926E+01  0.51100000000E-03 0.  1.
         12    1    4    4    0    0 -0.54579606723E+01  0.45959025410E+01 -0.25106313365E+02  0.26100548378E+02  0.00000000000E+00 0. -1.
</event>
<event>
 8    1  0.2466538E-006  0.9118800E+02  0.7816164E-02  0.1184000E+00
        -11   -1    0    0    0    0  0.00000000000E+00  0.00000000000E+00  0.45593999997E+02  0.45594000000E+02  0.51100000000E-03 0.  1.
         11   -1    0    0    0    0 -0.00000000000E+00 -0.00000000000E+00 -0.45593999997E+02  0.45594000000E+02  0.51100000000E-03 0. -1.
         23    2    1    2    0    0  0.00000000000E+00 -0.35527136788E-14  0.00000000000E+00  0.91188000000E+02  0.91188000000E+02 0.  0.
    9900012    2    3    3    0    0  0.29761237550E+02 -0.14625326402E+02 -0.16004687898E+02  0.54367062103E+02  0.39999949676E+02 0.  0.
        -12    1    3    3    0    0 -0.29761237550E+02  0.14625326402E+02  0.16004687898E+02  0.36820937897E+02  0.00000000000E+00 0.  1.
         11    1    4    4    0    0  0.91349054555E+01 -0.63714378363E+01 -0.14309453328E+02  0.18132903038E+02  0.51100000000E-03 0. -1.
        -11    1    4    4    0    0  0.20169107002E+02  0.54071039428E+01  0.42818351747E+01  0.21315810166E+02  0.51100000000E-03 0.  1.
        -12    1    4    4    0    0  0.45722509249E+00 -0.13660992509E+02 -0.59770697448E+01  0.14918348898E+02  0.00000000000E+00 0.  1.
</event>
<event>
 8    1  0.2466538E-006  0.9118800E+02  0.7816164E-02  0.1184000E+00
        -11   -1    0    0    0    0  0.00000000000E+00  0.00000000000E+00  0.45593999997E+02  0.45594000000E+02  0.51100000000E-03 0.  1.
         11   -1    0    0    0    0 -0.00000000000E+00 -0.00000000000E+00 -0.45593999997E+02  0.45594000000E+02  0.51100000000E-03 0. -1.
         23    2    1    2    0    0  0.00000000000E+00  0.35527136788E-14 -0.35527136788E-14  0.91188000000E+02  0.91188000000E+02 0.  0.
    9900012    2    3    3    0    0 -0.99943016528E+01 -0.23917400164E+02 -0.26150552724E+02  0.54367088768E+02  0.40000010465E+02 0.  0.
         12    1    3    3    0    0  0.99943016528E+01  0.23917400164E+02  0.26150552724E+02  0.36820911232E+02  0.00000000000E+00 0. -1.
         11    1    4    4    0    0 -0.21751958844E+02 -0.48482256164E+01 -0.14559871422E+02  0.26620346753E+02  0.51100000000E-03 0. -1.
        -11    1    4    4    0    0  0.56946456888E+00 -0.95734331427E+01 -0.98501771312E+00  0.96408076524E+01  0.51100000000E-03 0.  1.
         12    1    4    4    0    0  0.11188192622E+02 -0.94957414049E+01 -0.10605663589E+02  0.18105934363E+02  0.00000000000E+00 0. -1.
</event>
<event>
 8    1  0.2466538E-006  0.9118800E+02  0.7816164E-02  0.1184000E+00
        -11   -1    0    0    0    0  0.00000000000E+00  0.00000000000E+00  0.45593999997E+02  0.45594000000E+02  0.51100000000E-03 0. -1.
         11   -1    0    0    0    0 -0.00000000000E+00 -0.00000000000E+00 -0.45593999997E+02  0.45594000000E+02  0.51100000000E-03 0.  1.
         23    2    1    2    0    0 -0.44408920985E-15  0.00000000000E+00  0.00000000000E+00  0.91188000000E+02  0.91188000000E+02 0.  0.
    9900012    2    3    3    0    0  0.39036048663E+01  0.25082573790E+02  0.26672214122E+02  0.54367073272E+02  0.39999975139E+02 0.  0.
        -12    1    3    3    0    0 -0.39036048663E+01 -0.25082573790E+02 -0.26672214122E+02  0.36820926728E+02  0.00000000000E+00 0.  1.
         11    1    4    4    0    0  0.83018818872E+01 -0.38999787037E+00  0.15203401142E+02  0.17326763915E+02  0.51100000000E-03 0. -1.
        -11    1    4    4    0    0  0.35967980744E+01  0.47501889716E+01  0.13480116193E+02  0.14738208320E+02  0.51100000000E-03 0.  1.
        -12    1    4    4    0    0 -0.79950750953E+01  0.20722382689E+02 -0.20113032123E+01  0.22302101038E+02  0.00000000000E+00 0.  1.
</event>
<event>
 8    1  0.2466538E-006  0.9118800E+02  0.7816164E-02  0.1184000E+00
        -11   -1    0    0    0    0  0.00000000000E+00  0.00000000000E+00  0.45593999997E+02  0.45594000000E+02  0.51100000000E-03 0.  1.
         11   -1    0    0    0    0 -0.00000000000E+00 -0.00000000000E+00 -0.45593999997E+02  0.45594000000E+02  0.51100000000E-03 0. -1.
         23    2    1    2    0    0 -0.35527136788E-14 -0.17763568394E-14  0.71054273576E-14  0.91188000000E+02  0.91188000000E+02 0.  0.
    9900012    2    3    3    0    0 -0.15321487001E+02 -0.11316639197E+02  0.31511360826E+02  0.54367080026E+02  0.39999990535E+02 0.  0.
         12    1    3    3    0    0  0.15321487001E+02  0.11316639197E+02 -0.31511360826E+02  0.36820919974E+02  0.00000000000E+00 0. -1.
         11    1    4    4    0    0  0.56269853066E+01  0.20375004039E+01  0.98763334718E+01  0.11548001327E+02  0.51100000000E-03 0. -1.
        -11    1    4    4    0    0  0.40662762291E+01 -0.10614347694E+02  0.38367952451E+01  0.11996665259E+02  0.51100000000E-03 0.  1.
         12    1    4    4    0    0 -0.25014748536E+02 -0.27397919076E+01  0.17798232109E+02  0.30822413440E+02  0.00000000000E+00 0. -1.
</event>
<event>
 8    1  0.2466538E-006  0.9118800E+02  0.7816164E-02  0.1184000E+00
        -11   -1    0    0    0    0  0.00000000000E+00  0.00000000000E+00  0.45593999997E+02  0.45594000000E+02  0.51100000000E-03 0. -1.
         11   -1    0    0    0    0 -0.00000000000E+00 -0.00000000000E+00 -0.45593999997E+02  0.45594000000E+02  0.51100000000E-03 0.  1.
         23    2    1    2    0    0 -0.17763568394E-14  0.00000000000E+00  0.71054273576E-14  0.91188000000E+02  0.91188000000E+02 0.  0.
    9900012    2    3    3    0    0 -0.23724281226E+01  0.15118189456E+02 -0.33490184603E+02  0.54367074803E+02  0.39999978628E+02 0.  0.
         12    1    3    3    0    0  0.23724281226E+01 -0.15118189456E+02  0.33490184603E+02  0.36820925197E+02  0.00000000000E+00 0. -1.
         11    1    4    4    0    0 -0.54588334766E+01  0.49666462267E+01 -0.40848265183E+01  0.84351790504E+01  0.51100000000E-03 0. -1.
        -11    1    4    4    0    0 -0.15280963662E+02  0.56713542882E+01 -0.15161757999E+02  0.22260975176E+02  0.51100000000E-03 0.  1.
        -12    1    4    4    0    0  0.18367369016E+02  0.44801889410E+01 -0.14243600087E+02  0.23670920577E+02  0.00000000000E+00 0.  1.
</event>
<event>
 8    1  0.2466538E-006  0.9118800E+02  0.7816164E-02  0.1184000E+00
        -11   -1    0    0    0    0  0.00000000000E+00  0.00000000000E+00  0.45593999997E+02  0.45594000000E+02  0.51100000000E-03 0. -1.
         11   -1    0    0    0    0 -0.00000000000E+00 -0.00000000000E+00 -0.45593999997E+02  0.45594000000E+02  0.51100000000E-03 0.  1.
         23    2    1    2    0    0 -0.71054273576E-14 -0.88817841970E-15 -0.35527136788E-14  0.91188000000E+02  0.91188000000E+02 0.  0.
    9900012    2    3    3    0    0 -0.21924514623E+02 -0.60129538765E+01 -0.28964457920E+02  0.54367085041E+02  0.40000001969E+02 0.  0.
         12    1    3    3    0    0  0.21924514623E+02  0.60129538765E+01  0.28964457920E+02  0.36820914959E+02  0.00000000000E+00 0. -1.
         11    1    4    4    0    0  0.79536934085E+01 -0.78997272292E+00  0.10341224881E+01  0.80594482020E+01  0.51100000000E-03 0. -1.
        -11    1    4    4    0    0 -0.57857474196E+01  0.81701626856E+00 -0.17604762853E+02  0.18549125698E+02  0.51100000000E-03 0.  1.
         12    1    4    4    0    0 -0.24092460612E+02 -0.60399974222E+01 -0.12393817555E+02  0.27758511141E+02  0.00000000000E+00 0. -1.
</event>
<event>
 8    1  0.2466538E-006  0.9118800E+02  0.7816164E-02  0.1184000E+00
        -11   -1    0    0    0    0  0.00000000000E+00  0.00000000000E+00  0.45593999997E+02  0.45594000000E+02  0.51100000000E-03 0. -1.
         11   -1    0    0    0    0 -0.00000000000E+00 -0.00000000000E+00 -0.45593999997E+02  0.45594000000E+02  0.51100000000E-03 0.  1.
         23    2    1    2    0    0 -0.44408920985E-15  0.00000000000E+00  0.00000000000E+00  0.91188000000E+02  0.91188000000E+02 0.  0.
    9900012    2    3    3    0    0  0.35907813802E+01 -0.12173699124E+02  0.34564121369E+02  0.54367202245E+02  0.40000269157E+02 0.  0.
        -12    1    3    3    0    0 -0.35907813802E+01  0.12173699124E+02 -0.34564121369E+02  0.36820797755E+02  0.00000000000E+00 0.  1.
         11    1    4    4    0    0 -0.60295523866E-01 -0.32102439784E+01  0.29818216165E+02  0.29990587148E+02  0.51100000000E-03 0. -1.
        -11    1    4    4    0    0  0.11741712001E+02 -0.53822758100E+01  0.77134934766E+01  0.15044423401E+02  0.51100000000E-03 0.  1.
         12    1    4    4    0    0 -0.80906350965E+01 -0.35811793360E+01 -0.29675882721E+01  0.93321916962E+01  0.00000000000E+00 0. -1.
</event>
<event>
 8    1  0.2466538E-006  0.9118800E+02  0.7816164E-02  0.1184000E+00
        -11   -1    0    0    0    0  0.00000000000E+00  0.00000000000E+00  0.45593999997E+02  0.45594000000E+02  0.51100000000E-03 0.  1.
         11   -1    0    0    0    0 -0.00000000000E+00 -0.00000000000E+00 -0.45593999997E+02  0.45594000000E+02  0.51100000000E-03 0. -1.
         23    2    1    2    0    0  0.00000000000E+00  0.00000000000E+00  0.00000000000E+00  0.91188000000E+02  0.91188000000E+02 0.  0.
    9900012    2    3    3    0    0  0.11438933880E+02 -0.26280181809E+02 -0.23114560079E+02  0.54367081328E+02  0.39999993503E+02 0.  0.
        -12    1    3    3    0    0 -0.11438933880E+02  0.26280181809E+02  0.23114560079E+02  0.36820918672E+02  0.00000000000E+00 0.  1.
         11    1    4    4    0    0 -0.10448492651E+01 -0.17024315415E+02 -0.56098664765E+01  0.17955211708E+02  0.51100000000E-03 0. -1.
        -11    1    4    4    0    0  0.21021249109E+02 -0.10113231625E+02 -0.13368506043E+02  0.26886563969E+02  0.51100000000E-03 0.  1.
        -12    1    4    4    0    0 -0.85374659636E+01  0.85736523069E+00 -0.41361875593E+01  0.95253056509E+01  0.00000000000E+00 0.  1.
</event>
<event>
 8    1  0.2466538E-006  0.9118800E+02  0.7816164E-02  0.1184000E+00
        -11   -1    0    0    0    0  0.00000000000E+00  0.00000000000E+00  0.45593999997E+02  0.45594000000E+02  0.51100000000E-03 0.  1.
         11   -1    0    0    0    0 -0.00000000000E+00 -0.00000000000E+00 -0.45593999997E+02  0.45594000000E+02  0.51100000000E-03 0. -1.
         23    2    1    2    0    0  0.00000000000E+00  0.00000000000E+00  0.17763568394E-14  0.91188000000E+02  0.91188000000E+02 0.  0.
    9900012    2    3    3    0    0  0.12621106926E+02 -0.32680323825E+02 -0.11335066921E+02  0.54367086820E+02  0.40000006023E+02 0.  0.
        -12    1    3    3    0    0 -0.12621106926E+02  0.32680323825E+02  0.11335066921E+02  0.36820913180E+02  0.00000000000E+00 0.  1.
         11    1    4    4    0    0  0.11514748274E+02 -0.12969802644E+02  0.52454685996E+01  0.18119606771E+02  0.51100000000E-03 0. -1.
        -11    1    4    4    0    0 -0.83143265954E+01 -0.90610470270E+00 -0.12155400233E+02  0.14754755422E+02  0.51100000000E-03 0.  1.
        -12    1    4    4    0    0  0.94206852470E+01 -0.18804416478E+02 -0.44251352877E+01  0.21492724628E+02  0.00000000000E+00 0.  1.
</event>
<event>
 8    1  0.2466538E-006  0.9118800E+02  0.7816164E-02  0.1184000E+00
        -11   -1    0    0    0    0  0.00000000000E+00  0.00000000000E+00  0.45593999997E+02  0.45594000000E+02  0.51100000000E-03 0.  1.
         11   -1    0    0    0    0 -0.00000000000E+00 -0.00000000000E+00 -0.45593999997E+02  0.45594000000E+02  0.51100000000E-03 0. -1.
         23    2    1    2    0    0  0.00000000000E+00  0.88817841970E-15 -0.88817841970E-15  0.91188000000E+02  0.91188000000E+02 0.  0.
    9900012    2    3    3    0    0 -0.36648509481E+02 -0.27831106688E+01 -0.22196001597E+01  0.54367006300E+02  0.39999822462E+02 0.  0.
        -12    1    3    3    0    0  0.36648509481E+02  0.27831106688E+01  0.22196001597E+01  0.36820993700E+02  0.00000000000E+00 0.  1.
         11    1    4    4    0    0 -0.24961480105E+02  0.52021256482E+01 -0.16957579800E+02  0.30621840461E+02  0.51100000000E-03 0. -1.
        -11    1    4    4    0    0  0.20117997170E+01  0.94605200758E+00  0.23050720130E+01  0.32024537075E+01  0.51100000000E-03 0.  1.
         12    1    4    4    0    0 -0.13698829093E+02 -0.89312883246E+01  0.12432907627E+02  0.20542712132E+02  0.00000000000E+00 0. -1.
</event>
<event>
 8    1  0.2466538E-006  0.9118800E+02  0.7816164E-02  0.1184000E+00
        -11   -1    0    0    0    0  0.00000000000E+00  0.00000000000E+00  0.45593999997E+02  0.45594000000E+02  0.51100000000E-03 0.  1.
         11   -1    0    0    0    0 -0.00000000000E+00 -0.00000000000E+00 -0.45593999997E+02  0.45594000000E+02  0.51100000000E-03 0. -1.
         23    2    1    2    0    0  0.00000000000E+00 -0.88817841970E-15 -0.35527136788E-14  0.91188000000E+02  0.91188000000E+02 0.  0.
    9900012    2    3    3    0    0  0.21914438922E+02  0.40925394054E+01  0.29305120254E+02  0.54367060507E+02  0.39999946038E+02 0.  0.
         12    1    3    3    0    0 -0.21914438922E+02 -0.40925394054E+01 -0.29305120254E+02  0.36820939493E+02  0.00000000000E+00 0. -1.
         11    1    4    4    0    0  0.31294251072E+01  0.53890915543E+01  0.55046024038E+01  0.83148215355E+01  0.51100000000E-03 0. -1.
        -11    1    4    4    0    0  0.13167376176E+02  0.12977771861E+02  0.24504116863E+02  0.30696157761E+02  0.51100000000E-03 0.  1.
         12    1    4    4    0    0  0.56176376383E+01 -0.14274324009E+02 -0.70359901247E+00  0.15356081210E+02  0.00000000000E+00 0. -1.
</event>
<event>
 8    1  0.2466538E-006  0.9118800E+02  0.7816164E-02  0.1184000E+00
        -11   -1    0    0    0    0  0.00000000000E+00  0.00000000000E+00  0.45593999997E+02  0.45594000000E+02  0.51100000000E-03 0. -1.
         11   -1    0    0    0    0 -0.00000000000E+00 -0.00000000000E+00 -0.45593999997E+02  0.45594000000E+02  0.51100000000E-03 0.  1.
         23    2    1    2    0    0  0.88817841970E-15 -0.17763568394E-14  0.00000000000E+00  0.91188000000E+02  0.91188000000E+02 0.  0.
    9900012    2    3    3    0    0  0.24931558048E+01 -0.15520037058E+02  0.33297036590E+02  0.54367081736E+02  0.39999994434E+02 0.  0.
        -12    1    3    3    0    0 -0.24931558048E+01  0.15520037058E+02 -0.33297036590E+02  0.36820918264E+02  0.00000000000E+00 0.  1.
         11    1    4    4    0    0  0.10426473955E+01 -0.18354420888E+02  0.30000906494E+02  0.35185597487E+02  0.51100000000E-03 0. -1.
        -11    1    4    4    0    0 -0.76460607013E+01 -0.14113273938E+01 -0.17142683902E+01  0.79619599117E+01  0.51100000000E-03 0.  1.
        -12    1    4    4    0    0  0.90965691107E+01  0.42457112241E+01  0.50103984852E+01  0.11219524338E+02  0.00000000000E+00 0.  1.
</event>
<event>
 8    1  0.2466538E-006  0.9118800E+02  0.7816164E-02  0.1184000E+00
        -11   -1    0    0    0    0  0.00000000000E+00  0.00000000000E+00  0.45593999997E+02  0.45594000000E+02  0.51100000000E-03 0. -1.
         11   -1    0    0    0    0 -0.00000000000E+00 -0.00000000000E+00 -0.45593999997E+02  0.45594000000E+02  0.51100000000E-03 0.  1.
         23    2    1    2    0    0  0.00000000000E+00  0.17763568394E-14  0.00000000000E+00  0.91188000000E+02  0.91188000000E+02 0.  0.
    9900012    2    3    3    0    0  0.34071546577E+02 -0.12717358472E+02 -0.57601477904E+01  0.54367071234E+02  0.39999970492E+02 0.  0.
         12    1    3    3    0    0 -0.34071546577E+02  0.12717358472E+02  0.57601477904E+01  0.36820928766E+02  0.00000000000E+00 0. -1.
         11    1    4    4    0    0  0.34395694158E+02 -0.11607285139E+02  0.11651816312E+01  0.36320111417E+02  0.51100000000E-03 0. -1.
        -11    1    4    4    0    0  0.15233883560E+01 -0.85887401336E+01 -0.21514908625E+01  0.89842129515E+01  0.51100000000E-03 0.  1.
        -12    1    4    4    0    0 -0.18475359369E+01  0.74786668007E+01 -0.47738385591E+01  0.90627468652E+01  0.00000000000E+00 0.  1.
</event>
<event>
 8    1  0.2466538E-006  0.9118800E+02  0.7816164E-02  0.1184000E+00
        -11   -1    0    0    0    0  0.00000000000E+00  0.00000000000E+00  0.45593999997E+02  0.45594000000E+02  0.51100000000E-03 0. -1.
         11   -1    0    0    0    0 -0.00000000000E+00 -0.00000000000E+00 -0.45593999997E+02  0.45594000000E+02  0.51100000000E-03 0.  1.
         23    2    1    2    0    0  0.00000000000E+00  0.88817841970E-15 -0.35527136788E-14  0.91188000000E+02  0.91188000000E+02 0.  0.
    9900012    2    3    3    0    0 -0.19063047772E+02 -0.38746564930E+01 -0.31263100686E+02  0.54366888965E+02  0.39999554972E+02 0.  0.
         12    1    3    3    0    0  0.19063047772E+02  0.38746564930E+01  0.31263100686E+02  0.36821111035E+02  0.00000000000E+00 0. -1.
         11    1    4    4    0    0  0.47949152769E+01  0.56892118459E+01  0.25936738234E+01  0.78794345041E+01  0.51100000000E-03 0. -1.
        -11    1    4    4    0    0 -0.60417079384E+01  0.56083090820E+01 -0.11277780508E+02  0.13969384347E+02  0.51100000000E-03 0.  1.
        -12    1    4    4    0    0 -0.17816255110E+02 -0.15172177421E+02 -0.22578994002E+02  0.32518070115E+02  0.00000000000E+00 0.  1.
</event>
<event>
 8    1  0.2466538E-006  0.9118800E+02  0.7816164E-02  0.1184000E+00
        -11   -1    0    0    0    0  0.00000000000E+00  0.00000000000E+00  0.45593999997E+02  0.45594000000E+02  0.51100000000E-03 0.  1.
         11   -1    0    0    0    0 -0.00000000000E+00 -0.00000000000E+00 -0.45593999997E+02  0.45594000000E+02  0.51100000000E-03 0. -1.
         23    2    1    2    0    0  0.00000000000E+00 -0.35527136788E-14  0.88817841970E-15  0.91188000000E+02  0.91188000000E+02 0.  0.
    9900012    2    3    3    0    0 -0.29196708359E+02 -0.21564143580E+02 -0.61902930265E+01  0.54367084815E+02  0.40000001452E+02 0.  0.
        -12    1    3    3    0    0  0.29196708359E+02  0.21564143580E+02  0.61902930265E+01  0.36820915185E+02  0.00000000000E+00 0.  1.
         11    1    4    4    0    0 -0.11297717103E+02  0.44766401514E+01 -0.16243418542E+02  0.20286137261E+02  0.51100000000E-03 0. -1.
        -11    1    4    4    0    0 -0.10798895172E+02 -0.97787847437E+01  0.66441804260E+01  0.16012054890E+02  0.51100000000E-03 0.  1.
         12    1    4    4    0    0 -0.71000960842E+01 -0.16261998987E+02  0.34089450897E+01  0.18068892664E+02  0.00000000000E+00 0. -1.
</event>
<event>
 8    1  0.2466538E-006  0.9118800E+02  0.7816164E-02  0.1184000E+00
        -11   -1    0    0    0    0  0.00000000000E+00  0.00000000000E+00  0.45593999997E+02  0.45594000000E+02  0.51100000000E-03 0.  1.
         11   -1    0    0    0    0 -0.00000000000E+00 -0.00000000000E+00 -0.45593999997E+02  0.45594000000E+02  0.51100000000E-03 0. -1.
         23    2    1    2    0    0  0.00000000000E+00  0.00000000000E+00  0.17763568394E-14  0.91188000000E+02  0.91188000000E+02 0.  0.
    9900012    2    3    3    0    0 -0.62827959032E+01  0.33525599077E+02  0.13868610205E+02  0.54367113714E+02  0.40000067335E+02 0.  0.
        -12    1    3    3    0    0  0.62827959032E+01 -0.33525599077E+02 -0.13868610205E+02  0.36820886286E+02  0.00000000000E+00 0.  1.
         11    1    4    4    0    0 -0.22893939344E+01  0.22443889166E+02 -0.38295590959E+01  0.22883072534E+02  0.51100000000E-03 0. -1.
        -11    1    4    4    0    0  0.70520922425E+01  0.24479205874E+01  0.15619063312E+02  0.17311252387E+02  0.51100000000E-03 0.  1.
        -12    1    4    4    0    0 -0.11045494211E+02  0.86337893236E+01  0.20791059889E+01  0.14172788793E+02  0.00000000000E+00 0.  1.
</event>
<event>
 8    1  0.2466538E-006  0.9118800E+02  0.7816164E-02  0.1184000E+00
        -11   -1    0    0    0    0  0.00000000000E+00  0.00000000000E+00  0.45593999997E+02  0.45594000000E+02  0.51100000000E-03 0.  1.
         11   -1    0    0    0    0 -0.00000000000E+00 -0.00000000000E+00 -0.45593999997E+02  0.45594000000E+02  0.51100000000E-03 0. -1.
         23    2    1    2    0    0  0.00000000000E+00 -0.35527136788E-14  0.00000000000E+00  0.91188000000E+02  0.91188000000E+02 0.  0.
    9900012    2    3    3    0    0  0.21820438825E+02 -0.21007106412E+02 -0.20936807538E+02  0.54367082300E+02  0.39999995720E+02 0.  0.
        -12    1    3    3    0    0 -0.21820438825E+02  0.21007106412E+02  0.20936807538E+02  0.36820917700E+02  0.00000000000E+00 0.  1.
         11    1    4    4    0    0  0.63133196699E+00 -0.65688437414E+01 -0.14664446990E+02  0.16080867326E+02  0.51100000000E-03 0. -1.
        -11    1    4    4    0    0 -0.35292442474E+01  0.51066942018E+01 -0.17645297908E+01  0.64534840414E+01  0.51100000000E-03 0.  1.
        -12    1    4    4    0    0  0.24718351106E+02 -0.19544956873E+02 -0.45078307569E+01  0.31832730933E+02  0.00000000000E+00 0.  1.
</event>
<event>
 8    1  0.2466538E-006  0.9118800E+02  0.7816164E-02  0.1184000E+00
        -11   -1    0    0    0    0  0.00000000000E+00  0.00000000000E+00  0.45593999997E+02  0.45594000000E+02  0.51100000000E-03 0.  1.
         11   -1    0    0    0    0 -0.00000000000E+00 -0.00000000000E+00 -0.45593999997E+02  0.45594000000E+02  0.51100000000E-03 0. -1.
         23    2    1    2    0    0  0.71054273576E-14  0.88817841970E-15  0.17763568394E-14  0.91188000000E+02  0.91188000000E+02 0.  0.
    9900012    2    3    3    0    0 -0.34440601374E+02 -0.51102515218E+01  0.11979641768E+02  0.54367061521E+02  0.39999948349E+02 0.  0.
         12    1    3    3    0    0  0.34440601374E+02  0.51102515218E+01 -0.11979641768E+02  0.36820938479E+02  0.00000000000E+00 0. -1.
         11    1    4    4    0    0 -0.11409439758E+02  0.57719237771E+01 -0.16495510127E+01  0.12892301520E+02  0.51100000000E-03 0. -1.
        -11    1    4    4    0    0  0.10717614977E+01 -0.13259785433E+02 -0.72146560611E+00  0.13322578403E+02  0.51100000000E-03 0.  1.
        -12    1    4    4    0    0 -0.24102923114E+02  0.23776101338E+01  0.14350658386E+02  0.28152181598E+02  0.00000000000E+00 0.  1.
</event>
<event>
 8    1  0.2466538E-006  0.9118800E+02  0.7816164E-02  0.1184000E+00
        -11   -1    0    0    0    0  0.00000000000E+00  0.00000000000E+00  0.45593999997E+02  0.45594000000E+02  0.51100000000E-03 0. -1.
         11   -1    0    0    0    0 -0.00000000000E+00 -0.00000000000E+00 -0.45593999997E+02  0.45594000000E+02  0.51100000000E-03 0.  1.
         23    2    1    2    0    0  0.00000000000E+00  0.00000000000E+00 -0.35527136788E-14  0.91188000000E+02  0.91188000000E+02 0.  0.
    9900012    2    3    3    0    0 -0.21306550584E+02  0.20926199148E+02 -0.21538462240E+02  0.54367078444E+02  0.39999986929E+02 0.  0.
         12    1    3    3    0    0  0.21306550584E+02 -0.20926199148E+02  0.21538462240E+02  0.36820921556E+02  0.00000000000E+00 0. -1.
         11    1    4    4    0    0 -0.61061769465E+01  0.35812749539E+01  0.88469636929E+01  0.11330476338E+02  0.51100000000E-03 0. -1.
        -11    1    4    4    0    0  0.30593872681E+01  0.84381941821E+01 -0.15276009103E+02  0.17717771470E+02  0.51100000000E-03 0.  1.
        -12    1    4    4    0    0 -0.18259760906E+02  0.89067300117E+01 -0.15109416830E+02  0.25318830636E+02  0.00000000000E+00 0.  1.
</event>
<event>
 8    1  0.2466538E-006  0.9118800E+02  0.7816164E-02  0.1184000E+00
        -11   -1    0    0    0    0  0.00000000000E+00  0.00000000000E+00  0.45593999997E+02  0.45594000000E+02  0.51100000000E-03 0.  1.
         11   -1    0    0    0    0 -0.00000000000E+00 -0.00000000000E+00 -0.45593999997E+02  0.45594000000E+02  0.51100000000E-03 0. -1.
         23    2    1    2    0    0  0.00000000000E+00  0.00000000000E+00 -0.17763568394E-14  0.91188000000E+02  0.91188000000E+02 0.  0.
    9900012    2    3    3    0    0 -0.22994347034E+02  0.24926135845E+02  0.14343192409E+02  0.54367090014E+02  0.40000013306E+02 0.  0.
         12    1    3    3    0    0  0.22994347034E+02 -0.24926135845E+02 -0.14343192409E+02  0.36820909986E+02  0.00000000000E+00 0. -1.
         11    1    4    4    0    0  0.33838479502E+00  0.75659276725E+00 -0.22483833129E+01  0.23962814250E+01  0.51100000000E-03 0. -1.
        -11    1    4    4    0    0 -0.22382164817E+01  0.23491369861E+02 -0.22156756067E+01  0.23701546144E+02  0.51100000000E-03 0.  1.
        -12    1    4    4    0    0 -0.21094515347E+02  0.67817321688E+00  0.18807251329E+02  0.28269262445E+02  0.00000000000E+00 0.  1.
</event>
<event>
 8    1  0.2466538E-006  0.9118800E+02  0.7816164E-02  0.1184000E+00
        -11   -1    0    0    0    0  0.00000000000E+00  0.00000000000E+00  0.45593999997E+02  0.45594000000E+02  0.51100000000E-03 0. -1.
         11   -1    0    0    0    0 -0.00000000000E+00 -0.00000000000E+00 -0.45593999997E+02  0.45594000000E+02  0.51100000000E-03 0.  1.
         23    2    1    2    0    0 -0.88817841970E-15 -0.71054273576E-14  0.88817841970E-15  0.91188000000E+02  0.91188000000E+02 0.  0.
    9900012    2    3    3    0    0 -0.35119207035E+01  0.36556644670E+02 -0.26567548625E+01  0.54367079276E+02  0.39999988826E+02 0.  0.
         12    1    3    3    0    0  0.35119207035E+01 -0.36556644670E+02  0.26567548625E+01  0.36820920724E+02  0.00000000000E+00 0. -1.
         11    1    4    4    0    0  0.12343056659E+02  0.19979325683E+02 -0.10027506916E+02  0.25535767027E+02  0.51100000000E-03 0. -1.
        -11    1    4    4    0    0  0.11435569450E+01  0.32059202450E+01 -0.32770285749E+01  0.47248876860E+01  0.51100000000E-03 0.  1.
        -12    1    4    4    0    0 -0.16998534307E+02  0.13371398741E+02  0.10647780629E+02  0.24106424563E+02  0.00000000000E+00 0.  1.
</event>
<event>
 8    1  0.2466538E-006  0.9118800E+02  0.7816164E-02  0.1184000E+00
        -11   -1    0    0    0    0  0.00000000000E+00  0.00000000000E+00  0.45593999997E+02  0.45594000000E+02  0.51100000000E-03 0. -1.
         11   -1    0    0    0    0 -0.00000000000E+00 -0.00000000000E+00 -0.45593999997E+02  0.45594000000E+02  0.51100000000E-03 0.  1.
         23    2    1    2    0    0 -0.17763568394E-14  0.71054273576E-14  0.17763568394E-14  0.91188000000E+02  0.91188000000E+02 0.  0.
    9900012    2    3    3    0    0  0.59141439166E+01  0.34222884936E+02  0.12231013998E+02  0.54367073137E+02  0.39999974830E+02 0.  0.
        -12    1    3    3    0    0 -0.59141439166E+01 -0.34222884936E+02 -0.12231013998E+02  0.36820926863E+02  0.00000000000E+00 0.  1.
         11    1    4    4    0    0 -0.91134910258E+01  0.42338802358E+01  0.82707902054E+01  0.13014892678E+02  0.51100000000E-03 0. -1.
        -11    1    4    4    0    0 -0.36725206979E+01  0.41817171694E+01  0.74413889985E+01  0.92923859826E+01  0.51100000000E-03 0.  1.
        -12    1    4    4    0    0  0.18700155640E+02  0.25807287531E+02 -0.34811652055E+01  0.32059794477E+02  0.00000000000E+00 0.  1.
</event>
<event>
 8    1  0.2466538E-006  0.9118800E+02  0.7816164E-02  0.1184000E+00
        -11   -1    0    0    0    0  0.00000000000E+00  0.00000000000E+00  0.45593999997E+02  0.45594000000E+02  0.51100000000E-03 0.  1.
         11   -1    0    0    0    0 -0.00000000000E+00 -0.00000000000E+00 -0.45593999997E+02  0.45594000000E+02  0.51100000000E-03 0. -1.
         23    2    1    2    0    0 -0.71054273576E-14 -0.71054273576E-14  0.00000000000E+00  0.91188000000E+02  0.91188000000E+02 0.  0.
    9900012    2    3    3    0    0 -0.32332521430E+02 -0.17501822189E+02 -0.20185397987E+01  0.54367078979E+02  0.39999988148E+02 0.  0.
         12    1    3    3    0    0  0.32332521430E+02  0.17501822189E+02  0.20185397987E+01  0.36820921021E+02  0.00000000000E+00 0. -1.
         11    1    4    4    0    0  0.14290805195E+01  0.54941728145E+00 -0.56932930117E+01  0.58955674925E+01  0.51100000000E-03 0. -1.
        -11    1    4    4    0    0 -0.31607931733E+02 -0.17695218369E+01  0.47547524297E+01  0.32012501103E+02  0.51100000000E-03 0.  1.
         12    1    4    4    0    0 -0.21536702161E+01 -0.16281717633E+02 -0.10799992166E+01  0.16459010383E+02  0.00000000000E+00 0. -1.
</event>
<event>
 8    1  0.2466538E-006  0.9118800E+02  0.7816164E-02  0.1184000E+00
        -11   -1    0    0    0    0  0.00000000000E+00  0.00000000000E+00  0.45593999997E+02  0.45594000000E+02  0.51100000000E-03 0.  1.
         11   -1    0    0    0    0 -0.00000000000E+00 -0.00000000000E+00 -0.45593999997E+02  0.45594000000E+02  0.51100000000E-03 0. -1.
         23    2    1    2    0    0  0.35527136788E-14 -0.35527136788E-14 -0.13322676296E-14  0.91188000000E+02  0.91188000000E+02 0.  0.
    9900012    2    3    3    0    0  0.21623899259E+02  0.29676470413E+02  0.27375204720E+01  0.54367082933E+02  0.39999997163E+02 0.  0.
         12    1    3    3    0    0 -0.21623899259E+02 -0.29676470413E+02 -0.27375204720E+01  0.36820917067E+02  0.00000000000E+00 0. -1.
         11    1    4    4    0    0  0.19768711397E+02  0.25971430759E+02 -0.30240175009E+01  0.32778984854E+02  0.51100000000E-03 0. -1.
        -11    1    4    4    0    0  0.38979506108E+01  0.10569561403E+02 -0.15283929705E+01  0.11368624919E+02  0.51100000000E-03 0.  1.
         12    1    4    4    0    0 -0.20427627488E+01 -0.68645217499E+01  0.72899309434E+01  0.10219473160E+02  0.00000000000E+00 0. -1.
</event>
<event>
 8    1  0.2466538E-006  0.9118800E+02  0.7816164E-02  0.1184000E+00
        -11   -1    0    0    0    0  0.00000000000E+00  0.00000000000E+00  0.45593999997E+02  0.45594000000E+02  0.51100000000E-03 0. -1.
         11   -1    0    0    0    0 -0.00000000000E+00 -0.00000000000E+00 -0.45593999997E+02  0.45594000000E+02  0.51100000000E-03 0.  1.
         23    2    1    2    0    0  0.00000000000E+00  0.00000000000E+00  0.00000000000E+00  0.91188000000E+02  0.91188000000E+02 0.  0.
    9900012    2    3    3    0    0  0.25616772847E+02  0.19552040860E+02 -0.17812310835E+02  0.54367085153E+02  0.40000002223E+02 0.  0.
         12    1    3    3    0    0 -0.25616772847E+02 -0.19552040860E+02  0.17812310835E+02  0.36820914847E+02  0.00000000000E+00 0. -1.
         11    1    4    4    0    0  0.65198417770E+01  0.46767658175E+01  0.82691257638E+01  0.11522105557E+02  0.51100000000E-03 0. -1.
        -11    1    4    4    0    0  0.73089751292E+01 -0.62818392002E+01 -0.57460361722E+01  0.11220497009E+02  0.51100000000E-03 0.  1.
        -12    1    4    4    0    0  0.11787955940E+02  0.21157114243E+02 -0.20335400427E+02  0.31624482587E+02  0.00000000000E+00 0.  1.
</event>
<event>
 8    1  0.2466538E-006  0.9118800E+02  0.7816164E-02  0.1184000E+00
        -11   -1    0    0    0    0  0.00000000000E+00  0.00000000000E+00  0.45593999997E+02  0.45594000000E+02  0.51100000000E-03 0.  1.
         11   -1    0    0    0    0 -0.00000000000E+00 -0.00000000000E+00 -0.45593999997E+02  0.45594000000E+02  0.51100000000E-03 0. -1.
         23    2    1    2    0    0  0.00000000000E+00  0.00000000000E+00  0.17763568394E-14  0.91188000000E+02  0.91188000000E+02 0.  0.
    9900012    2    3    3    0    0 -0.35189251050E+02 -0.92863187086E+01 -0.55911095412E+01  0.54367087321E+02  0.40000007166E+02 0.  0.
         12    1    3    3    0    0  0.35189251050E+02  0.92863187086E+01  0.55911095412E+01  0.36820912679E+02  0.00000000000E+00 0. -1.
         11    1    4    4    0    0 -0.24457860334E+02 -0.56485471961E+01  0.85356898972E+01  0.26513223490E+02  0.51100000000E-03 0. -1.
        -11    1    4    4    0    0 -0.10628152271E+02 -0.62334588112E+01  0.11341892747E+01  0.12373359084E+02  0.51100000000E-03 0.  1.
         12    1    4    4    0    0 -0.10323844472E+00  0.25956872987E+01 -0.15260988713E+02  0.15480504747E+02  0.00000000000E+00 0. -1.
</event>
<event>
 8    1  0.2466538E-006  0.9118800E+02  0.7816164E-02  0.1184000E+00
        -11   -1    0    0    0    0  0.00000000000E+00  0.00000000000E+00  0.45593999997E+02  0.45594000000E+02  0.51100000000E-03 0.  1.
         11   -1    0    0    0    0 -0.00000000000E+00 -0.00000000000E+00 -0.45593999997E+02  0.45594000000E+02  0.51100000000E-03 0. -1.
         23    2    1    2    0    0  0.00000000000E+00  0.17763568394E-14  0.00000000000E+00  0.91188000000E+02  0.91188000000E+02 0.  0.
    9900012    2    3    3    0    0 -0.24212844327E+02 -0.61487735430E+01  0.27050155647E+02  0.54367079764E+02  0.39999989939E+02 0.  0.
         12    1    3    3    0    0  0.24212844327E+02  0.61487735430E+01 -0.27050155647E+02  0.36820920236E+02  0.00000000000E+00 0. -1.
         11    1    4    4    0    0 -0.87298449302E+01  0.67461137303E+01  0.33737319011E+01  0.11536997450E+02  0.51100000000E-03 0. -1.
        -11    1    4    4    0    0  0.80005570372E+00 -0.17509219043E+02  0.17624573971E+02  0.24856356301E+02  0.51100000000E-03 0.  1.
        -12    1    4    4    0    0 -0.16283055100E+02  0.46143317703E+01  0.60518497744E+01  0.17973726013E+02  0.00000000000E+00 0.  1.
</event>
<event>
 8    1  0.2466538E-006  0.9118800E+02  0.7816164E-02  0.1184000E+00
        -11   -1    0    0    0    0  0.00000000000E+00  0.00000000000E+00  0.45593999997E+02  0.45594000000E+02  0.51100000000E-03 0.  1.
         11   -1    0    0    0    0 -0.00000000000E+00 -0.00000000000E+00 -0.45593999997E+02  0.45594000000E+02  0.51100000000E-03 0. -1.
         23    2    1    2    0    0  0.00000000000E+00  0.35527136788E-14  0.35527136788E-14  0.91188000000E+02  0.91188000000E+02 0.  0.
    9900012    2    3    3    0    0  0.19634018408E+02  0.25919568347E+02 -0.17275982804E+02  0.54367105335E+02  0.40000048231E+02 0.  0.
         12    1    3    3    0    0 -0.19634018408E+02 -0.25919568347E+02  0.17275982804E+02  0.36820894665E+02  0.00000000000E+00 0. -1.
         11    1    4    4    0    0  0.60967114943E+00 -0.13292116885E+01 -0.31066834840E+01  0.34336547808E+01  0.51100000000E-03 0. -1.
        -11    1    4    4    0    0 -0.28957053386E+01  0.74121056365E+01  0.99774127032E+01  0.12762177866E+02  0.51100000000E-03 0.  1.
        -12    1    4    4    0    0  0.21920052597E+02  0.19836674399E+02 -0.24146712024E+02  0.38171272688E+02  0.00000000000E+00 0.  1.
</event>
<event>
 8    1  0.2466538E-006  0.9118800E+02  0.7816164E-02  0.1184000E+00
        -11   -1    0    0    0    0  0.00000000000E+00  0.00000000000E+00  0.45593999997E+02  0.45594000000E+02  0.51100000000E-03 0.  1.
         11   -1    0    0    0    0 -0.00000000000E+00 -0.00000000000E+00 -0.45593999997E+02  0.45594000000E+02  0.51100000000E-03 0. -1.
         23    2    1    2    0    0  0.00000000000E+00  0.00000000000E+00  0.88817841970E-15  0.91188000000E+02  0.91188000000E+02 0.  0.
    9900012    2    3    3    0    0  0.33420794472E+02 -0.15421155743E+02 -0.10095115361E+01  0.54367073054E+02  0.39999974641E+02 0.  0.
         12    1    3    3    0    0 -0.33420794472E+02  0.15421155743E+02  0.10095115361E+01  0.36820926946E+02  0.00000000000E+00 0. -1.
         11    1    4    4    0    0  0.21501259271E+02 -0.84797803999E+00 -0.14063798634E+01  0.21563884659E+02  0.51100000000E-03 0. -1.
        -11    1    4    4    0    0  0.79689962828E+01 -0.17402966957E+02 -0.98028781873E+01  0.21504989692E+02  0.51100000000E-03 0.  1.
        -12    1    4    4    0    0  0.39505389186E+01  0.28297892534E+01  0.10199746515E+02  0.11298198703E+02  0.00000000000E+00 0.  1.
</event>
<event>
 8    1  0.2466538E-006  0.9118800E+02  0.7816164E-02  0.1184000E+00
        -11   -1    0    0    0    0  0.00000000000E+00  0.00000000000E+00  0.45593999997E+02  0.45594000000E+02  0.51100000000E-03 0.  1.
         11   -1    0    0    0    0 -0.00000000000E+00 -0.00000000000E+00 -0.45593999997E+02  0.45594000000E+02  0.51100000000E-03 0. -1.
         23    2    1    2    0    0  0.00000000000E+00  0.00000000000E+00  0.00000000000E+00  0.91188000000E+02  0.91188000000E+02 0.  0.
    9900012    2    3    3    0    0  0.22366866107E+02  0.27714538254E+02  0.93491581499E+01  0.54367094413E+02  0.40000023334E+02 0.  0.
         12    1    3    3    0    0 -0.22366866107E+02 -0.27714538254E+02 -0.93491581499E+01  0.36820905587E+02  0.00000000000E+00 0. -1.
         11    1    4    4    0    0  0.18362522766E+01  0.79665609741E+01  0.71299205881E+01  0.10847750183E+02  0.51100000000E-03 0. -1.
        -11    1    4    4    0    0  0.28644006277E+02  0.90682863722E+01  0.18539524440E+01  0.30102326376E+02  0.51100000000E-03 0.  1.
         12    1    4    4    0    0 -0.81133924466E+01  0.10679690908E+02  0.36528511774E+00  0.13417017854E+02  0.00000000000E+00 0. -1.
</event>
<event>
 8    1  0.2466538E-006  0.9118800E+02  0.7816164E-02  0.1184000E+00
        -11   -1    0    0    0    0  0.00000000000E+00  0.00000000000E+00  0.45593999997E+02  0.45594000000E+02  0.51100000000E-03 0.  1.
         11   -1    0    0    0    0 -0.00000000000E+00 -0.00000000000E+00 -0.45593999997E+02  0.45594000000E+02  0.51100000000E-03 0. -1.
         23    2    1    2    0    0 -0.35527136788E-14  0.00000000000E+00  0.00000000000E+00  0.91188000000E+02  0.91188000000E+02 0.  0.
    9900012    2    3    3    0    0  0.31230348502E+02 -0.99131045198E+01  0.16798101909E+02  0.54367074747E+02  0.39999978500E+02 0.  0.
         12    1    3    3    0    0 -0.31230348502E+02  0.99131045198E+01 -0.16798101909E+02  0.36820925253E+02  0.00000000000E+00 0. -1.
         11    1    4    4    0    0 -0.55226013039E+01 -0.79165851589E+01 -0.50926936646E+01  0.10913614193E+02  0.51100000000E-03 0. -1.
        -11    1    4    4    0    0  0.31637020327E+02 -0.40181302405E+01  0.17256299906E+02  0.36260533815E+02  0.51100000000E-03 0.  1.
        -12    1    4    4    0    0  0.51159294782E+01  0.20216108796E+01  0.46344956676E+01  0.71929267386E+01  0.00000000000E+00 0.  1.
</event>
<event>
 8    1  0.2466538E-006  0.9118800E+02  0.7816164E-02  0.1184000E+00
        -11   -1    0    0    0    0  0.00000000000E+00  0.00000000000E+00  0.45593999997E+02  0.45594000000E+02  0.51100000000E-03 0. -1.
         11   -1    0    0    0    0 -0.00000000000E+00 -0.00000000000E+00 -0.45593999997E+02  0.45594000000E+02  0.51100000000E-03 0.  1.
         23    2    1    2    0    0  0.00000000000E+00 -0.35527136788E-14  0.88817841970E-15  0.91188000000E+02  0.91188000000E+02 0.  0.
    9900012    2    3    3    0    0 -0.31479628968E+02 -0.18743470913E+02  0.36733005928E+01  0.54367110833E+02  0.40000060766E+02 0.  0.
        -12    1    3    3    0    0  0.31479628968E+02  0.18743470913E+02 -0.36733005928E+01  0.36820889167E+02  0.00000000000E+00 0.  1.
         11    1    4    4    0    0 -0.14687585923E+02 -0.11701176581E+02  0.33271965378E+01  0.19071259809E+02  0.51100000000E-03 0. -1.
        -11    1    4    4    0    0 -0.39457641326E+01  0.11234417485E+02 -0.39529462659E+01  0.12546193656E+02  0.51100000000E-03 0.  1.
        -12    1    4    4    0    0 -0.12846278912E+02 -0.18276711816E+02  0.42990503209E+01  0.22749657368E+02  0.00000000000E+00 0.  1.
</event>
<event>
 8    1  0.2466538E-006  0.9118800E+02  0.7816164E-02  0.1184000E+00
        -11   -1    0    0    0    0  0.00000000000E+00  0.00000000000E+00  0.45593999997E+02  0.45594000000E+02  0.51100000000E-03 0. -1.
         11   -1    0    0    0    0 -0.00000000000E+00 -0.00000000000E+00 -0.45593999997E+02  0.45594000000E+02  0.51100000000E-03 0.  1.
         23    2    1    2    0    0  0.00000000000E+00  0.00000000000E+00  0.00000000000E+00  0.91188000000E+02  0.91188000000E+02 0.  0.
    9900012    2    3    3    0    0  0.82538972900E+01  0.16288253208E+02 -0.31974196435E+02  0.54367037890E+02  0.39999894477E+02 0.  0.
         12    1    3    3    0    0 -0.82538972900E+01 -0.16288253208E+02  0.31974196435E+02  0.36820962110E+02  0.00000000000E+00 0. -1.
         11    1    4    4    0    0  0.65033146871E+01  0.27225455042E+02 -0.10897889239E+02  0.30038017482E+02  0.51100000000E-03 0. -1.
        -11    1    4    4    0    0  0.71975657842E+00 -0.45842587824E+01 -0.14069178525E+02  0.14814697524E+02  0.51100000000E-03 0.  1.
         12    1    4    4    0    0  0.10308260245E+01 -0.63529430511E+01 -0.70071286714E+01  0.95143228829E+01  0.00000000000E+00 0. -1.
</event>
<event>
 8    1  0.2466538E-006  0.9118800E+02  0.7816164E-02  0.1184000E+00
        -11   -1    0    0    0    0  0.00000000000E+00  0.00000000000E+00  0.45593999997E+02  0.45594000000E+02  0.51100000000E-03 0.  1.
         11   -1    0    0    0    0 -0.00000000000E+00 -0.00000000000E+00 -0.45593999997E+02  0.45594000000E+02  0.51100000000E-03 0. -1.
         23    2    1    2    0    0  0.00000000000E+00  0.00000000000E+00 -0.35527136788E-14  0.91188000000E+02  0.91188000000E+02 0.  0.
    9900012    2    3    3    0    0  0.19266812851E+02  0.26524364265E+02 -0.16763447261E+02  0.54367283804E+02  0.40000455086E+02 0.  0.
        -12    1    3    3    0    0 -0.19266812851E+02 -0.26524364265E+02  0.16763447261E+02  0.36820716196E+02  0.00000000000E+00 0.  1.
         11    1    4    4    0    0  0.14359410439E+02 -0.11391567634E+01 -0.14489356880E+02  0.20431148018E+02  0.51100000000E-03 0. -1.
        -11    1    4    4    0    0  0.15609387930E+01  0.22117488705E+02 -0.95962770119E+01  0.24160057311E+02  0.51100000000E-03 0.  1.
        -12    1    4    4    0    0  0.33464636190E+01  0.55460323236E+01  0.73221866310E+01  0.97760784748E+01  0.00000000000E+00 0.  1.
</event>
<event>
 8    1  0.2466538E-006  0.9118800E+02  0.7816164E-02  0.1184000E+00
        -11   -1    0    0    0    0  0.00000000000E+00  0.00000000000E+00  0.45593999997E+02  0.45594000000E+02  0.51100000000E-03 0.  1.
         11   -1    0    0    0    0 -0.00000000000E+00 -0.00000000000E+00 -0.45593999997E+02  0.45594000000E+02  0.51100000000E-03 0. -1.
         23    2    1    2    0    0 -0.35527136788E-14 -0.35527136788E-14  0.00000000000E+00  0.91188000000E+02  0.91188000000E+02 0.  0.
    9900012    2    3    3    0    0 -0.27079611897E+02 -0.10474060761E+02  0.22644403400E+02  0.54367077487E+02  0.39999984748E+02 0.  0.
         12    1    3    3    0    0  0.27079611897E+02  0.10474060761E+02 -0.22644403400E+02  0.36820922513E+02  0.00000000000E+00 0. -1.
         11    1    4    4    0    0  0.32964401735E+01  0.11879086210E+01  0.86119957072E+00  0.36082280514E+01  0.51100000000E-03 0. -1.
        -11    1    4    4    0    0  0.46525571821E+01 -0.32373536484E+01  0.12240320538E+02  0.13488965643E+02  0.51100000000E-03 0.  1.
        -12    1    4    4    0    0 -0.35028609253E+02 -0.84246157339E+01  0.95428832914E+01  0.37269883793E+02  0.00000000000E+00 0.  1.
</event>
<event>
 8    1  0.2466538E-006  0.9118800E+02  0.7816164E-02  0.1184000E+00
        -11   -1    0    0    0    0  0.00000000000E+00  0.00000000000E+00  0.45593999997E+02  0.45594000000E+02  0.51100000000E-03 0. -1.
         11   -1    0    0    0    0 -0.00000000000E+00 -0.00000000000E+00 -0.45593999997E+02  0.45594000000E+02  0.51100000000E-03 0.  1.
         23    2    1    2    0    0  0.00000000000E+00  0.00000000000E+00 -0.26645352591E-14  0.91188000000E+02  0.91188000000E+02 0.  0.
    9900012    2    3    3    0    0  0.20522770601E+02 -0.29816942268E+02 -0.67486227129E+01  0.54367108269E+02  0.40000054920E+02 0.  0.
        -12    1    3    3    0    0 -0.20522770601E+02  0.29816942268E+02  0.67486227129E+01  0.36820891731E+02  0.00000000000E+00 0.  1.
         11    1    4    4    0    0  0.23018246506E+01 -0.15145711612E+02  0.39435693176E+01  0.15819061798E+02  0.51100000000E-03 0. -1.
        -11    1    4    4    0    0  0.23283911719E+01 -0.88085488590E+01 -0.17941692809E+02  0.20122531639E+02  0.51100000000E-03 0.  1.
         12    1    4    4    0    0  0.15892554779E+02 -0.58626817974E+01  0.72495007789E+01  0.18425514831E+02  0.00000000000E+00 0. -1.
</event>
<event>
 8    1  0.2466538E-006  0.9118800E+02  0.7816164E-02  0.1184000E+00
        -11   -1    0    0    0    0  0.00000000000E+00  0.00000000000E+00  0.45593999997E+02  0.45594000000E+02  0.51100000000E-03 0. -1.
         11   -1    0    0    0    0 -0.00000000000E+00 -0.00000000000E+00 -0.45593999997E+02  0.45594000000E+02  0.51100000000E-03 0.  1.
         23    2    1    2    0    0  0.00000000000E+00  0.35527136788E-14  0.00000000000E+00  0.91188000000E+02  0.91188000000E+02 0.  0.
    9900012    2    3    3    0    0  0.25434104643E+02 -0.26374709998E+02  0.36420520484E+01  0.54367033831E+02  0.39999885225E+02 0.  0.
         12    1    3    3    0    0 -0.25434104643E+02  0.26374709998E+02 -0.36420520484E+01  0.36820966169E+02  0.00000000000E+00 0. -1.
         11    1    4    4    0    0  0.69216752231E+01  0.59140313670E+01  0.70310240535E+01  0.11503071521E+02  0.51100000000E-03 0. -1.
        -11    1    4    4    0    0  0.10770622739E+01 -0.13981310083E+01 -0.69908006158E+01  0.72101405652E+01  0.51100000000E-03 0.  1.
         12    1    4    4    0    0  0.17435367146E+02 -0.30890610357E+02  0.36018286107E+01  0.35653821746E+02  0.00000000000E+00 0. -1.
</event>
<event>
 8    1  0.2466538E-006  0.9118800E+02  0.7816164E-02  0.1184000E+00
        -11   -1    0    0    0    0  0.00000000000E+00  0.00000000000E+00  0.45593999997E+02  0.45594000000E+02  0.51100000000E-03 0.  1.
         11   -1    0    0    0    0 -0.00000000000E+00 -0.00000000000E+00 -0.45593999997E+02  0.45594000000E+02  0.51100000000E-03 0. -1.
         23    2    1    2    0    0 -0.22204460493E-15 -0.17763568394E-14  0.00000000000E+00  0.91188000000E+02  0.91188000000E+02 0.  0.
    9900012    2    3    3    0    0  0.13860709308E+01  0.13804133096E+02  0.34107250264E+02  0.54367084697E+02  0.40000001184E+02 0.  0.
         12    1    3    3    0    0 -0.13860709308E+01 -0.13804133096E+02 -0.34107250264E+02  0.36820915303E+02  0.00000000000E+00 0. -1.
         11    1    4    4    0    0 -0.35377244748E+01 -0.44764645728E+01  0.30465732443E+00  0.57137593472E+01  0.51100000000E-03 0. -1.
        -11    1    4    4    0    0 -0.72210723566E+01  0.21196274516E+02  0.19813716009E+02  0.29899987988E+02  0.51100000000E-03 0.  1.
        -12    1    4    4    0    0  0.12144867762E+02 -0.29156768471E+01  0.13988876931E+02  0.18753337362E+02  0.00000000000E+00 0.  1.
</event>
<event>
 8    1  0.2466538E-006  0.9118800E+02  0.7816164E-02  0.1184000E+00
        -11   -1    0    0    0    0  0.00000000000E+00  0.00000000000E+00  0.45593999997E+02  0.45594000000E+02  0.51100000000E-03 0.  1.
         11   -1    0    0    0    0 -0.00000000000E+00 -0.00000000000E+00 -0.45593999997E+02  0.45594000000E+02  0.51100000000E-03 0. -1.
         23    2    1    2    0    0  0.17763568394E-14  0.00000000000E+00  0.00000000000E+00  0.91188000000E+02  0.91188000000E+02 0.  0.
    9900012    2    3    3    0    0 -0.53180893794E+01  0.11940507102E+02 -0.34422686091E+02  0.54367094223E+02  0.40000022901E+02 0.  0.
        -12    1    3    3    0    0  0.53180893794E+01 -0.11940507102E+02  0.34422686091E+02  0.36820905777E+02  0.00000000000E+00 0.  1.
         11    1    4    4    0    0 -0.16455545591E+02  0.13431448605E+02 -0.34479260605E+02  0.40497014760E+02  0.51100000000E-03 0. -1.
        -11    1    4    4    0    0  0.10025297262E+02  0.12466119357E+01  0.20464276495E+01  0.10307690958E+02  0.51100000000E-03 0.  1.
         12    1    4    4    0    0  0.11121589504E+01 -0.27375534390E+01 -0.19898531353E+01  0.35623885052E+01  0.00000000000E+00 0. -1.
</event>
<event>
 8    1  0.2466538E-006  0.9118800E+02  0.7816164E-02  0.1184000E+00
        -11   -1    0    0    0    0  0.00000000000E+00  0.00000000000E+00  0.45593999997E+02  0.45594000000E+02  0.51100000000E-03 0.  1.
         11   -1    0    0    0    0 -0.00000000000E+00 -0.00000000000E+00 -0.45593999997E+02  0.45594000000E+02  0.51100000000E-03 0. -1.
         23    2    1    2    0    0  0.17763568394E-14  0.00000000000E+00  0.35527136788E-14  0.91188000000E+02  0.91188000000E+02 0.  0.
    9900012    2    3    3    0    0  0.15973116354E+02 -0.89621893677E+01  0.31942421738E+02  0.54367087588E+02  0.40000007775E+02 0.  0.
         12    1    3    3    0    0 -0.15973116354E+02  0.89621893677E+01 -0.31942421738E+02  0.36820912412E+02  0.00000000000E+00 0. -1.
         11    1    4    4    0    0  0.16610554241E+02 -0.73786428920E+01  0.15473065503E+02  0.23869868861E+02  0.51100000000E-03 0. -1.
        -11    1    4    4    0    0 -0.10177571536E+02 -0.72062219955E+01  0.14709877124E+02  0.19284529631E+02  0.51100000000E-03 0.  1.
        -12    1    4    4    0    0  0.95401336489E+01  0.56226755198E+01  0.17594791116E+01  0.11212689097E+02  0.00000000000E+00 0.  1.
</event>
<event>
 8    1  0.2466538E-006  0.9118800E+02  0.7816164E-02  0.1184000E+00
        -11   -1    0    0    0    0  0.00000000000E+00  0.00000000000E+00  0.45593999997E+02  0.45594000000E+02  0.51100000000E-03 0. -1.
         11   -1    0    0    0    0 -0.00000000000E+00 -0.00000000000E+00 -0.45593999997E+02  0.45594000000E+02  0.51100000000E-03 0.  1.
         23    2    1    2    0    0  0.00000000000E+00  0.00000000000E+00  0.00000000000E+00  0.91188000000E+02  0.91188000000E+02 0.  0.
    9900012    2    3    3    0    0 -0.31235066570E+02  0.19378278213E+02  0.21524114595E+01  0.54367083047E+02  0.39999997423E+02 0.  0.
        -12    1    3    3    0    0  0.31235066570E+02 -0.19378278213E+02 -0.21524114595E+01  0.36820916953E+02  0.00000000000E+00 0.  1.
         11    1    4    4    0    0 -0.26867885251E+02  0.93805944966E+01  0.13842968979E+02  0.31646589096E+02  0.51100000000E-03 0. -1.
        -11    1    4    4    0    0 -0.95303571565E+01  0.37489914467E+01 -0.26507299444E+01  0.10578705682E+02  0.51100000000E-03 0.  1.
        -12    1    4    4    0    0  0.51631758373E+01  0.62486922698E+01 -0.90398275752E+01  0.12141788270E+02  0.00000000000E+00 0.  1.
</event>
<event>
 8    1  0.2466538E-006  0.9118800E+02  0.7816164E-02  0.1184000E+00
        -11   -1    0    0    0    0  0.00000000000E+00  0.00000000000E+00  0.45593999997E+02  0.45594000000E+02  0.51100000000E-03 0. -1.
         11   -1    0    0    0    0 -0.00000000000E+00 -0.00000000000E+00 -0.45593999997E+02  0.45594000000E+02  0.51100000000E-03 0.  1.
         23    2    1    2    0    0  0.00000000000E+00  0.00000000000E+00  0.00000000000E+00  0.91188000000E+02  0.91188000000E+02 0.  0.
    9900012    2    3    3    0    0  0.21305888179E+02 -0.96840106305E+01  0.28426356416E+02  0.54367100064E+02  0.40000036217E+02 0.  0.
        -12    1    3    3    0    0 -0.21305888179E+02  0.96840106305E+01 -0.28426356416E+02  0.36820899936E+02  0.00000000000E+00 0.  1.
         11    1    4    4    0    0 -0.40833636626E+01 -0.39283845082E+01  0.93986133678E+01  0.10974515805E+02  0.51100000000E-03 0. -1.
        -11    1    4    4    0    0 -0.34529782085E+01 -0.90096619034E+01  0.72494186658E+01  0.12068601302E+02  0.51100000000E-03 0.  1.
        -12    1    4    4    0    0  0.28842230050E+02  0.32540357812E+01  0.11778324382E+02  0.31323982958E+02  0.00000000000E+00 0.  1.
</event>
<event>
 8    1  0.2466538E-006  0.9118800E+02  0.7816164E-02  0.1184000E+00
        -11   -1    0    0    0    0  0.00000000000E+00  0.00000000000E+00  0.45593999997E+02  0.45594000000E+02  0.51100000000E-03 0. -1.
         11   -1    0    0    0    0 -0.00000000000E+00 -0.00000000000E+00 -0.45593999997E+02  0.45594000000E+02  0.51100000000E-03 0.  1.
         23    2    1    2    0    0 -0.17763568394E-14  0.00000000000E+00 -0.35527136788E-14  0.91188000000E+02  0.91188000000E+02 0.  0.
    9900012    2    3    3    0    0 -0.14097198304E+02 -0.25673575588E+02  0.22314031793E+02  0.54367088844E+02  0.40000010637E+02 0.  0.
        -12    1    3    3    0    0  0.14097198304E+02  0.25673575588E+02 -0.22314031793E+02  0.36820911156E+02  0.00000000000E+00 0.  1.
         11    1    4    4    0    0 -0.91812422609E+01 -0.19832591988E+02  0.20818106440E+02  0.30183115651E+02  0.51100000000E-03 0. -1.
        -11    1    4    4    0    0 -0.94475326412E+01 -0.34203216565E+01  0.10046478300E+02  0.14208666360E+02  0.51100000000E-03 0.  1.
        -12    1    4    4    0    0  0.45315765983E+01 -0.24206619440E+01 -0.85505529464E+01  0.99753068325E+01  0.00000000000E+00 0.  1.
</event>
<event>
 8    1  0.2466538E-006  0.9118800E+02  0.7816164E-02  0.1184000E+00
        -11   -1    0    0    0    0  0.00000000000E+00  0.00000000000E+00  0.45593999997E+02  0.45594000000E+02  0.51100000000E-03 0.  1.
         11   -1    0    0    0    0 -0.00000000000E+00 -0.00000000000E+00 -0.45593999997E+02  0.45594000000E+02  0.51100000000E-03 0. -1.
         23    2    1    2    0    0  0.35527136788E-14  0.00000000000E+00  0.00000000000E+00  0.91188000000E+02  0.91188000000E+02 0.  0.
    9900012    2    3    3    0    0 -0.22564822573E+02  0.12400150845E+02 -0.26321943517E+02  0.54367086524E+02  0.40000005348E+02 0.  0.
         12    1    3    3    0    0  0.22564822573E+02 -0.12400150845E+02  0.26321943517E+02  0.36820913476E+02  0.00000000000E+00 0. -1.
         11    1    4    4    0    0  0.57385212058E+01 -0.29584639019E+01 -0.37078794417E+00  0.64668862870E+01  0.51100000000E-03 0. -1.
        -11    1    4    4    0    0 -0.23404948611E+02  0.65906304940E+01 -0.52270807905E+01  0.24870673567E+02  0.51100000000E-03 0.  1.
         12    1    4    4    0    0 -0.48983951679E+01  0.87679842527E+01 -0.20724074782E+02  0.23029526670E+02  0.00000000000E+00 0. -1.
</event>
<event>
 8    1  0.2466538E-006  0.9118800E+02  0.7816164E-02  0.1184000E+00
        -11   -1    0    0    0    0  0.00000000000E+00  0.00000000000E+00  0.45593999997E+02  0.45594000000E+02  0.51100000000E-03 0. -1.
         11   -1    0    0    0    0 -0.00000000000E+00 -0.00000000000E+00 -0.45593999997E+02  0.45594000000E+02  0.51100000000E-03 0.  1.
         23    2    1    2    0    0  0.71054273576E-14 -0.26645352591E-14  0.35527136788E-14  0.91188000000E+02  0.91188000000E+02 0.  0.
    9900012    2    3    3    0    0 -0.32118707073E+02  0.19196053517E+01 -0.17902052773E+02  0.54367085804E+02  0.40000003707E+02 0.  0.
        -12    1    3    3    0    0  0.32118707073E+02 -0.19196053517E+01  0.17902052773E+02  0.36820914196E+02  0.00000000000E+00 0.  1.
         11    1    4    4    0    0  0.16385960209E+01 -0.85309392157E+01  0.46722457986E-01  0.86870077743E+01  0.51100000000E-03 0. -1.
        -11    1    4    4    0    0 -0.21023538306E+01 -0.21777680443E+00 -0.11457588995E+02  0.11650908300E+02  0.51100000000E-03 0.  1.
         12    1    4    4    0    0 -0.31654949263E+02  0.10668321372E+02 -0.64911862358E+01  0.34029169730E+02  0.00000000000E+00 0. -1.
</event>
<event>
 8    1  0.2466538E-006  0.9118800E+02  0.7816164E-02  0.1184000E+00
        -11   -1    0    0    0    0  0.00000000000E+00  0.00000000000E+00  0.45593999997E+02  0.45594000000E+02  0.51100000000E-03 0.  1.
         11   -1    0    0    0    0 -0.00000000000E+00 -0.00000000000E+00 -0.45593999997E+02  0.45594000000E+02  0.51100000000E-03 0. -1.
         23    2    1    2    0    0  0.00000000000E+00  0.35527136788E-14  0.00000000000E+00  0.91188000000E+02  0.91188000000E+02 0.  0.
    9900012    2    3    3    0    0  0.14582675131E+02  0.68158929100E+01  0.33116001889E+02  0.54367076719E+02  0.39999982996E+02 0.  0.
         12    1    3    3    0    0 -0.14582675131E+02 -0.68158929100E+01 -0.33116001889E+02  0.36820923281E+02  0.00000000000E+00 0. -1.
         11    1    4    4    0    0  0.11165175538E+02  0.10640445106E+02  0.43737663456E+01  0.16031532963E+02  0.51100000000E-03 0. -1.
        -11    1    4    4    0    0  0.10031047628E+02 -0.84861432337E+01  0.27045578218E+02  0.30068253106E+02  0.51100000000E-03 0.  1.
        -12    1    4    4    0    0 -0.66135480341E+01  0.46615910379E+01  0.16966573261E+01  0.82672906496E+01  0.00000000000E+00 0.  1.
</event>
<event>
 8    1  0.2466538E-006  0.9118800E+02  0.7816164E-02  0.1184000E+00
        -11   -1    0    0    0    0  0.00000000000E+00  0.00000000000E+00  0.45593999997E+02  0.45594000000E+02  0.51100000000E-03 0.  1.
         11   -1    0    0    0    0 -0.00000000000E+00 -0.00000000000E+00 -0.45593999997E+02  0.45594000000E+02  0.51100000000E-03 0. -1.
         23    2    1    2    0    0  0.35527136788E-14  0.66613381478E-15  0.00000000000E+00  0.91188000000E+02  0.91188000000E+02 0.  0.
    9900012    2    3    3    0    0  0.31161524870E+02  0.10537940069E+01 -0.19586443727E+02  0.54367083500E+02  0.39999998454E+02 0.  0.
        -12    1    3    3    0    0 -0.31161524870E+02 -0.10537940069E+01  0.19586443727E+02  0.36820916500E+02  0.00000000000E+00 0.  1.
         11    1    4    4    0    0  0.27677385283E+02 -0.14456093057E+02 -0.17978209445E+02  0.36030990795E+02  0.51100000000E-03 0.  1.
        -11    1    4    4    0    0  0.18294731722E+01  0.13414140059E+02 -0.46257451343E+01  0.14306769164E+02  0.51100000000E-03 0. -1.
        -12    1    4    4    0    0  0.16546664153E+01  0.20957470050E+01  0.30175108519E+01  0.40293235407E+01  0.00000000000E+00 0.  1.
</event>
<event>
 8    1  0.2466538E-006  0.9118800E+02  0.7816164E-02  0.1184000E+00
        -11   -1    0    0    0    0  0.00000000000E+00  0.00000000000E+00  0.45593999997E+02  0.45594000000E+02  0.51100000000E-03 0.  1.
         11   -1    0    0    0    0 -0.00000000000E+00 -0.00000000000E+00 -0.45593999997E+02  0.45594000000E+02  0.51100000000E-03 0. -1.
         23    2    1    2    0    0  0.17763568394E-14  0.44408920985E-15  0.00000000000E+00  0.91188000000E+02  0.91188000000E+02 0.  0.
    9900012    2    3    3    0    0  0.13910238299E+02 -0.24407275669E+01  0.34004817439E+02  0.54367088962E+02  0.40000010908E+02 0.  0.
         12    1    3    3    0    0 -0.13910238299E+02  0.24407275669E+01 -0.34004817439E+02  0.36820911038E+02  0.00000000000E+00 0. -1.
         11    1    4    4    0    0  0.98323005612E+01  0.39285018351E+01  0.96185643971E+00  0.10631671038E+02  0.51100000000E-03 0. -1.
        -11    1    4    4    0    0 -0.10760918106E+02 -0.42681426795E+01  0.22836659654E+02  0.25603269808E+02  0.51100000000E-03 0.  1.
        -12    1    4    4    0    0  0.14838855844E+02 -0.21010867225E+01  0.10206301345E+02  0.18132148116E+02  0.00000000000E+00 0.  1.
</event>
<event>
 8    1  0.2466538E-006  0.9118800E+02  0.7816164E-02  0.1184000E+00
        -11   -1    0    0    0    0  0.00000000000E+00  0.00000000000E+00  0.45593999997E+02  0.45594000000E+02  0.51100000000E-03 0.  1.
         11   -1    0    0    0    0 -0.00000000000E+00 -0.00000000000E+00 -0.45593999997E+02  0.45594000000E+02  0.51100000000E-03 0. -1.
         23    2    1    2    0    0 -0.71054273576E-14 -0.71054273576E-14 -0.17763568394E-14  0.91188000000E+02  0.91188000000E+02 0.  0.
    9900012    2    3    3    0    0 -0.24878251327E+02 -0.25495348076E+02 -0.93187899368E+01  0.54367081917E+02  0.39999994846E+02 0.  0.
        -12    1    3    3    0    0  0.24878251327E+02  0.25495348076E+02  0.93187899368E+01  0.36820918083E+02  0.00000000000E+00 0.  1.
         11    1    4    4    0    0 -0.25547405031E+01  0.23321566241E+01 -0.16012879456E+01  0.38117944466E+01  0.51100000000E-03 0. -1.
        -11    1    4    4    0    0 -0.50122355673E+00  0.21767911335E+01 -0.12902042638E+02  0.13093981410E+02  0.51100000000E-03 0.  1.
        -12    1    4    4    0    0 -0.21822287267E+02 -0.30004295833E+02  0.51845406464E+01  0.37461306060E+02  0.00000000000E+00 0.  1.
</event>
<event>
 8    1  0.2466538E-006  0.9118800E+02  0.7816164E-02  0.1184000E+00
        -11   -1    0    0    0    0  0.00000000000E+00  0.00000000000E+00  0.45593999997E+02  0.45594000000E+02  0.51100000000E-03 0.  1.
         11   -1    0    0    0    0 -0.00000000000E+00 -0.00000000000E+00 -0.45593999997E+02  0.45594000000E+02  0.51100000000E-03 0. -1.
         23    2    1    2    0    0  0.00000000000E+00  0.00000000000E+00  0.00000000000E+00  0.91188000000E+02  0.91188000000E+02 0.  0.
    9900012    2    3    3    0    0  0.17551906562E+01  0.25727348433E+02  0.26283145180E+02  0.54367070189E+02  0.39999968109E+02 0.  0.
         12    1    3    3    0    0 -0.17551906562E+01 -0.25727348433E+02 -0.26283145180E+02  0.36820929811E+02  0.00000000000E+00 0. -1.
         11    1    4    4    0    0 -0.35167576244E+01  0.10329847033E+01  0.23513672041E+00  0.36728641582E+01  0.51100000000E-03 0. -1.
        -11    1    4    4    0    0  0.84094100603E+00  0.32271832922E+02  0.12641534801E+02  0.34669681052E+02  0.51100000000E-03 0.  1.
        -12    1    4    4    0    0  0.44310072746E+01 -0.75774691920E+01  0.13406473658E+02  0.16024524978E+02  0.00000000000E+00 0.  1.
</event>
<event>
 8    1  0.2466538E-006  0.9118800E+02  0.7816164E-02  0.1184000E+00
        -11   -1    0    0    0    0  0.00000000000E+00  0.00000000000E+00  0.45593999997E+02  0.45594000000E+02  0.51100000000E-03 0.  1.
         11   -1    0    0    0    0 -0.00000000000E+00 -0.00000000000E+00 -0.45593999997E+02  0.45594000000E+02  0.51100000000E-03 0. -1.
         23    2    1    2    0    0  0.00000000000E+00  0.35527136788E-14  0.00000000000E+00  0.91188000000E+02  0.91188000000E+02 0.  0.
    9900012    2    3    3    0    0  0.26196716780E+02  0.23798207716E+02  0.10156641121E+02  0.54367081769E+02  0.39999994509E+02 0.  0.
        -12    1    3    3    0    0 -0.26196716780E+02 -0.23798207716E+02 -0.10156641121E+02  0.36820918231E+02  0.00000000000E+00 0.  1.
         11    1    4    4    0    0  0.29663967837E+01  0.14628684136E+02  0.10466600286E+02  0.18230404034E+02  0.51100000000E-03 0. -1.
        -11    1    4    4    0    0  0.47976909992E+01 -0.38082327059E+01  0.96992732441E+01  0.11471546408E+02  0.51100000000E-03 0.  1.
        -12    1    4    4    0    0  0.18432628997E+02  0.12977756285E+02 -0.10009232410E+02  0.24665131327E+02  0.00000000000E+00 0.  1.
</event>
<event>
 8    1  0.2466538E-006  0.9118800E+02  0.7816164E-02  0.1184000E+00
        -11   -1    0    0    0    0  0.00000000000E+00  0.00000000000E+00  0.45593999997E+02  0.45594000000E+02  0.51100000000E-03 0.  1.
         11   -1    0    0    0    0 -0.00000000000E+00 -0.00000000000E+00 -0.45593999997E+02  0.45594000000E+02  0.51100000000E-03 0. -1.
         23    2    1    2    0    0  0.44408920985E-15  0.71054273576E-14  0.17763568394E-14  0.91188000000E+02  0.91188000000E+02 0.  0.
    9900012    2    3    3    0    0  0.27185429210E+01 -0.35497140026E+02 -0.93991560598E+01  0.54367060845E+02  0.39999946807E+02 0.  0.
        -12    1    3    3    0    0 -0.27185429210E+01  0.35497140026E+02  0.93991560598E+01  0.36820939155E+02  0.00000000000E+00 0.  1.
         11    1    4    4    0    0  0.12005888743E+01  0.53082454968E+00  0.39876040299E+01  0.41981155901E+01  0.51100000000E-03 0. -1.
        -11    1    4    4    0    0  0.58964517041E+01  0.40653508309E+01  0.12365968528E+01  0.72680390832E+01  0.51100000000E-03 0.  1.
         12    1    4    4    0    0 -0.43784976574E+01 -0.40093315407E+02 -0.14623356943E+02  0.42900906171E+02  0.00000000000E+00 0. -1.
</event>
<event>
 8    1  0.2466538E-006  0.9118800E+02  0.7816164E-02  0.1184000E+00
        -11   -1    0    0    0    0  0.00000000000E+00  0.00000000000E+00  0.45593999997E+02  0.45594000000E+02  0.51100000000E-03 0.  1.
         11   -1    0    0    0    0 -0.00000000000E+00 -0.00000000000E+00 -0.45593999997E+02  0.45594000000E+02  0.51100000000E-03 0. -1.
         23    2    1    2    0    0  0.35527136788E-14 -0.35527136788E-14  0.00000000000E+00  0.91188000000E+02  0.91188000000E+02 0.  0.
    9900012    2    3    3    0    0  0.27454307557E+02  0.20682971559E+02  0.13200580817E+02  0.54367086787E+02  0.40000005948E+02 0.  0.
         12    1    3    3    0    0 -0.27454307557E+02 -0.20682971559E+02 -0.13200580817E+02  0.36820913213E+02  0.00000000000E+00 0. -1.
         11    1    4    4    0    0  0.31588912176E+01 -0.72052432010E+01  0.61304617353E+01  0.99737999108E+01  0.51100000000E-03 0.  1.
        -11    1    4    4    0    0  0.11004380314E+02 -0.14385210664E+01 -0.11646812343E+01  0.11158952083E+02  0.51100000000E-03 0. -1.
         12    1    4    4    0    0  0.13291036025E+02  0.29326735827E+02  0.82348003163E+01  0.33234334793E+02  0.00000000000E+00 0. -1.
</event>
<event>
 8    1  0.2466538E-006  0.9118800E+02  0.7816164E-02  0.1184000E+00
        -11   -1    0    0    0    0  0.00000000000E+00  0.00000000000E+00  0.45593999997E+02  0.45594000000E+02  0.51100000000E-03 0. -1.
         11   -1    0    0    0    0 -0.00000000000E+00 -0.00000000000E+00 -0.45593999997E+02  0.45594000000E+02  0.51100000000E-03 0.  1.
         23    2    1    2    0    0 -0.17763568394E-14  0.00000000000E+00  0.00000000000E+00  0.91188000000E+02  0.91188000000E+02 0.  0.
    9900012    2    3    3    0    0 -0.15959972053E+02  0.31407308046E+02 -0.10707031531E+02  0.54367078898E+02  0.39999987963E+02 0.  0.
        -12    1    3    3    0    0  0.15959972053E+02 -0.31407308046E+02  0.10707031531E+02  0.36820921102E+02  0.00000000000E+00 0.  1.
         11    1    4    4    0    0  0.29038643879E+01  0.11781981358E+02  0.76825913536E+01  0.14362093276E+02  0.51100000000E-03 0. -1.
        -11    1    4    4    0    0 -0.71820143131E+01  0.15617545581E+02  0.77317709857E+00  0.17207174744E+02  0.51100000000E-03 0.  1.
        -12    1    4    4    0    0 -0.11681822128E+02  0.40077811069E+01 -0.19162799984E+02  0.22797810878E+02  0.00000000000E+00 0.  1.
</event>
<event>
 8    1  0.2466538E-006  0.9118800E+02  0.7816164E-02  0.1184000E+00
        -11   -1    0    0    0    0  0.00000000000E+00  0.00000000000E+00  0.45593999997E+02  0.45594000000E+02  0.51100000000E-03 0.  1.
         11   -1    0    0    0    0 -0.00000000000E+00 -0.00000000000E+00 -0.45593999997E+02  0.45594000000E+02  0.51100000000E-03 0. -1.
         23    2    1    2    0    0  0.35527136788E-14  0.35527136788E-14  0.35527136788E-14  0.91188000000E+02  0.91188000000E+02 0.  0.
    9900012    2    3    3    0    0  0.25396960078E+02 -0.17493097091E+02  0.20118852927E+02  0.54367051205E+02  0.39999924833E+02 0.  0.
        -12    1    3    3    0    0 -0.25396960078E+02  0.17493097091E+02 -0.20118852927E+02  0.36820948795E+02  0.00000000000E+00 0.  1.
         11    1    4    4    0    0 -0.21157992139E+01 -0.11160847845E+02  0.10980372002E+02  0.15799041126E+02  0.51100000000E-03 0. -1.
        -11    1    4    4    0    0  0.50848784576E+01  0.25208988320E+01 -0.74024689962E+01  0.93277793365E+01  0.51100000000E-03 0.  1.
        -12    1    4    4    0    0  0.22427880834E+02 -0.88531480786E+01  0.16540949921E+02  0.29240230743E+02  0.00000000000E+00 0.  1.
</event>
<event>
 8    1  0.2466538E-006  0.9118800E+02  0.7816164E-02  0.1184000E+00
        -11   -1    0    0    0    0  0.00000000000E+00  0.00000000000E+00  0.45593999997E+02  0.45594000000E+02  0.51100000000E-03 0. -1.
         11   -1    0    0    0    0 -0.00000000000E+00 -0.00000000000E+00 -0.45593999997E+02  0.45594000000E+02  0.51100000000E-03 0.  1.
         23    2    1    2    0    0  0.00000000000E+00  0.00000000000E+00  0.00000000000E+00  0.91188000000E+02  0.91188000000E+02 0.  0.
    9900012    2    3    3    0    0  0.32392184898E+02  0.39598642555E+01  0.17054151208E+02  0.54367105920E+02  0.40000049566E+02 0.  0.
        -12    1    3    3    0    0 -0.32392184898E+02 -0.39598642555E+01 -0.17054151208E+02  0.36820894080E+02  0.00000000000E+00 0.  1.
         11    1    4    4    0    0  0.50122984626E+01  0.70962337451E+01  0.12085489491E+02  0.14884177026E+02  0.51100000000E-03 0. -1.
        -11    1    4    4    0    0  0.90004767749E+01  0.35141130415E+01 -0.10711176498E+02  0.14425216632E+02  0.51100000000E-03 0.  1.
        -12    1    4    4    0    0  0.18379409661E+02 -0.66504825311E+01  0.15679838215E+02  0.25057712262E+02  0.00000000000E+00 0.  1.
</event>
<event>
 8    1  0.2466538E-006  0.9118800E+02  0.7816164E-02  0.1184000E+00
        -11   -1    0    0    0    0  0.00000000000E+00  0.00000000000E+00  0.45593999997E+02  0.45594000000E+02  0.51100000000E-03 0. -1.
         11   -1    0    0    0    0 -0.00000000000E+00 -0.00000000000E+00 -0.45593999997E+02  0.45594000000E+02  0.51100000000E-03 0.  1.
         23    2    1    2    0    0  0.35527136788E-14  0.00000000000E+00  0.00000000000E+00  0.91188000000E+02  0.91188000000E+02 0.  0.
    9900012    2    3    3    0    0  0.29909600616E+02  0.66644557648E+01 -0.20415193426E+02  0.54367091506E+02  0.40000016707E+02 0.  0.
         12    1    3    3    0    0 -0.29909600616E+02 -0.66644557648E+01  0.20415193426E+02  0.36820908494E+02  0.00000000000E+00 0. -1.
         11    1    4    4    0    0  0.22085217269E+02 -0.11437937257E+02  0.17512872019E+00  0.24871950082E+02  0.51100000000E-03 0. -1.
        -11    1    4    4    0    0  0.14065459617E+01  0.12553205612E+02 -0.12082462270E+02  0.17479909538E+02  0.51100000000E-03 0.  1.
         12    1    4    4    0    0  0.64178373853E+01  0.55491874105E+01 -0.85078598760E+01  0.12015231887E+02  0.00000000000E+00 0. -1.
</event>
<event>
 8    1  0.2466538E-006  0.9118800E+02  0.7816164E-02  0.1184000E+00
        -11   -1    0    0    0    0  0.00000000000E+00  0.00000000000E+00  0.45593999997E+02  0.45594000000E+02  0.51100000000E-03 0.  1.
         11   -1    0    0    0    0 -0.00000000000E+00 -0.00000000000E+00 -0.45593999997E+02  0.45594000000E+02  0.51100000000E-03 0. -1.
         23    2    1    2    0    0 -0.13877787808E-14 -0.44408920985E-15 -0.71054273576E-14  0.91188000000E+02  0.91188000000E+02 0.  0.
    9900012    2    3    3    0    0  0.25904412541E+00  0.24483262903E+01  0.36738512649E+02  0.54367085873E+02  0.40000003864E+02 0.  0.
         12    1    3    3    0    0 -0.25904412541E+00 -0.24483262903E+01 -0.36738512649E+02  0.36820914127E+02  0.00000000000E+00 0. -1.
         11    1    4    4    0    0  0.11849667410E+02  0.38317111134E+01 -0.16355754222E+01  0.12560721914E+02  0.51100000000E-03 0. -1.
        -11    1    4    4    0    0 -0.11897755931E+02 -0.20041065376E+01  0.39030098689E+02  0.40852437420E+02  0.51100000000E-03 0.  1.
        -12    1    4    4    0    0  0.30713264629E+00  0.62072171450E+00 -0.65601061773E+00  0.95392653797E+00  0.00000000000E+00 0.  1.
</event>
<event>
 8    1  0.2466538E-006  0.9118800E+02  0.7816164E-02  0.1184000E+00
        -11   -1    0    0    0    0  0.00000000000E+00  0.00000000000E+00  0.45593999997E+02  0.45594000000E+02  0.51100000000E-03 0. -1.
         11   -1    0    0    0    0 -0.00000000000E+00 -0.00000000000E+00 -0.45593999997E+02  0.45594000000E+02  0.51100000000E-03 0.  1.
         23    2    1    2    0    0 -0.71054273576E-14  0.35527136788E-14 -0.17763568394E-14  0.91188000000E+02  0.91188000000E+02 0.  0.
    9900012    2    3    3    0    0  0.20874344044E+02  0.29047209010E+02  0.87349820097E+01  0.54367102384E+02  0.40000041504E+02 0.  0.
        -12    1    3    3    0    0 -0.20874344044E+02 -0.29047209010E+02 -0.87349820097E+01  0.36820897616E+02  0.00000000000E+00 0.  1.
         11    1    4    4    0    0 -0.75755325456E-01  0.19414918518E+02  0.10700093605E+02  0.22168373945E+02  0.51100000000E-03 0. -1.
        -11    1    4    4    0    0  0.47344249978E+01  0.14137560255E+02  0.16016675330E+01  0.14995023480E+02  0.51100000000E-03 0.  1.
        -12    1    4    4    0    0  0.16215674372E+02 -0.45052697630E+01 -0.35667791282E+01  0.17203704959E+02  0.00000000000E+00 0.  1.
</event>
<event>
 8    1  0.2466538E-006  0.9118800E+02  0.7816164E-02  0.1184000E+00
        -11   -1    0    0    0    0  0.00000000000E+00  0.00000000000E+00  0.45593999997E+02  0.45594000000E+02  0.51100000000E-03 0. -1.
         11   -1    0    0    0    0 -0.00000000000E+00 -0.00000000000E+00 -0.45593999997E+02  0.45594000000E+02  0.51100000000E-03 0.  1.
         23    2    1    2    0    0 -0.17763568394E-14  0.55511151231E-16  0.71054273576E-14  0.91188000000E+02  0.91188000000E+02 0.  0.
    9900012    2    3    3    0    0  0.13247845752E+02 -0.16615595079E+00 -0.34354716127E+02  0.54367088210E+02  0.40000009192E+02 0.  0.
         12    1    3    3    0    0 -0.13247845752E+02  0.16615595079E+00  0.34354716127E+02  0.36820911790E+02  0.00000000000E+00 0. -1.
         11    1    4    4    0    0  0.96357670576E+01 -0.25966209628E+01 -0.17750943247E+02  0.20363851149E+02  0.51100000000E-03 0. -1.
        -11    1    4    4    0    0  0.35322209650E+01 -0.33304882819E+01 -0.24080019186E+02  0.24564528520E+02  0.51100000000E-03 0.  1.
         12    1    4    4    0    0  0.79857729822E-01  0.57609532939E+01  0.74762463054E+01  0.94387085415E+01  0.00000000000E+00 0. -1.
</event>
<event>
 8    1  0.2466538E-006  0.9118800E+02  0.7816164E-02  0.1184000E+00
        -11   -1    0    0    0    0  0.00000000000E+00  0.00000000000E+00  0.45593999997E+02  0.45594000000E+02  0.51100000000E-03 0.  1.
         11   -1    0    0    0    0 -0.00000000000E+00 -0.00000000000E+00 -0.45593999997E+02  0.45594000000E+02  0.51100000000E-03 0. -1.
         23    2    1    2    0    0  0.00000000000E+00  0.00000000000E+00  0.00000000000E+00  0.91188000000E+02  0.91188000000E+02 0.  0.
    9900012    2    3    3    0    0 -0.31369491367E+02  0.97222339965E+01 -0.16649679904E+02  0.54367100182E+02  0.40000036484E+02 0.  0.
        -12    1    3    3    0    0  0.31369491367E+02 -0.97222339965E+01  0.16649679904E+02  0.36820899818E+02  0.00000000000E+00 0.  1.
         11    1    4    4    0    0 -0.62641999996E+01  0.18597547054E+02 -0.18875964556E+02  0.27228863293E+02  0.51100000000E-03 0. -1.
        -11    1    4    4    0    0 -0.30118831074E+01 -0.75409731199E+00  0.18138905636E+01  0.35958728908E+01  0.51100000000E-03 0.  1.
         12    1    4    4    0    0 -0.22093408260E+02 -0.81212157450E+01  0.41239408867E+00  0.23542363998E+02  0.00000000000E+00 0. -1.
</event>
<event>
 8    1  0.2466538E-006  0.9118800E+02  0.7816164E-02  0.1184000E+00
        -11   -1    0    0    0    0  0.00000000000E+00  0.00000000000E+00  0.45593999997E+02  0.45594000000E+02  0.51100000000E-03 0. -1.
         11   -1    0    0    0    0 -0.00000000000E+00 -0.00000000000E+00 -0.45593999997E+02  0.45594000000E+02  0.51100000000E-03 0.  1.
         23    2    1    2    0    0  0.00000000000E+00  0.00000000000E+00  0.00000000000E+00  0.91188000000E+02  0.91188000000E+02 0.  0.
    9900012    2    3    3    0    0 -0.69652386775E+01 -0.36119465568E+02  0.16272224643E+01  0.54367106533E+02  0.40000050963E+02 0.  0.
        -12    1    3    3    0    0  0.69652386775E+01  0.36119465568E+02 -0.16272224643E+01  0.36820893467E+02  0.00000000000E+00 0.  1.
         11    1    4    4    0    0 -0.61216331788E+01  0.78083266944E+01  0.12138492530E+01  0.99958885954E+01  0.51100000000E-03 0. -1.
        -11    1    4    4    0    0  0.18355309865E+01 -0.30565445889E+02  0.17950198514E+01  0.30673078634E+02  0.51100000000E-03 0.  1.
         12    1    4    4    0    0 -0.26791364853E+01 -0.13362346374E+02 -0.13816466400E+01  0.13698139303E+02  0.00000000000E+00 0. -1.
</event>
<event>
 8    1  0.2466538E-006  0.9118800E+02  0.7816164E-02  0.1184000E+00
        -11   -1    0    0    0    0  0.00000000000E+00  0.00000000000E+00  0.45593999997E+02  0.45594000000E+02  0.51100000000E-03 0.  1.
         11   -1    0    0    0    0 -0.00000000000E+00 -0.00000000000E+00 -0.45593999997E+02  0.45594000000E+02  0.51100000000E-03 0. -1.
         23    2    1    2    0    0  0.00000000000E+00  0.88817841970E-15  0.35527136788E-14  0.91188000000E+02  0.91188000000E+02 0.  0.
    9900012    2    3    3    0    0  0.28768634929E+02  0.68086181140E+01  0.21949707876E+02  0.54367064214E+02  0.39999954490E+02 0.  0.
         12    1    3    3    0    0 -0.28768634929E+02 -0.68086181140E+01 -0.21949707876E+02  0.36820935786E+02  0.00000000000E+00 0. -1.
         11    1    4    4    0    0  0.22598984944E+02 -0.41218099649E+01 -0.52068592222E+00  0.22977696838E+02  0.51100000000E-03 0. -1.
        -11    1    4    4    0    0  0.10886773778E+02  0.13648986707E+01  0.88897454300E+01  0.14121344332E+02  0.51100000000E-03 0.  1.
        -12    1    4    4    0    0 -0.47171237937E+01  0.95655294082E+01  0.13580648368E+02  0.17268023044E+02  0.00000000000E+00 0.  1.
</event>
<event>
 8    1  0.2466538E-006  0.9118800E+02  0.7816164E-02  0.1184000E+00
        -11   -1    0    0    0    0  0.00000000000E+00  0.00000000000E+00  0.45593999997E+02  0.45594000000E+02  0.51100000000E-03 0. -1.
         11   -1    0    0    0    0 -0.00000000000E+00 -0.00000000000E+00 -0.45593999997E+02  0.45594000000E+02  0.51100000000E-03 0.  1.
         23    2    1    2    0    0  0.00000000000E+00  0.00000000000E+00  0.00000000000E+00  0.91188000000E+02  0.91188000000E+02 0.  0.
    9900012    2    3    3    0    0 -0.13272245529E+02  0.29909607076E+02 -0.16883258445E+02  0.54367061493E+02  0.39999948286E+02 0.  0.
         12    1    3    3    0    0  0.13272245529E+02 -0.29909607076E+02  0.16883258445E+02  0.36820938507E+02  0.00000000000E+00 0. -1.
         11    1    4    4    0    0  0.19998231990E+01  0.13688740338E+02  0.55762851070E-01  0.13834161146E+02  0.51100000000E-03 0. -1.
        -11    1    4    4    0    0 -0.12272083685E+02 -0.18103037448E+01 -0.18405014885E+02  0.22195175394E+02  0.51100000000E-03 0.  1.
        -12    1    4    4    0    0 -0.29999850437E+01  0.18031170482E+02  0.14659935895E+01  0.18337724952E+02  0.00000000000E+00 0.  1.
</event>
<event>
 8    1  0.2466538E-006  0.9118800E+02  0.7816164E-02  0.1184000E+00
        -11   -1    0    0    0    0  0.00000000000E+00  0.00000000000E+00  0.45593999997E+02  0.45594000000E+02  0.51100000000E-03 0.  1.
         11   -1    0    0    0    0 -0.00000000000E+00 -0.00000000000E+00 -0.45593999997E+02  0.45594000000E+02  0.51100000000E-03 0. -1.
         23    2    1    2    0    0  0.00000000000E+00  0.00000000000E+00 -0.35527136788E-14  0.91188000000E+02  0.91188000000E+02 0.  0.
    9900012    2    3    3    0    0 -0.14301573168E+02  0.24109871285E+02 -0.23873809717E+02  0.54367086393E+02  0.40000005050E+02 0.  0.
        -12    1    3    3    0    0  0.14301573168E+02 -0.24109871285E+02  0.23873809717E+02  0.36820913607E+02  0.00000000000E+00 0.  1.
         11    1    4    4    0    0 -0.96957440003E+01  0.76427426132E+01 -0.16991213806E+02  0.21002864405E+02  0.51100000000E-03 0. -1.
        -11    1    4    4    0    0 -0.11587260391E+02  0.15227311668E+02  0.47732519689E+01  0.19721043548E+02  0.51100000000E-03 0.  1.
        -12    1    4    4    0    0  0.69814312235E+01  0.12398170042E+01 -0.11655847880E+02  0.13643178440E+02  0.00000000000E+00 0.  1.
</event>
<event>
 8    1  0.2466538E-006  0.9118800E+02  0.7816164E-02  0.1184000E+00
        -11   -1    0    0    0    0  0.00000000000E+00  0.00000000000E+00  0.45593999997E+02  0.45594000000E+02  0.51100000000E-03 0. -1.
         11   -1    0    0    0    0 -0.00000000000E+00 -0.00000000000E+00 -0.45593999997E+02  0.45594000000E+02  0.51100000000E-03 0.  1.
         23    2    1    2    0    0 -0.17763568394E-14 -0.71054273576E-14  0.17763568394E-14  0.91188000000E+02  0.91188000000E+02 0.  0.
    9900012    2    3    3    0    0 -0.11889267631E+02  0.33623692968E+02  0.91582524979E+01  0.54367068420E+02  0.39999964077E+02 0.  0.
        -12    1    3    3    0    0  0.11889267631E+02 -0.33623692968E+02 -0.91582524979E+01  0.36820931580E+02  0.00000000000E+00 0.  1.
         11    1    4    4    0    0  0.54365627472E+01  0.15118226113E+02  0.13810445392E+02  0.21185971243E+02  0.51100000000E-03 0. -1.
        -11    1    4    4    0    0 -0.11950233520E+02  0.18233236941E+01  0.51039559572E+01  0.13121850371E+02  0.51100000000E-03 0.  1.
         12    1    4    4    0    0 -0.53755968576E+01  0.16682143161E+02 -0.97561488516E+01  0.20059246806E+02  0.00000000000E+00 0. -1.
</event>
<event>
 8    1  0.2466538E-006  0.9118800E+02  0.7816164E-02  0.1184000E+00
        -11   -1    0    0    0    0  0.00000000000E+00  0.00000000000E+00  0.45593999997E+02  0.45594000000E+02  0.51100000000E-03 0. -1.
         11   -1    0    0    0    0 -0.00000000000E+00 -0.00000000000E+00 -0.45593999997E+02  0.45594000000E+02  0.51100000000E-03 0.  1.
         23    2    1    2    0    0  0.00000000000E+00  0.35527136788E-14 -0.35527136788E-14  0.91188000000E+02  0.91188000000E+02 0.  0.
    9900012    2    3    3    0    0  0.30936828774E+01  0.19662627808E+02  0.30977243973E+02  0.54367089498E+02  0.40000012128E+02 0.  0.
        -12    1    3    3    0    0 -0.30936828774E+01 -0.19662627808E+02 -0.30977243973E+02  0.36820910502E+02  0.00000000000E+00 0.  1.
         11    1    4    4    0    0 -0.11402569339E+02  0.84897469014E+01 -0.20712427755E+01  0.14366086345E+02  0.51100000000E-03 0.  1.
        -11    1    4    4    0    0  0.10047906141E+02  0.88198113894E+01  0.10789679222E+02  0.17180415267E+02  0.51100000000E-03 0. -1.
        -12    1    4    4    0    0  0.44483460755E+01  0.23530695175E+01  0.22258807526E+02  0.22820587886E+02  0.00000000000E+00 0.  1.
</event>
<event>
 8    1  0.2466538E-006  0.9118800E+02  0.7816164E-02  0.1184000E+00
        -11   -1    0    0    0    0  0.00000000000E+00  0.00000000000E+00  0.45593999997E+02  0.45594000000E+02  0.51100000000E-03 0. -1.
         11   -1    0    0    0    0 -0.00000000000E+00 -0.00000000000E+00 -0.45593999997E+02  0.45594000000E+02  0.51100000000E-03 0.  1.
         23    2    1    2    0    0  0.66613381478E-15 -0.71054273576E-14  0.00000000000E+00  0.91188000000E+02  0.91188000000E+02 0.  0.
    9900012    2    3    3    0    0 -0.10041348656E+01  0.27870881949E+02 -0.24041346845E+02  0.54367072451E+02  0.39999973266E+02 0.  0.
         12    1    3    3    0    0  0.10041348656E+01 -0.27870881949E+02  0.24041346845E+02  0.36820927549E+02  0.00000000000E+00 0. -1.
         11    1    4    4    0    0 -0.12873465288E+01  0.92470660025E+01  0.29331457275E+01  0.97861552644E+01  0.51100000000E-03 0. -1.
        -11    1    4    4    0    0  0.11309656765E+02  0.61511623053E+01 -0.24599252404E+02  0.27764516076E+02  0.51100000000E-03 0.  1.
        -12    1    4    4    0    0 -0.11026445101E+02  0.12472653642E+02 -0.23752401685E+01  0.16816401110E+02  0.00000000000E+00 0.  1.
</event>
<event>
 8    1  0.2466538E-006  0.9118800E+02  0.7816164E-02  0.1184000E+00
        -11   -1    0    0    0    0  0.00000000000E+00  0.00000000000E+00  0.45593999997E+02  0.45594000000E+02  0.51100000000E-03 0. -1.
         11   -1    0    0    0    0 -0.00000000000E+00 -0.00000000000E+00 -0.45593999997E+02  0.45594000000E+02  0.51100000000E-03 0.  1.
         23    2    1    2    0    0  0.00000000000E+00  0.35527136788E-14  0.00000000000E+00  0.91188000000E+02  0.91188000000E+02 0.  0.
    9900012    2    3    3    0    0  0.12492828505E+02  0.19902501244E+02 -0.28347787670E+02  0.54367117534E+02  0.40000076041E+02 0.  0.
         12    1    3    3    0    0 -0.12492828505E+02 -0.19902501244E+02  0.28347787670E+02  0.36820882466E+02  0.00000000000E+00 0. -1.
         11    1    4    4    0    0 -0.46905033868E+01 -0.68765153357E+01 -0.27788948745E+01  0.87755080861E+01  0.51100000000E-03 0. -1.
        -11    1    4    4    0    0  0.18337010008E+02  0.21890248539E+02 -0.11733102533E+02  0.30872230441E+02  0.51100000000E-03 0.  1.
        -12    1    4    4    0    0 -0.11536781159E+01  0.48887680409E+01 -0.13835790262E+02  0.14719379006E+02  0.00000000000E+00 0.  1.
</event>
<event>
 8    1  0.2466538E-006  0.9118800E+02  0.7816164E-02  0.1184000E+00
        -11   -1    0    0    0    0  0.00000000000E+00  0.00000000000E+00  0.45593999997E+02  0.45594000000E+02  0.51100000000E-03 0.  1.
         11   -1    0    0    0    0 -0.00000000000E+00 -0.00000000000E+00 -0.45593999997E+02  0.45594000000E+02  0.51100000000E-03 0. -1.
         23    2    1    2    0    0 -0.71054273576E-14  0.00000000000E+00  0.35527136788E-14  0.91188000000E+02  0.91188000000E+02 0.  0.
    9900012    2    3    3    0    0 -0.33030873375E+02 -0.15488397477E+02  0.49856118159E+01  0.54367009010E+02  0.39999828640E+02 0.  0.
         12    1    3    3    0    0  0.33030873375E+02  0.15488397477E+02 -0.49856118159E+01  0.36820990990E+02  0.00000000000E+00 0. -1.
         11    1    4    4    0    0 -0.14513747697E+02 -0.13812524322E+01 -0.14890068391E+02  0.20839166669E+02  0.51100000000E-03 0. -1.
        -11    1    4    4    0    0 -0.19164825080E+02 -0.83016662671E+01  0.13439470390E+02  0.24836013122E+02  0.51100000000E-03 0.  1.
         12    1    4    4    0    0  0.64769940318E+00 -0.58054787782E+01  0.64362098171E+01  0.86918292189E+01  0.00000000000E+00 0. -1.
</event>
<event>
 8    1  0.2466538E-006  0.9118800E+02  0.7816164E-02  0.1184000E+00
        -11   -1    0    0    0    0  0.00000000000E+00  0.00000000000E+00  0.45593999997E+02  0.45594000000E+02  0.51100000000E-03 0. -1.
         11   -1    0    0    0    0 -0.00000000000E+00 -0.00000000000E+00 -0.45593999997E+02  0.45594000000E+02  0.51100000000E-03 0.  1.
         23    2    1    2    0    0  0.23869795029E-14  0.00000000000E+00 -0.44408920985E-15  0.91188000000E+02  0.91188000000E+02 0.  0.
    9900012    2    3    3    0    0  0.41308562640E+00 -0.36800180308E+02  0.11644296599E+01  0.54367084655E+02  0.40000001088E+02 0.  0.
        -12    1    3    3    0    0 -0.41308562640E+00  0.36800180308E+02 -0.11644296599E+01  0.36820915345E+02  0.00000000000E+00 0.  1.
         11    1    4    4    0    0 -0.11434953379E+02 -0.58146164443E+01  0.98751111088E+01  0.16189062445E+02  0.51100000000E-03 0. -1.
        -11    1    4    4    0    0  0.12978929971E+02 -0.10821148139E+02 -0.51905915255E+01  0.17677446390E+02  0.51100000000E-03 0.  1.
         12    1    4    4    0    0 -0.11308909653E+01 -0.20164415725E+02 -0.35200899234E+01  0.20500575820E+02  0.00000000000E+00 0. -1.
</event>
<event>
 8    1  0.2466538E-006  0.9118800E+02  0.7816164E-02  0.1184000E+00
        -11   -1    0    0    0    0  0.00000000000E+00  0.00000000000E+00  0.45593999997E+02  0.45594000000E+02  0.51100000000E-03 0.  1.
         11   -1    0    0    0    0 -0.00000000000E+00 -0.00000000000E+00 -0.45593999997E+02  0.45594000000E+02  0.51100000000E-03 0. -1.
         23    2    1    2    0    0 -0.35527136788E-14  0.00000000000E+00  0.88817841970E-15  0.91188000000E+02  0.91188000000E+02 0.  0.
    9900012    2    3    3    0    0 -0.16786485482E+02  0.32317620908E+02 -0.54373730722E+01  0.54367085537E+02  0.40000003099E+02 0.  0.
        -12    1    3    3    0    0  0.16786485482E+02 -0.32317620908E+02  0.54373730722E+01  0.36820914463E+02  0.00000000000E+00 0.  1.
         11    1    4    4    0    0 -0.69790286479E+01  0.27720669971E+02  0.97705252143E+01  0.30209361922E+02  0.51100000000E-03 0. -1.
        -11    1    4    4    0    0 -0.38475701925E+01 -0.47894055623E+01 -0.11765172268E+01  0.62551095172E+01  0.51100000000E-03 0.  1.
        -12    1    4    4    0    0 -0.59598866413E+01  0.93863564987E+01 -0.14031381060E+02  0.17902614098E+02  0.00000000000E+00 0.  1.
</event>
<event>
 8    1  0.2466538E-006  0.9118800E+02  0.7816164E-02  0.1184000E+00
        -11   -1    0    0    0    0  0.00000000000E+00  0.00000000000E+00  0.45593999997E+02  0.45594000000E+02  0.51100000000E-03 0.  1.
         11   -1    0    0    0    0 -0.00000000000E+00 -0.00000000000E+00 -0.45593999997E+02  0.45594000000E+02  0.51100000000E-03 0. -1.
         23    2    1    2    0    0  0.00000000000E+00  0.00000000000E+00  0.00000000000E+00  0.91188000000E+02  0.91188000000E+02 0.  0.
    9900012    2    3    3    0    0  0.19696447219E+02  0.97386469577E+01 -0.29546408287E+02  0.54367061388E+02  0.39999948045E+02 0.  0.
        -12    1    3    3    0    0 -0.19696447219E+02 -0.97386469577E+01  0.29546408287E+02  0.36820938612E+02  0.00000000000E+00 0.  1.
         11    1    4    4    0    0  0.13604283063E+02  0.23264156547E+02 -0.26091261003E+02  0.37510683791E+02  0.51100000000E-03 0. -1.
        -11    1    4    4    0    0 -0.13016334102E+01 -0.51160464059E+01 -0.70446872519E+00  0.53258292132E+01  0.51100000000E-03 0.  1.
         12    1    4    4    0    0  0.73937975666E+01 -0.84094631833E+01 -0.27506785590E+01  0.11530548383E+02  0.00000000000E+00 0. -1.
</event>
<event>
 8    1  0.2466538E-006  0.9118800E+02  0.7816164E-02  0.1184000E+00
        -11   -1    0    0    0    0  0.00000000000E+00  0.00000000000E+00  0.45593999997E+02  0.45594000000E+02  0.51100000000E-03 0.  1.
         11   -1    0    0    0    0 -0.00000000000E+00 -0.00000000000E+00 -0.45593999997E+02  0.45594000000E+02  0.51100000000E-03 0. -1.
         23    2    1    2    0    0 -0.71054273576E-14 -0.17763568394E-14  0.17763568394E-14  0.91188000000E+02  0.91188000000E+02 0.  0.
    9900012    2    3    3    0    0 -0.32450783589E+02 -0.82621992651E+01  0.15312168740E+02  0.54367084697E+02  0.40000001183E+02 0.  0.
         12    1    3    3    0    0  0.32450783589E+02  0.82621992651E+01 -0.15312168740E+02  0.36820915303E+02  0.00000000000E+00 0. -1.
         11    1    4    4    0    0 -0.26318080456E+02 -0.77873908212E+01  0.17396490147E+02  0.32494963985E+02  0.51100000000E-03 0. -1.
        -11    1    4    4    0    0 -0.12036586268E+02 -0.59726986143E+01  0.36240885924E+00  0.13441870337E+02  0.51100000000E-03 0.  1.
         12    1    4    4    0    0  0.59038831345E+01  0.54978901703E+01 -0.24467302654E+01  0.84302503748E+01  0.00000000000E+00 0. -1.
</event>
<event>
 8    1  0.2466538E-006  0.9118800E+02  0.7816164E-02  0.1184000E+00
        -11   -1    0    0    0    0  0.00000000000E+00  0.00000000000E+00  0.45593999997E+02  0.45594000000E+02  0.51100000000E-03 0.  1.
         11   -1    0    0    0    0 -0.00000000000E+00 -0.00000000000E+00 -0.45593999997E+02  0.45594000000E+02  0.51100000000E-03 0. -1.
         23    2    1    2    0    0  0.00000000000E+00  0.00000000000E+00  0.00000000000E+00  0.91188000000E+02  0.91188000000E+02 0.  0.
    9900012    2    3    3    0    0  0.31715460434E+02  0.16003307318E+02  0.96852441274E+01  0.54367078916E+02  0.39999988006E+02 0.  0.
         12    1    3    3    0    0 -0.31715460434E+02 -0.16003307318E+02 -0.96852441274E+01  0.36820921084E+02  0.00000000000E+00 0. -1.
         11    1    4    4    0    0  0.11682378085E+02 -0.15512162845E+01 -0.11261856273E+02  0.16300725035E+02  0.51100000000E-03 0. -1.
        -11    1    4    4    0    0  0.12419870965E+02  0.66112842731E+01  0.10405331675E+01  0.14108330307E+02  0.51100000000E-03 0.  1.
        -12    1    4    4    0    0  0.76132113835E+01  0.10943239330E+02  0.19906567233E+02  0.23958023574E+02  0.00000000000E+00 0.  1.
</event>
<event>
 8    1  0.2466538E-006  0.9118800E+02  0.7816164E-02  0.1184000E+00
        -11   -1    0    0    0    0  0.00000000000E+00  0.00000000000E+00  0.45593999997E+02  0.45594000000E+02  0.51100000000E-03 0. -1.
         11   -1    0    0    0    0 -0.00000000000E+00 -0.00000000000E+00 -0.45593999997E+02  0.45594000000E+02  0.51100000000E-03 0.  1.
         23    2    1    2    0    0  0.00000000000E+00 -0.17763568394E-14  0.00000000000E+00  0.91188000000E+02  0.91188000000E+02 0.  0.
    9900012    2    3    3    0    0 -0.32396609462E+02 -0.15492800173E+02  0.81371814592E+01  0.54367070029E+02  0.39999967745E+02 0.  0.
        -12    1    3    3    0    0  0.32396609462E+02  0.15492800173E+02 -0.81371814592E+01  0.36820929971E+02  0.00000000000E+00 0.  1.
         11    1    4    4    0    0 -0.30882511505E+01 -0.14673315970E+02  0.12778821925E+02  0.19701314341E+02  0.51100000000E-03 0. -1.
        -11    1    4    4    0    0  0.45319046975E+00  0.23386613429E+00  0.37034706027E+01  0.37384180795E+01  0.51100000000E-03 0.  1.
         12    1    4    4    0    0 -0.29761548782E+02 -0.10533503375E+01 -0.83451110683E+01  0.30927337609E+02  0.00000000000E+00 0. -1.
</event>
<event>
 8    1  0.2466538E-006  0.9118800E+02  0.7816164E-02  0.1184000E+00
        -11   -1    0    0    0    0  0.00000000000E+00  0.00000000000E+00  0.45593999997E+02  0.45594000000E+02  0.51100000000E-03 0.  1.
         11   -1    0    0    0    0 -0.00000000000E+00 -0.00000000000E+00 -0.45593999997E+02  0.45594000000E+02  0.51100000000E-03 0. -1.
         23    2    1    2    0    0  0.00000000000E+00  0.00000000000E+00  0.35527136788E-14  0.91188000000E+02  0.91188000000E+02 0.  0.
    9900012    2    3    3    0    0  0.14461324764E+02  0.26264756560E+02 -0.21373181690E+02  0.54367078683E+02  0.39999987474E+02 0.  0.
        -12    1    3    3    0    0 -0.14461324764E+02 -0.26264756560E+02  0.21373181690E+02  0.36820921317E+02  0.00000000000E+00 0.  1.
         11    1    4    4    0    0  0.61589258785E+01  0.15182215600E+02 -0.10594575457E+02  0.19510947385E+02  0.51100000000E-03 0. -1.
        -11    1    4    4    0    0  0.11878153006E+02  0.10908464278E+02 -0.19572912256E+02  0.25361072654E+02  0.51100000000E-03 0.  1.
        -12    1    4    4    0    0 -0.35757541204E+01  0.17407668180E+00  0.87943060228E+01  0.94950586435E+01  0.00000000000E+00 0.  1.
</event>
<event>
 8    1  0.2466538E-006  0.9118800E+02  0.7816164E-02  0.1184000E+00
        -11   -1    0    0    0    0  0.00000000000E+00  0.00000000000E+00  0.45593999997E+02  0.45594000000E+02  0.51100000000E-03 0.  1.
         11   -1    0    0    0    0 -0.00000000000E+00 -0.00000000000E+00 -0.45593999997E+02  0.45594000000E+02  0.51100000000E-03 0. -1.
         23    2    1    2    0    0  0.00000000000E+00 -0.71054273576E-14 -0.35527136788E-14  0.91188000000E+02  0.91188000000E+02 0.  0.
    9900012    2    3    3    0    0 -0.16192115553E+02  0.25179989998E+02  0.21437388956E+02  0.54367107186E+02  0.40000052452E+02 0.  0.
         12    1    3    3    0    0  0.16192115553E+02 -0.25179989998E+02 -0.21437388956E+02  0.36820892814E+02  0.00000000000E+00 0. -1.
         11    1    4    4    0    0 -0.10649667899E+02 -0.58074330712E+01 -0.30152403664E+01  0.12499335181E+02  0.51100000000E-03 0. -1.
        -11    1    4    4    0    0 -0.39790973194E+01  0.20267562755E+02  0.23040210595E+02  0.30942828249E+02  0.51100000000E-03 0.  1.
         12    1    4    4    0    0 -0.15633503344E+01  0.10719860314E+02  0.14124187266E+01  0.10924943756E+02  0.00000000000E+00 0. -1.
</event>
<event>
 8    1  0.2466538E-006  0.9118800E+02  0.7816164E-02  0.1184000E+00
        -11   -1    0    0    0    0  0.00000000000E+00  0.00000000000E+00  0.45593999997E+02  0.45594000000E+02  0.51100000000E-03 0. -1.
         11   -1    0    0    0    0 -0.00000000000E+00 -0.00000000000E+00 -0.45593999997E+02  0.45594000000E+02  0.51100000000E-03 0.  1.
         23    2    1    2    0    0  0.17763568394E-14  0.00000000000E+00  0.00000000000E+00  0.91188000000E+02  0.91188000000E+02 0.  0.
    9900012    2    3    3    0    0  0.92907720270E+01 -0.11698015049E+02 -0.33654383142E+02  0.54367088745E+02  0.40000010412E+02 0.  0.
         12    1    3    3    0    0 -0.92907720270E+01  0.11698015049E+02  0.33654383142E+02  0.36820911255E+02  0.00000000000E+00 0. -1.
         11    1    4    4    0    0 -0.11058713023E+02 -0.99738330515E+01 -0.41141875122E+01  0.15449887333E+02  0.51100000000E-03 0. -1.
        -11    1    4    4    0    0  0.14989425483E+02  0.32859120269E+01 -0.10724209788E+02  0.18721345304E+02  0.51100000000E-03 0.  1.
        -12    1    4    4    0    0  0.53600595670E+01 -0.50100940249E+01 -0.18815985842E+02  0.20195856107E+02  0.00000000000E+00 0.  1.
</event>
<event>
 8    1  0.2466538E-006  0.9118800E+02  0.7816164E-02  0.1184000E+00
        -11   -1    0    0    0    0  0.00000000000E+00  0.00000000000E+00  0.45593999997E+02  0.45594000000E+02  0.51100000000E-03 0. -1.
         11   -1    0    0    0    0 -0.00000000000E+00 -0.00000000000E+00 -0.45593999997E+02  0.45594000000E+02  0.51100000000E-03 0.  1.
         23    2    1    2    0    0  0.71054273576E-14  0.00000000000E+00  0.00000000000E+00  0.91188000000E+02  0.91188000000E+02 0.  0.
    9900012    2    3    3    0    0 -0.29301394411E+02 -0.17170039494E+02 -0.14226667640E+02  0.54367081451E+02  0.39999993784E+02 0.  0.
         12    1    3    3    0    0  0.29301394411E+02  0.17170039494E+02  0.14226667640E+02  0.36820918549E+02  0.00000000000E+00 0. -1.
         11    1    4    4    0    0 -0.38793968813E+01 -0.17854842953E+02 -0.31854970966E+01  0.18547035586E+02  0.51100000000E-03 0. -1.
        -11    1    4    4    0    0 -0.26867130321E+01 -0.89492212938E+01 -0.38099230865E+01  0.10090713695E+02  0.51100000000E-03 0.  1.
         12    1    4    4    0    0 -0.22735284498E+02  0.96340247524E+01 -0.72312474569E+01  0.25729332170E+02  0.00000000000E+00 0. -1.
</event>
<event>
 8    1  0.2466538E-006  0.9118800E+02  0.7816164E-02  0.1184000E+00
        -11   -1    0    0    0    0  0.00000000000E+00  0.00000000000E+00  0.45593999997E+02  0.45594000000E+02  0.51100000000E-03 0. -1.
         11   -1    0    0    0    0 -0.00000000000E+00 -0.00000000000E+00 -0.45593999997E+02  0.45594000000E+02  0.51100000000E-03 0.  1.
         23    2    1    2    0    0  0.35527136788E-14  0.35527136788E-14 -0.35527136788E-14  0.91188000000E+02  0.91188000000E+02 0.  0.
    9900012    2    3    3    0    0  0.24752294120E+02  0.17759290324E+02 -0.20681161509E+02  0.54367096992E+02  0.40000029212E+02 0.  0.
         12    1    3    3    0    0 -0.24752294120E+02 -0.17759290324E+02  0.20681161509E+02  0.36820903008E+02  0.00000000000E+00 0. -1.
         11    1    4    4    0    0  0.26439988890E+01 -0.83145851601E+01 -0.13567447605E+02  0.16130675476E+02  0.51100000000E-03 0. -1.
        -11    1    4    4    0    0  0.17590892268E+02  0.11278791044E+02  0.69533955859E+00  0.20907752523E+02  0.51100000000E-03 0.  1.
         12    1    4    4    0    0  0.45174029632E+01  0.14795084440E+02 -0.78090534619E+01  0.17328668993E+02  0.00000000000E+00 0. -1.
</event>
<event>
 8    1  0.2466538E-006  0.9118800E+02  0.7816164E-02  0.1184000E+00
        -11   -1    0    0    0    0  0.00000000000E+00  0.00000000000E+00  0.45593999997E+02  0.45594000000E+02  0.51100000000E-03 0. -1.
         11   -1    0    0    0    0 -0.00000000000E+00 -0.00000000000E+00 -0.45593999997E+02  0.45594000000E+02  0.51100000000E-03 0.  1.
         23    2    1    2    0    0  0.35527136788E-14 -0.88817841970E-15  0.71054273576E-14  0.91188000000E+02  0.91188000000E+02 0.  0.
    9900012    2    3    3    0    0 -0.13862701223E+02  0.43430300290E+01 -0.33833986546E+02  0.54367149377E+02  0.40000148635E+02 0.  0.
         12    1    3    3    0    0  0.13862701223E+02 -0.43430300290E+01  0.33833986546E+02  0.36820850623E+02  0.00000000000E+00 0. -1.
         11    1    4    4    0    0 -0.16033079904E+01  0.42180930268E+01 -0.10308207032E+02  0.11252645812E+02  0.51100000000E-03 0. -1.
        -11    1    4    4    0    0 -0.13547820765E+02  0.36806845189E+01 -0.31390973591E+02  0.34387266673E+02  0.51100000000E-03 0.  1.
         12    1    4    4    0    0  0.12884275322E+01 -0.35557475167E+01  0.78651940770E+01  0.87272368924E+01  0.00000000000E+00 0. -1.
</event>
<event>
 8    1  0.2466538E-006  0.9118800E+02  0.7816164E-02  0.1184000E+00
        -11   -1    0    0    0    0  0.00000000000E+00  0.00000000000E+00  0.45593999997E+02  0.45594000000E+02  0.51100000000E-03 0.  1.
         11   -1    0    0    0    0 -0.00000000000E+00 -0.00000000000E+00 -0.45593999997E+02  0.45594000000E+02  0.51100000000E-03 0. -1.
         23    2    1    2    0    0 -0.35527136788E-14  0.00000000000E+00  0.15543122345E-14  0.91188000000E+02  0.91188000000E+02 0.  0.
    9900012    2    3    3    0    0  0.29992364364E+02 -0.21322738821E+02 -0.12565397342E+01  0.54367081990E+02  0.39999995013E+02 0.  0.
        -12    1    3    3    0    0 -0.29992364364E+02  0.21322738821E+02  0.12565397342E+01  0.36820918010E+02  0.00000000000E+00 0.  1.
         11    1    4    4    0    0  0.39239933844E+01 -0.50222518976E+01  0.18324550264E+01  0.66316385523E+01  0.51100000000E-03 0. -1.
        -11    1    4    4    0    0  0.27989833164E+02 -0.22780502988E+02  0.58178314538E+01  0.36554469494E+02  0.51100000000E-03 0.  1.
        -12    1    4    4    0    0 -0.19214621840E+01  0.64800160645E+01 -0.89068262145E+01  0.11180973944E+02  0.00000000000E+00 0.  1.
</event>
<event>
 8    1  0.2466538E-006  0.9118800E+02  0.7816164E-02  0.1184000E+00
        -11   -1    0    0    0    0  0.00000000000E+00  0.00000000000E+00  0.45593999997E+02  0.45594000000E+02  0.51100000000E-03 0.  1.
         11   -1    0    0    0    0 -0.00000000000E+00 -0.00000000000E+00 -0.45593999997E+02  0.45594000000E+02  0.51100000000E-03 0. -1.
         23    2    1    2    0    0  0.00000000000E+00  0.00000000000E+00  0.00000000000E+00  0.91188000000E+02  0.91188000000E+02 0.  0.
    9900012    2    3    3    0    0 -0.82062400289E+01 -0.31510956108E+02 -0.17189961615E+02  0.54367115837E+02  0.40000072174E+02 0.  0.
        -12    1    3    3    0    0  0.82062400289E+01  0.31510956108E+02  0.17189961615E+02  0.36820884163E+02  0.00000000000E+00 0.  1.
         11    1    4    4    0    0 -0.90128288906E+01 -0.67686368250E+01 -0.10068459573E+02  0.15113550460E+02  0.51100000000E-03 0. -1.
        -11    1    4    4    0    0 -0.90969458400E+01 -0.22787811228E+01  0.62776604435E+01  0.11285224319E+02  0.51100000000E-03 0.  1.
         12    1    4    4    0    0  0.99035347018E+01 -0.22463538160E+02 -0.13399162485E+02  0.27968341058E+02  0.00000000000E+00 0. -1.
</event>
<event>
 8    1  0.2466538E-006  0.9118800E+02  0.7816164E-02  0.1184000E+00
        -11   -1    0    0    0    0  0.00000000000E+00  0.00000000000E+00  0.45593999997E+02  0.45594000000E+02  0.51100000000E-03 0. -1.
         11   -1    0    0    0    0 -0.00000000000E+00 -0.00000000000E+00 -0.45593999997E+02  0.45594000000E+02  0.51100000000E-03 0.  1.
         23    2    1    2    0    0 -0.44408920985E-15  0.00000000000E+00 -0.35527136788E-14  0.91188000000E+02  0.91188000000E+02 0.  0.
    9900012    2    3    3    0    0 -0.69959954687E+00  0.28183603588E+02  0.23684912393E+02  0.54367081682E+02  0.39999994310E+02 0.  0.
        -12    1    3    3    0    0  0.69959954687E+00 -0.28183603588E+02 -0.23684912393E+02  0.36820918318E+02  0.00000000000E+00 0.  1.
         11    1    4    4    0    0  0.15357560755E+02  0.66666174353E+01  0.79162979344E+01  0.18519347548E+02  0.51100000000E-03 0. -1.
        -11    1    4    4    0    0 -0.91799229621E+01  0.27614730283E+01 -0.11687720511E+01  0.96572639626E+01  0.51100000000E-03 0.  1.
        -12    1    4    4    0    0 -0.68772373398E+01  0.18755513125E+02  0.16937386509E+02  0.26190470171E+02  0.00000000000E+00 0.  1.
</event>
<event>
 8    1  0.2466538E-006  0.9118800E+02  0.7816164E-02  0.1184000E+00
        -11   -1    0    0    0    0  0.00000000000E+00  0.00000000000E+00  0.45593999997E+02  0.45594000000E+02  0.51100000000E-03 0. -1.
         11   -1    0    0    0    0 -0.00000000000E+00 -0.00000000000E+00 -0.45593999997E+02  0.45594000000E+02  0.51100000000E-03 0.  1.
         23    2    1    2    0    0  0.00000000000E+00  0.35527136788E-14 -0.35527136788E-14  0.91188000000E+02  0.91188000000E+02 0.  0.
    9900012    2    3    3    0    0  0.48540880091E+01 -0.28552888032E+02  0.22736489815E+02  0.54367115241E+02  0.40000070814E+02 0.  0.
        -12    1    3    3    0    0 -0.48540880091E+01  0.28552888032E+02 -0.22736489815E+02  0.36820884759E+02  0.00000000000E+00 0.  1.
         11    1    4    4    0    0  0.33262614456E+01  0.16673442320E+01  0.38563191081E+01  0.53586611496E+01  0.51100000000E-03 0. -1.
        -11    1    4    4    0    0 -0.85674131406E+01 -0.39304628848E+01 -0.62129372207E+01  0.11289362054E+02  0.51100000000E-03 0.  1.
        -12    1    4    4    0    0  0.10095239704E+02 -0.26289769379E+02  0.25093107927E+02  0.37719092038E+02  0.00000000000E+00 0.  1.
</event>
<event>
 8    1  0.2466538E-006  0.9118800E+02  0.7816164E-02  0.1184000E+00
        -11   -1    0    0    0    0  0.00000000000E+00  0.00000000000E+00  0.45593999997E+02  0.45594000000E+02  0.51100000000E-03 0. -1.
         11   -1    0    0    0    0 -0.00000000000E+00 -0.00000000000E+00 -0.45593999997E+02  0.45594000000E+02  0.51100000000E-03 0.  1.
         23    2    1    2    0    0  0.00000000000E+00 -0.35527136788E-14  0.35527136788E-14  0.91188000000E+02  0.91188000000E+02 0.  0.
    9900012    2    3    3    0    0 -0.24367335604E+02  0.14984072497E+02 -0.23183838294E+02  0.54367084326E+02  0.40000000338E+02 0.  0.
         12    1    3    3    0    0  0.24367335604E+02 -0.14984072497E+02  0.23183838294E+02  0.36820915674E+02  0.00000000000E+00 0. -1.
         11    1    4    4    0    0 -0.19169591984E+02  0.83590788742E+01 -0.97816056142E+01  0.23087383245E+02  0.51100000000E-03 0. -1.
        -11    1    4    4    0    0 -0.89732560946E+01  0.15821181102E+02 -0.71962695839E+01  0.19560557062E+02  0.51100000000E-03 0.  1.
         12    1    4    4    0    0  0.37755124746E+01 -0.91961874787E+01 -0.62059630959E+01  0.11719144019E+02  0.00000000000E+00 0. -1.
</event>
<event>
 8    1  0.2466538E-006  0.9118800E+02  0.7816164E-02  0.1184000E+00
        -11   -1    0    0    0    0  0.00000000000E+00  0.00000000000E+00  0.45593999997E+02  0.45594000000E+02  0.51100000000E-03 0. -1.
         11   -1    0    0    0    0 -0.00000000000E+00 -0.00000000000E+00 -0.45593999997E+02  0.45594000000E+02  0.51100000000E-03 0.  1.
         23    2    1    2    0    0  0.35527136788E-14  0.44408920985E-15  0.00000000000E+00  0.91188000000E+02  0.91188000000E+02 0.  0.
    9900012    2    3    3    0    0  0.20069913905E+02  0.29321379627E+01 -0.30730771974E+02  0.54367092580E+02  0.40000019154E+02 0.  0.
         12    1    3    3    0    0 -0.20069913905E+02 -0.29321379627E+01  0.30730771974E+02  0.36820907420E+02  0.00000000000E+00 0. -1.
         11    1    4    4    0    0  0.58011774835E+01 -0.12457729326E+02 -0.26203364662E+01  0.13989812137E+02  0.51100000000E-03 0. -1.
        -11    1    4    4    0    0 -0.13417910763E+01  0.13091638777E+02 -0.13919104321E+02  0.19155492020E+02  0.51100000000E-03 0.  1.
         12    1    4    4    0    0  0.15610527497E+02  0.22982285118E+01 -0.14191331186E+02  0.21221788423E+02  0.00000000000E+00 0. -1.
</event>
<event>
 8    1  0.2466538E-006  0.9118800E+02  0.7816164E-02  0.1184000E+00
        -11   -1    0    0    0    0  0.00000000000E+00  0.00000000000E+00  0.45593999997E+02  0.45594000000E+02  0.51100000000E-03 0.  1.
         11   -1    0    0    0    0 -0.00000000000E+00 -0.00000000000E+00 -0.45593999997E+02  0.45594000000E+02  0.51100000000E-03 0. -1.
         23    2    1    2    0    0  0.00000000000E+00  0.00000000000E+00 -0.35527136788E-14  0.91188000000E+02  0.91188000000E+02 0.  0.
    9900012    2    3    3    0    0 -0.91777428521E+01 -0.27071175513E+02 -0.23209915982E+02  0.54367086005E+02  0.40000004165E+02 0.  0.
         12    1    3    3    0    0  0.91777428521E+01  0.27071175513E+02  0.23209915982E+02  0.36820913995E+02  0.00000000000E+00 0. -1.
         11    1    4    4    0    0 -0.14681679542E+02 -0.20281327745E+01 -0.31804226303E+01  0.15158500093E+02  0.51100000000E-03 0. -1.
        -11    1    4    4    0    0  0.89435902628E+01 -0.10031686857E+02  0.61384172299E+00  0.13453599886E+02  0.51100000000E-03 0.  1.
         12    1    4    4    0    0 -0.34396535733E+01 -0.15011355882E+02 -0.20643335075E+02  0.25754986025E+02  0.00000000000E+00 0. -1.
</event>
<event>
 8    1  0.2466538E-006  0.9118800E+02  0.7816164E-02  0.1184000E+00
        -11   -1    0    0    0    0  0.00000000000E+00  0.00000000000E+00  0.45593999997E+02  0.45594000000E+02  0.51100000000E-03 0.  1.
         11   -1    0    0    0    0 -0.00000000000E+00 -0.00000000000E+00 -0.45593999997E+02  0.45594000000E+02  0.51100000000E-03 0. -1.
         23    2    1    2    0    0 -0.35527136788E-14  0.71054273576E-14  0.00000000000E+00  0.91188000000E+02  0.91188000000E+02 0.  0.
    9900012    2    3    3    0    0  0.20270958128E+02 -0.23576519606E+02  0.19723485559E+02  0.54367083352E+02  0.39999998119E+02 0.  0.
         12    1    3    3    0    0 -0.20270958128E+02  0.23576519606E+02 -0.19723485559E+02  0.36820916648E+02  0.00000000000E+00 0. -1.
         11    1    4    4    0    0 -0.77130132696E+01 -0.63202085959E+01 -0.39098366741E+01  0.10710855870E+02  0.51100000000E-03 0. -1.
        -11    1    4    4    0    0  0.48894385466E+01 -0.64082965526E+01  0.14435696464E+02  0.16533668881E+02  0.51100000000E-03 0.  1.
         12    1    4    4    0    0  0.23094532851E+02 -0.10848014458E+02  0.91976257692E+01  0.27122558601E+02  0.00000000000E+00 0. -1.
</event>
<event>
 8    1  0.2466538E-006  0.9118800E+02  0.7816164E-02  0.1184000E+00
        -11   -1    0    0    0    0  0.00000000000E+00  0.00000000000E+00  0.45593999997E+02  0.45594000000E+02  0.51100000000E-03 0.  1.
         11   -1    0    0    0    0 -0.00000000000E+00 -0.00000000000E+00 -0.45593999997E+02  0.45594000000E+02  0.51100000000E-03 0. -1.
         23    2    1    2    0    0  0.35527136788E-14  0.00000000000E+00  0.00000000000E+00  0.91188000000E+02  0.91188000000E+02 0.  0.
    9900012    2    3    3    0    0 -0.29724650515E+02 -0.13718754946E+02 -0.16852945577E+02  0.54367070352E+02  0.39999968482E+02 0.  0.
        -12    1    3    3    0    0  0.29724650515E+02  0.13718754946E+02  0.16852945577E+02  0.36820929648E+02  0.00000000000E+00 0.  1.
         11    1    4    4    0    0 -0.17101146178E+02 -0.77936786796E+01  0.14937986137E+01  0.18852640731E+02  0.51100000000E-03 0. -1.
        -11    1    4    4    0    0 -0.15762180799E+02 -0.45139457815E+01  0.45326066957E+00  0.16402057662E+02  0.51100000000E-03 0.  1.
        -12    1    4    4    0    0  0.31386764617E+01 -0.14111304845E+01 -0.18800004860E+02  0.19112371959E+02  0.00000000000E+00 0.  1.
</event>
<event>
 8    1  0.2466538E-006  0.9118800E+02  0.7816164E-02  0.1184000E+00
        -11   -1    0    0    0    0  0.00000000000E+00  0.00000000000E+00  0.45593999997E+02  0.45594000000E+02  0.51100000000E-03 0.  1.
         11   -1    0    0    0    0 -0.00000000000E+00 -0.00000000000E+00 -0.45593999997E+02  0.45594000000E+02  0.51100000000E-03 0. -1.
         23    2    1    2    0    0  0.00000000000E+00 -0.71054273576E-14  0.17763568394E-14  0.91188000000E+02  0.91188000000E+02 0.  0.
    9900012    2    3    3    0    0  0.81310090977E+01  0.32469432915E+02 -0.15342840186E+02  0.54367080298E+02  0.39999991155E+02 0.  0.
        -12    1    3    3    0    0 -0.81310090977E+01 -0.32469432915E+02  0.15342840186E+02  0.36820919702E+02  0.00000000000E+00 0.  1.
         11    1    4    4    0    0  0.39744156866E+01  0.13236945568E+02 -0.82016945178E+01  0.16071107655E+02  0.51100000000E-03 0. -1.
        -11    1    4    4    0    0 -0.13404983384E+02  0.96036494358E+01 -0.78330280262E+01  0.18255957667E+02  0.51100000000E-03 0.  1.
        -12    1    4    4    0    0  0.17561576795E+02  0.96288379107E+01  0.69188235791E+00  0.20040014976E+02  0.00000000000E+00 0.  1.
</event>
<event>
 8    1  0.2466538E-006  0.9118800E+02  0.7816164E-02  0.1184000E+00
        -11   -1    0    0    0    0  0.00000000000E+00  0.00000000000E+00  0.45593999997E+02  0.45594000000E+02  0.51100000000E-03 0.  1.
         11   -1    0    0    0    0 -0.00000000000E+00 -0.00000000000E+00 -0.45593999997E+02  0.45594000000E+02  0.51100000000E-03 0. -1.
         23    2    1    2    0    0  0.00000000000E+00  0.00000000000E+00  0.00000000000E+00  0.91188000000E+02  0.91188000000E+02 0.  0.
    9900012    2    3    3    0    0  0.23142644981E+02 -0.24096576651E+02  0.15477399501E+02  0.54367123879E+02  0.40000090507E+02 0.  0.
         12    1    3    3    0    0 -0.23142644981E+02  0.24096576651E+02 -0.15477399501E+02  0.36820876121E+02  0.00000000000E+00 0. -1.
         11    1    4    4    0    0  0.11375316792E+02 -0.30019159488E+01  0.47246275291E+01  0.12677990260E+02  0.51100000000E-03 0. -1.
        -11    1    4    4    0    0  0.22914314229E+02 -0.13742404868E+02  0.91373599765E+01  0.28238463764E+02  0.51100000000E-03 0.  1.
         12    1    4    4    0    0 -0.11146986040E+02 -0.73522558340E+01  0.16154119950E+01  0.13450669855E+02  0.00000000000E+00 0. -1.
</event>
<event>
 8    1  0.2466538E-006  0.9118800E+02  0.7816164E-02  0.1184000E+00
        -11   -1    0    0    0    0  0.00000000000E+00  0.00000000000E+00  0.45593999997E+02  0.45594000000E+02  0.51100000000E-03 0. -1.
         11   -1    0    0    0    0 -0.00000000000E+00 -0.00000000000E+00 -0.45593999997E+02  0.45594000000E+02  0.51100000000E-03 0.  1.
         23    2    1    2    0    0  0.00000000000E+00  0.00000000000E+00  0.71054273576E-14  0.91188000000E+02  0.91188000000E+02 0.  0.
    9900012    2    3    3    0    0  0.17894126439E+02 -0.27498752549E+01  0.32062673894E+02  0.54367127764E+02  0.40000099364E+02 0.  0.
        -12    1    3    3    0    0 -0.17894126439E+02  0.27498752549E+01 -0.32062673894E+02  0.36820872236E+02  0.00000000000E+00 0.  1.
         11    1    4    4    0    0  0.53942007171E+01  0.13620125143E+02  0.76023834978E+01  0.16504588616E+02  0.51100000000E-03 0. -1.
        -11    1    4    4    0    0  0.65524329077E+01 -0.16577159915E+01  0.20388375713E+02  0.21479484719E+02  0.51100000000E-03 0.  1.
        -12    1    4    4    0    0  0.59474928142E+01 -0.14712284406E+02  0.40719146836E+01  0.16383054429E+02  0.00000000000E+00 0.  1.
</event>
<event>
 8    1  0.2466538E-006  0.9118800E+02  0.7816164E-02  0.1184000E+00
        -11   -1    0    0    0    0  0.00000000000E+00  0.00000000000E+00  0.45593999997E+02  0.45594000000E+02  0.51100000000E-03 0. -1.
         11   -1    0    0    0    0 -0.00000000000E+00 -0.00000000000E+00 -0.45593999997E+02  0.45594000000E+02  0.51100000000E-03 0.  1.
         23    2    1    2    0    0  0.35527136788E-14  0.17763568394E-14  0.00000000000E+00  0.91188000000E+02  0.91188000000E+02 0.  0.
    9900012    2    3    3    0    0  0.16715130640E+02  0.15979183934E+02 -0.28653964318E+02  0.54367087700E+02  0.40000008029E+02 0.  0.
         12    1    3    3    0    0 -0.16715130640E+02 -0.15979183934E+02  0.28653964318E+02  0.36820912300E+02  0.00000000000E+00 0. -1.
         11    1    4    4    0    0 -0.18852228587E+01  0.99629722570E+01 -0.32987430336E+01  0.10662860183E+02  0.51100000000E-03 0. -1.
        -11    1    4    4    0    0  0.40436360429E+01 -0.57467911250E+00 -0.27302878818E+02  0.27606673840E+02  0.51100000000E-03 0.  1.
         12    1    4    4    0    0  0.14556717456E+02  0.65908907890E+01  0.19476575333E+01  0.16097553676E+02  0.00000000000E+00 0. -1.
</event>
<event>
 8    1  0.2466538E-006  0.9118800E+02  0.7816164E-02  0.1184000E+00
        -11   -1    0    0    0    0  0.00000000000E+00  0.00000000000E+00  0.45593999997E+02  0.45594000000E+02  0.51100000000E-03 0.  1.
         11   -1    0    0    0    0 -0.00000000000E+00 -0.00000000000E+00 -0.45593999997E+02  0.45594000000E+02  0.51100000000E-03 0. -1.
         23    2    1    2    0    0 -0.71054273576E-14 -0.17763568394E-14  0.00000000000E+00  0.91188000000E+02  0.91188000000E+02 0.  0.
    9900012    2    3    3    0    0  0.33036456971E+02  0.10295026875E+02 -0.12585050096E+02  0.54367101675E+02  0.40000039888E+02 0.  0.
         12    1    3    3    0    0 -0.33036456971E+02 -0.10295026875E+02  0.12585050096E+02  0.36820898325E+02  0.00000000000E+00 0. -1.
         11    1    4    4    0    0 -0.36494054913E+01 -0.75118634754E+01  0.17449845597E+01  0.85317773463E+01  0.51100000000E-03 0. -1.
        -11    1    4    4    0    0  0.15717413101E+02  0.12947829074E+01 -0.10317880454E+02  0.18846012700E+02  0.51100000000E-03 0.  1.
         12    1    4    4    0    0  0.20968449362E+02  0.16512107443E+02 -0.40121542014E+01  0.26989311629E+02  0.00000000000E+00 0. -1.
</event>
<event>
 8    1  0.2466538E-006  0.9118800E+02  0.7816164E-02  0.1184000E+00
        -11   -1    0    0    0    0  0.00000000000E+00  0.00000000000E+00  0.45593999997E+02  0.45594000000E+02  0.51100000000E-03 0.  1.
         11   -1    0    0    0    0 -0.00000000000E+00 -0.00000000000E+00 -0.45593999997E+02  0.45594000000E+02  0.51100000000E-03 0. -1.
         23    2    1    2    0    0  0.00000000000E+00 -0.88817841970E-15  0.88817841970E-15  0.91188000000E+02  0.91188000000E+02 0.  0.
    9900012    2    3    3    0    0 -0.35834280235E+02  0.44112883402E+01 -0.72267434651E+01  0.54367069459E+02  0.39999966445E+02 0.  0.
        -12    1    3    3    0    0  0.35834280235E+02 -0.44112883402E+01  0.72267434651E+01  0.36820930541E+02  0.00000000000E+00 0.  1.
         11    1    4    4    0    0 -0.18790137873E+02 -0.12451029954E+02 -0.12878781798E+01  0.22577777983E+02  0.51100000000E-03 0. -1.
        -11    1    4    4    0    0  0.77780217781E+00 -0.37430383617E+01 -0.18277672546E+01  0.42374574692E+01  0.51100000000E-03 0.  1.
        -12    1    4    4    0    0 -0.17821944540E+02  0.20605356656E+02 -0.41110980307E+01  0.27551834006E+02  0.00000000000E+00 0.  1.
</event>
<event>
 8    1  0.2466538E-006  0.9118800E+02  0.7816164E-02  0.1184000E+00
        -11   -1    0    0    0    0  0.00000000000E+00  0.00000000000E+00  0.45593999997E+02  0.45594000000E+02  0.51100000000E-03 0. -1.
         11   -1    0    0    0    0 -0.00000000000E+00 -0.00000000000E+00 -0.45593999997E+02  0.45594000000E+02  0.51100000000E-03 0.  1.
         23    2    1    2    0    0  0.00000000000E+00  0.88817841970E-15  0.00000000000E+00  0.91188000000E+02  0.91188000000E+02 0.  0.
    9900012    2    3    3    0    0 -0.12788895330E+02 -0.22432431066E+01 -0.34455630602E+02  0.54367102895E+02  0.40000042670E+02 0.  0.
         12    1    3    3    0    0  0.12788895330E+02  0.22432431066E+01  0.34455630602E+02  0.36820897105E+02  0.00000000000E+00 0. -1.
         11    1    4    4    0    0  0.86136071575E+01 -0.78767245714E+01 -0.10868445004E+02  0.15948671271E+02  0.51100000000E-03 0. -1.
        -11    1    4    4    0    0 -0.53961087845E+01  0.53862994263E+01 -0.20820792810E+02  0.22172857845E+02  0.51100000000E-03 0.  1.
        -12    1    4    4    0    0 -0.16006393703E+02  0.24718203844E+00 -0.27663927876E+01  0.16245573779E+02  0.00000000000E+00 0.  1.
</event>
<event>
 8    1  0.2466538E-006  0.9118800E+02  0.7816164E-02  0.1184000E+00
        -11   -1    0    0    0    0  0.00000000000E+00  0.00000000000E+00  0.45593999997E+02  0.45594000000E+02  0.51100000000E-03 0. -1.
         11   -1    0    0    0    0 -0.00000000000E+00 -0.00000000000E+00 -0.45593999997E+02  0.45594000000E+02  0.51100000000E-03 0.  1.
         23    2    1    2    0    0  0.00000000000E+00 -0.17763568394E-14 -0.35527136788E-14  0.91188000000E+02  0.91188000000E+02 0.  0.
    9900012    2    3    3    0    0  0.31252798670E+02  0.85417474657E+01 -0.17495212487E+02  0.54367063911E+02  0.39999953798E+02 0.  0.
        -12    1    3    3    0    0 -0.31252798670E+02 -0.85417474657E+01  0.17495212487E+02  0.36820936089E+02  0.00000000000E+00 0.  1.
         11    1    4    4    0    0 -0.32037336374E+01 -0.32013947427E+01 -0.20676110206E+01  0.49787401129E+01  0.51100000000E-03 0. -1.
        -11    1    4    4    0    0  0.55128172603E+01  0.16517165443E+02 -0.37339167643E+01  0.17808706946E+02  0.51100000000E-03 0.  1.
        -12    1    4    4    0    0  0.28943715047E+02 -0.47740232350E+01 -0.11693684703E+02  0.31579616852E+02  0.00000000000E+00 0.  1.
</event>
<event>
 8    1  0.2466538E-006  0.9118800E+02  0.7816164E-02  0.1184000E+00
        -11   -1    0    0    0    0  0.00000000000E+00  0.00000000000E+00  0.45593999997E+02  0.45594000000E+02  0.51100000000E-03 0.  1.
         11   -1    0    0    0    0 -0.00000000000E+00 -0.00000000000E+00 -0.45593999997E+02  0.45594000000E+02  0.51100000000E-03 0. -1.
         23    2    1    2    0    0  0.71054273576E-14  0.00000000000E+00  0.88817841970E-15  0.91188000000E+02  0.91188000000E+02 0.  0.
    9900012    2    3    3    0    0  0.36692679935E+02 -0.13012109483E+01  0.27808000210E+01  0.54367098878E+02  0.40000033511E+02 0.  0.
        -12    1    3    3    0    0 -0.36692679935E+02  0.13012109483E+01 -0.27808000210E+01  0.36820901122E+02  0.00000000000E+00 0.  1.
         11    1    4    4    0    0  0.28240590181E+02  0.84728352132E+00 -0.58140452312E+01  0.28845310630E+02  0.51100000000E-03 0. -1.
        -11    1    4    4    0    0 -0.28207650486E+01  0.26860470834E+01 -0.55620753990E+01  0.67903053980E+01  0.51100000000E-03 0.  1.
        -12    1    4    4    0    0  0.11272854802E+02 -0.48345415530E+01  0.14156920651E+02  0.18731482850E+02  0.00000000000E+00 0.  1.
</event>
<event>
 8    1  0.2466538E-006  0.9118800E+02  0.7816164E-02  0.1184000E+00
        -11   -1    0    0    0    0  0.00000000000E+00  0.00000000000E+00  0.45593999997E+02  0.45594000000E+02  0.51100000000E-03 0.  1.
         11   -1    0    0    0    0 -0.00000000000E+00 -0.00000000000E+00 -0.45593999997E+02  0.45594000000E+02  0.51100000000E-03 0. -1.
         23    2    1    2    0    0  0.00000000000E+00  0.00000000000E+00  0.17763568394E-14  0.91188000000E+02  0.91188000000E+02 0.  0.
    9900012    2    3    3    0    0 -0.14125799734E+02  0.32614563688E+02 -0.96193674647E+01  0.54367079138E+02  0.39999988511E+02 0.  0.
        -12    1    3    3    0    0  0.14125799734E+02 -0.32614563688E+02  0.96193674647E+01  0.36820920862E+02  0.00000000000E+00 0.  1.
         11    1    4    4    0    0 -0.16152432412E+02  0.19871385224E+02 -0.13810455702E+01  0.25645278526E+02  0.51100000000E-03 0. -1.
        -11    1    4    4    0    0 -0.84830536551E+01  0.93888485276E+01  0.29674269417E+01  0.12996857270E+02  0.51100000000E-03 0.  1.
         12    1    4    4    0    0  0.10509686333E+02  0.33543299368E+01 -0.11205748836E+02  0.15724943342E+02  0.00000000000E+00 0. -1.
</event>
<event>
 8    1  0.2466538E-006  0.9118800E+02  0.7816164E-02  0.1184000E+00
        -11   -1    0    0    0    0  0.00000000000E+00  0.00000000000E+00  0.45593999997E+02  0.45594000000E+02  0.51100000000E-03 0. -1.
         11   -1    0    0    0    0 -0.00000000000E+00 -0.00000000000E+00 -0.45593999997E+02  0.45594000000E+02  0.51100000000E-03 0.  1.
         23    2    1    2    0    0  0.00000000000E+00 -0.35527136788E-14  0.00000000000E+00  0.91188000000E+02  0.91188000000E+02 0.  0.
    9900012    2    3    3    0    0 -0.15144711823E+02  0.31109369396E+02  0.12594624945E+02  0.54367085591E+02  0.40000003221E+02 0.  0.
         12    1    3    3    0    0  0.15144711823E+02 -0.31109369396E+02 -0.12594624945E+02  0.36820914409E+02  0.00000000000E+00 0. -1.
         11    1    4    4    0    0  0.78949681836E+01  0.17857479468E+02  0.15004675461E+02  0.24624385911E+02  0.51100000000E-03 0. -1.
        -11    1    4    4    0    0 -0.15829260781E+02  0.92984064316E+01  0.46126630852E+01  0.18928880580E+02  0.51100000000E-03 0.  1.
        -12    1    4    4    0    0 -0.72104192259E+01  0.39534834967E+01 -0.70227136014E+01  0.10813819099E+02  0.00000000000E+00 0.  1.
</event>
<event>
 8    1  0.2466538E-006  0.9118800E+02  0.7816164E-02  0.1184000E+00
        -11   -1    0    0    0    0  0.00000000000E+00  0.00000000000E+00  0.45593999997E+02  0.45594000000E+02  0.51100000000E-03 0.  1.
         11   -1    0    0    0    0 -0.00000000000E+00 -0.00000000000E+00 -0.45593999997E+02  0.45594000000E+02  0.51100000000E-03 0. -1.
         23    2    1    2    0    0 -0.17763568394E-14  0.17763568394E-14  0.00000000000E+00  0.91188000000E+02  0.91188000000E+02 0.  0.
    9900012    2    3    3    0    0  0.82231393863E+01 -0.15241471855E+02  0.32493926545E+02  0.54367112612E+02  0.40000064822E+02 0.  0.
         12    1    3    3    0    0 -0.82231393863E+01  0.15241471855E+02 -0.32493926545E+02  0.36820887388E+02  0.00000000000E+00 0. -1.
         11    1    4    4    0    0 -0.14964729581E+02 -0.51897895576E+01  0.94310913817E+01  0.18434276009E+02  0.51100000000E-03 0. -1.
        -11    1    4    4    0    0  0.39672330911E+01 -0.56611893983E+01  0.10444154898E+02  0.12524710599E+02  0.51100000000E-03 0.  1.
        -12    1    4    4    0    0  0.19220635876E+02 -0.43904928993E+01  0.12618680266E+02  0.23408126004E+02  0.00000000000E+00 0.  1.
</event>
<event>
 8    1  0.2466538E-006  0.9118800E+02  0.7816164E-02  0.1184000E+00
        -11   -1    0    0    0    0  0.00000000000E+00  0.00000000000E+00  0.45593999997E+02  0.45594000000E+02  0.51100000000E-03 0.  1.
         11   -1    0    0    0    0 -0.00000000000E+00 -0.00000000000E+00 -0.45593999997E+02  0.45594000000E+02  0.51100000000E-03 0. -1.
         23    2    1    2    0    0  0.44408920985E-15  0.00000000000E+00  0.00000000000E+00  0.91188000000E+02  0.91188000000E+02 0.  0.
    9900012    2    3    3    0    0 -0.27596630387E+01  0.25277087524E+02 -0.26631436985E+02  0.54367077556E+02  0.39999984904E+02 0.  0.
        -12    1    3    3    0    0  0.27596630387E+01 -0.25277087524E+02  0.26631436985E+02  0.36820922444E+02  0.00000000000E+00 0.  1.
         11    1    4    4    0    0  0.44908432969E+01  0.17139325091E+02 -0.21915067355E+01  0.17852922453E+02  0.51100000000E-03 0. -1.
        -11    1    4    4    0    0 -0.14949877214E+02  0.95731255393E+01 -0.10782262057E+02  0.20770188651E+02  0.51100000000E-03 0.  1.
        -12    1    4    4    0    0  0.76993708782E+01 -0.14353631065E+01 -0.13657668192E+02  0.15743966451E+02  0.00000000000E+00 0.  1.
</event>
<event>
 8    1  0.2466538E-006  0.9118800E+02  0.7816164E-02  0.1184000E+00
        -11   -1    0    0    0    0  0.00000000000E+00  0.00000000000E+00  0.45593999997E+02  0.45594000000E+02  0.51100000000E-03 0. -1.
         11   -1    0    0    0    0 -0.00000000000E+00 -0.00000000000E+00 -0.45593999997E+02  0.45594000000E+02  0.51100000000E-03 0.  1.
         23    2    1    2    0    0  0.35527136788E-14  0.14210854715E-13  0.88817841970E-15  0.91188000000E+02  0.91188000000E+02 0.  0.
    9900012    2    3    3    0    0  0.15063499156E+02  0.33050893531E+02  0.60420037601E+01  0.54367131197E+02  0.40000107189E+02 0.  0.
         12    1    3    3    0    0 -0.15063499156E+02 -0.33050893531E+02 -0.60420037601E+01  0.36820868803E+02  0.00000000000E+00 0. -1.
         11    1    4    4    0    0 -0.10957150493E+01 -0.28441628900E+01  0.21487834050E+01  0.37292257101E+01  0.51100000000E-03 0. -1.
        -11    1    4    4    0    0  0.22937364567E+02  0.16120443579E+02  0.83731716964E+01  0.29259210498E+02  0.51100000000E-03 0.  1.
         12    1    4    4    0    0 -0.67781503616E+01  0.19774612842E+02 -0.44799513413E+01  0.21378694988E+02  0.00000000000E+00 0. -1.
</event>
<event>
 8    1  0.2466538E-006  0.9118800E+02  0.7816164E-02  0.1184000E+00
        -11   -1    0    0    0    0  0.00000000000E+00  0.00000000000E+00  0.45593999997E+02  0.45594000000E+02  0.51100000000E-03 0. -1.
         11   -1    0    0    0    0 -0.00000000000E+00 -0.00000000000E+00 -0.45593999997E+02  0.45594000000E+02  0.51100000000E-03 0.  1.
         23    2    1    2    0    0 -0.35527136788E-14  0.00000000000E+00  0.00000000000E+00  0.91188000000E+02  0.91188000000E+02 0.  0.
    9900012    2    3    3    0    0  0.22920492056E+02  0.27558263818E+02 -0.84250405930E+01  0.54366971093E+02  0.39999742200E+02 0.  0.
        -12    1    3    3    0    0 -0.22920492056E+02 -0.27558263818E+02  0.84250405930E+01  0.36821028907E+02  0.00000000000E+00 0.  1.
         11    1    4    4    0    0  0.82735658864E+01  0.15929254499E+02 -0.25559625377E+01  0.18130802137E+02  0.51100000000E-03 0. -1.
        -11    1    4    4    0    0  0.18889031629E+02 -0.41050229598E+01 -0.16334567734E+01  0.19398837869E+02  0.51100000000E-03 0.  1.
        -12    1    4    4    0    0 -0.42421054592E+01  0.15734032279E+02 -0.42356212819E+01  0.16837331087E+02  0.00000000000E+00 0.  1.
</event>
<event>
 8    1  0.2466538E-006  0.9118800E+02  0.7816164E-02  0.1184000E+00
        -11   -1    0    0    0    0  0.00000000000E+00  0.00000000000E+00  0.45593999997E+02  0.45594000000E+02  0.51100000000E-03 0.  1.
         11   -1    0    0    0    0 -0.00000000000E+00 -0.00000000000E+00 -0.45593999997E+02  0.45594000000E+02  0.51100000000E-03 0. -1.
         23    2    1    2    0    0  0.35527136788E-14  0.44408920985E-14  0.71054273576E-14  0.91188000000E+02  0.91188000000E+02 0.  0.
    9900012    2    3    3    0    0  0.21107256559E+02  0.72082755918E+01  0.29296869953E+02  0.54367053441E+02  0.39999929930E+02 0.  0.
         12    1    3    3    0    0 -0.21107256559E+02 -0.72082755918E+01 -0.29296869953E+02  0.36820946559E+02  0.00000000000E+00 0. -1.
         11    1    4    4    0    0  0.21196170854E+01 -0.12178625050E+02 -0.47553251842E+00  0.12370845409E+02  0.51100000000E-03 0. -1.
        -11    1    4    4    0    0  0.28550250798E+01  0.48887260401E+01  0.67111257401E+00  0.57009826214E+01  0.51100000000E-03 0.  1.
         12    1    4    4    0    0  0.16132614394E+02  0.14498174601E+02  0.29101289897E+02  0.36295225411E+02  0.00000000000E+00 0. -1.
</event>
<event>
 8    1  0.2466538E-006  0.9118800E+02  0.7816164E-02  0.1184000E+00
        -11   -1    0    0    0    0  0.00000000000E+00  0.00000000000E+00  0.45593999997E+02  0.45594000000E+02  0.51100000000E-03 0.  1.
         11   -1    0    0    0    0 -0.00000000000E+00 -0.00000000000E+00 -0.45593999997E+02  0.45594000000E+02  0.51100000000E-03 0. -1.
         23    2    1    2    0    0  0.00000000000E+00  0.35527136788E-14 -0.88817841970E-15  0.91188000000E+02  0.91188000000E+02 0.  0.
    9900012    2    3    3    0    0 -0.20776683253E+02  0.30371939435E+02 -0.12852695813E+01  0.54367120190E+02  0.40000082098E+02 0.  0.
        -12    1    3    3    0    0  0.20776683253E+02 -0.30371939435E+02  0.12852695813E+01  0.36820879810E+02  0.00000000000E+00 0.  1.
         11    1    4    4    0    0 -0.51274196483E+01  0.24869411287E+02 -0.71161398404E+01  0.26370769736E+02  0.51100000000E-03 0. -1.
        -11    1    4    4    0    0 -0.52321564025E+00  0.20416368292E+00  0.11108434097E+02  0.11122623151E+02  0.51100000000E-03 0.  1.
        -12    1    4    4    0    0 -0.15126047964E+02  0.52983644660E+01 -0.52775638382E+01  0.16873727303E+02  0.00000000000E+00 0.  1.
</event>
<event>
 8    1  0.2466538E-006  0.9118800E+02  0.7816164E-02  0.1184000E+00
        -11   -1    0    0    0    0  0.00000000000E+00  0.00000000000E+00  0.45593999997E+02  0.45594000000E+02  0.51100000000E-03 0. -1.
         11   -1    0    0    0    0 -0.00000000000E+00 -0.00000000000E+00 -0.45593999997E+02  0.45594000000E+02  0.51100000000E-03 0.  1.
         23    2    1    2    0    0 -0.35527136788E-14  0.00000000000E+00  0.00000000000E+00  0.91188000000E+02  0.91188000000E+02 0.  0.
    9900012    2    3    3    0    0 -0.26992156380E+02 -0.12568250080E+02 -0.21662068926E+02  0.54367046098E+02  0.39999913189E+02 0.  0.
         12    1    3    3    0    0  0.26992156380E+02  0.12568250080E+02  0.21662068926E+02  0.36820953902E+02  0.00000000000E+00 0. -1.
         11    1    4    4    0    0 -0.15480993664E+02 -0.15224063581E+02 -0.12428510103E+02  0.25018016316E+02  0.51100000000E-03 0. -1.
        -11    1    4    4    0    0 -0.16819406051E+02 -0.19970039534E+01  0.94327637591E+00  0.16963791300E+02  0.51100000000E-03 0.  1.
         12    1    4    4    0    0  0.53082433355E+01  0.46528174546E+01 -0.10176835199E+02  0.12385238481E+02  0.00000000000E+00 0. -1.
</event>
<event>
 8    1  0.2466538E-006  0.9118800E+02  0.7816164E-02  0.1184000E+00
        -11   -1    0    0    0    0  0.00000000000E+00  0.00000000000E+00  0.45593999997E+02  0.45594000000E+02  0.51100000000E-03 0.  1.
         11   -1    0    0    0    0 -0.00000000000E+00 -0.00000000000E+00 -0.45593999997E+02  0.45594000000E+02  0.51100000000E-03 0. -1.
         23    2    1    2    0    0  0.00000000000E+00  0.00000000000E+00  0.00000000000E+00  0.91188000000E+02  0.91188000000E+02 0.  0.
    9900012    2    3    3    0    0  0.31387050138E+01 -0.67289012416E+01 -0.36064524241E+02  0.54367088960E+02  0.40000010902E+02 0.  0.
        -12    1    3    3    0    0 -0.31387050138E+01  0.67289012416E+01  0.36064524241E+02  0.36820911040E+02  0.00000000000E+00 0.  1.
         11    1    4    4    0    0  0.97749096635E+01 -0.33670184887E+01  0.40279314503E+00  0.10346396233E+02  0.51100000000E-03 0. -1.
        -11    1    4    4    0    0 -0.13537706482E+02  0.42876971162E+01 -0.18676563761E+02  0.23462051861E+02  0.51100000000E-03 0.  1.
         12    1    4    4    0    0  0.69015018320E+01 -0.76495798691E+01 -0.17790753625E+02  0.20558640866E+02  0.00000000000E+00 0. -1.
</event>
<event>
 8    1  0.2466538E-006  0.9118800E+02  0.7816164E-02  0.1184000E+00
        -11   -1    0    0    0    0  0.00000000000E+00  0.00000000000E+00  0.45593999997E+02  0.45594000000E+02  0.51100000000E-03 0.  1.
         11   -1    0    0    0    0 -0.00000000000E+00 -0.00000000000E+00 -0.45593999997E+02  0.45594000000E+02  0.51100000000E-03 0. -1.
         23    2    1    2    0    0  0.13322676296E-14  0.35527136788E-14  0.00000000000E+00  0.91188000000E+02  0.91188000000E+02 0.  0.
    9900012    2    3    3    0    0 -0.31670186600E+01 -0.31522692897E+02  0.18763549544E+02  0.54367068912E+02  0.39999965199E+02 0.  0.
         12    1    3    3    0    0  0.31670186600E+01  0.31522692897E+02 -0.18763549544E+02  0.36820931088E+02  0.00000000000E+00 0. -1.
         11    1    4    4    0    0 -0.34609154438E+01  0.16261081342E+01 -0.81923144039E+00  0.39106653893E+01  0.51100000000E-03 0. -1.
        -11    1    4    4    0    0  0.83501173890E+01 -0.13782564280E+02  0.24108787180E+02  0.28998571656E+02  0.51100000000E-03 0.  1.
         12    1    4    4    0    0 -0.80562206053E+01 -0.19366236751E+02 -0.45260061957E+01  0.21457831867E+02  0.00000000000E+00 0. -1.
</event>
<event>
 8    1  0.2466538E-006  0.9118800E+02  0.7816164E-02  0.1184000E+00
        -11   -1    0    0    0    0  0.00000000000E+00  0.00000000000E+00  0.45593999997E+02  0.45594000000E+02  0.51100000000E-03 0. -1.
         11   -1    0    0    0    0 -0.00000000000E+00 -0.00000000000E+00 -0.45593999997E+02  0.45594000000E+02  0.51100000000E-03 0.  1.
         23    2    1    2    0    0  0.00000000000E+00 -0.35527136788E-14  0.17763568394E-14  0.91188000000E+02  0.91188000000E+02 0.  0.
    9900012    2    3    3    0    0 -0.33938010077E+02 -0.11273192812E+02 -0.87696096240E+01  0.54367089404E+02  0.40000011914E+02 0.  0.
         12    1    3    3    0    0  0.33938010077E+02  0.11273192812E+02  0.87696096240E+01  0.36820910596E+02  0.00000000000E+00 0. -1.
         11    1    4    4    0    0 -0.18580820853E+02 -0.14284086916E+02 -0.21078547693E+01  0.23531364062E+02  0.51100000000E-03 0. -1.
        -11    1    4    4    0    0  0.38139578727E+01  0.64276473561E+01  0.41639065206E+01  0.85556439245E+01  0.51100000000E-03 0.  1.
        -12    1    4    4    0    0 -0.19171147096E+02 -0.34167532521E+01 -0.10825661375E+02  0.22280081418E+02  0.00000000000E+00 0.  1.
</event>
<event>
 8    1  0.2466538E-006  0.9118800E+02  0.7816164E-02  0.1184000E+00
        -11   -1    0    0    0    0  0.00000000000E+00  0.00000000000E+00  0.45593999997E+02  0.45594000000E+02  0.51100000000E-03 0.  1.
         11   -1    0    0    0    0 -0.00000000000E+00 -0.00000000000E+00 -0.45593999997E+02  0.45594000000E+02  0.51100000000E-03 0. -1.
         23    2    1    2    0    0  0.00000000000E+00 -0.53290705182E-14 -0.35527136788E-14  0.91188000000E+02  0.91188000000E+02 0.  0.
    9900012    2    3    3    0    0  0.21476451251E+02  0.13076462022E+02  0.26898824929E+02  0.54367101044E+02  0.40000038450E+02 0.  0.
         12    1    3    3    0    0 -0.21476451251E+02 -0.13076462022E+02 -0.26898824929E+02  0.36820898956E+02  0.00000000000E+00 0. -1.
         11    1    4    4    0    0 -0.31639155044E+00 -0.60361675795E+01  0.42841146497E+01  0.74087152229E+01  0.51100000000E-03 0. -1.
        -11    1    4    4    0    0  0.10694774301E+02 -0.68057729927E+01  0.45270802809E+01  0.13460728045E+02  0.51100000000E-03 0.  1.
         12    1    4    4    0    0  0.11098068500E+02  0.25918402595E+02  0.18087629999E+02  0.33497657776E+02  0.00000000000E+00 0. -1.
</event>
<event>
 8    1  0.2466538E-006  0.9118800E+02  0.7816164E-02  0.1184000E+00
        -11   -1    0    0    0    0  0.00000000000E+00  0.00000000000E+00  0.45593999997E+02  0.45594000000E+02  0.51100000000E-03 0. -1.
         11   -1    0    0    0    0 -0.00000000000E+00 -0.00000000000E+00 -0.45593999997E+02  0.45594000000E+02  0.51100000000E-03 0.  1.
         23    2    1    2    0    0  0.00000000000E+00  0.35527136788E-14 -0.35527136788E-14  0.91188000000E+02  0.91188000000E+02 0.  0.
    9900012    2    3    3    0    0 -0.21848164416E+02 -0.19036707133E+02 -0.22716521176E+02  0.54367097768E+02  0.40000030981E+02 0.  0.
         12    1    3    3    0    0  0.21848164416E+02  0.19036707133E+02  0.22716521176E+02  0.36820902232E+02  0.00000000000E+00 0. -1.
         11    1    4    4    0    0  0.52182296347E+01 -0.82234539750E+01  0.16190180085E+01  0.98730104514E+01  0.51100000000E-03 0. -1.
        -11    1    4    4    0    0 -0.20697785000E+02 -0.12370317790E+01 -0.25577964693E+02  0.32926597602E+02  0.51100000000E-03 0.  1.
        -12    1    4    4    0    0 -0.63686090513E+01 -0.95762213794E+01  0.12424255083E+01  0.11567489715E+02  0.00000000000E+00 0.  1.
</event>
<event>
 8    1  0.2466538E-006  0.9118800E+02  0.7816164E-02  0.1184000E+00
        -11   -1    0    0    0    0  0.00000000000E+00  0.00000000000E+00  0.45593999997E+02  0.45594000000E+02  0.51100000000E-03 0.  1.
         11   -1    0    0    0    0 -0.00000000000E+00 -0.00000000000E+00 -0.45593999997E+02  0.45594000000E+02  0.51100000000E-03 0. -1.
         23    2    1    2    0    0  0.00000000000E+00  0.00000000000E+00  0.00000000000E+00  0.91188000000E+02  0.91188000000E+02 0.  0.
    9900012    2    3    3    0    0  0.33899689849E+02 -0.99768052957E+01  0.10346728089E+02  0.54367076628E+02  0.39999982790E+02 0.  0.
        -12    1    3    3    0    0 -0.33899689849E+02  0.99768052957E+01 -0.10346728089E+02  0.36820923372E+02  0.00000000000E+00 0.  1.
         11    1    4    4    0    0 -0.82751926087E+00  0.39159210504E+01 -0.81136241078E+01  0.90471057374E+01  0.51100000000E-03 0. -1.
        -11    1    4    4    0    0  0.17416457466E+02 -0.15877993043E+02  0.13686177050E+02  0.27253533647E+02  0.51100000000E-03 0.  1.
        -12    1    4    4    0    0  0.17310751645E+02  0.19852666973E+01  0.47741751470E+01  0.18066437244E+02  0.00000000000E+00 0.  1.
</event>
<event>
 8    1  0.2466538E-006  0.9118800E+02  0.7816164E-02  0.1184000E+00
        -11   -1    0    0    0    0  0.00000000000E+00  0.00000000000E+00  0.45593999997E+02  0.45594000000E+02  0.51100000000E-03 0. -1.
         11   -1    0    0    0    0 -0.00000000000E+00 -0.00000000000E+00 -0.45593999997E+02  0.45594000000E+02  0.51100000000E-03 0.  1.
         23    2    1    2    0    0  0.00000000000E+00  0.00000000000E+00  0.00000000000E+00  0.91188000000E+02  0.91188000000E+02 0.  0.
    9900012    2    3    3    0    0  0.24556963712E+02  0.21633151607E+02 -0.16874333481E+02  0.54367070549E+02  0.39999968930E+02 0.  0.
         12    1    3    3    0    0 -0.24556963712E+02 -0.21633151607E+02  0.16874333481E+02  0.36820929451E+02  0.00000000000E+00 0. -1.
         11    1    4    4    0    0  0.95010767810E+01  0.10897845283E+02  0.95690208504E+00  0.14489622275E+02  0.51100000000E-03 0. -1.
        -11    1    4    4    0    0  0.19103153333E+02  0.11897175484E+02 -0.99964308306E+00  0.22527151136E+02  0.51100000000E-03 0.  1.
        -12    1    4    4    0    0 -0.40472664016E+01 -0.11618691595E+01 -0.16831592483E+02  0.17350297138E+02  0.00000000000E+00 0.  1.
</event>
<event>
 8    1  0.2466538E-006  0.9118800E+02  0.7816164E-02  0.1184000E+00
        -11   -1    0    0    0    0  0.00000000000E+00  0.00000000000E+00  0.45593999997E+02  0.45594000000E+02  0.51100000000E-03 0.  1.
         11   -1    0    0    0    0 -0.00000000000E+00 -0.00000000000E+00 -0.45593999997E+02  0.45594000000E+02  0.51100000000E-03 0. -1.
         23    2    1    2    0    0  0.35527136788E-14 -0.17763568394E-14  0.00000000000E+00  0.91188000000E+02  0.91188000000E+02 0.  0.
    9900012    2    3    3    0    0  0.47528496865E+01 -0.14829902239E+02  0.33365611511E+02  0.54367087300E+02  0.40000007118E+02 0.  0.
         12    1    3    3    0    0 -0.47528496865E+01  0.14829902239E+02 -0.33365611511E+02  0.36820912700E+02  0.00000000000E+00 0. -1.
         11    1    4    4    0    0 -0.98815180852E+01 -0.18500577667E+01  0.28041573138E+02  0.29789208410E+02  0.51100000000E-03 0. -1.
        -11    1    4    4    0    0  0.25454111463E+01 -0.32935362167E+01 -0.45820390457E+01  0.61904426976E+01  0.51100000000E-03 0.  1.
         12    1    4    4    0    0  0.12088956625E+02 -0.96863082553E+01  0.99060774188E+01  0.18387436193E+02  0.00000000000E+00 0. -1.
</event>
<event>
 8    1  0.2466538E-006  0.9118800E+02  0.7816164E-02  0.1184000E+00
        -11   -1    0    0    0    0  0.00000000000E+00  0.00000000000E+00  0.45593999997E+02  0.45594000000E+02  0.51100000000E-03 0.  1.
         11   -1    0    0    0    0 -0.00000000000E+00 -0.00000000000E+00 -0.45593999997E+02  0.45594000000E+02  0.51100000000E-03 0. -1.
         23    2    1    2    0    0  0.00000000000E+00  0.00000000000E+00  0.17763568394E-14  0.91188000000E+02  0.91188000000E+02 0.  0.
    9900012    2    3    3    0    0  0.28137209252E+02  0.18944221201E+02 -0.14324597809E+02  0.54367079808E+02  0.39999990039E+02 0.  0.
        -12    1    3    3    0    0 -0.28137209252E+02 -0.18944221201E+02  0.14324597809E+02  0.36820920192E+02  0.00000000000E+00 0.  1.
         11    1    4    4    0    0  0.17013100567E+02 -0.35744183459E+01 -0.18821132029E+02  0.25621418160E+02  0.51100000000E-03 0. -1.
        -11    1    4    4    0    0  0.89493621514E+01  0.80614516421E+01 -0.28593425741E+01  0.12379576960E+02  0.51100000000E-03 0.  1.
        -12    1    4    4    0    0  0.21747465338E+01  0.14457187905E+02  0.73558767945E+01  0.16366084688E+02  0.00000000000E+00 0.  1.
</event>
<event>
 8    1  0.2466538E-006  0.9118800E+02  0.7816164E-02  0.1184000E+00
        -11   -1    0    0    0    0  0.00000000000E+00  0.00000000000E+00  0.45593999997E+02  0.45594000000E+02  0.51100000000E-03 0. -1.
         11   -1    0    0    0    0 -0.00000000000E+00 -0.00000000000E+00 -0.45593999997E+02  0.45594000000E+02  0.51100000000E-03 0.  1.
         23    2    1    2    0    0  0.35527136788E-14  0.35527136788E-14  0.00000000000E+00  0.91188000000E+02  0.91188000000E+02 0.  0.
    9900012    2    3    3    0    0  0.26099966461E+02 -0.24061189747E+02  0.97790055649E+01  0.54367108496E+02  0.40000055438E+02 0.  0.
        -12    1    3    3    0    0 -0.26099966461E+02  0.24061189747E+02 -0.97790055649E+01  0.36820891504E+02  0.00000000000E+00 0.  1.
         11    1    4    4    0    0 -0.18145404898E+01  0.38259200976E+01 -0.13606711836E+01  0.44476564743E+01  0.51100000000E-03 0. -1.
        -11    1    4    4    0    0  0.19755371416E+02 -0.24003538474E+01 -0.21930952794E+01  0.20021140466E+02  0.51100000000E-03 0.  1.
         12    1    4    4    0    0  0.81591355343E+01 -0.25486755997E+02  0.13332772028E+02  0.29898311556E+02  0.00000000000E+00 0. -1.
</event>
<event>
 8    1  0.2466538E-006  0.9118800E+02  0.7816164E-02  0.1184000E+00
        -11   -1    0    0    0    0  0.00000000000E+00  0.00000000000E+00  0.45593999997E+02  0.45594000000E+02  0.51100000000E-03 0.  1.
         11   -1    0    0    0    0 -0.00000000000E+00 -0.00000000000E+00 -0.45593999997E+02  0.45594000000E+02  0.51100000000E-03 0. -1.
         23    2    1    2    0    0  0.35527136788E-14 -0.53290705182E-14  0.00000000000E+00  0.91188000000E+02  0.91188000000E+02 0.  0.
    9900012    2    3    3    0    0  0.23952511722E+02 -0.14522970712E+02  0.23898612688E+02  0.54367038789E+02  0.39999896528E+02 0.  0.
         12    1    3    3    0    0 -0.23952511722E+02  0.14522970712E+02 -0.23898612688E+02  0.36820961211E+02  0.00000000000E+00 0. -1.
         11    1    4    4    0    0 -0.68331801577E+01  0.53937631301E+01  0.27070842384E+01  0.91166516390E+01  0.51100000000E-03 0. -1.
        -11    1    4    4    0    0  0.18401430464E+02 -0.29293491132E+01  0.12845599705E+02  0.22631905827E+02  0.51100000000E-03 0.  1.
         12    1    4    4    0    0  0.12384261416E+02 -0.16987384729E+02  0.83459287445E+01  0.22618481323E+02  0.00000000000E+00 0. -1.
</event>
<event>
 8    1  0.2466538E-006  0.9118800E+02  0.7816164E-02  0.1184000E+00
        -11   -1    0    0    0    0  0.00000000000E+00  0.00000000000E+00  0.45593999997E+02  0.45594000000E+02  0.51100000000E-03 0. -1.
         11   -1    0    0    0    0 -0.00000000000E+00 -0.00000000000E+00 -0.45593999997E+02  0.45594000000E+02  0.51100000000E-03 0.  1.
         23    2    1    2    0    0  0.00000000000E+00  0.71054273576E-14  0.44408920985E-15  0.91188000000E+02  0.91188000000E+02 0.  0.
    9900012    2    3    3    0    0 -0.89840770610E+01  0.35647180727E+02  0.20844600980E+01  0.54367080561E+02  0.39999991754E+02 0.  0.
        -12    1    3    3    0    0  0.89840770610E+01 -0.35647180727E+02 -0.20844600980E+01  0.36820919439E+02  0.00000000000E+00 0.  1.
         11    1    4    4    0    0 -0.12644888886E+02  0.29182920860E+02  0.83603675326E+00  0.31815641476E+02  0.51100000000E-03 0. -1.
        -11    1    4    4    0    0 -0.20718916564E+01  0.13054106993E+02  0.32050703087E+01  0.13600548532E+02  0.51100000000E-03 0.  1.
        -12    1    4    4    0    0  0.57327034811E+01 -0.65898471255E+01 -0.19566469639E+01  0.89508905524E+01  0.00000000000E+00 0.  1.
</event>
<event>
 8    1  0.2466538E-006  0.9118800E+02  0.7816164E-02  0.1184000E+00
        -11   -1    0    0    0    0  0.00000000000E+00  0.00000000000E+00  0.45593999997E+02  0.45594000000E+02  0.51100000000E-03 0.  1.
         11   -1    0    0    0    0 -0.00000000000E+00 -0.00000000000E+00 -0.45593999997E+02  0.45594000000E+02  0.51100000000E-03 0. -1.
         23    2    1    2    0    0  0.00000000000E+00  0.00000000000E+00  0.00000000000E+00  0.91188000000E+02  0.91188000000E+02 0.  0.
    9900012    2    3    3    0    0 -0.33057648026E+02  0.15744652673E+02  0.38826468762E+01  0.54367121037E+02  0.40000084029E+02 0.  0.
         12    1    3    3    0    0  0.33057648026E+02 -0.15744652673E+02 -0.38826468762E+01  0.36820878963E+02  0.00000000000E+00 0. -1.
         11    1    4    4    0    0 -0.28567942772E+02 -0.39928260345E+00  0.10177949774E+02  0.30329481412E+02  0.51100000000E-03 0.  1.
        -11    1    4    4    0    0 -0.76542780240E+01  0.50310003280E+01  0.25248342998E+01  0.95012485954E+01  0.51100000000E-03 0. -1.
         12    1    4    4    0    0  0.31645727701E+01  0.11112934948E+02 -0.88201371980E+01  0.14536391030E+02  0.00000000000E+00 0. -1.
</event>
<event>
 8    1  0.2466538E-006  0.9118800E+02  0.7816164E-02  0.1184000E+00
        -11   -1    0    0    0    0  0.00000000000E+00  0.00000000000E+00  0.45593999997E+02  0.45594000000E+02  0.51100000000E-03 0. -1.
         11   -1    0    0    0    0 -0.00000000000E+00 -0.00000000000E+00 -0.45593999997E+02  0.45594000000E+02  0.51100000000E-03 0.  1.
         23    2    1    2    0    0 -0.35527136788E-14  0.00000000000E+00  0.00000000000E+00  0.91188000000E+02  0.91188000000E+02 0.  0.
    9900012    2    3    3    0    0 -0.13288268292E+02  0.21495903521E+02 -0.26779267377E+02  0.54367067046E+02  0.39999960945E+02 0.  0.
         12    1    3    3    0    0  0.13288268292E+02 -0.21495903521E+02  0.26779267377E+02  0.36820932954E+02  0.00000000000E+00 0. -1.
         11    1    4    4    0    0 -0.10402631207E+02  0.28671243977E+02 -0.16125371052E+02  0.34500471867E+02  0.51100000000E-03 0.  1.
        -11    1    4    4    0    0  0.53453070256E+01 -0.11684166221E+01 -0.73329681851E+01  0.91493129395E+01  0.51100000000E-03 0. -1.
        -12    1    4    4    0    0 -0.82309441097E+01 -0.60069238346E+01 -0.33209281395E+01  0.10717282239E+02  0.00000000000E+00 0.  1.
</event>
<event>
 8    1  0.2466538E-006  0.9118800E+02  0.7816164E-02  0.1184000E+00
        -11   -1    0    0    0    0  0.00000000000E+00  0.00000000000E+00  0.45593999997E+02  0.45594000000E+02  0.51100000000E-03 0. -1.
         11   -1    0    0    0    0 -0.00000000000E+00 -0.00000000000E+00 -0.45593999997E+02  0.45594000000E+02  0.51100000000E-03 0.  1.
         23    2    1    2    0    0  0.35527136788E-14  0.00000000000E+00 -0.35527136788E-14  0.91188000000E+02  0.91188000000E+02 0.  0.
    9900012    2    3    3    0    0 -0.28417871568E+02  0.11429896084E+02  0.20434190348E+02  0.54367162365E+02  0.40000178244E+02 0.  0.
        -12    1    3    3    0    0  0.28417871568E+02 -0.11429896084E+02 -0.20434190348E+02  0.36820837635E+02  0.00000000000E+00 0.  1.
         11    1    4    4    0    0 -0.17914920022E+02 -0.45577196841E+01  0.68283747878E+01  0.19706442363E+02  0.51100000000E-03 0. -1.
        -11    1    4    4    0    0 -0.18614237578E+02  0.14103846721E+02  0.11688462961E+02  0.26115675361E+02  0.51100000000E-03 0.  1.
        -12    1    4    4    0    0  0.81112860320E+01  0.18837690471E+01  0.19173525995E+01  0.85450446404E+01  0.00000000000E+00 0.  1.
</event>
<event>
 8    1  0.2466538E-006  0.9118800E+02  0.7816164E-02  0.1184000E+00
        -11   -1    0    0    0    0  0.00000000000E+00  0.00000000000E+00  0.45593999997E+02  0.45594000000E+02  0.51100000000E-03 0.  1.
         11   -1    0    0    0    0 -0.00000000000E+00 -0.00000000000E+00 -0.45593999997E+02  0.45594000000E+02  0.51100000000E-03 0. -1.
         23    2    1    2    0    0  0.00000000000E+00  0.14210854715E-13 -0.44408920985E-15  0.91188000000E+02  0.91188000000E+02 0.  0.
    9900012    2    3    3    0    0  0.18056281858E+02 -0.32054481601E+02  0.15014851652E+01  0.54367169442E+02  0.40000194376E+02 0.  0.
        -12    1    3    3    0    0 -0.18056281858E+02  0.32054481601E+02 -0.15014851652E+01  0.36820830558E+02  0.00000000000E+00 0.  1.
         11    1    4    4    0    0  0.13720159620E+02 -0.87281133396E+01 -0.15006452100E+02  0.22127276094E+02  0.51100000000E-03 0. -1.
        -11    1    4    4    0    0  0.11698684619E+01  0.44462684969E+00 -0.17133669492E+01  0.21217709154E+01  0.51100000000E-03 0.  1.
        -12    1    4    4    0    0  0.31662537762E+01 -0.23770995112E+02  0.18221304214E+02  0.30118122432E+02  0.00000000000E+00 0.  1.
</event>
<event>
 8    1  0.2466538E-006  0.9118800E+02  0.7816164E-02  0.1184000E+00
        -11   -1    0    0    0    0  0.00000000000E+00  0.00000000000E+00  0.45593999997E+02  0.45594000000E+02  0.51100000000E-03 0.  1.
         11   -1    0    0    0    0 -0.00000000000E+00 -0.00000000000E+00 -0.45593999997E+02  0.45594000000E+02  0.51100000000E-03 0. -1.
         23    2    1    2    0    0 -0.88817841970E-15  0.00000000000E+00  0.00000000000E+00  0.91188000000E+02  0.91188000000E+02 0.  0.
    9900012    2    3    3    0    0 -0.61220066142E+01  0.35433580323E+02  0.79222039716E+01  0.54367097033E+02  0.40000029307E+02 0.  0.
         12    1    3    3    0    0  0.61220066142E+01 -0.35433580323E+02 -0.79222039716E+01  0.36820902967E+02  0.00000000000E+00 0. -1.
         11    1    4    4    0    0 -0.78308117122E+01  0.50061598015E+01 -0.39334326398E+01  0.10092330782E+02  0.51100000000E-03 0. -1.
        -11    1    4    4    0    0 -0.13365100347E+02  0.20500970174E+02  0.85665856378E+01  0.25928788540E+02  0.51100000000E-03 0.  1.
        -12    1    4    4    0    0  0.15073905445E+02  0.99264503474E+01  0.32890509735E+01  0.18345977711E+02  0.00000000000E+00 0.  1.
</event>
<event>
 8    1  0.2466538E-006  0.9118800E+02  0.7816164E-02  0.1184000E+00
        -11   -1    0    0    0    0  0.00000000000E+00  0.00000000000E+00  0.45593999997E+02  0.45594000000E+02  0.51100000000E-03 0. -1.
         11   -1    0    0    0    0 -0.00000000000E+00 -0.00000000000E+00 -0.45593999997E+02  0.45594000000E+02  0.51100000000E-03 0.  1.
         23    2    1    2    0    0  0.22204460493E-14  0.00000000000E+00  0.35527136788E-14  0.91188000000E+02  0.91188000000E+02 0.  0.
    9900012    2    3    3    0    0 -0.23032210890E+01 -0.18507992716E+02 -0.31747901972E+02  0.54367083371E+02  0.39999998162E+02 0.  0.
         12    1    3    3    0    0  0.23032210890E+01  0.18507992716E+02  0.31747901972E+02  0.36820916629E+02  0.00000000000E+00 0. -1.
         11    1    4    4    0    0  0.98405898168E+01 -0.10634384168E+02 -0.50103138728E+01  0.15330707092E+02  0.51100000000E-03 0. -1.
        -11    1    4    4    0    0 -0.53172860589E+01 -0.15868457766E+02 -0.10711970890E+02  0.19870274370E+02  0.51100000000E-03 0.  1.
         12    1    4    4    0    0 -0.68265248469E+01  0.79948492176E+01 -0.16025617209E+02  0.19166101910E+02  0.00000000000E+00 0. -1.
</event>
<event>
 8    1  0.2466538E-006  0.9118800E+02  0.7816164E-02  0.1184000E+00
        -11   -1    0    0    0    0  0.00000000000E+00  0.00000000000E+00  0.45593999997E+02  0.45594000000E+02  0.51100000000E-03 0.  1.
         11   -1    0    0    0    0 -0.00000000000E+00 -0.00000000000E+00 -0.45593999997E+02  0.45594000000E+02  0.51100000000E-03 0. -1.
         23    2    1    2    0    0 -0.35527136788E-14 -0.13322676296E-14 -0.71054273576E-14  0.91188000000E+02  0.91188000000E+02 0.  0.
    9900012    2    3    3    0    0 -0.10048290746E+02 -0.27332223685E+01 -0.35317711629E+02  0.54367090096E+02  0.40000013491E+02 0.  0.
        -12    1    3    3    0    0  0.10048290746E+02  0.27332223685E+01  0.35317711629E+02  0.36820909904E+02  0.00000000000E+00 0.  1.
         11    1    4    4    0    0  0.22925891525E+01  0.41456848279E+01 -0.17310849688E+02  0.17947372646E+02  0.51100000000E-03 0. -1.
        -11    1    4    4    0    0  0.90403937742E+01  0.45700029076E+00 -0.51188723370E+01  0.10399058761E+02  0.51100000000E-03 0.  1.
         12    1    4    4    0    0 -0.21381273673E+02 -0.73359074871E+01 -0.12887989604E+02  0.26020658688E+02  0.00000000000E+00 0. -1.
</event>
<event>
 8    1  0.2466538E-006  0.9118800E+02  0.7816164E-02  0.1184000E+00
        -11   -1    0    0    0    0  0.00000000000E+00  0.00000000000E+00  0.45593999997E+02  0.45594000000E+02  0.51100000000E-03 0.  1.
         11   -1    0    0    0    0 -0.00000000000E+00 -0.00000000000E+00 -0.45593999997E+02  0.45594000000E+02  0.51100000000E-03 0. -1.
         23    2    1    2    0    0 -0.35527136788E-14  0.00000000000E+00  0.35527136788E-14  0.91188000000E+02  0.91188000000E+02 0.  0.
    9900012    2    3    3    0    0 -0.17169312044E+02  0.17220255205E+02 -0.27648869101E+02  0.54367049062E+02  0.39999919948E+02 0.  0.
        -12    1    3    3    0    0  0.17169312044E+02 -0.17220255205E+02  0.27648869101E+02  0.36820950938E+02  0.00000000000E+00 0.  1.
         11    1    4    4    0    0  0.65332908197E+01  0.45313072675E+01 -0.55327000454E+01  0.96864546941E+01  0.51100000000E-03 0. -1.
        -11    1    4    4    0    0 -0.15767042353E+02  0.17663130819E+02 -0.36246311685E+01  0.23952531521E+02  0.51100000000E-03 0.  1.
         12    1    4    4    0    0 -0.79355605104E+01 -0.49741828821E+01 -0.18491537887E+02  0.20728062847E+02  0.00000000000E+00 0. -1.
</event>
<event>
 8    1  0.2466538E-006  0.9118800E+02  0.7816164E-02  0.1184000E+00
        -11   -1    0    0    0    0  0.00000000000E+00  0.00000000000E+00  0.45593999997E+02  0.45594000000E+02  0.51100000000E-03 0. -1.
         11   -1    0    0    0    0 -0.00000000000E+00 -0.00000000000E+00 -0.45593999997E+02  0.45594000000E+02  0.51100000000E-03 0.  1.
         23    2    1    2    0    0  0.00000000000E+00  0.00000000000E+00  0.00000000000E+00  0.91188000000E+02  0.91188000000E+02 0.  0.
    9900012    2    3    3    0    0  0.32761308371E+02 -0.35162247685E+01  0.16435120222E+02  0.54367077422E+02  0.39999984599E+02 0.  0.
        -12    1    3    3    0    0 -0.32761308371E+02  0.35162247685E+01 -0.16435120222E+02  0.36820922578E+02  0.00000000000E+00 0.  1.
         11    1    4    4    0    0  0.36849478873E+01  0.24796583348E+01  0.57058483316E+01  0.72307850081E+01  0.51100000000E-03 0. -1.
        -11    1    4    4    0    0  0.43246418176E+01 -0.11178662687E+02  0.17264186063E+02  0.21017067992E+02  0.51100000000E-03 0.  1.
        -12    1    4    4    0    0  0.24751718666E+02  0.51827795842E+01 -0.65349141722E+01  0.26119224421E+02  0.00000000000E+00 0.  1.
</event>
<event>
 8    1  0.2466538E-006  0.9118800E+02  0.7816164E-02  0.1184000E+00
        -11   -1    0    0    0    0  0.00000000000E+00  0.00000000000E+00  0.45593999997E+02  0.45594000000E+02  0.51100000000E-03 0.  1.
         11   -1    0    0    0    0 -0.00000000000E+00 -0.00000000000E+00 -0.45593999997E+02  0.45594000000E+02  0.51100000000E-03 0. -1.
         23    2    1    2    0    0  0.00000000000E+00  0.00000000000E+00  0.00000000000E+00  0.91188000000E+02  0.91188000000E+02 0.  0.
    9900012    2    3    3    0    0 -0.51983805702E+01  0.25205302749E+02  0.26333437467E+02  0.54367076925E+02  0.39999983467E+02 0.  0.
         12    1    3    3    0    0  0.51983805702E+01 -0.25205302749E+02 -0.26333437467E+02  0.36820923075E+02  0.00000000000E+00 0. -1.
         11    1    4    4    0    0 -0.55670957885E+01  0.15672535732E+02  0.17510295795E+02  0.24150184075E+02  0.51100000000E-03 0. -1.
        -11    1    4    4    0    0  0.29656850134E+01  0.16451795949E+02  0.13485940018E+02  0.21478534773E+02  0.51100000000E-03 0.  1.
         12    1    4    4    0    0 -0.25969697950E+01 -0.69190289321E+01 -0.46627983454E+01  0.87383580774E+01  0.00000000000E+00 0. -1.
</event>
<event>
 8    1  0.2466538E-006  0.9118800E+02  0.7816164E-02  0.1184000E+00
        -11   -1    0    0    0    0  0.00000000000E+00  0.00000000000E+00  0.45593999997E+02  0.45594000000E+02  0.51100000000E-03 0.  1.
         11   -1    0    0    0    0 -0.00000000000E+00 -0.00000000000E+00 -0.45593999997E+02  0.45594000000E+02  0.51100000000E-03 0. -1.
         23    2    1    2    0    0 -0.44408920985E-15  0.00000000000E+00  0.00000000000E+00  0.91188000000E+02  0.91188000000E+02 0.  0.
    9900012    2    3    3    0    0  0.28695765303E+01 -0.30408950315E+02 -0.20563079574E+02  0.54367096015E+02  0.40000026985E+02 0.  0.
        -12    1    3    3    0    0 -0.28695765303E+01  0.30408950315E+02  0.20563079574E+02  0.36820903985E+02  0.00000000000E+00 0.  1.
         11    1    4    4    0    0  0.30733197825E-01  0.58581813181E+00 -0.13303386332E+02  0.13316313889E+02  0.51100000000E-03 0. -1.
        -11    1    4    4    0    0 -0.25561560254E+01 -0.36277670202E+01 -0.11966358544E+02  0.12762772592E+02  0.51100000000E-03 0.  1.
        -12    1    4    4    0    0  0.53949993579E+01 -0.27367001426E+02  0.47066653018E+01  0.28288009534E+02  0.00000000000E+00 0.  1.
</event>
<event>
 8    1  0.2466538E-006  0.9118800E+02  0.7816164E-02  0.1184000E+00
        -11   -1    0    0    0    0  0.00000000000E+00  0.00000000000E+00  0.45593999997E+02  0.45594000000E+02  0.51100000000E-03 0. -1.
         11   -1    0    0    0    0 -0.00000000000E+00 -0.00000000000E+00 -0.45593999997E+02  0.45594000000E+02  0.51100000000E-03 0.  1.
         23    2    1    2    0    0 -0.35527136788E-14  0.00000000000E+00  0.17763568394E-14  0.91188000000E+02  0.91188000000E+02 0.  0.
    9900012    2    3    3    0    0  0.24970705217E+02  0.26014178878E+02  0.74502410187E+01  0.54367085929E+02  0.40000003993E+02 0.  0.
        -12    1    3    3    0    0 -0.24970705217E+02 -0.26014178878E+02 -0.74502410187E+01  0.36820914071E+02  0.00000000000E+00 0.  1.
         11    1    4    4    0    0  0.86221001943E+01  0.44505137784E+01  0.11651317560E+02  0.15162482837E+02  0.51100000000E-03 0. -1.
        -11    1    4    4    0    0 -0.35732675018E+01  0.18315568555E+02 -0.36357853144E+01  0.19011765495E+02  0.51100000000E-03 0.  1.
        -12    1    4    4    0    0  0.19921872525E+02  0.32480965450E+01 -0.56529122653E+00  0.20192837597E+02  0.00000000000E+00 0.  1.
</event>
<event>
 8    1  0.2466538E-006  0.9118800E+02  0.7816164E-02  0.1184000E+00
        -11   -1    0    0    0    0  0.00000000000E+00  0.00000000000E+00  0.45593999997E+02  0.45594000000E+02  0.51100000000E-03 0. -1.
         11   -1    0    0    0    0 -0.00000000000E+00 -0.00000000000E+00 -0.45593999997E+02  0.45594000000E+02  0.51100000000E-03 0.  1.
         23    2    1    2    0    0  0.26645352591E-14  0.35527136788E-14  0.00000000000E+00  0.91188000000E+02  0.91188000000E+02 0.  0.
    9900012    2    3    3    0    0 -0.76310957127E+01 -0.21654915516E+02 -0.28785618207E+02  0.54367071123E+02  0.39999970240E+02 0.  0.
         12    1    3    3    0    0  0.76310957127E+01  0.21654915516E+02  0.28785618207E+02  0.36820928877E+02  0.00000000000E+00 0. -1.
         11    1    4    4    0    0 -0.10472138830E+02 -0.16002473335E+02 -0.61072773856E+00  0.19134205840E+02  0.51100000000E-03 0.  1.
        -11    1    4    4    0    0  0.80497762054E+01 -0.10325568862E+02 -0.12657955426E+02  0.18210988581E+02  0.51100000000E-03 0. -1.
        -12    1    4    4    0    0 -0.52087330880E+01  0.46731266803E+01 -0.15516935042E+02  0.17021876702E+02  0.00000000000E+00 0.  1.
</event>
<event>
 8    1  0.2466538E-006  0.9118800E+02  0.7816164E-02  0.1184000E+00
        -11   -1    0    0    0    0  0.00000000000E+00  0.00000000000E+00  0.45593999997E+02  0.45594000000E+02  0.51100000000E-03 0.  1.
         11   -1    0    0    0    0 -0.00000000000E+00 -0.00000000000E+00 -0.45593999997E+02  0.45594000000E+02  0.51100000000E-03 0. -1.
         23    2    1    2    0    0  0.35527136788E-14  0.00000000000E+00  0.00000000000E+00  0.91188000000E+02  0.91188000000E+02 0.  0.
    9900012    2    3    3    0    0  0.29025292893E+02 -0.11574217843E+02 -0.19476928346E+02  0.54367070028E+02  0.39999967744E+02 0.  0.
        -12    1    3    3    0    0 -0.29025292893E+02  0.11574217843E+02  0.19476928346E+02  0.36820929972E+02  0.00000000000E+00 0.  1.
         11    1    4    4    0    0  0.66571417787E+01  0.37839242009E+01 -0.19575891163E+02  0.21020255329E+02  0.51100000000E-03 0.  1.
        -11    1    4    4    0    0  0.52658078052E+01  0.46198064628E+01 -0.67048878630E+00  0.70371087151E+01  0.51100000000E-03 0. -1.
        -12    1    4    4    0    0  0.17102343309E+02 -0.19977948507E+02  0.76945160351E+00  0.26309705984E+02  0.00000000000E+00 0.  1.
</event>
<event>
 8    1  0.2466538E-006  0.9118800E+02  0.7816164E-02  0.1184000E+00
        -11   -1    0    0    0    0  0.00000000000E+00  0.00000000000E+00  0.45593999997E+02  0.45594000000E+02  0.51100000000E-03 0.  1.
         11   -1    0    0    0    0 -0.00000000000E+00 -0.00000000000E+00 -0.45593999997E+02  0.45594000000E+02  0.51100000000E-03 0. -1.
         23    2    1    2    0    0  0.00000000000E+00  0.00000000000E+00  0.00000000000E+00  0.91188000000E+02  0.91188000000E+02 0.  0.
    9900012    2    3    3    0    0 -0.10628112886E+01 -0.81538602357E+01  0.35891010224E+02  0.54367087199E+02  0.40000006888E+02 0.  0.
         12    1    3    3    0    0  0.10628112886E+01  0.81538602357E+01 -0.35891010224E+02  0.36820912801E+02  0.00000000000E+00 0. -1.
         11    1    4    4    0    0  0.97838268880E+01  0.65325519199E+01  0.16040821848E+02  0.19892346995E+02  0.51100000000E-03 0. -1.
        -11    1    4    4    0    0 -0.99960258949E+01 -0.18613836463E+02  0.21488114022E+02  0.30135269802E+02  0.51100000000E-03 0.  1.
        -12    1    4    4    0    0 -0.85061228171E+00  0.39274243071E+01 -0.16379256464E+01  0.43394704015E+01  0.00000000000E+00 0.  1.
</event>
<event>
 8    1  0.2466538E-006  0.9118800E+02  0.7816164E-02  0.1184000E+00
        -11   -1    0    0    0    0  0.00000000000E+00  0.00000000000E+00  0.45593999997E+02  0.45594000000E+02  0.51100000000E-03 0.  1.
         11   -1    0    0    0    0 -0.00000000000E+00 -0.00000000000E+00 -0.45593999997E+02  0.45594000000E+02  0.51100000000E-03 0. -1.
         23    2    1    2    0    0 -0.44408920985E-15 -0.35527136788E-14  0.00000000000E+00  0.91188000000E+02  0.91188000000E+02 0.  0.
    9900012    2    3    3    0    0 -0.15951351445E+01 -0.20013580331E+02  0.30865710157E+02  0.54367083155E+02  0.39999997668E+02 0.  0.
         12    1    3    3    0    0  0.15951351445E+01  0.20013580331E+02 -0.30865710157E+02  0.36820916845E+02  0.00000000000E+00 0. -1.
         11    1    4    4    0    0  0.16426957591E+01  0.41587398927E+01  0.57368031018E+01  0.72735463800E+01  0.51100000000E-03 0. -1.
        -11    1    4    4    0    0  0.75164981207E+01  0.36930924253E+01  0.11591344891E+02  0.14300208121E+02  0.51100000000E-03 0.  1.
        -12    1    4    4    0    0 -0.10754329024E+02 -0.27865412649E+02  0.13537562165E+02  0.32793328654E+02  0.00000000000E+00 0.  1.
</event>
<event>
 8    1  0.2466538E-006  0.9118800E+02  0.7816164E-02  0.1184000E+00
        -11   -1    0    0    0    0  0.00000000000E+00  0.00000000000E+00  0.45593999997E+02  0.45594000000E+02  0.51100000000E-03 0. -1.
         11   -1    0    0    0    0 -0.00000000000E+00 -0.00000000000E+00 -0.45593999997E+02  0.45594000000E+02  0.51100000000E-03 0.  1.
         23    2    1    2    0    0  0.00000000000E+00  0.00000000000E+00  0.00000000000E+00  0.91188000000E+02  0.91188000000E+02 0.  0.
    9900012    2    3    3    0    0  0.45892642740E+01  0.33846833878E+02 -0.13751743953E+02  0.54367082414E+02  0.39999995978E+02 0.  0.
        -12    1    3    3    0    0 -0.45892642740E+01 -0.33846833878E+02  0.13751743953E+02  0.36820917586E+02  0.00000000000E+00 0.  1.
         11    1    4    4    0    0  0.16283675829E+02  0.21064309543E+02 -0.16681112595E+02  0.31418509715E+02  0.51100000000E-03 0. -1.
        -11    1    4    4    0    0 -0.41731754603E+01  0.94705668932E+01 -0.50308904187E+01  0.11507253772E+02  0.51100000000E-03 0.  1.
         12    1    4    4    0    0 -0.75212360945E+01  0.33119574416E+01  0.79602590603E+01  0.11441318927E+02  0.00000000000E+00 0. -1.
</event>
<event>
 8    1  0.2466538E-006  0.9118800E+02  0.7816164E-02  0.1184000E+00
        -11   -1    0    0    0    0  0.00000000000E+00  0.00000000000E+00  0.45593999997E+02  0.45594000000E+02  0.51100000000E-03 0.  1.
         11   -1    0    0    0    0 -0.00000000000E+00 -0.00000000000E+00 -0.45593999997E+02  0.45594000000E+02  0.51100000000E-03 0. -1.
         23    2    1    2    0    0  0.00000000000E+00  0.00000000000E+00  0.00000000000E+00  0.91188000000E+02  0.91188000000E+02 0.  0.
    9900012    2    3    3    0    0 -0.22520452486E+02 -0.25091636702E+02 -0.14799298006E+02  0.54367078854E+02  0.39999987864E+02 0.  0.
        -12    1    3    3    0    0  0.22520452486E+02  0.25091636702E+02  0.14799298006E+02  0.36820921146E+02  0.00000000000E+00 0.  1.
         11    1    4    4    0    0 -0.15941461617E+02 -0.75432726691E+01  0.65382735375E+01  0.18809045222E+02  0.51100000000E-03 0. -1.
        -11    1    4    4    0    0 -0.10978761401E+02 -0.64199242850E+01 -0.20825298773E+01  0.12887418698E+02  0.51100000000E-03 0.  1.
         12    1    4    4    0    0  0.43997705327E+01 -0.11128439747E+02 -0.19255041666E+02  0.22670614935E+02  0.00000000000E+00 0. -1.
</event>
<event>
 8    1  0.2466538E-006  0.9118800E+02  0.7816164E-02  0.1184000E+00
        -11   -1    0    0    0    0  0.00000000000E+00  0.00000000000E+00  0.45593999997E+02  0.45594000000E+02  0.51100000000E-03 0. -1.
         11   -1    0    0    0    0 -0.00000000000E+00 -0.00000000000E+00 -0.45593999997E+02  0.45594000000E+02  0.51100000000E-03 0.  1.
         23    2    1    2    0    0 -0.88817841970E-15  0.00000000000E+00 -0.71054273576E-14  0.91188000000E+02  0.91188000000E+02 0.  0.
    9900012    2    3    3    0    0 -0.62094075242E+01  0.27167264590E+02 -0.24065790479E+02  0.54367091830E+02  0.40000017444E+02 0.  0.
        -12    1    3    3    0    0  0.62094075242E+01 -0.27167264590E+02  0.24065790479E+02  0.36820908170E+02  0.00000000000E+00 0.  1.
         11    1    4    4    0    0  0.71635933956E+00  0.11006156905E+02 -0.70079476160E+01  0.13067516618E+02  0.51100000000E-03 0. -1.
        -11    1    4    4    0    0 -0.12755442888E+02 -0.48839956632E+01 -0.11318638444E+00  0.13658973180E+02  0.51100000000E-03 0.  1.
        -12    1    4    4    0    0  0.58296760240E+01  0.21045103349E+02 -0.16944656479E+02  0.27640602032E+02  0.00000000000E+00 0.  1.
</event>
<event>
 8    1  0.2466538E-006  0.9118800E+02  0.7816164E-02  0.1184000E+00
        -11   -1    0    0    0    0  0.00000000000E+00  0.00000000000E+00  0.45593999997E+02  0.45594000000E+02  0.51100000000E-03 0.  1.
         11   -1    0    0    0    0 -0.00000000000E+00 -0.00000000000E+00 -0.45593999997E+02  0.45594000000E+02  0.51100000000E-03 0. -1.
         23    2    1    2    0    0  0.00000000000E+00  0.00000000000E+00  0.00000000000E+00  0.91188000000E+02  0.91188000000E+02 0.  0.
    9900012    2    3    3    0    0 -0.19615041056E+02 -0.26476341082E+02 -0.16432716365E+02  0.54367073343E+02  0.39999975300E+02 0.  0.
        -12    1    3    3    0    0  0.19615041056E+02  0.26476341082E+02  0.16432716365E+02  0.36820926657E+02  0.00000000000E+00 0.  1.
         11    1    4    4    0    0 -0.12125214438E+02 -0.24753524632E+02 -0.19720667777E+02  0.33891924476E+02  0.51100000000E-03 0. -1.
        -11    1    4    4    0    0  0.12691107633E+01  0.58170831581E+01  0.61593263262E+01  0.85665862309E+01  0.51100000000E-03 0.  1.
         12    1    4    4    0    0 -0.87589373820E+01 -0.75398996087E+01 -0.28713749146E+01  0.11908562637E+02  0.00000000000E+00 0. -1.
</event>
<event>
 8    1  0.2466538E-006  0.9118800E+02  0.7816164E-02  0.1184000E+00
        -11   -1    0    0    0    0  0.00000000000E+00  0.00000000000E+00  0.45593999997E+02  0.45594000000E+02  0.51100000000E-03 0. -1.
         11   -1    0    0    0    0 -0.00000000000E+00 -0.00000000000E+00 -0.45593999997E+02  0.45594000000E+02  0.51100000000E-03 0.  1.
         23    2    1    2    0    0  0.00000000000E+00  0.00000000000E+00  0.00000000000E+00  0.91188000000E+02  0.91188000000E+02 0.  0.
    9900012    2    3    3    0    0  0.20842791276E+02  0.20678383920E+02 -0.22220706969E+02  0.54367118317E+02  0.40000077827E+02 0.  0.
         12    1    3    3    0    0 -0.20842791276E+02 -0.20678383920E+02  0.22220706969E+02  0.36820881683E+02  0.00000000000E+00 0. -1.
         11    1    4    4    0    0 -0.70306155184E+01  0.21131740923E+01 -0.14086852463E+02  0.15885039248E+02  0.51100000000E-03 0. -1.
        -11    1    4    4    0    0  0.19732111917E+01  0.69560516111E+01 -0.70192972894E+01  0.10077239261E+02  0.51100000000E-03 0.  1.
         12    1    4    4    0    0  0.25900195603E+02  0.11609158216E+02 -0.11145572164E+01  0.28404839808E+02  0.00000000000E+00 0. -1.
</event>
<event>
 8    1  0.2466538E-006  0.9118800E+02  0.7816164E-02  0.1184000E+00
        -11   -1    0    0    0    0  0.00000000000E+00  0.00000000000E+00  0.45593999997E+02  0.45594000000E+02  0.51100000000E-03 0. -1.
         11   -1    0    0    0    0 -0.00000000000E+00 -0.00000000000E+00 -0.45593999997E+02  0.45594000000E+02  0.51100000000E-03 0.  1.
         23    2    1    2    0    0  0.88817841970E-15  0.00000000000E+00  0.00000000000E+00  0.91188000000E+02  0.91188000000E+02 0.  0.
    9900012    2    3    3    0    0 -0.49342449685E+01 -0.32791679160E+02 -0.16004352365E+02  0.54367078092E+02  0.39999986126E+02 0.  0.
        -12    1    3    3    0    0  0.49342449685E+01  0.32791679160E+02  0.16004352365E+02  0.36820921908E+02  0.00000000000E+00 0.  1.
         11    1    4    4    0    0 -0.53602163521E+01 -0.26004413731E+02  0.17708602339E+01  0.26610099569E+02  0.51100000000E-03 0. -1.
        -11    1    4    4    0    0  0.74836770531E+01 -0.10638858016E+02 -0.87860359963E+01  0.15696660502E+02  0.51100000000E-03 0.  1.
        -12    1    4    4    0    0 -0.70577056695E+01  0.38515925869E+01 -0.89891766027E+01  0.12060318021E+02  0.00000000000E+00 0.  1.
</event>
<event>
 8    1  0.2466538E-006  0.9118800E+02  0.7816164E-02  0.1184000E+00
        -11   -1    0    0    0    0  0.00000000000E+00  0.00000000000E+00  0.45593999997E+02  0.45594000000E+02  0.51100000000E-03 0. -1.
         11   -1    0    0    0    0 -0.00000000000E+00 -0.00000000000E+00 -0.45593999997E+02  0.45594000000E+02  0.51100000000E-03 0.  1.
         23    2    1    2    0    0  0.00000000000E+00  0.00000000000E+00  0.00000000000E+00  0.91188000000E+02  0.91188000000E+02 0.  0.
    9900012    2    3    3    0    0  0.14794542674E+02 -0.70920311692E+01  0.32963680635E+02  0.54367086920E+02  0.40000006251E+02 0.  0.
        -12    1    3    3    0    0 -0.14794542674E+02  0.70920311692E+01 -0.32963680635E+02  0.36820913080E+02  0.00000000000E+00 0.  1.
         11    1    4    4    0    0  0.20140065588E+02  0.38683930936E+01  0.22287901622E+02  0.30287576099E+02  0.51100000000E-03 0. -1.
        -11    1    4    4    0    0 -0.11501073628E+02 -0.37407053328E+01  0.61379880436E+01  0.13562539160E+02  0.51100000000E-03 0.  1.
        -12    1    4    4    0    0  0.61555507138E+01 -0.72197189300E+01  0.45377909698E+01  0.10516971660E+02  0.00000000000E+00 0.  1.
</event>
<event>
 8    1  0.2466538E-006  0.9118800E+02  0.7816164E-02  0.1184000E+00
        -11   -1    0    0    0    0  0.00000000000E+00  0.00000000000E+00  0.45593999997E+02  0.45594000000E+02  0.51100000000E-03 0. -1.
         11   -1    0    0    0    0 -0.00000000000E+00 -0.00000000000E+00 -0.45593999997E+02  0.45594000000E+02  0.51100000000E-03 0.  1.
         23    2    1    2    0    0  0.00000000000E+00  0.17763568394E-14  0.00000000000E+00  0.91188000000E+02  0.91188000000E+02 0.  0.
    9900012    2    3    3    0    0 -0.13540281222E+02 -0.99695919345E+01  0.32757398643E+02  0.54367093645E+02  0.40000021583E+02 0.  0.
        -12    1    3    3    0    0  0.13540281222E+02  0.99695919345E+01 -0.32757398643E+02  0.36820906355E+02  0.00000000000E+00 0.  1.
         11    1    4    4    0    0  0.41558617456E+00  0.40856923002E+01 -0.97597474007E+00  0.42211515484E+01  0.51100000000E-03 0. -1.
        -11    1    4    4    0    0  0.24580868017E+00  0.93804002118E+01  0.58862608294E+01  0.11077021118E+02  0.51100000000E-03 0.  1.
         12    1    4    4    0    0 -0.14201676076E+02 -0.23435684446E+02  0.27847112554E+02  0.39068920979E+02  0.00000000000E+00 0. -1.
</event>
<event>
 8    1  0.2466538E-006  0.9118800E+02  0.7816164E-02  0.1184000E+00
        -11   -1    0    0    0    0  0.00000000000E+00  0.00000000000E+00  0.45593999997E+02  0.45594000000E+02  0.51100000000E-03 0. -1.
         11   -1    0    0    0    0 -0.00000000000E+00 -0.00000000000E+00 -0.45593999997E+02  0.45594000000E+02  0.51100000000E-03 0.  1.
         23    2    1    2    0    0  0.17763568394E-14 -0.35527136788E-14 -0.35527136788E-14  0.91188000000E+02  0.91188000000E+02 0.  0.
    9900012    2    3    3    0    0  0.12008056036E+02 -0.22493538204E+02 -0.26563681810E+02  0.54367056748E+02  0.39999937467E+02 0.  0.
         12    1    3    3    0    0 -0.12008056036E+02  0.22493538204E+02  0.26563681810E+02  0.36820943252E+02  0.00000000000E+00 0. -1.
         11    1    4    4    0    0  0.86721309714E+01  0.20938927562E+01 -0.11541646795E+02  0.14587661000E+02  0.51100000000E-03 0. -1.
        -11    1    4    4    0    0  0.12572780008E+02 -0.23018376229E+02 -0.15377007206E+02  0.30403499670E+02  0.51100000000E-03 0.  1.
         12    1    4    4    0    0 -0.92368549432E+01 -0.15690547319E+01  0.35497219081E+00  0.93758960771E+01  0.00000000000E+00 0. -1.
</event>
<event>
 8    1  0.2466538E-006  0.9118800E+02  0.7816164E-02  0.1184000E+00
        -11   -1    0    0    0    0  0.00000000000E+00  0.00000000000E+00  0.45593999997E+02  0.45594000000E+02  0.51100000000E-03 0.  1.
         11   -1    0    0    0    0 -0.00000000000E+00 -0.00000000000E+00 -0.45593999997E+02  0.45594000000E+02  0.51100000000E-03 0. -1.
         23    2    1    2    0    0  0.35527136788E-14  0.71054273576E-14  0.00000000000E+00  0.91188000000E+02  0.91188000000E+02 0.  0.
    9900012    2    3    3    0    0 -0.25015507483E+02 -0.25831938548E+02 -0.79191350016E+01  0.54367117841E+02  0.40000076742E+02 0.  0.
         12    1    3    3    0    0  0.25015507483E+02  0.25831938548E+02  0.79191350016E+01  0.36820882159E+02  0.00000000000E+00 0. -1.
         11    1    4    4    0    0 -0.30231776348E+02 -0.23502570183E+02 -0.22022658888E+01  0.38355978435E+02  0.51100000000E-03 0.  1.
        -11    1    4    4    0    0 -0.15808287224E+01 -0.59155438991E+01  0.47563937210E+00  0.61415724489E+01  0.51100000000E-03 0. -1.
        -12    1    4    4    0    0  0.67970975875E+01  0.35861755347E+01 -0.61925084850E+01  0.98695669569E+01  0.00000000000E+00 0.  1.
</event>
<event>
 8    1  0.2466538E-006  0.9118800E+02  0.7816164E-02  0.1184000E+00
        -11   -1    0    0    0    0  0.00000000000E+00  0.00000000000E+00  0.45593999997E+02  0.45594000000E+02  0.51100000000E-03 0.  1.
         11   -1    0    0    0    0 -0.00000000000E+00 -0.00000000000E+00 -0.45593999997E+02  0.45594000000E+02  0.51100000000E-03 0. -1.
         23    2    1    2    0    0 -0.35527136788E-14  0.00000000000E+00  0.00000000000E+00  0.91188000000E+02  0.91188000000E+02 0.  0.
    9900012    2    3    3    0    0  0.27465724020E+02  0.24518676671E+02 -0.49796570993E+00  0.54367089209E+02  0.40000011469E+02 0.  0.
        -12    1    3    3    0    0 -0.27465724020E+02 -0.24518676671E+02  0.49796570993E+00  0.36820910791E+02  0.00000000000E+00 0.  1.
         11    1    4    4    0    0  0.13572152499E+01  0.22338050880E+02 -0.15097928963E+01  0.22430114249E+02  0.51100000000E-03 0. -1.
        -11    1    4    4    0    0  0.12282488422E+01  0.65093456186E+01  0.88166169101E+00  0.66826269684E+01  0.51100000000E-03 0.  1.
        -12    1    4    4    0    0  0.24880259928E+02 -0.43287198275E+01  0.13016549537E+00  0.25254347992E+02  0.00000000000E+00 0.  1.
</event>
<event>
 8    1  0.2466538E-006  0.9118800E+02  0.7816164E-02  0.1184000E+00
        -11   -1    0    0    0    0  0.00000000000E+00  0.00000000000E+00  0.45593999997E+02  0.45594000000E+02  0.51100000000E-03 0.  1.
         11   -1    0    0    0    0 -0.00000000000E+00 -0.00000000000E+00 -0.45593999997E+02  0.45594000000E+02  0.51100000000E-03 0. -1.
         23    2    1    2    0    0 -0.35527136788E-14  0.00000000000E+00  0.00000000000E+00  0.91188000000E+02  0.91188000000E+02 0.  0.
    9900012    2    3    3    0    0 -0.11883541944E+02  0.54598958035E+01 -0.34420207197E+02  0.54367086176E+02  0.40000004555E+02 0.  0.
        -12    1    3    3    0    0  0.11883541944E+02 -0.54598958035E+01  0.34420207197E+02  0.36820913824E+02  0.00000000000E+00 0.  1.
         11    1    4    4    0    0 -0.66362729939E+01  0.15677908885E+02 -0.27572715055E+02  0.32405116294E+02  0.51100000000E-03 0. -1.
        -11    1    4    4    0    0  0.48458265949E+01  0.17303535217E+01 -0.87341080503E+00  0.52191000559E+01  0.51100000000E-03 0.  1.
        -12    1    4    4    0    0 -0.10093095545E+02 -0.11948366603E+02 -0.59740813372E+01  0.16742869826E+02  0.00000000000E+00 0.  1.
</event>
<event>
 8    1  0.2466538E-006  0.9118800E+02  0.7816164E-02  0.1184000E+00
        -11   -1    0    0    0    0  0.00000000000E+00  0.00000000000E+00  0.45593999997E+02  0.45594000000E+02  0.51100000000E-03 0. -1.
         11   -1    0    0    0    0 -0.00000000000E+00 -0.00000000000E+00 -0.45593999997E+02  0.45594000000E+02  0.51100000000E-03 0.  1.
         23    2    1    2    0    0  0.71054273576E-14 -0.35527136788E-14 -0.22204460493E-15  0.91188000000E+02  0.91188000000E+02 0.  0.
    9900012    2    3    3    0    0  0.26231959678E+02 -0.25811616653E+02  0.11937105631E+01  0.54367079212E+02  0.39999988680E+02 0.  0.
        -12    1    3    3    0    0 -0.26231959678E+02  0.25811616653E+02 -0.11937105631E+01  0.36820920788E+02  0.00000000000E+00 0.  1.
         11    1    4    4    0    0 -0.52789620164E+01 -0.31636021574E+01 -0.93917568855E+00  0.62255818858E+01  0.51100000000E-03 0. -1.
        -11    1    4    4    0    0 -0.38424690321E+01  0.62123637465E+00  0.42519246019E+01  0.57644918230E+01  0.51100000000E-03 0.  1.
         12    1    4    4    0    0  0.35353390726E+02 -0.23269250870E+02 -0.21190383502E+01  0.42377005503E+02  0.00000000000E+00 0. -1.
</event>
<event>
 8    1  0.2466538E-006  0.9118800E+02  0.7816164E-02  0.1184000E+00
        -11   -1    0    0    0    0  0.00000000000E+00  0.00000000000E+00  0.45593999997E+02  0.45594000000E+02  0.51100000000E-03 0. -1.
         11   -1    0    0    0    0 -0.00000000000E+00 -0.00000000000E+00 -0.45593999997E+02  0.45594000000E+02  0.51100000000E-03 0.  1.
         23    2    1    2    0    0  0.00000000000E+00 -0.17763568394E-14  0.00000000000E+00  0.91188000000E+02  0.91188000000E+02 0.  0.
    9900012    2    3    3    0    0 -0.34336496663E+01  0.12971922399E+02  0.34288755019E+02  0.54367089616E+02  0.40000012397E+02 0.  0.
        -12    1    3    3    0    0  0.34336496663E+01 -0.12971922399E+02 -0.34288755019E+02  0.36820910384E+02  0.00000000000E+00 0.  1.
         11    1    4    4    0    0  0.25272441375E-01  0.10183912456E+02  0.75388317655E+01  0.12670702279E+02  0.51100000000E-03 0. -1.
        -11    1    4    4    0    0 -0.62608652203E+01  0.13031056252E+02  0.27481127575E+02  0.31051879708E+02  0.51100000000E-03 0.  1.
        -12    1    4    4    0    0  0.28019431127E+01 -0.10243046309E+02 -0.73120432149E+00  0.10644507628E+02  0.00000000000E+00 0.  1.
</event>
<event>
 8    1  0.2466538E-006  0.9118800E+02  0.7816164E-02  0.1184000E+00
        -11   -1    0    0    0    0  0.00000000000E+00  0.00000000000E+00  0.45593999997E+02  0.45594000000E+02  0.51100000000E-03 0.  1.
         11   -1    0    0    0    0 -0.00000000000E+00 -0.00000000000E+00 -0.45593999997E+02  0.45594000000E+02  0.51100000000E-03 0. -1.
         23    2    1    2    0    0  0.71054273576E-14  0.88817841970E-15  0.35527136788E-14  0.91188000000E+02  0.91188000000E+02 0.  0.
    9900012    2    3    3    0    0 -0.29357721763E+02 -0.29338264627E+01 -0.22029454924E+02  0.54367081366E+02  0.39999993589E+02 0.  0.
        -12    1    3    3    0    0  0.29357721763E+02  0.29338264627E+01  0.22029454924E+02  0.36820918634E+02  0.00000000000E+00 0.  1.
         11    1    4    4    0    0 -0.83591163371E+00  0.46408035746E+01  0.12797575552E+01  0.48860603494E+01  0.51100000000E-03 0. -1.
        -11    1    4    4    0    0  0.11968183026E+01 -0.11417632782E+02  0.59273717923E-01  0.11480340850E+02  0.51100000000E-03 0.  1.
         12    1    4    4    0    0 -0.29718628432E+02  0.38430027445E+01 -0.23368486198E+02  0.38000680167E+02  0.00000000000E+00 0. -1.
</event>
<event>
 8    1  0.2466538E-006  0.9118800E+02  0.7816164E-02  0.1184000E+00
        -11   -1    0    0    0    0  0.00000000000E+00  0.00000000000E+00  0.45593999997E+02  0.45594000000E+02  0.51100000000E-03 0. -1.
         11   -1    0    0    0    0 -0.00000000000E+00 -0.00000000000E+00 -0.45593999997E+02  0.45594000000E+02  0.51100000000E-03 0.  1.
         23    2    1    2    0    0  0.35527136788E-14  0.44408920985E-15 -0.35527136788E-14  0.91188000000E+02  0.91188000000E+02 0.  0.
    9900012    2    3    3    0    0  0.23205240409E+02  0.28156460849E+01 -0.28449392586E+02  0.54367095831E+02  0.40000026565E+02 0.  0.
         12    1    3    3    0    0 -0.23205240409E+02 -0.28156460849E+01  0.28449392586E+02  0.36820904169E+02  0.00000000000E+00 0. -1.
         11    1    4    4    0    0 -0.55633574005E+01 -0.42203234816E+01 -0.32204824442E+01  0.76898363630E+01  0.51100000000E-03 0. -1.
        -11    1    4    4    0    0  0.21597193791E+01 -0.65504172675E+01  0.93912171167E+00  0.69609125857E+01  0.51100000000E-03 0.  1.
        -12    1    4    4    0    0  0.26608878431E+02  0.13586386834E+02 -0.26168031854E+02  0.39716346882E+02  0.00000000000E+00 0.  1.
</event>
<event>
 8    1  0.2466538E-006  0.9118800E+02  0.7816164E-02  0.1184000E+00
        -11   -1    0    0    0    0  0.00000000000E+00  0.00000000000E+00  0.45593999997E+02  0.45594000000E+02  0.51100000000E-03 0.  1.
         11   -1    0    0    0    0 -0.00000000000E+00 -0.00000000000E+00 -0.45593999997E+02  0.45594000000E+02  0.51100000000E-03 0. -1.
         23    2    1    2    0    0  0.00000000000E+00 -0.35527136788E-14  0.00000000000E+00  0.91188000000E+02  0.91188000000E+02 0.  0.
    9900012    2    3    3    0    0  0.21192404791E+02 -0.18483620788E+02  0.23770092450E+02  0.54367088097E+02  0.40000008935E+02 0.  0.
         12    1    3    3    0    0 -0.21192404791E+02  0.18483620788E+02 -0.23770092450E+02  0.36820911903E+02  0.00000000000E+00 0. -1.
         11    1    4    4    0    0  0.13564880957E+02 -0.20955237301E+01  0.21621065816E+01  0.13895032214E+02  0.51100000000E-03 0. -1.
        -11    1    4    4    0    0  0.13524089197E+02  0.19991833293E+01  0.37632751426E+01  0.14179561441E+02  0.51100000000E-03 0.  1.
         12    1    4    4    0    0 -0.58965653634E+01 -0.18387280387E+02  0.17844710726E+02  0.26292494442E+02  0.00000000000E+00 0. -1.
</event>
<event>
 8    1  0.2466538E-006  0.9118800E+02  0.7816164E-02  0.1184000E+00
        -11   -1    0    0    0    0  0.00000000000E+00  0.00000000000E+00  0.45593999997E+02  0.45594000000E+02  0.51100000000E-03 0.  1.
         11   -1    0    0    0    0 -0.00000000000E+00 -0.00000000000E+00 -0.45593999997E+02  0.45594000000E+02  0.51100000000E-03 0. -1.
         23    2    1    2    0    0  0.17763568394E-14  0.35527136788E-14 -0.71054273576E-14  0.91188000000E+02  0.91188000000E+02 0.  0.
    9900012    2    3    3    0    0 -0.13439393827E+02 -0.20528089455E+02  0.27454554451E+02  0.54367186277E+02  0.40000232755E+02 0.  0.
         12    1    3    3    0    0  0.13439393827E+02  0.20528089455E+02 -0.27454554451E+02  0.36820813723E+02  0.00000000000E+00 0. -1.
         11    1    4    4    0    0 -0.27161562278E+01  0.14688002692E+01 -0.42971493487E+00  0.31176167293E+01  0.51100000000E-03 0. -1.
        -11    1    4    4    0    0  0.13781952575E+01 -0.19162139036E+02  0.32695317622E+02  0.37921903819E+02  0.51100000000E-03 0.  1.
        -12    1    4    4    0    0 -0.12101432856E+02 -0.28347506887E+01 -0.48110482357E+01  0.13327665728E+02  0.00000000000E+00 0.  1.
</event>
<event>
 8    1  0.2466538E-006  0.9118800E+02  0.7816164E-02  0.1184000E+00
        -11   -1    0    0    0    0  0.00000000000E+00  0.00000000000E+00  0.45593999997E+02  0.45594000000E+02  0.51100000000E-03 0.  1.
         11   -1    0    0    0    0 -0.00000000000E+00 -0.00000000000E+00 -0.45593999997E+02  0.45594000000E+02  0.51100000000E-03 0. -1.
         23    2    1    2    0    0  0.00000000000E+00  0.99920072216E-15  0.00000000000E+00  0.91188000000E+02  0.91188000000E+02 0.  0.
    9900012    2    3    3    0    0  0.10760120406E+02 -0.98991435017E+00  0.35199711494E+02  0.54367084601E+02  0.40000000966E+02 0.  0.
         12    1    3    3    0    0 -0.10760120406E+02  0.98991435017E+00 -0.35199711494E+02  0.36820915399E+02  0.00000000000E+00 0. -1.
         11    1    4    4    0    0 -0.81855592794E+01 -0.46581815113E+01  0.19718976310E+02  0.21852690056E+02  0.51100000000E-03 0. -1.
        -11    1    4    4    0    0  0.19256831233E+02  0.10136484782E+02  0.13985598026E+02  0.25868336346E+02  0.51100000000E-03 0.  1.
         12    1    4    4    0    0 -0.31115154828E+00 -0.64682176205E+01  0.14951371572E+01  0.66460581995E+01  0.00000000000E+00 0. -1.
</event>
<event>
 8    1  0.2466538E-006  0.9118800E+02  0.7816164E-02  0.1184000E+00
        -11   -1    0    0    0    0  0.00000000000E+00  0.00000000000E+00  0.45593999997E+02  0.45594000000E+02  0.51100000000E-03 0.  1.
         11   -1    0    0    0    0 -0.00000000000E+00 -0.00000000000E+00 -0.45593999997E+02  0.45594000000E+02  0.51100000000E-03 0. -1.
         23    2    1    2    0    0 -0.88817841970E-15  0.26645352591E-14  0.00000000000E+00  0.91188000000E+02  0.91188000000E+02 0.  0.
    9900012    2    3    3    0    0 -0.73403482693E+01 -0.61296319383E+01 -0.35557382690E+02  0.54367074371E+02  0.39999977643E+02 0.  0.
        -12    1    3    3    0    0  0.73403482693E+01  0.61296319383E+01  0.35557382690E+02  0.36820925629E+02  0.00000000000E+00 0.  1.
         11    1    4    4    0    0 -0.72152489542E+01 -0.21872960620E+02 -0.18903851901E+02  0.29796674995E+02  0.51100000000E-03 0. -1.
        -11    1    4    4    0    0  0.73834543216E+00  0.83249627397E+01 -0.27685103081E+01  0.88042494389E+01  0.51100000000E-03 0.  1.
         12    1    4    4    0    0 -0.86344474728E+00  0.74183659424E+01 -0.13885020481E+02  0.15766149937E+02  0.00000000000E+00 0. -1.
</event>
<event>
 8    1  0.2466538E-006  0.9118800E+02  0.7816164E-02  0.1184000E+00
        -11   -1    0    0    0    0  0.00000000000E+00  0.00000000000E+00  0.45593999997E+02  0.45594000000E+02  0.51100000000E-03 0.  1.
         11   -1    0    0    0    0 -0.00000000000E+00 -0.00000000000E+00 -0.45593999997E+02  0.45594000000E+02  0.51100000000E-03 0. -1.
         23    2    1    2    0    0  0.00000000000E+00 -0.88817841970E-15 -0.35527136788E-14  0.91188000000E+02  0.91188000000E+02 0.  0.
    9900012    2    3    3    0    0 -0.29695026440E+02  0.24976979048E+01  0.21627379513E+02  0.54367127730E+02  0.40000099287E+02 0.  0.
         12    1    3    3    0    0  0.29695026440E+02 -0.24976979048E+01 -0.21627379513E+02  0.36820872270E+02  0.00000000000E+00 0. -1.
         11    1    4    4    0    0 -0.11659939245E+02  0.90898194140E+01  0.99876275902E+01  0.17841852632E+02  0.51100000000E-03 0. -1.
        -11    1    4    4    0    0 -0.23002513195E+02  0.35638794885E+01  0.86356387551E+01  0.24827225122E+02  0.51100000000E-03 0.  1.
         12    1    4    4    0    0  0.49674260002E+01 -0.10156000998E+02  0.30041131675E+01  0.11698049977E+02  0.00000000000E+00 0. -1.
</event>
<event>
 8    1  0.2466538E-006  0.9118800E+02  0.7816164E-02  0.1184000E+00
        -11   -1    0    0    0    0  0.00000000000E+00  0.00000000000E+00  0.45593999997E+02  0.45594000000E+02  0.51100000000E-03 0.  1.
         11   -1    0    0    0    0 -0.00000000000E+00 -0.00000000000E+00 -0.45593999997E+02  0.45594000000E+02  0.51100000000E-03 0. -1.
         23    2    1    2    0    0  0.00000000000E+00  0.35527136788E-14  0.71054273576E-14  0.91188000000E+02  0.91188000000E+02 0.  0.
    9900012    2    3    3    0    0  0.13494883622E+02  0.18116537379E+02  0.29076786780E+02  0.54367077415E+02  0.39999984583E+02 0.  0.
         12    1    3    3    0    0 -0.13494883622E+02 -0.18116537379E+02 -0.29076786780E+02  0.36820922585E+02  0.00000000000E+00 0. -1.
         11    1    4    4    0    0  0.58431308768E+01  0.92234940364E+01 -0.14306979919E+01  0.11011898914E+02  0.51100000000E-03 0. -1.
        -11    1    4    4    0    0 -0.55439781463E+01  0.13350069765E+02  0.70706313945E+01  0.16092044152E+02  0.51100000000E-03 0.  1.
         12    1    4    4    0    0  0.13195730891E+02 -0.44570264225E+01  0.23436853377E+02  0.27263134349E+02  0.00000000000E+00 0. -1.
</event>
<event>
 8    1  0.2466538E-006  0.9118800E+02  0.7816164E-02  0.1184000E+00
        -11   -1    0    0    0    0  0.00000000000E+00  0.00000000000E+00  0.45593999997E+02  0.45594000000E+02  0.51100000000E-03 0. -1.
         11   -1    0    0    0    0 -0.00000000000E+00 -0.00000000000E+00 -0.45593999997E+02  0.45594000000E+02  0.51100000000E-03 0.  1.
         23    2    1    2    0    0 -0.11102230246E-14 -0.17763568394E-14  0.00000000000E+00  0.91188000000E+02  0.91188000000E+02 0.  0.
    9900012    2    3    3    0    0  0.70607010053E+00  0.15390761844E+02  0.33442631412E+02  0.54367032049E+02  0.39999881162E+02 0.  0.
        -12    1    3    3    0    0 -0.70607010053E+00 -0.15390761844E+02 -0.33442631412E+02  0.36820967951E+02  0.00000000000E+00 0.  1.
         11    1    4    4    0    0  0.59772468369E+01  0.16420402670E+02  0.16001574974E+02  0.23694039451E+02  0.51100000000E-03 0. -1.
        -11    1    4    4    0    0 -0.63311750579E+01  0.11027433224E+02  0.61675156243E+01  0.14132455921E+02  0.51100000000E-03 0.  1.
        -12    1    4    4    0    0  0.10599983215E+01 -0.12057074050E+02  0.11273540814E+02  0.16540536677E+02  0.00000000000E+00 0.  1.
</event>
<event>
 8    1  0.2466538E-006  0.9118800E+02  0.7816164E-02  0.1184000E+00
        -11   -1    0    0    0    0  0.00000000000E+00  0.00000000000E+00  0.45593999997E+02  0.45594000000E+02  0.51100000000E-03 0. -1.
         11   -1    0    0    0    0 -0.00000000000E+00 -0.00000000000E+00 -0.45593999997E+02  0.45594000000E+02  0.51100000000E-03 0.  1.
         23    2    1    2    0    0  0.00000000000E+00  0.00000000000E+00  0.17763568394E-14  0.91188000000E+02  0.91188000000E+02 0.  0.
    9900012    2    3    3    0    0  0.70139306332E+01  0.33581587218E+02 -0.13373903149E+02  0.54367088707E+02  0.40000010325E+02 0.  0.
        -12    1    3    3    0    0 -0.70139306332E+01 -0.33581587218E+02  0.13373903149E+02  0.36820911293E+02  0.00000000000E+00 0.  1.
         11    1    4    4    0    0  0.16715847386E+02  0.17478749613E+02 -0.13319217689E+02  0.27610284351E+02  0.51100000000E-03 0. -1.
        -11    1    4    4    0    0  0.33471954694E+01  0.10483792424E+02  0.44225427189E+01  0.11860544063E+02  0.51100000000E-03 0.  1.
        -12    1    4    4    0    0 -0.13049112223E+02  0.56190451813E+01 -0.44772281791E+01  0.14896260293E+02  0.00000000000E+00 0.  1.
</event>
<event>
 8    1  0.2466538E-006  0.9118800E+02  0.7816164E-02  0.1184000E+00
        -11   -1    0    0    0    0  0.00000000000E+00  0.00000000000E+00  0.45593999997E+02  0.45594000000E+02  0.51100000000E-03 0.  1.
         11   -1    0    0    0    0 -0.00000000000E+00 -0.00000000000E+00 -0.45593999997E+02  0.45594000000E+02  0.51100000000E-03 0. -1.
         23    2    1    2    0    0 -0.17763568394E-14  0.00000000000E+00  0.00000000000E+00  0.91188000000E+02  0.91188000000E+02 0.  0.
    9900012    2    3    3    0    0 -0.11642568617E+02  0.24661122015E+02 -0.24739823105E+02  0.54367093027E+02  0.40000020173E+02 0.  0.
        -12    1    3    3    0    0  0.11642568617E+02 -0.24661122015E+02  0.24739823105E+02  0.36820906973E+02  0.00000000000E+00 0.  1.
         11    1    4    4    0    0 -0.20234295351E+02  0.82043714633E+01 -0.93492660506E+01  0.23751782994E+02  0.51100000000E-03 0. -1.
        -11    1    4    4    0    0 -0.53673693956E+01  0.65218157981E+01 -0.15447386681E+01  0.85865565477E+01  0.51100000000E-03 0.  1.
        -12    1    4    4    0    0  0.13959096129E+02  0.99349347538E+01 -0.13845818387E+02  0.22028753485E+02  0.00000000000E+00 0.  1.
</event>
<event>
 8    1  0.2466538E-006  0.9118800E+02  0.7816164E-02  0.1184000E+00
        -11   -1    0    0    0    0  0.00000000000E+00  0.00000000000E+00  0.45593999997E+02  0.45594000000E+02  0.51100000000E-03 0. -1.
         11   -1    0    0    0    0 -0.00000000000E+00 -0.00000000000E+00 -0.45593999997E+02  0.45594000000E+02  0.51100000000E-03 0.  1.
         23    2    1    2    0    0  0.00000000000E+00  0.71054273576E-14 -0.35527136788E-14  0.91188000000E+02  0.91188000000E+02 0.  0.
    9900012    2    3    3    0    0 -0.46390395223E+01  0.26620344699E+02 -0.25012304226E+02  0.54367098296E+02  0.40000032186E+02 0.  0.
        -12    1    3    3    0    0  0.46390395223E+01 -0.26620344699E+02  0.25012304226E+02  0.36820901704E+02  0.00000000000E+00 0.  1.
         11    1    4    4    0    0  0.65922992768E+01  0.40788821999E+01 -0.78822638916E-01  0.77525417139E+01  0.51100000000E-03 0. -1.
        -11    1    4    4    0    0  0.45040590399E+01  0.10149962372E+02 -0.24138277804E+02  0.26569996981E+02  0.51100000000E-03 0.  1.
         12    1    4    4    0    0 -0.15735397839E+02  0.12391500127E+02 -0.79520378295E+00  0.20044559601E+02  0.00000000000E+00 0. -1.
</event>
<event>
 8    1  0.2466538E-006  0.9118800E+02  0.7816164E-02  0.1184000E+00
        -11   -1    0    0    0    0  0.00000000000E+00  0.00000000000E+00  0.45593999997E+02  0.45594000000E+02  0.51100000000E-03 0. -1.
         11   -1    0    0    0    0 -0.00000000000E+00 -0.00000000000E+00 -0.45593999997E+02  0.45594000000E+02  0.51100000000E-03 0.  1.
         23    2    1    2    0    0 -0.88817841970E-15 -0.35527136788E-14  0.35527136788E-14  0.91188000000E+02  0.91188000000E+02 0.  0.
    9900012    2    3    3    0    0 -0.33269309299E+01  0.25576610246E+02  0.26278277989E+02  0.54367090788E+02  0.40000015070E+02 0.  0.
        -12    1    3    3    0    0  0.33269309299E+01 -0.25576610246E+02 -0.26278277989E+02  0.36820909212E+02  0.00000000000E+00 0.  1.
         11    1    4    4    0    0 -0.11232254585E+02  0.24812864196E+02  0.10812217838E+02  0.29304365332E+02  0.51100000000E-03 0. -1.
        -11    1    4    4    0    0  0.27381519924E+01 -0.69572888899E+00  0.18621668660E+02  0.18834756674E+02  0.51100000000E-03 0.  1.
         12    1    4    4    0    0  0.51671716627E+01  0.14594749392E+01 -0.31556085091E+01  0.62279687822E+01  0.00000000000E+00 0. -1.
</event>
<event>
 8    1  0.2466538E-006  0.9118800E+02  0.7816164E-02  0.1184000E+00
        -11   -1    0    0    0    0  0.00000000000E+00  0.00000000000E+00  0.45593999997E+02  0.45594000000E+02  0.51100000000E-03 0. -1.
         11   -1    0    0    0    0 -0.00000000000E+00 -0.00000000000E+00 -0.45593999997E+02  0.45594000000E+02  0.51100000000E-03 0.  1.
         23    2    1    2    0    0 -0.35527136788E-14  0.00000000000E+00 -0.26645352591E-14  0.91188000000E+02  0.91188000000E+02 0.  0.
    9900012    2    3    3    0    0  0.18746788065E+02  0.31206366169E+02  0.55228134322E+01  0.54367070892E+02  0.39999969711E+02 0.  0.
        -12    1    3    3    0    0 -0.18746788065E+02 -0.31206366169E+02 -0.55228134322E+01  0.36820929108E+02  0.00000000000E+00 0.  1.
         11    1    4    4    0    0 -0.27485177130E+01 -0.13112529028E+01 -0.40052675615E+01  0.50314910607E+01  0.51100000000E-03 0.  1.
        -11    1    4    4    0    0  0.87164743727E+01  0.13129414980E+02 -0.10278516880E+02  0.18815057074E+02  0.51100000000E-03 0. -1.
         12    1    4    4    0    0  0.12778831405E+02  0.19388204092E+02  0.19806597874E+02  0.30520522756E+02  0.00000000000E+00 0. -1.
</event>
<event>
 8    1  0.2466538E-006  0.9118800E+02  0.7816164E-02  0.1184000E+00
        -11   -1    0    0    0    0  0.00000000000E+00  0.00000000000E+00  0.45593999997E+02  0.45594000000E+02  0.51100000000E-03 0. -1.
         11   -1    0    0    0    0 -0.00000000000E+00 -0.00000000000E+00 -0.45593999997E+02  0.45594000000E+02  0.51100000000E-03 0.  1.
         23    2    1    2    0    0  0.00000000000E+00  0.00000000000E+00 -0.35527136788E-14  0.91188000000E+02  0.91188000000E+02 0.  0.
    9900012    2    3    3    0    0  0.22680048341E+02  0.14918683878E+02 -0.24876260272E+02  0.54367081400E+02  0.39999993667E+02 0.  0.
         12    1    3    3    0    0 -0.22680048341E+02 -0.14918683878E+02  0.24876260272E+02  0.36820918600E+02  0.00000000000E+00 0. -1.
         11    1    4    4    0    0 -0.62858750523E+00  0.16478565467E+02 -0.12772093022E+02  0.20858202284E+02  0.51100000000E-03 0. -1.
        -11    1    4    4    0    0  0.58800519528E+01 -0.95620719336E+01 -0.82918781568E+01  0.13955768494E+02  0.51100000000E-03 0.  1.
         12    1    4    4    0    0  0.17428583894E+02  0.80021903443E+01 -0.38122890938E+01  0.19553110622E+02  0.00000000000E+00 0. -1.
</event>
<event>
 8    1  0.2466538E-006  0.9118800E+02  0.7816164E-02  0.1184000E+00
        -11   -1    0    0    0    0  0.00000000000E+00  0.00000000000E+00  0.45593999997E+02  0.45594000000E+02  0.51100000000E-03 0. -1.
         11   -1    0    0    0    0 -0.00000000000E+00 -0.00000000000E+00 -0.45593999997E+02  0.45594000000E+02  0.51100000000E-03 0.  1.
         23    2    1    2    0    0  0.00000000000E+00  0.00000000000E+00  0.00000000000E+00  0.91188000000E+02  0.91188000000E+02 0.  0.
    9900012    2    3    3    0    0 -0.16723907740E+02 -0.13087442044E+02 -0.30080063212E+02  0.54367076164E+02  0.39999981730E+02 0.  0.
         12    1    3    3    0    0  0.16723907740E+02  0.13087442044E+02  0.30080063212E+02  0.36820923836E+02  0.00000000000E+00 0. -1.
         11    1    4    4    0    0 -0.28009651244E+01 -0.16752863416E+02 -0.53466712953E+01  0.17807041654E+02  0.51100000000E-03 0. -1.
        -11    1    4    4    0    0  0.61707927936E+01  0.10761718718E+01 -0.33515259510E+01  0.71041928508E+01  0.51100000000E-03 0.  1.
        -12    1    4    4    0    0 -0.20093735410E+02  0.25892495005E+01 -0.21381865965E+02  0.29455841659E+02  0.00000000000E+00 0.  1.
</event>
<event>
 8    1  0.2466538E-006  0.9118800E+02  0.7816164E-02  0.1184000E+00
        -11   -1    0    0    0    0  0.00000000000E+00  0.00000000000E+00  0.45593999997E+02  0.45594000000E+02  0.51100000000E-03 0. -1.
         11   -1    0    0    0    0 -0.00000000000E+00 -0.00000000000E+00 -0.45593999997E+02  0.45594000000E+02  0.51100000000E-03 0.  1.
         23    2    1    2    0    0 -0.88817841970E-15  0.00000000000E+00  0.00000000000E+00  0.91188000000E+02  0.91188000000E+02 0.  0.
    9900012    2    3    3    0    0  0.72248494096E+01  0.11678553200E+02 -0.34164199948E+02  0.54367087302E+02  0.40000007123E+02 0.  0.
        -12    1    3    3    0    0 -0.72248494096E+01 -0.11678553200E+02  0.34164199948E+02  0.36820912698E+02  0.00000000000E+00 0.  1.
         11    1    4    4    0    0  0.27343040914E+01 -0.17697026248E+01 -0.78108888446E+00  0.33493829806E+01  0.51100000000E-03 0. -1.
        -11    1    4    4    0    0  0.17322618339E+02 -0.29324630325E+01 -0.12699871446E+02  0.21678541938E+02  0.51100000000E-03 0.  1.
         12    1    4    4    0    0 -0.12832073021E+02  0.16380718857E+02 -0.20683239617E+02  0.29339162383E+02  0.00000000000E+00 0. -1.
</event>
<event>
 8    1  0.2466538E-006  0.9118800E+02  0.7816164E-02  0.1184000E+00
        -11   -1    0    0    0    0  0.00000000000E+00  0.00000000000E+00  0.45593999997E+02  0.45594000000E+02  0.51100000000E-03 0.  1.
         11   -1    0    0    0    0 -0.00000000000E+00 -0.00000000000E+00 -0.45593999997E+02  0.45594000000E+02  0.51100000000E-03 0. -1.
         23    2    1    2    0    0  0.17763568394E-14  0.00000000000E+00 -0.88817841970E-15  0.91188000000E+02  0.91188000000E+02 0.  0.
    9900012    2    3    3    0    0  0.15170763569E+02  0.33519902348E+02  0.14298019022E+01  0.54367078580E+02  0.39999987240E+02 0.  0.
        -12    1    3    3    0    0 -0.15170763569E+02 -0.33519902348E+02 -0.14298019022E+01  0.36820921420E+02  0.00000000000E+00 0.  1.
         11    1    4    4    0    0  0.64265379434E+01 -0.10681947668E+01  0.71657647557E+01  0.96845038485E+01  0.51100000000E-03 0. -1.
        -11    1    4    4    0    0  0.32617991577E+01 -0.58067456136E+00 -0.83598904080E+01  0.89924570939E+01  0.51100000000E-03 0.  1.
         12    1    4    4    0    0  0.54824264677E+01  0.35168771676E+02  0.26239275545E+01  0.35690117638E+02  0.00000000000E+00 0. -1.
</event>
<event>
 8    1  0.2466538E-006  0.9118800E+02  0.7816164E-02  0.1184000E+00
        -11   -1    0    0    0    0  0.00000000000E+00  0.00000000000E+00  0.45593999997E+02  0.45594000000E+02  0.51100000000E-03 0.  1.
         11   -1    0    0    0    0 -0.00000000000E+00 -0.00000000000E+00 -0.45593999997E+02  0.45594000000E+02  0.51100000000E-03 0. -1.
         23    2    1    2    0    0  0.00000000000E+00 -0.35527136788E-14  0.00000000000E+00  0.91188000000E+02  0.91188000000E+02 0.  0.
    9900012    2    3    3    0    0 -0.34906624419E+02 -0.11637228853E+02  0.13713923871E+01  0.54367105921E+02  0.40000049569E+02 0.  0.
        -12    1    3    3    0    0  0.34906624419E+02  0.11637228853E+02 -0.13713923871E+01  0.36820894079E+02  0.00000000000E+00 0.  1.
         11    1    4    4    0    0 -0.12084377494E+02  0.10257926761E+02  0.27530370664E+01  0.16088395017E+02  0.51100000000E-03 0. -1.
        -11    1    4    4    0    0 -0.16462546943E+02 -0.14525246871E+01  0.18400586413E+01  0.16628622789E+02  0.51100000000E-03 0.  1.
         12    1    4    4    0    0 -0.63596999816E+01 -0.20442630928E+02 -0.32217033206E+01  0.21650088115E+02  0.00000000000E+00 0. -1.
</event>
<event>
 8    1  0.2466538E-006  0.9118800E+02  0.7816164E-02  0.1184000E+00
        -11   -1    0    0    0    0  0.00000000000E+00  0.00000000000E+00  0.45593999997E+02  0.45594000000E+02  0.51100000000E-03 0.  1.
         11   -1    0    0    0    0 -0.00000000000E+00 -0.00000000000E+00 -0.45593999997E+02  0.45594000000E+02  0.51100000000E-03 0. -1.
         23    2    1    2    0    0  0.88817841970E-15  0.35527136788E-14  0.35527136788E-14  0.91188000000E+02  0.91188000000E+02 0.  0.
    9900012    2    3    3    0    0 -0.70255497574E+01 -0.20956694741E+02 -0.29449052331E+02  0.54366972216E+02  0.39999744760E+02 0.  0.
        -12    1    3    3    0    0  0.70255497574E+01  0.20956694741E+02  0.29449052331E+02  0.36821027784E+02  0.00000000000E+00 0.  1.
         11    1    4    4    0    0 -0.62110129773E+01 -0.61193132195E+01 -0.28441332267E+01  0.91712469466E+01  0.51100000000E-03 0. -1.
        -11    1    4    4    0    0  0.86587223111E+00  0.25864298679E+01  0.68857839995E+01  0.74063064838E+01  0.51100000000E-03 0.  1.
         12    1    4    4    0    0 -0.16804090112E+01 -0.17423811390E+02 -0.33490703104E+02  0.37789418786E+02  0.00000000000E+00 0. -1.
</event>
<event>
 8    1  0.2466538E-006  0.9118800E+02  0.7816164E-02  0.1184000E+00
        -11   -1    0    0    0    0  0.00000000000E+00  0.00000000000E+00  0.45593999997E+02  0.45594000000E+02  0.51100000000E-03 0. -1.
         11   -1    0    0    0    0 -0.00000000000E+00 -0.00000000000E+00 -0.45593999997E+02  0.45594000000E+02  0.51100000000E-03 0.  1.
         23    2    1    2    0    0  0.00000000000E+00  0.00000000000E+00 -0.88817841970E-15  0.91188000000E+02  0.91188000000E+02 0.  0.
    9900012    2    3    3    0    0 -0.25997695865E+02  0.24904547189E+02 -0.77241870779E+01  0.54367085740E+02  0.40000003560E+02 0.  0.
        -12    1    3    3    0    0  0.25997695865E+02 -0.24904547189E+02  0.77241870779E+01  0.36820914260E+02  0.00000000000E+00 0.  1.
         11    1    4    4    0    0  0.47606083875E+01 -0.38650810764E+01  0.24667925613E+01  0.66096376412E+01  0.51100000000E-03 0. -1.
        -11    1    4    4    0    0  0.88479048936E+00  0.72013589803E+01 -0.56472671361E+01  0.91942401394E+01  0.51100000000E-03 0.  1.
         12    1    4    4    0    0 -0.31643094742E+02  0.21568269285E+02 -0.45437125032E+01  0.38563207959E+02  0.00000000000E+00 0. -1.
</event>
<event>
 8    1  0.2466538E-006  0.9118800E+02  0.7816164E-02  0.1184000E+00
        -11   -1    0    0    0    0  0.00000000000E+00  0.00000000000E+00  0.45593999997E+02  0.45594000000E+02  0.51100000000E-03 0. -1.
         11   -1    0    0    0    0 -0.00000000000E+00 -0.00000000000E+00 -0.45593999997E+02  0.45594000000E+02  0.51100000000E-03 0.  1.
         23    2    1    2    0    0  0.00000000000E+00 -0.35527136788E-14 -0.44408920985E-15  0.91188000000E+02  0.91188000000E+02 0.  0.
    9900012    2    3    3    0    0 -0.19553261402E+02 -0.30964953048E+02 -0.38237158839E+01  0.54367093549E+02  0.40000021363E+02 0.  0.
         12    1    3    3    0    0  0.19553261402E+02  0.30964953048E+02  0.38237158839E+01  0.36820906451E+02  0.00000000000E+00 0. -1.
         11    1    4    4    0    0 -0.17857114742E+02 -0.31991203195E+02  0.15313299675E+01  0.36669586861E+02  0.51100000000E-03 0. -1.
        -11    1    4    4    0    0 -0.83533825182E+01 -0.23492726637E+01 -0.29983653786E+00  0.86826253952E+01  0.51100000000E-03 0.  1.
         12    1    4    4    0    0  0.66572358582E+01  0.33755228107E+01 -0.50552093136E+01  0.90148812927E+01  0.00000000000E+00 0. -1.
</event>
<event>
 8    1  0.2466538E-006  0.9118800E+02  0.7816164E-02  0.1184000E+00
        -11   -1    0    0    0    0  0.00000000000E+00  0.00000000000E+00  0.45593999997E+02  0.45594000000E+02  0.51100000000E-03 0.  1.
         11   -1    0    0    0    0 -0.00000000000E+00 -0.00000000000E+00 -0.45593999997E+02  0.45594000000E+02  0.51100000000E-03 0. -1.
         23    2    1    2    0    0  0.00000000000E+00  0.17763568394E-14  0.17763568394E-14  0.91188000000E+02  0.91188000000E+02 0.  0.
    9900012    2    3    3    0    0 -0.33001691995E+02 -0.65500240113E+01 -0.14958640339E+02  0.54367144362E+02  0.40000137203E+02 0.  0.
        -12    1    3    3    0    0  0.33001691995E+02  0.65500240113E+01  0.14958640339E+02  0.36820855638E+02  0.00000000000E+00 0.  1.
         11    1    4    4    0    0 -0.17995808305E+02 -0.15211261575E+01 -0.53656828279E+01  0.18840209494E+02  0.51100000000E-03 0. -1.
        -11    1    4    4    0    0 -0.53862629981E+01  0.72646552188E+00  0.10893501872E+02  0.12174069350E+02  0.51100000000E-03 0.  1.
         12    1    4    4    0    0 -0.96196206924E+01 -0.57553633757E+01 -0.20486459383E+02  0.23352865518E+02  0.00000000000E+00 0. -1.
</event>
<event>
 8    1  0.2466538E-006  0.9118800E+02  0.7816164E-02  0.1184000E+00
        -11   -1    0    0    0    0  0.00000000000E+00  0.00000000000E+00  0.45593999997E+02  0.45594000000E+02  0.51100000000E-03 0.  1.
         11   -1    0    0    0    0 -0.00000000000E+00 -0.00000000000E+00 -0.45593999997E+02  0.45594000000E+02  0.51100000000E-03 0. -1.
         23    2    1    2    0    0  0.00000000000E+00  0.35527136788E-14 -0.15543122345E-14  0.91188000000E+02  0.91188000000E+02 0.  0.
    9900012    2    3    3    0    0  0.18334258829E+02 -0.31900784692E+02  0.14061128885E+01  0.54367051286E+02  0.39999925017E+02 0.  0.
        -12    1    3    3    0    0 -0.18334258829E+02  0.31900784692E+02 -0.14061128885E+01  0.36820948714E+02  0.00000000000E+00 0.  1.
         11    1    4    4    0    0  0.32679636576E+01 -0.19055457942E+02  0.83309418871E+01  0.21052188885E+02  0.51100000000E-03 0. -1.
        -11    1    4    4    0    0  0.81159060340E+01  0.28782523794E+01  0.70745541670E+01  0.11144576458E+02  0.51100000000E-03 0.  1.
         12    1    4    4    0    0  0.69503891373E+01 -0.15723579128E+02 -0.13999383166E+02  0.22170285943E+02  0.00000000000E+00 0. -1.
</event>
<event>
 8    1  0.2466538E-006  0.9118800E+02  0.7816164E-02  0.1184000E+00
        -11   -1    0    0    0    0  0.00000000000E+00  0.00000000000E+00  0.45593999997E+02  0.45594000000E+02  0.51100000000E-03 0. -1.
         11   -1    0    0    0    0 -0.00000000000E+00 -0.00000000000E+00 -0.45593999997E+02  0.45594000000E+02  0.51100000000E-03 0.  1.
         23    2    1    2    0    0  0.00000000000E+00  0.00000000000E+00  0.00000000000E+00  0.91188000000E+02  0.91188000000E+02 0.  0.
    9900012    2    3    3    0    0 -0.22342874352E+02  0.19596858553E+02  0.21737983882E+02  0.54367070589E+02  0.39999969021E+02 0.  0.
        -12    1    3    3    0    0  0.22342874352E+02 -0.19596858553E+02 -0.21737983882E+02  0.36820929411E+02  0.00000000000E+00 0.  1.
         11    1    4    4    0    0 -0.15816679978E+02  0.13549699485E+02  0.96192315229E+01  0.22941040452E+02  0.51100000000E-03 0. -1.
        -11    1    4    4    0    0 -0.16563237551E+02  0.57741826238E+01  0.28686658427E+01  0.17773892852E+02  0.51100000000E-03 0.  1.
         12    1    4    4    0    0  0.10037043178E+02  0.27297644474E+00  0.92500865161E+01  0.13652137285E+02  0.00000000000E+00 0. -1.
</event>
<event>
 8    1  0.2466538E-006  0.9118800E+02  0.7816164E-02  0.1184000E+00
        -11   -1    0    0    0    0  0.00000000000E+00  0.00000000000E+00  0.45593999997E+02  0.45594000000E+02  0.51100000000E-03 0.  1.
         11   -1    0    0    0    0 -0.00000000000E+00 -0.00000000000E+00 -0.45593999997E+02  0.45594000000E+02  0.51100000000E-03 0. -1.
         23    2    1    2    0    0  0.00000000000E+00  0.00000000000E+00  0.00000000000E+00  0.91188000000E+02  0.91188000000E+02 0.  0.
    9900012    2    3    3    0    0  0.11450059838E+01 -0.20612014816E+02 -0.30489583120E+02  0.54367070187E+02  0.39999968106E+02 0.  0.
        -12    1    3    3    0    0 -0.11450059838E+01  0.20612014816E+02  0.30489583120E+02  0.36820929813E+02  0.00000000000E+00 0.  1.
         11    1    4    4    0    0 -0.50739483308E+01  0.25080875273E+01 -0.98357501907E+01  0.11348014663E+02  0.51100000000E-03 0. -1.
        -11    1    4    4    0    0 -0.25625375222E+01 -0.98662774788E+01 -0.24607960002E+02  0.26635722734E+02  0.51100000000E-03 0.  1.
        -12    1    4    4    0    0  0.87814918368E+01 -0.13253824864E+02  0.39541270731E+01  0.16383332791E+02  0.00000000000E+00 0.  1.
</event>
<event>
 8    1  0.2466538E-006  0.9118800E+02  0.7816164E-02  0.1184000E+00
        -11   -1    0    0    0    0  0.00000000000E+00  0.00000000000E+00  0.45593999997E+02  0.45594000000E+02  0.51100000000E-03 0.  1.
         11   -1    0    0    0    0 -0.00000000000E+00 -0.00000000000E+00 -0.45593999997E+02  0.45594000000E+02  0.51100000000E-03 0. -1.
         23    2    1    2    0    0  0.00000000000E+00  0.88817841970E-15  0.00000000000E+00  0.91188000000E+02  0.91188000000E+02 0.  0.
    9900012    2    3    3    0    0  0.14786958562E+02  0.42295676800E+01 -0.33454997783E+02  0.54367078461E+02  0.39999986968E+02 0.  0.
        -12    1    3    3    0    0 -0.14786958562E+02 -0.42295676800E+01  0.33454997783E+02  0.36820921539E+02  0.00000000000E+00 0.  1.
         11    1    4    4    0    0  0.46696736763E+00 -0.48958767930E+01 -0.70119755636E+01  0.85647807713E+01  0.51100000000E-03 0. -1.
        -11    1    4    4    0    0  0.67984446576E+01 -0.16897347334E+01 -0.31062254307E+02  0.31842388355E+02  0.51100000000E-03 0.  1.
        -12    1    4    4    0    0  0.75215465364E+01  0.10815179206E+02  0.46192320875E+01  0.13959909335E+02  0.00000000000E+00 0.  1.
</event>
<event>
 8    1  0.2466538E-006  0.9118800E+02  0.7816164E-02  0.1184000E+00
        -11   -1    0    0    0    0  0.00000000000E+00  0.00000000000E+00  0.45593999997E+02  0.45594000000E+02  0.51100000000E-03 0. -1.
         11   -1    0    0    0    0 -0.00000000000E+00 -0.00000000000E+00 -0.45593999997E+02  0.45594000000E+02  0.51100000000E-03 0.  1.
         23    2    1    2    0    0  0.22204460493E-15  0.00000000000E+00  0.00000000000E+00  0.91188000000E+02  0.91188000000E+02 0.  0.
    9900012    2    3    3    0    0  0.10587968799E+01 -0.22932080895E+02 -0.28788511731E+02  0.54367084847E+02  0.40000001526E+02 0.  0.
         12    1    3    3    0    0 -0.10587968799E+01  0.22932080895E+02  0.28788511731E+02  0.36820915153E+02  0.00000000000E+00 0. -1.
         11    1    4    4    0    0  0.12266508621E+01  0.16911576105E+01 -0.20713096894E+00  0.20994260883E+01  0.51100000000E-03 0. -1.
        -11    1    4    4    0    0 -0.15244276079E+01 -0.33848519564E+02 -0.18779551852E+02  0.38739098134E+02  0.51100000000E-03 0.  1.
         12    1    4    4    0    0  0.13565736257E+01  0.92252810584E+01 -0.98018289097E+01  0.13528560625E+02  0.00000000000E+00 0. -1.
</event>
<event>
 8    1  0.2466538E-006  0.9118800E+02  0.7816164E-02  0.1184000E+00
        -11   -1    0    0    0    0  0.00000000000E+00  0.00000000000E+00  0.45593999997E+02  0.45594000000E+02  0.51100000000E-03 0. -1.
         11   -1    0    0    0    0 -0.00000000000E+00 -0.00000000000E+00 -0.45593999997E+02  0.45594000000E+02  0.51100000000E-03 0.  1.
         23    2    1    2    0    0  0.00000000000E+00  0.00000000000E+00  0.00000000000E+00  0.91188000000E+02  0.91188000000E+02 0.  0.
    9900012    2    3    3    0    0  0.34301441094E+02  0.12833419422E+02 -0.38071096718E+01  0.54367087474E+02  0.40000007515E+02 0.  0.
        -12    1    3    3    0    0 -0.34301441094E+02 -0.12833419422E+02  0.38071096718E+01  0.36820912526E+02  0.00000000000E+00 0.  1.
         11    1    4    4    0    0  0.48175377445E+01  0.10517872126E+02 -0.12209721059E+02  0.16819975998E+02  0.51100000000E-03 0. -1.
        -11    1    4    4    0    0  0.20737979082E+02  0.12323709798E+01 -0.51293936024E+01  0.21398439046E+02  0.51100000000E-03 0.  1.
         12    1    4    4    0    0  0.87459242677E+01  0.10831763155E+01  0.13532004989E+02  0.16148672430E+02  0.00000000000E+00 0. -1.
</event>
<event>
 8    1  0.2466538E-006  0.9118800E+02  0.7816164E-02  0.1184000E+00
        -11   -1    0    0    0    0  0.00000000000E+00  0.00000000000E+00  0.45593999997E+02  0.45594000000E+02  0.51100000000E-03 0.  1.
         11   -1    0    0    0    0 -0.00000000000E+00 -0.00000000000E+00 -0.45593999997E+02  0.45594000000E+02  0.51100000000E-03 0. -1.
         23    2    1    2    0    0  0.00000000000E+00  0.00000000000E+00  0.88817841970E-15  0.91188000000E+02  0.91188000000E+02 0.  0.
    9900012    2    3    3    0    0 -0.32084269211E+02  0.16349195169E+02 -0.76865196745E+01  0.54367094277E+02  0.40000023024E+02 0.  0.
        -12    1    3    3    0    0  0.32084269211E+02 -0.16349195169E+02  0.76865196745E+01  0.36820905723E+02  0.00000000000E+00 0.  1.
         11    1    4    4    0    0  0.13496897511E+01  0.25938961121E+01 -0.94615673687E+01  0.99030912748E+01  0.51100000000E-03 0. -1.
        -11    1    4    4    0    0 -0.92169808393E+01  0.10440081698E+02  0.11595721668E+02  0.18122052944E+02  0.51100000000E-03 0.  1.
        -12    1    4    4    0    0 -0.24216978123E+02  0.33152173597E+01 -0.98206739743E+01  0.26341950058E+02  0.00000000000E+00 0.  1.
</event>
<event>
 8    1  0.2466538E-006  0.9118800E+02  0.7816164E-02  0.1184000E+00
        -11   -1    0    0    0    0  0.00000000000E+00  0.00000000000E+00  0.45593999997E+02  0.45594000000E+02  0.51100000000E-03 0. -1.
         11   -1    0    0    0    0 -0.00000000000E+00 -0.00000000000E+00 -0.45593999997E+02  0.45594000000E+02  0.51100000000E-03 0.  1.
         23    2    1    2    0    0 -0.35527136788E-14  0.00000000000E+00  0.00000000000E+00  0.91188000000E+02  0.91188000000E+02 0.  0.
    9900012    2    3    3    0    0 -0.31313803614E+02  0.82174932011E+01 -0.17541312783E+02  0.54367093637E+02  0.40000021563E+02 0.  0.
         12    1    3    3    0    0  0.31313803614E+02 -0.82174932011E+01  0.17541312783E+02  0.36820906363E+02  0.00000000000E+00 0. -1.
         11    1    4    4    0    0  0.85985584065E+00  0.82933199447E+00  0.87598535867E+01  0.88409376621E+01  0.51100000000E-03 0. -1.
        -11    1    4    4    0    0 -0.47110610681E+01  0.60140134531E+01 -0.12768772819E+02  0.14879650996E+02  0.51100000000E-03 0.  1.
        -12    1    4    4    0    0 -0.27462598386E+02  0.13741477535E+01 -0.13532393550E+02  0.30646504978E+02  0.00000000000E+00 0.  1.
</event>
<event>
 8    1  0.2466538E-006  0.9118800E+02  0.7816164E-02  0.1184000E+00
        -11   -1    0    0    0    0  0.00000000000E+00  0.00000000000E+00  0.45593999997E+02  0.45594000000E+02  0.51100000000E-03 0.  1.
         11   -1    0    0    0    0 -0.00000000000E+00 -0.00000000000E+00 -0.45593999997E+02  0.45594000000E+02  0.51100000000E-03 0. -1.
         23    2    1    2    0    0  0.88817841970E-15 -0.71054273576E-14 -0.88817841970E-15  0.91188000000E+02  0.91188000000E+02 0.  0.
    9900012    2    3    3    0    0  0.76763424288E+01 -0.35499966616E+02 -0.60503123914E+01  0.54367080092E+02  0.39999990686E+02 0.  0.
        -12    1    3    3    0    0 -0.76763424288E+01  0.35499966616E+02  0.60503123914E+01  0.36820919908E+02  0.00000000000E+00 0.  1.
         11    1    4    4    0    0 -0.66694076625E+01 -0.18991546957E+02  0.66513961734E+01  0.21199078417E+02  0.51100000000E-03 0. -1.
        -11    1    4    4    0    0  0.35311788808E+00 -0.41188753457E+01 -0.13839733017E+02  0.14443961942E+02  0.51100000000E-03 0.  1.
         12    1    4    4    0    0  0.13992632203E+02 -0.12389544313E+02  0.11380244519E+01  0.18724039733E+02  0.00000000000E+00 0. -1.
</event>
<event>
 8    1  0.2466538E-006  0.9118800E+02  0.7816164E-02  0.1184000E+00
        -11   -1    0    0    0    0  0.00000000000E+00  0.00000000000E+00  0.45593999997E+02  0.45594000000E+02  0.51100000000E-03 0. -1.
         11   -1    0    0    0    0 -0.00000000000E+00 -0.00000000000E+00 -0.45593999997E+02  0.45594000000E+02  0.51100000000E-03 0.  1.
         23    2    1    2    0    0  0.71054273576E-14 -0.88817841970E-15  0.44408920985E-15  0.91188000000E+02  0.91188000000E+02 0.  0.
    9900012    2    3    3    0    0 -0.36258002800E+02  0.61239707637E+01 -0.19061171188E+01  0.54367094696E+02  0.40000023979E+02 0.  0.
        -12    1    3    3    0    0  0.36258002800E+02 -0.61239707637E+01  0.19061171188E+01  0.36820905304E+02  0.00000000000E+00 0.  1.
         11    1    4    4    0    0 -0.19925588073E+02 -0.14421875548E+02 -0.22127945116E+01  0.24696477769E+02  0.51100000000E-03 0.  1.
        -11    1    4    4    0    0 -0.17309803838E+02  0.19622534902E+02  0.33150833702E+01  0.26375423464E+02  0.51100000000E-03 0. -1.
        -12    1    4    4    0    0  0.97738911142E+00  0.92331141015E+00 -0.30084059775E+01  0.32951934633E+01  0.00000000000E+00 0.  1.
</event>
<event>
 8    1  0.2466538E-006  0.9118800E+02  0.7816164E-02  0.1184000E+00
        -11   -1    0    0    0    0  0.00000000000E+00  0.00000000000E+00  0.45593999997E+02  0.45594000000E+02  0.51100000000E-03 0.  1.
         11   -1    0    0    0    0 -0.00000000000E+00 -0.00000000000E+00 -0.45593999997E+02  0.45594000000E+02  0.51100000000E-03 0. -1.
         23    2    1    2    0    0  0.00000000000E+00  0.88817841970E-15  0.00000000000E+00  0.91188000000E+02  0.91188000000E+02 0.  0.
    9900012    2    3    3    0    0  0.34410545162E+02  0.66789585494E+01  0.11273213703E+02  0.54367089462E+02  0.40000012045E+02 0.  0.
         12    1    3    3    0    0 -0.34410545162E+02 -0.66789585494E+01 -0.11273213703E+02  0.36820910538E+02  0.00000000000E+00 0. -1.
         11    1    4    4    0    0  0.10966244276E+02  0.18274443600E+02  0.56191396939E+01  0.22040611007E+02  0.51100000000E-03 0. -1.
        -11    1    4    4    0    0  0.12360699069E+01 -0.63467448776E+01  0.69207277930E+01  0.94712994253E+01  0.51100000000E-03 0.  1.
         12    1    4    4    0    0  0.22208230979E+02 -0.52487401730E+01 -0.12666537837E+01  0.22855179029E+02  0.00000000000E+00 0. -1.
</event>
<event>
 8    1  0.2466538E-006  0.9118800E+02  0.7816164E-02  0.1184000E+00
        -11   -1    0    0    0    0  0.00000000000E+00  0.00000000000E+00  0.45593999997E+02  0.45594000000E+02  0.51100000000E-03 0. -1.
         11   -1    0    0    0    0 -0.00000000000E+00 -0.00000000000E+00 -0.45593999997E+02  0.45594000000E+02  0.51100000000E-03 0.  1.
         23    2    1    2    0    0 -0.17763568394E-14  0.71054273576E-14 -0.17763568394E-14  0.91188000000E+02  0.91188000000E+02 0.  0.
    9900012    2    3    3    0    0  0.96430137472E+01  0.33854109747E+02 -0.10802347173E+02  0.54367093367E+02  0.40000020948E+02 0.  0.
        -12    1    3    3    0    0 -0.96430137472E+01 -0.33854109747E+02  0.10802347173E+02  0.36820906633E+02  0.00000000000E+00 0.  1.
         11    1    4    4    0    0  0.76557995555E+01  0.21216637433E+02  0.12547161174E+02  0.25810622321E+02  0.51100000000E-03 0. -1.
        -11    1    4    4    0    0 -0.34149178920E+01  0.97142007798E+01 -0.14747929943E+02  0.17986906317E+02  0.51100000000E-03 0.  1.
        -12    1    4    4    0    0  0.54021320838E+01  0.29232715339E+01 -0.86015784043E+01  0.10569564729E+02  0.00000000000E+00 0.  1.
</event>
<event>
 8    1  0.2466538E-006  0.9118800E+02  0.7816164E-02  0.1184000E+00
        -11   -1    0    0    0    0  0.00000000000E+00  0.00000000000E+00  0.45593999997E+02  0.45594000000E+02  0.51100000000E-03 0. -1.
         11   -1    0    0    0    0 -0.00000000000E+00 -0.00000000000E+00 -0.45593999997E+02  0.45594000000E+02  0.51100000000E-03 0.  1.
         23    2    1    2    0    0 -0.15543122345E-14 -0.35527136788E-14  0.35527136788E-14  0.91188000000E+02  0.91188000000E+02 0.  0.
    9900012    2    3    3    0    0  0.76775189634E+00  0.26757952469E+02 -0.25282456043E+02  0.54367081396E+02  0.39999993658E+02 0.  0.
         12    1    3    3    0    0 -0.76775189634E+00 -0.26757952469E+02  0.25282456043E+02  0.36820918604E+02  0.00000000000E+00 0. -1.
         11    1    4    4    0    0  0.61205609057E+00 -0.23332641826E+01  0.28717477824E+01  0.37504226416E+01  0.51100000000E-03 0. -1.
        -11    1    4    4    0    0 -0.91387058609E+01 -0.15769454150E+00 -0.14236928402E+02  0.16918361119E+02  0.51100000000E-03 0.  1.
         12    1    4    4    0    0  0.92944016667E+01  0.29248911193E+02 -0.13917275423E+02  0.33698297635E+02  0.00000000000E+00 0. -1.
</event>
<event>
 8    1  0.2466538E-006  0.9118800E+02  0.7816164E-02  0.1184000E+00
        -11   -1    0    0    0    0  0.00000000000E+00  0.00000000000E+00  0.45593999997E+02  0.45594000000E+02  0.51100000000E-03 0.  1.
         11   -1    0    0    0    0 -0.00000000000E+00 -0.00000000000E+00 -0.45593999997E+02  0.45594000000E+02  0.51100000000E-03 0. -1.
         23    2    1    2    0    0  0.17763568394E-14  0.35527136788E-14 -0.35527136788E-14  0.91188000000E+02  0.91188000000E+02 0.  0.
    9900012    2    3    3    0    0 -0.10489692292E+02 -0.30936498001E+02 -0.16990504419E+02  0.54367111997E+02  0.40000063419E+02 0.  0.
        -12    1    3    3    0    0  0.10489692292E+02  0.30936498001E+02  0.16990504419E+02  0.36820888003E+02  0.00000000000E+00 0.  1.
         11    1    4    4    0    0 -0.34313223964E+00 -0.32053870194E+02 -0.76407299666E+01  0.32953741651E+02  0.51100000000E-03 0. -1.
        -11    1    4    4    0    0  0.37448171159E+01  0.33216334418E+01 -0.11627508043E+01  0.51389584204E+01  0.51100000000E-03 0.  1.
         12    1    4    4    0    0 -0.13891377168E+02 -0.22042612486E+01 -0.81870236483E+01  0.16274411925E+02  0.00000000000E+00 0. -1.
</event>
<event>
 8    1  0.2466538E-006  0.9118800E+02  0.7816164E-02  0.1184000E+00
        -11   -1    0    0    0    0  0.00000000000E+00  0.00000000000E+00  0.45593999997E+02  0.45594000000E+02  0.51100000000E-03 0.  1.
         11   -1    0    0    0    0 -0.00000000000E+00 -0.00000000000E+00 -0.45593999997E+02  0.45594000000E+02  0.51100000000E-03 0. -1.
         23    2    1    2    0    0 -0.22204460493E-15  0.00000000000E+00  0.35527136788E-14  0.91188000000E+02  0.91188000000E+02 0.  0.
    9900012    2    3    3    0    0  0.33338853626E+00 -0.31364653712E+02 -0.19285413061E+02  0.54367084649E+02  0.40000001075E+02 0.  0.
        -12    1    3    3    0    0 -0.33338853626E+00  0.31364653712E+02  0.19285413061E+02  0.36820915351E+02  0.00000000000E+00 0.  1.
         11    1    4    4    0    0  0.10239338138E+02 -0.26716100067E+02 -0.31836297191E+01  0.28787663099E+02  0.51100000000E-03 0. -1.
        -11    1    4    4    0    0  0.15472892313E+01  0.42242575978E+01 -0.91594062243E+00  0.45910133634E+01  0.51100000000E-03 0.  1.
         12    1    4    4    0    0 -0.11453238833E+02 -0.88728112424E+01 -0.15185842719E+02  0.20988408186E+02  0.00000000000E+00 0. -1.
</event>
<event>
 8    1  0.2466538E-006  0.9118800E+02  0.7816164E-02  0.1184000E+00
        -11   -1    0    0    0    0  0.00000000000E+00  0.00000000000E+00  0.45593999997E+02  0.45594000000E+02  0.51100000000E-03 0. -1.
         11   -1    0    0    0    0 -0.00000000000E+00 -0.00000000000E+00 -0.45593999997E+02  0.45594000000E+02  0.51100000000E-03 0.  1.
         23    2    1    2    0    0  0.00000000000E+00  0.17763568394E-14 -0.71054273576E-14  0.91188000000E+02  0.91188000000E+02 0.  0.
    9900012    2    3    3    0    0  0.15169585306E+02 -0.11820313583E+02 -0.31399738137E+02  0.54367086287E+02  0.40000004809E+02 0.  0.
         12    1    3    3    0    0 -0.15169585306E+02  0.11820313583E+02  0.31399738137E+02  0.36820913713E+02  0.00000000000E+00 0. -1.
         11    1    4    4    0    0  0.16812372507E+02 -0.10117439543E+02 -0.67072620283E+01  0.20736581598E+02  0.51100000000E-03 0. -1.
        -11    1    4    4    0    0  0.31654786890E+01 -0.69426705433E+00 -0.27687589288E+02  0.27876600634E+02  0.51100000000E-03 0.  1.
        -12    1    4    4    0    0 -0.48082658896E+01 -0.10086069862E+01  0.29951131792E+01  0.57539040550E+01  0.00000000000E+00 0.  1.
</event>
<event>
 8    1  0.2466538E-006  0.9118800E+02  0.7816164E-02  0.1184000E+00
        -11   -1    0    0    0    0  0.00000000000E+00  0.00000000000E+00  0.45593999997E+02  0.45594000000E+02  0.51100000000E-03 0. -1.
         11   -1    0    0    0    0 -0.00000000000E+00 -0.00000000000E+00 -0.45593999997E+02  0.45594000000E+02  0.51100000000E-03 0.  1.
         23    2    1    2    0    0 -0.17763568394E-14 -0.17763568394E-14  0.00000000000E+00  0.91188000000E+02  0.91188000000E+02 0.  0.
    9900012    2    3    3    0    0 -0.10540953726E+02  0.12496492277E+02  0.32992555916E+02  0.54367044410E+02  0.39999909341E+02 0.  0.
        -12    1    3    3    0    0  0.10540953726E+02 -0.12496492277E+02 -0.32992555916E+02  0.36820955590E+02  0.00000000000E+00 0.  1.
         11    1    4    4    0    0 -0.71196161979E+01 -0.70017753448E+01  0.11435982401E+02  0.15182077806E+02  0.51100000000E-03 0. -1.
        -11    1    4    4    0    0 -0.50157755331E+01  0.44321590250E+01 -0.51736436591E+01  0.84598242768E+01  0.51100000000E-03 0.  1.
         12    1    4    4    0    0  0.15944380048E+01  0.15066108596E+02  0.26730217175E+02  0.30725142327E+02  0.00000000000E+00 0. -1.
</event>
<event>
 8    1  0.2466538E-006  0.9118800E+02  0.7816164E-02  0.1184000E+00
        -11   -1    0    0    0    0  0.00000000000E+00  0.00000000000E+00  0.45593999997E+02  0.45594000000E+02  0.51100000000E-03 0.  1.
         11   -1    0    0    0    0 -0.00000000000E+00 -0.00000000000E+00 -0.45593999997E+02  0.45594000000E+02  0.51100000000E-03 0. -1.
         23    2    1    2    0    0 -0.35527136788E-14  0.35527136788E-14  0.17763568394E-14  0.91188000000E+02  0.91188000000E+02 0.  0.
    9900012    2    3    3    0    0  0.27559501926E+02 -0.20409701874E+02 -0.13405085726E+02  0.54367103754E+02  0.40000044629E+02 0.  0.
        -12    1    3    3    0    0 -0.27559501926E+02  0.20409701874E+02  0.13405085726E+02  0.36820896246E+02  0.00000000000E+00 0.  1.
         11    1    4    4    0    0 -0.30789331913E+01  0.30058614805E+01 -0.32673147456E+01  0.54028121145E+01  0.51100000000E-03 0. -1.
        -11    1    4    4    0    0  0.50801145058E+00 -0.70549185318E+01 -0.12748543214E+02  0.14579276575E+02  0.51100000000E-03 0.  1.
         12    1    4    4    0    0  0.30130423667E+02 -0.16360644823E+02  0.26107722329E+01  0.34385015065E+02  0.00000000000E+00 0. -1.
</event>
<event>
 8    1  0.2466538E-006  0.9118800E+02  0.7816164E-02  0.1184000E+00
        -11   -1    0    0    0    0  0.00000000000E+00  0.00000000000E+00  0.45593999997E+02  0.45594000000E+02  0.51100000000E-03 0.  1.
         11   -1    0    0    0    0 -0.00000000000E+00 -0.00000000000E+00 -0.45593999997E+02  0.45594000000E+02  0.51100000000E-03 0. -1.
         23    2    1    2    0    0 -0.35527136788E-14 -0.71054273576E-14  0.44408920985E-15  0.91188000000E+02  0.91188000000E+02 0.  0.
    9900012    2    3    3    0    0 -0.24419098235E+02 -0.27459324923E+02 -0.23394429522E+01  0.54367083700E+02  0.39999998911E+02 0.  0.
         12    1    3    3    0    0  0.24419098235E+02  0.27459324923E+02  0.23394429522E+01  0.36820916300E+02  0.00000000000E+00 0. -1.
         11    1    4    4    0    0 -0.63091908916E+00  0.39848590390E+00  0.43368915956E+01  0.44006225567E+01  0.51100000000E-03 0. -1.
        -11    1    4    4    0    0 -0.17728568908E+01  0.26143880840E+01 -0.11627446178E+02  0.12048881753E+02  0.51100000000E-03 0.  1.
        -12    1    4    4    0    0 -0.22015322255E+02 -0.30472198911E+02  0.49511116303E+01  0.37917579390E+02  0.00000000000E+00 0.  1.
</event>
<event>
 8    1  0.2466538E-006  0.9118800E+02  0.7816164E-02  0.1184000E+00
        -11   -1    0    0    0    0  0.00000000000E+00  0.00000000000E+00  0.45593999997E+02  0.45594000000E+02  0.51100000000E-03 0. -1.
         11   -1    0    0    0    0 -0.00000000000E+00 -0.00000000000E+00 -0.45593999997E+02  0.45594000000E+02  0.51100000000E-03 0.  1.
         23    2    1    2    0    0  0.00000000000E+00  0.00000000000E+00 -0.35527136788E-14  0.91188000000E+02  0.91188000000E+02 0.  0.
    9900012    2    3    3    0    0 -0.74207653802E+01  0.18004570632E+02 -0.31249764517E+02  0.54367080608E+02  0.39999991863E+02 0.  0.
         12    1    3    3    0    0  0.74207653802E+01 -0.18004570632E+02  0.31249764517E+02  0.36820919392E+02  0.00000000000E+00 0. -1.
         11    1    4    4    0    0  0.31982730638E+01  0.55076367683E+01 -0.14092963883E+01  0.65229694107E+01  0.51100000000E-03 0. -1.
        -11    1    4    4    0    0  0.11970674823E+02  0.78774185659E+01 -0.11994691612E+02  0.18687520063E+02  0.51100000000E-03 0.  1.
        -12    1    4    4    0    0 -0.22589713267E+02  0.46195152976E+01 -0.17845776517E+02  0.29156591134E+02  0.00000000000E+00 0.  1.
</event>
<event>
 8    1  0.2466538E-006  0.9118800E+02  0.7816164E-02  0.1184000E+00
        -11   -1    0    0    0    0  0.00000000000E+00  0.00000000000E+00  0.45593999997E+02  0.45594000000E+02  0.51100000000E-03 0.  1.
         11   -1    0    0    0    0 -0.00000000000E+00 -0.00000000000E+00 -0.45593999997E+02  0.45594000000E+02  0.51100000000E-03 0. -1.
         23    2    1    2    0    0 -0.17763568394E-14  0.71054273576E-14  0.00000000000E+00  0.91188000000E+02  0.91188000000E+02 0.  0.
    9900012    2    3    3    0    0  0.93929555662E+01 -0.32009409914E+02 -0.15586826307E+02  0.54367094367E+02  0.40000023228E+02 0.  0.
        -12    1    3    3    0    0 -0.93929555662E+01  0.32009409914E+02  0.15586826307E+02  0.36820905633E+02  0.00000000000E+00 0.  1.
         11    1    4    4    0    0  0.64768821674E+01 -0.16371080706E+01 -0.11627395191E+01  0.67810094304E+01  0.51100000000E-03 0. -1.
        -11    1    4    4    0    0  0.67384017900E+01  0.57993037833E+01 -0.40007484392E+01  0.97490497685E+01  0.51100000000E-03 0.  1.
         12    1    4    4    0    0 -0.38223283911E+01 -0.36171605627E+02 -0.10423338349E+02  0.37837035168E+02  0.00000000000E+00 0. -1.
</event>
<event>
 8    1  0.2466538E-006  0.9118800E+02  0.7816164E-02  0.1184000E+00
        -11   -1    0    0    0    0  0.00000000000E+00  0.00000000000E+00  0.45593999997E+02  0.45594000000E+02  0.51100000000E-03 0. -1.
         11   -1    0    0    0    0 -0.00000000000E+00 -0.00000000000E+00 -0.45593999997E+02  0.45594000000E+02  0.51100000000E-03 0.  1.
         23    2    1    2    0    0 -0.10824674490E-14  0.00000000000E+00  0.00000000000E+00  0.91188000000E+02  0.91188000000E+02 0.  0.
    9900012    2    3    3    0    0  0.18208944876E+00  0.26439740742E+02 -0.25625936973E+02  0.54367059045E+02  0.39999942705E+02 0.  0.
         12    1    3    3    0    0 -0.18208944876E+00 -0.26439740742E+02  0.25625936973E+02  0.36820940955E+02  0.00000000000E+00 0. -1.
         11    1    4    4    0    0  0.48435534604E+01  0.94032698681E+01 -0.64169105704E+01  0.12371670698E+02  0.51100000000E-03 0.  1.
        -11    1    4    4    0    0 -0.41545930271E+01  0.27010842545E+02 -0.14793212177E+02  0.31075478838E+02  0.51100000000E-03 0. -1.
        -12    1    4    4    0    0 -0.50687098450E+00 -0.99743716706E+01 -0.44158142247E+01  0.10919909509E+02  0.00000000000E+00 0.  1.
</event>
<event>
 8    1  0.2466538E-006  0.9118800E+02  0.7816164E-02  0.1184000E+00
        -11   -1    0    0    0    0  0.00000000000E+00  0.00000000000E+00  0.45593999997E+02  0.45594000000E+02  0.51100000000E-03 0.  1.
         11   -1    0    0    0    0 -0.00000000000E+00 -0.00000000000E+00 -0.45593999997E+02  0.45594000000E+02  0.51100000000E-03 0. -1.
         23    2    1    2    0    0  0.00000000000E+00  0.17763568394E-14 -0.35527136788E-14  0.91188000000E+02  0.91188000000E+02 0.  0.
    9900012    2    3    3    0    0 -0.22574050150E+02 -0.11022486672E+02 -0.26920192322E+02  0.54367086007E+02  0.40000004171E+02 0.  0.
        -12    1    3    3    0    0  0.22574050150E+02  0.11022486672E+02  0.26920192322E+02  0.36820913993E+02  0.00000000000E+00 0.  1.
         11    1    4    4    0    0  0.47113501252E+01  0.32349760241E+01 -0.34755349580E+01  0.66888888004E+01  0.51100000000E-03 0. -1.
        -11    1    4    4    0    0 -0.23110199619E+01  0.91419163163E+00 -0.17729710811E+02  0.17903050168E+02  0.51100000000E-03 0.  1.
        -12    1    4    4    0    0 -0.24974380314E+02 -0.15171654327E+02 -0.57149465524E+01  0.29775147039E+02  0.00000000000E+00 0.  1.
</event>
<event>
 8    1  0.2466538E-006  0.9118800E+02  0.7816164E-02  0.1184000E+00
        -11   -1    0    0    0    0  0.00000000000E+00  0.00000000000E+00  0.45593999997E+02  0.45594000000E+02  0.51100000000E-03 0. -1.
         11   -1    0    0    0    0 -0.00000000000E+00 -0.00000000000E+00 -0.45593999997E+02  0.45594000000E+02  0.51100000000E-03 0.  1.
         23    2    1    2    0    0  0.00000000000E+00  0.44408920985E-15  0.00000000000E+00  0.91188000000E+02  0.91188000000E+02 0.  0.
    9900012    2    3    3    0    0 -0.23740192473E+02 -0.37707343518E+01 -0.27891995610E+02  0.54367101107E+02  0.40000038593E+02 0.  0.
         12    1    3    3    0    0  0.23740192473E+02  0.37707343518E+01  0.27891995610E+02  0.36820898893E+02  0.00000000000E+00 0. -1.
         11    1    4    4    0    0 -0.19162479632E+02 -0.13069013324E+02 -0.10363487093E+02  0.25404755459E+02  0.51100000000E-03 0. -1.
        -11    1    4    4    0    0 -0.63418137554E+01 -0.31627314429E+01 -0.14315261283E+02  0.15973358374E+02  0.51100000000E-03 0.  1.
         12    1    4    4    0    0  0.17641009149E+01  0.12461010415E+02 -0.32132472337E+01  0.12988987274E+02  0.00000000000E+00 0. -1.
</event>
<event>
 8    1  0.2466538E-006  0.9118800E+02  0.7816164E-02  0.1184000E+00
        -11   -1    0    0    0    0  0.00000000000E+00  0.00000000000E+00  0.45593999997E+02  0.45594000000E+02  0.51100000000E-03 0.  1.
         11   -1    0    0    0    0 -0.00000000000E+00 -0.00000000000E+00 -0.45593999997E+02  0.45594000000E+02  0.51100000000E-03 0. -1.
         23    2    1    2    0    0 -0.35527136788E-14  0.35527136788E-14 -0.17763568394E-14  0.91188000000E+02  0.91188000000E+02 0.  0.
    9900012    2    3    3    0    0 -0.28632305024E+02 -0.19691098226E+02  0.12175078294E+02  0.54367071552E+02  0.39999971216E+02 0.  0.
         12    1    3    3    0    0  0.28632305024E+02  0.19691098226E+02 -0.12175078294E+02  0.36820928448E+02  0.00000000000E+00 0. -1.
         11    1    4    4    0    0 -0.10984384697E+02 -0.20800072193E+02  0.42668372671E+01  0.23906183529E+02  0.51100000000E-03 0. -1.
        -11    1    4    4    0    0 -0.14040552992E+02 -0.82048346080E+01  0.11422318838E+02  0.19872740303E+02  0.51100000000E-03 0.  1.
         12    1    4    4    0    0 -0.36073673346E+01  0.93138085752E+01 -0.35140778108E+01  0.10588147719E+02  0.00000000000E+00 0. -1.
</event>
<event>
 8    1  0.2466538E-006  0.9118800E+02  0.7816164E-02  0.1184000E+00
        -11   -1    0    0    0    0  0.00000000000E+00  0.00000000000E+00  0.45593999997E+02  0.45594000000E+02  0.51100000000E-03 0.  1.
         11   -1    0    0    0    0 -0.00000000000E+00 -0.00000000000E+00 -0.45593999997E+02  0.45594000000E+02  0.51100000000E-03 0. -1.
         23    2    1    2    0    0  0.44408920985E-15 -0.71054273576E-14  0.11102230246E-14  0.91188000000E+02  0.91188000000E+02 0.  0.
    9900012    2    3    3    0    0  0.26152440795E+01  0.36686707757E+02 -0.17393577735E+01  0.54367090273E+02  0.40000013896E+02 0.  0.
         12    1    3    3    0    0 -0.26152440795E+01 -0.36686707757E+02  0.17393577735E+01  0.36820909727E+02  0.00000000000E+00 0. -1.
         11    1    4    4    0    0  0.86451960256E+01  0.11912396665E+02 -0.31085559011E+01  0.15043527800E+02  0.51100000000E-03 0. -1.
        -11    1    4    4    0    0  0.42124650259E+01  0.15167339788E+02  0.13522380583E+02  0.20752056157E+02  0.51100000000E-03 0.  1.
        -12    1    4    4    0    0 -0.10242416972E+02  0.96069713036E+01 -0.12153182455E+02  0.18571506316E+02  0.00000000000E+00 0.  1.
</event>
<event>
 8    1  0.2466538E-006  0.9118800E+02  0.7816164E-02  0.1184000E+00
        -11   -1    0    0    0    0  0.00000000000E+00  0.00000000000E+00  0.45593999997E+02  0.45594000000E+02  0.51100000000E-03 0. -1.
         11   -1    0    0    0    0 -0.00000000000E+00 -0.00000000000E+00 -0.45593999997E+02  0.45594000000E+02  0.51100000000E-03 0.  1.
         23    2    1    2    0    0  0.00000000000E+00  0.00000000000E+00 -0.44408920985E-15  0.91188000000E+02  0.91188000000E+02 0.  0.
    9900012    2    3    3    0    0  0.12930437495E+02  0.34473703880E+02 -0.38347797404E+00  0.54367088436E+02  0.40000009707E+02 0.  0.
         12    1    3    3    0    0 -0.12930437495E+02 -0.34473703880E+02  0.38347797404E+00  0.36820911564E+02  0.00000000000E+00 0. -1.
         11    1    4    4    0    0  0.10959639127E+02  0.14769591195E+02 -0.11824347658E+02  0.21864805319E+02  0.51100000000E-03 0. -1.
        -11    1    4    4    0    0  0.80212588100E+01 -0.16827424447E+01  0.30713322138E+01  0.87524451933E+01  0.51100000000E-03 0.  1.
        -12    1    4    4    0    0 -0.60504604418E+01  0.21386855130E+02  0.83695374700E+01  0.23749837923E+02  0.00000000000E+00 0.  1.
</event>
<event>
 8    1  0.2466538E-006  0.9118800E+02  0.7816164E-02  0.1184000E+00
        -11   -1    0    0    0    0  0.00000000000E+00  0.00000000000E+00  0.45593999997E+02  0.45594000000E+02  0.51100000000E-03 0.  1.
         11   -1    0    0    0    0 -0.00000000000E+00 -0.00000000000E+00 -0.45593999997E+02  0.45594000000E+02  0.51100000000E-03 0. -1.
         23    2    1    2    0    0  0.00000000000E+00 -0.35527136788E-14 -0.53290705182E-14  0.91188000000E+02  0.91188000000E+02 0.  0.
    9900012    2    3    3    0    0 -0.12946794000E+02 -0.30644443730E+02 -0.15782071738E+02  0.54367147284E+02  0.40000143863E+02 0.  0.
        -12    1    3    3    0    0  0.12946794000E+02  0.30644443730E+02  0.15782071738E+02  0.36820852716E+02  0.00000000000E+00 0.  1.
         11    1    4    4    0    0 -0.16181888263E+02 -0.22624414730E+02 -0.18558950734E+02  0.33438784401E+02  0.51100000000E-03 0. -1.
        -11    1    4    4    0    0 -0.10443918132E+01 -0.96930627416E+01 -0.56949750222E+01  0.11290658100E+02  0.51100000000E-03 0.  1.
        -12    1    4    4    0    0  0.42794860760E+01  0.16730337412E+01  0.84718540179E+01  0.96377047825E+01  0.00000000000E+00 0.  1.
</event>
<event>
 8    1  0.2466538E-006  0.9118800E+02  0.7816164E-02  0.1184000E+00
        -11   -1    0    0    0    0  0.00000000000E+00  0.00000000000E+00  0.45593999997E+02  0.45594000000E+02  0.51100000000E-03 0.  1.
         11   -1    0    0    0    0 -0.00000000000E+00 -0.00000000000E+00 -0.45593999997E+02  0.45594000000E+02  0.51100000000E-03 0. -1.
         23    2    1    2    0    0 -0.35527136788E-14 -0.35527136788E-14 -0.44408920985E-15  0.91188000000E+02  0.91188000000E+02 0.  0.
    9900012    2    3    3    0    0 -0.28055074996E+02 -0.23664898236E+02 -0.29435706568E+01  0.54367092219E+02  0.40000018332E+02 0.  0.
        -12    1    3    3    0    0  0.28055074996E+02  0.23664898236E+02  0.29435706568E+01  0.36820907781E+02  0.00000000000E+00 0.  1.
         11    1    4    4    0    0 -0.79923963224E+01 -0.54488777666E+01  0.29845985832E+01  0.10123067561E+02  0.51100000000E-03 0. -1.
        -11    1    4    4    0    0 -0.15275956921E+02 -0.24279908406E+02 -0.14965368205E+02  0.32354768703E+02  0.51100000000E-03 0.  1.
        -12    1    4    4    0    0 -0.47867217531E+01  0.60638879359E+01  0.90371989647E+01  0.11889255955E+02  0.00000000000E+00 0.  1.
</event>
<event>
 8    1  0.2466538E-006  0.9118800E+02  0.7816164E-02  0.1184000E+00
        -11   -1    0    0    0    0  0.00000000000E+00  0.00000000000E+00  0.45593999997E+02  0.45594000000E+02  0.51100000000E-03 0.  1.
         11   -1    0    0    0    0 -0.00000000000E+00 -0.00000000000E+00 -0.45593999997E+02  0.45594000000E+02  0.51100000000E-03 0. -1.
         23    2    1    2    0    0  0.00000000000E+00  0.00000000000E+00 -0.13322676296E-14  0.91188000000E+02  0.91188000000E+02 0.  0.
    9900012    2    3    3    0    0  0.30099061591E+02  0.21032535459E+02 -0.27309074723E+01  0.54367096805E+02  0.40000028786E+02 0.  0.
        -12    1    3    3    0    0 -0.30099061591E+02 -0.21032535459E+02  0.27309074723E+01  0.36820903195E+02  0.00000000000E+00 0.  1.
         11    1    4    4    0    0  0.13893329466E+02  0.11612668148E+02 -0.40295236417E+01  0.18550356498E+02  0.51100000000E-03 0. -1.
        -11    1    4    4    0    0  0.14173816759E+02  0.14908764833E+02 -0.10164938152E+02  0.22945464001E+02  0.51100000000E-03 0.  1.
        -12    1    4    4    0    0  0.20319153664E+01 -0.54888975222E+01  0.11463554321E+02  0.12871276306E+02  0.00000000000E+00 0.  1.
</event>
<event>
 8    1  0.2466538E-006  0.9118800E+02  0.7816164E-02  0.1184000E+00
        -11   -1    0    0    0    0  0.00000000000E+00  0.00000000000E+00  0.45593999997E+02  0.45594000000E+02  0.51100000000E-03 0.  1.
         11   -1    0    0    0    0 -0.00000000000E+00 -0.00000000000E+00 -0.45593999997E+02  0.45594000000E+02  0.51100000000E-03 0. -1.
         23    2    1    2    0    0  0.00000000000E+00  0.00000000000E+00 -0.35527136788E-14  0.91188000000E+02  0.91188000000E+02 0.  0.
    9900012    2    3    3    0    0  0.29042194684E+02  0.12490406560E+02 -0.18876465719E+02  0.54367078147E+02  0.39999986251E+02 0.  0.
        -12    1    3    3    0    0 -0.29042194684E+02 -0.12490406560E+02  0.18876465719E+02  0.36820921853E+02  0.00000000000E+00 0.  1.
         11    1    4    4    0    0  0.29820049334E+01  0.81661040474E+01 -0.98945311694E+01  0.13171156216E+02  0.51100000000E-03 0. -1.
        -11    1    4    4    0    0  0.17627590082E+02 -0.12009557768E+02 -0.80228571351E+01  0.22788761414E+02  0.51100000000E-03 0.  1.
         12    1    4    4    0    0  0.84325996683E+01  0.16333860281E+02 -0.95907741433E+00  0.18407160518E+02  0.00000000000E+00 0. -1.
</event>
<event>
 8    1  0.2466538E-006  0.9118800E+02  0.7816164E-02  0.1184000E+00
        -11   -1    0    0    0    0  0.00000000000E+00  0.00000000000E+00  0.45593999997E+02  0.45594000000E+02  0.51100000000E-03 0.  1.
         11   -1    0    0    0    0 -0.00000000000E+00 -0.00000000000E+00 -0.45593999997E+02  0.45594000000E+02  0.51100000000E-03 0. -1.
         23    2    1    2    0    0  0.00000000000E+00  0.00000000000E+00  0.00000000000E+00  0.91188000000E+02  0.91188000000E+02 0.  0.
    9900012    2    3    3    0    0  0.16220242824E+02 -0.20695665895E+02  0.25775430894E+02  0.54367086081E+02  0.40000004339E+02 0.  0.
         12    1    3    3    0    0 -0.16220242824E+02  0.20695665895E+02 -0.25775430894E+02  0.36820913919E+02  0.00000000000E+00 0. -1.
         11    1    4    4    0    0  0.36678465375E+01 -0.36162674190E+01 -0.56427134992E+01  0.76400722617E+01  0.51100000000E-03 0. -1.
        -11    1    4    4    0    0  0.14151903546E+01  0.25797521950E+01  0.22085737481E+02  0.22280881613E+02  0.51100000000E-03 0.  1.
        -12    1    4    4    0    0  0.11137205932E+02 -0.19659150671E+02  0.93324069119E+01  0.24446132206E+02  0.00000000000E+00 0.  1.
</event>
<event>
 8    1  0.2466538E-006  0.9118800E+02  0.7816164E-02  0.1184000E+00
        -11   -1    0    0    0    0  0.00000000000E+00  0.00000000000E+00  0.45593999997E+02  0.45594000000E+02  0.51100000000E-03 0. -1.
         11   -1    0    0    0    0 -0.00000000000E+00 -0.00000000000E+00 -0.45593999997E+02  0.45594000000E+02  0.51100000000E-03 0.  1.
         23    2    1    2    0    0  0.00000000000E+00 -0.35527136788E-14 -0.71054273576E-14  0.91188000000E+02  0.91188000000E+02 0.  0.
    9900012    2    3    3    0    0  0.57281424352E+01 -0.12683654121E+02 -0.34089401377E+02  0.54367163727E+02  0.40000181348E+02 0.  0.
         12    1    3    3    0    0 -0.57281424352E+01  0.12683654121E+02  0.34089401377E+02  0.36820836273E+02  0.00000000000E+00 0. -1.
         11    1    4    4    0    0  0.47900894402E+01 -0.22270910331E+02 -0.24452288787E+02  0.33419348154E+02  0.51100000000E-03 0.  1.
        -11    1    4    4    0    0  0.48502116927E+01 -0.17532714551E+01  0.58043442505E+00  0.51899343582E+01  0.51100000000E-03 0. -1.
        -12    1    4    4    0    0 -0.39121586977E+01  0.11340527665E+02 -0.10217547014E+02  0.15757881215E+02  0.00000000000E+00 0.  1.
</event>
<event>
 8    1  0.2466538E-006  0.9118800E+02  0.7816164E-02  0.1184000E+00
        -11   -1    0    0    0    0  0.00000000000E+00  0.00000000000E+00  0.45593999997E+02  0.45594000000E+02  0.51100000000E-03 0.  1.
         11   -1    0    0    0    0 -0.00000000000E+00 -0.00000000000E+00 -0.45593999997E+02  0.45594000000E+02  0.51100000000E-03 0. -1.
         23    2    1    2    0    0  0.17763568394E-14 -0.71054273576E-14  0.00000000000E+00  0.91188000000E+02  0.91188000000E+02 0.  0.
    9900012    2    3    3    0    0 -0.11390975010E+02  0.33531790181E+02 -0.10082476268E+02  0.54366924620E+02  0.39999636254E+02 0.  0.
        -12    1    3    3    0    0  0.11390975010E+02 -0.33531790181E+02  0.10082476268E+02  0.36821075380E+02  0.00000000000E+00 0.  1.
         11    1    4    4    0    0  0.11973071191E+00  0.71794213019E+00 -0.16489263814E+02  0.16505320286E+02  0.51100000000E-03 0. -1.
        -11    1    4    4    0    0 -0.90098485572E+01  0.10582521826E+02  0.68301279824E+01  0.15486051393E+02  0.51100000000E-03 0.  1.
         12    1    4    4    0    0 -0.25008571649E+01  0.22231326225E+02 -0.42334043606E+00  0.22375552941E+02  0.00000000000E+00 0. -1.
</event>
<event>
 8    1  0.2466538E-006  0.9118800E+02  0.7816164E-02  0.1184000E+00
        -11   -1    0    0    0    0  0.00000000000E+00  0.00000000000E+00  0.45593999997E+02  0.45594000000E+02  0.51100000000E-03 0.  1.
         11   -1    0    0    0    0 -0.00000000000E+00 -0.00000000000E+00 -0.45593999997E+02  0.45594000000E+02  0.51100000000E-03 0. -1.
         23    2    1    2    0    0  0.00000000000E+00  0.00000000000E+00 -0.88817841970E-15  0.91188000000E+02  0.91188000000E+02 0.  0.
    9900012    2    3    3    0    0  0.27259302094E+02 -0.24737895238E+02  0.86630922472E+00  0.54367034462E+02  0.39999886663E+02 0.  0.
         12    1    3    3    0    0 -0.27259302094E+02  0.24737895238E+02 -0.86630922472E+00  0.36820965538E+02  0.00000000000E+00 0. -1.
         11    1    4    4    0    0  0.13786141046E+02 -0.95290339720E+01 -0.14632131861E+02  0.22247684294E+02  0.51100000000E-03 0. -1.
        -11    1    4    4    0    0  0.18029027503E+02 -0.12173039340E+02  0.87951563138E+01  0.23464515642E+02  0.51100000000E-03 0.  1.
        -12    1    4    4    0    0 -0.45558664553E+01 -0.30358219266E+01  0.67032847724E+01  0.86548345257E+01  0.00000000000E+00 0.  1.
</event>
<event>
 8    1  0.2466538E-006  0.9118800E+02  0.7816164E-02  0.1184000E+00
        -11   -1    0    0    0    0  0.00000000000E+00  0.00000000000E+00  0.45593999997E+02  0.45594000000E+02  0.51100000000E-03 0.  1.
         11   -1    0    0    0    0 -0.00000000000E+00 -0.00000000000E+00 -0.45593999997E+02  0.45594000000E+02  0.51100000000E-03 0. -1.
         23    2    1    2    0    0  0.17763568394E-14  0.00000000000E+00  0.00000000000E+00  0.91188000000E+02  0.91188000000E+02 0.  0.
    9900012    2    3    3    0    0  0.12842747643E+02 -0.13259452909E+02 -0.31859548377E+02  0.54367080929E+02  0.39999992593E+02 0.  0.
        -12    1    3    3    0    0 -0.12842747643E+02  0.13259452909E+02  0.31859548377E+02  0.36820919071E+02  0.00000000000E+00 0.  1.
         11    1    4    4    0    0  0.18389915758E+01 -0.75532418429E+01 -0.11364864532E+02  0.13769295495E+02  0.51100000000E-03 0. -1.
        -11    1    4    4    0    0  0.15356991849E+02 -0.14164305274E+02 -0.22681630903E+02  0.30837008986E+02  0.51100000000E-03 0.  1.
        -12    1    4    4    0    0 -0.43532357823E+01  0.84580942086E+01  0.21869470571E+01  0.97607764470E+01  0.00000000000E+00 0.  1.
</event>
<event>
 8    1  0.2466538E-006  0.9118800E+02  0.7816164E-02  0.1184000E+00
        -11   -1    0    0    0    0  0.00000000000E+00  0.00000000000E+00  0.45593999997E+02  0.45594000000E+02  0.51100000000E-03 0.  1.
         11   -1    0    0    0    0 -0.00000000000E+00 -0.00000000000E+00 -0.45593999997E+02  0.45594000000E+02  0.51100000000E-03 0. -1.
         23    2    1    2    0    0  0.35527136788E-14  0.35527136788E-14 -0.17763568394E-14  0.91188000000E+02  0.91188000000E+02 0.  0.
    9900012    2    3    3    0    0  0.18424332095E+02 -0.28703073053E+02 -0.13873066744E+02  0.54367022328E+02  0.39999859000E+02 0.  0.
        -12    1    3    3    0    0 -0.18424332095E+02  0.28703073053E+02  0.13873066744E+02  0.36820977672E+02  0.00000000000E+00 0.  1.
         11    1    4    4    0    0  0.15981502524E+02 -0.15545915710E+02 -0.34249114129E+01  0.22556904411E+02  0.51100000000E-03 0. -1.
        -11    1    4    4    0    0  0.14354626176E+02 -0.55627019066E+01 -0.24866180558E+01  0.15594300714E+02  0.51100000000E-03 0.  1.
        -12    1    4    4    0    0 -0.11911796605E+02 -0.75944554371E+01 -0.79615372752E+01  0.16215817202E+02  0.00000000000E+00 0.  1.
</event>
<event>
 8    1  0.2466538E-006  0.9118800E+02  0.7816164E-02  0.1184000E+00
        -11   -1    0    0    0    0  0.00000000000E+00  0.00000000000E+00  0.45593999997E+02  0.45594000000E+02  0.51100000000E-03 0. -1.
         11   -1    0    0    0    0 -0.00000000000E+00 -0.00000000000E+00 -0.45593999997E+02  0.45594000000E+02  0.51100000000E-03 0.  1.
         23    2    1    2    0    0  0.00000000000E+00  0.17763568394E-14  0.00000000000E+00  0.91188000000E+02  0.91188000000E+02 0.  0.
    9900012    2    3    3    0    0  0.78464779213E+01  0.33953165366E+01  0.35814579847E+02  0.54367088553E+02  0.40000009975E+02 0.  0.
        -12    1    3    3    0    0 -0.78464779213E+01 -0.33953165366E+01 -0.35814579847E+02  0.36820911447E+02  0.00000000000E+00 0.  1.
         11    1    4    4    0    0 -0.11019701551E+01  0.70238503646E+01  0.94267991613E+01  0.11807343260E+02  0.51100000000E-03 0. -1.
        -11    1    4    4    0    0  0.11139794460E+01  0.12576923506E+02  0.28770931750E+01  0.12949811600E+02  0.51100000000E-03 0.  1.
         12    1    4    4    0    0  0.78344686303E+01 -0.16205457334E+02  0.23510687511E+02  0.29609933694E+02  0.00000000000E+00 0. -1.
</event>
<event>
 8    1  0.2466538E-006  0.9118800E+02  0.7816164E-02  0.1184000E+00
        -11   -1    0    0    0    0  0.00000000000E+00  0.00000000000E+00  0.45593999997E+02  0.45594000000E+02  0.51100000000E-03 0.  1.
         11   -1    0    0    0    0 -0.00000000000E+00 -0.00000000000E+00 -0.45593999997E+02  0.45594000000E+02  0.51100000000E-03 0. -1.
         23    2    1    2    0    0  0.00000000000E+00  0.88817841970E-15  0.35527136788E-14  0.91188000000E+02  0.91188000000E+02 0.  0.
    9900012    2    3    3    0    0 -0.24974910180E+02 -0.44834633971E+01  0.26682063958E+02  0.54367080408E+02  0.39999991406E+02 0.  0.
         12    1    3    3    0    0  0.24974910180E+02  0.44834633971E+01 -0.26682063958E+02  0.36820919592E+02  0.00000000000E+00 0. -1.
         11    1    4    4    0    0 -0.31246947360E+02 -0.42424959041E+01  0.16143686359E+02  0.35425825331E+02  0.51100000000E-03 0. -1.
        -11    1    4    4    0    0  0.15031428749E+01 -0.55668323147E+01  0.10281086965E+02  0.11787697399E+02  0.51100000000E-03 0.  1.
         12    1    4    4    0    0  0.47688943049E+01  0.53258648216E+01  0.25729063318E+00  0.71535576785E+01  0.00000000000E+00 0. -1.
</event>
<event>
 8    1  0.2466538E-006  0.9118800E+02  0.7816164E-02  0.1184000E+00
        -11   -1    0    0    0    0  0.00000000000E+00  0.00000000000E+00  0.45593999997E+02  0.45594000000E+02  0.51100000000E-03 0. -1.
         11   -1    0    0    0    0 -0.00000000000E+00 -0.00000000000E+00 -0.45593999997E+02  0.45594000000E+02  0.51100000000E-03 0.  1.
         23    2    1    2    0    0 -0.35527136788E-14  0.00000000000E+00  0.88817841970E-15  0.91188000000E+02  0.91188000000E+02 0.  0.
    9900012    2    3    3    0    0  0.21062773580E+02  0.29574633168E+02  0.61222615621E+01  0.54367062417E+02  0.39999950391E+02 0.  0.
        -12    1    3    3    0    0 -0.21062773580E+02 -0.29574633168E+02 -0.61222615621E+01  0.36820937583E+02  0.00000000000E+00 0.  1.
         11    1    4    4    0    0  0.41561260852E+01  0.82826816413E+01  0.13274362145E+02  0.16189036099E+02  0.51100000000E-03 0. -1.
        -11    1    4    4    0    0  0.15319871723E+02  0.14850790369E+02  0.70762095814E+01  0.22479261254E+02  0.51100000000E-03 0.  1.
        -12    1    4    4    0    0  0.15867757715E+01  0.64411611570E+01 -0.14228310164E+02  0.15698765064E+02  0.00000000000E+00 0.  1.
</event>
<event>
 8    1  0.2466538E-006  0.9118800E+02  0.7816164E-02  0.1184000E+00
        -11   -1    0    0    0    0  0.00000000000E+00  0.00000000000E+00  0.45593999997E+02  0.45594000000E+02  0.51100000000E-03 0. -1.
         11   -1    0    0    0    0 -0.00000000000E+00 -0.00000000000E+00 -0.45593999997E+02  0.45594000000E+02  0.51100000000E-03 0.  1.
         23    2    1    2    0    0 -0.35527136788E-14 -0.35527136788E-14  0.00000000000E+00  0.91188000000E+02  0.91188000000E+02 0.  0.
    9900012    2    3    3    0    0  0.91495944274E+01  0.21635886080E+02 -0.28354063257E+02  0.54367088172E+02  0.40000009107E+02 0.  0.
         12    1    3    3    0    0 -0.91495944274E+01 -0.21635886080E+02  0.28354063257E+02  0.36820911828E+02  0.00000000000E+00 0. -1.
         11    1    4    4    0    0 -0.61278144080E+01  0.14263001755E+02 -0.99765388165E+01  0.18453039194E+02  0.51100000000E-03 0. -1.
        -11    1    4    4    0    0 -0.55388793912E+00 -0.57485301859E+01 -0.13641408232E+02  0.14813521187E+02  0.51100000000E-03 0.  1.
         12    1    4    4    0    0  0.15831296775E+02  0.13121414510E+02 -0.47361162081E+01  0.21100527791E+02  0.00000000000E+00 0. -1.
</event>
<event>
 8    1  0.2466538E-006  0.9118800E+02  0.7816164E-02  0.1184000E+00
        -11   -1    0    0    0    0  0.00000000000E+00  0.00000000000E+00  0.45593999997E+02  0.45594000000E+02  0.51100000000E-03 0.  1.
         11   -1    0    0    0    0 -0.00000000000E+00 -0.00000000000E+00 -0.45593999997E+02  0.45594000000E+02  0.51100000000E-03 0. -1.
         23    2    1    2    0    0 -0.35527136788E-14  0.44408920985E-15  0.00000000000E+00  0.91188000000E+02  0.91188000000E+02 0.  0.
    9900012    2    3    3    0    0  0.30298071371E+02  0.53527446227E+00 -0.20916955010E+02  0.54367100304E+02  0.40000036763E+02 0.  0.
        -12    1    3    3    0    0 -0.30298071371E+02 -0.53527446227E+00  0.20916955010E+02  0.36820899696E+02  0.00000000000E+00 0.  1.
         11    1    4    4    0    0  0.72435790845E+01 -0.77237482551E+01 -0.80131781791E+01  0.13279184834E+02  0.51100000000E-03 0. -1.
        -11    1    4    4    0    0 -0.66772546974E+01  0.16000234557E+01 -0.74567520483E+01  0.10136516005E+02  0.51100000000E-03 0.  1.
        -12    1    4    4    0    0  0.29731746984E+02  0.66589992617E+01 -0.54470247826E+01  0.30951399465E+02  0.00000000000E+00 0.  1.
</event>
<event>
 8    1  0.2466538E-006  0.9118800E+02  0.7816164E-02  0.1184000E+00
        -11   -1    0    0    0    0  0.00000000000E+00  0.00000000000E+00  0.45593999997E+02  0.45594000000E+02  0.51100000000E-03 0.  1.
         11   -1    0    0    0    0 -0.00000000000E+00 -0.00000000000E+00 -0.45593999997E+02  0.45594000000E+02  0.51100000000E-03 0. -1.
         23    2    1    2    0    0  0.00000000000E+00  0.88817841970E-15  0.35527136788E-14  0.91188000000E+02  0.91188000000E+02 0.  0.
    9900012    2    3    3    0    0  0.33550477498E+02 -0.26497102486E+01 -0.14937356504E+02  0.54367080348E+02  0.39999991269E+02 0.  0.
        -12    1    3    3    0    0 -0.33550477498E+02  0.26497102486E+01  0.14937356504E+02  0.36820919652E+02  0.00000000000E+00 0.  1.
         11    1    4    4    0    0  0.37072003683E+02  0.53878213701E+01 -0.20191435735E+02  0.42556505419E+02  0.51100000000E-03 0. -1.
        -11    1    4    4    0    0 -0.89085682331E+00  0.68425779434E+00  0.16879522705E+01  0.20275644841E+01  0.51100000000E-03 0.  1.
         12    1    4    4    0    0 -0.26306693623E+01 -0.87217894131E+01  0.35661269602E+01  0.97830104444E+01  0.00000000000E+00 0. -1.
</event>
<event>
 8    1  0.2466538E-006  0.9118800E+02  0.7816164E-02  0.1184000E+00
        -11   -1    0    0    0    0  0.00000000000E+00  0.00000000000E+00  0.45593999997E+02  0.45594000000E+02  0.51100000000E-03 0. -1.
         11   -1    0    0    0    0 -0.00000000000E+00 -0.00000000000E+00 -0.45593999997E+02  0.45594000000E+02  0.51100000000E-03 0.  1.
         23    2    1    2    0    0  0.71054273576E-14  0.00000000000E+00 -0.17763568394E-14  0.91188000000E+02  0.91188000000E+02 0.  0.
    9900012    2    3    3    0    0  0.32406606931E+02  0.86722798602E+01  0.15178402817E+02  0.54367074933E+02  0.39999978924E+02 0.  0.
        -12    1    3    3    0    0 -0.32406606931E+02 -0.86722798602E+01 -0.15178402817E+02  0.36820925067E+02  0.00000000000E+00 0.  1.
         11    1    4    4    0    0 -0.11193497889E+01 -0.86899280835E+01 -0.12136727727E+01  0.88453827450E+01  0.51100000000E-03 0. -1.
        -11    1    4    4    0    0  0.15138649323E+02  0.18222790006E+02  0.62329405134E+01  0.24496904430E+02  0.51100000000E-03 0.  1.
         12    1    4    4    0    0  0.18387307397E+02 -0.86058206218E+00  0.10159135076E+02  0.21024787758E+02  0.00000000000E+00 0. -1.
</event>
<event>
 8    1  0.2466538E-006  0.9118800E+02  0.7816164E-02  0.1184000E+00
        -11   -1    0    0    0    0  0.00000000000E+00  0.00000000000E+00  0.45593999997E+02  0.45594000000E+02  0.51100000000E-03 0.  1.
         11   -1    0    0    0    0 -0.00000000000E+00 -0.00000000000E+00 -0.45593999997E+02  0.45594000000E+02  0.51100000000E-03 0. -1.
         23    2    1    2    0    0  0.00000000000E+00  0.17763568394E-14  0.00000000000E+00  0.91188000000E+02  0.91188000000E+02 0.  0.
    9900012    2    3    3    0    0  0.20711391243E+02 -0.13699864727E+02 -0.27186965967E+02  0.54367093720E+02  0.40000021754E+02 0.  0.
        -12    1    3    3    0    0 -0.20711391243E+02  0.13699864727E+02  0.27186965967E+02  0.36820906280E+02  0.00000000000E+00 0.  1.
         11    1    4    4    0    0 -0.12994374067E+01 -0.22173211355E+00 -0.60941765855E+01  0.62351175787E+01  0.51100000000E-03 0. -1.
        -11    1    4    4    0    0  0.14162175523E+02 -0.55227532780E+01 -0.30138142373E+02  0.33754638871E+02  0.51100000000E-03 0.  1.
        -12    1    4    4    0    0  0.78486531261E+01 -0.79553793355E+01  0.90453529913E+01  0.14377337271E+02  0.00000000000E+00 0.  1.
</event>
<event>
 8    1  0.2466538E-006  0.9118800E+02  0.7816164E-02  0.1184000E+00
        -11   -1    0    0    0    0  0.00000000000E+00  0.00000000000E+00  0.45593999997E+02  0.45594000000E+02  0.51100000000E-03 0.  1.
         11   -1    0    0    0    0 -0.00000000000E+00 -0.00000000000E+00 -0.45593999997E+02  0.45594000000E+02  0.51100000000E-03 0. -1.
         23    2    1    2    0    0  0.35527136788E-14  0.00000000000E+00  0.00000000000E+00  0.91188000000E+02  0.91188000000E+02 0.  0.
    9900012    2    3    3    0    0  0.31399677108E+02 -0.18639099317E+02 -0.47352977311E+01  0.54367098457E+02  0.40000032553E+02 0.  0.
        -12    1    3    3    0    0 -0.31399677108E+02  0.18639099317E+02  0.47352977311E+01  0.36820901543E+02  0.00000000000E+00 0.  1.
         11    1    4    4    0    0  0.30872490891E+02 -0.19551716882E+02 -0.10599406132E+02  0.38049017562E+02  0.51100000000E-03 0. -1.
        -11    1    4    4    0    0  0.28825710725E+01 -0.49208717884E+01 -0.21805383240E+01  0.61056484331E+01  0.51100000000E-03 0.  1.
        -12    1    4    4    0    0 -0.23553848557E+01  0.58334893532E+01  0.80446467251E+01  0.10212432462E+02  0.00000000000E+00 0.  1.
</event>
<event>
 8    1  0.2466538E-006  0.9118800E+02  0.7816164E-02  0.1184000E+00
        -11   -1    0    0    0    0  0.00000000000E+00  0.00000000000E+00  0.45593999997E+02  0.45594000000E+02  0.51100000000E-03 0. -1.
         11   -1    0    0    0    0 -0.00000000000E+00 -0.00000000000E+00 -0.45593999997E+02  0.45594000000E+02  0.51100000000E-03 0.  1.
         23    2    1    2    0    0  0.00000000000E+00  0.00000000000E+00 -0.15543122345E-14  0.91188000000E+02  0.91188000000E+02 0.  0.
    9900012    2    3    3    0    0 -0.35527410096E+02  0.96658644200E+01 -0.39270517113E+00  0.54367081754E+02  0.39999994476E+02 0.  0.
         12    1    3    3    0    0  0.35527410096E+02 -0.96658644200E+01  0.39270517113E+00  0.36820918246E+02  0.00000000000E+00 0. -1.
         11    1    4    4    0    0 -0.69444070836E+01 -0.15264186559E+01  0.96186171910E+01  0.11961293433E+02  0.51100000000E-03 0. -1.
        -11    1    4    4    0    0 -0.27001217497E+02  0.52994555130E+01 -0.17603698613E+02  0.32665580971E+02  0.51100000000E-03 0.  1.
        -12    1    4    4    0    0 -0.15817855148E+01  0.58928275628E+01  0.75923762507E+01  0.97402073505E+01  0.00000000000E+00 0.  1.
</event>
<event>
 8    1  0.2466538E-006  0.9118800E+02  0.7816164E-02  0.1184000E+00
        -11   -1    0    0    0    0  0.00000000000E+00  0.00000000000E+00  0.45593999997E+02  0.45594000000E+02  0.51100000000E-03 0.  1.
         11   -1    0    0    0    0 -0.00000000000E+00 -0.00000000000E+00 -0.45593999997E+02  0.45594000000E+02  0.51100000000E-03 0. -1.
         23    2    1    2    0    0  0.00000000000E+00 -0.88817841970E-15  0.00000000000E+00  0.91188000000E+02  0.91188000000E+02 0.  0.
    9900012    2    3    3    0    0 -0.30716700704E+02  0.42335679181E+01 -0.19858010002E+02  0.54367090713E+02  0.40000014899E+02 0.  0.
        -12    1    3    3    0    0  0.30716700704E+02 -0.42335679181E+01  0.19858010002E+02  0.36820909287E+02  0.00000000000E+00 0.  1.
         11    1    4    4    0    0 -0.67284217772E+01 -0.13429932282E+01  0.36739765005E+01  0.77828911088E+01  0.51100000000E-03 0. -1.
        -11    1    4    4    0    0 -0.29819665871E+02  0.11454043981E+01 -0.10499683652E+02  0.31634913955E+02  0.51100000000E-03 0.  1.
        -12    1    4    4    0    0  0.58313869445E+01  0.44311567482E+01 -0.13032302851E+02  0.14949285649E+02  0.00000000000E+00 0.  1.
</event>
<event>
 8    1  0.2466538E-006  0.9118800E+02  0.7816164E-02  0.1184000E+00
        -11   -1    0    0    0    0  0.00000000000E+00  0.00000000000E+00  0.45593999997E+02  0.45594000000E+02  0.51100000000E-03 0.  1.
         11   -1    0    0    0    0 -0.00000000000E+00 -0.00000000000E+00 -0.45593999997E+02  0.45594000000E+02  0.51100000000E-03 0. -1.
         23    2    1    2    0    0  0.00000000000E+00  0.00000000000E+00 -0.35527136788E-14  0.91188000000E+02  0.91188000000E+02 0.  0.
    9900012    2    3    3    0    0  0.29901696185E+01  0.20180960468E+02 -0.30652327008E+02  0.54367116920E+02  0.40000074643E+02 0.  0.
        -12    1    3    3    0    0 -0.29901696185E+01 -0.20180960468E+02  0.30652327008E+02  0.36820883080E+02  0.00000000000E+00 0.  1.
         11    1    4    4    0    0 -0.23633922488E+01  0.51774834259E+00  0.67989397070E+01  0.72165966819E+01  0.51100000000E-03 0. -1.
        -11    1    4    4    0    0 -0.37651166311E+01  0.94026815796E+00  0.44788408802E+00  0.39065083990E+01  0.51100000000E-03 0.  1.
         12    1    4    4    0    0  0.91186784984E+01  0.18722943967E+02 -0.37899150803E+02  0.43244011839E+02  0.00000000000E+00 0. -1.
</event>
<event>
 8    1  0.2466538E-006  0.9118800E+02  0.7816164E-02  0.1184000E+00
        -11   -1    0    0    0    0  0.00000000000E+00  0.00000000000E+00  0.45593999997E+02  0.45594000000E+02  0.51100000000E-03 0.  1.
         11   -1    0    0    0    0 -0.00000000000E+00 -0.00000000000E+00 -0.45593999997E+02  0.45594000000E+02  0.51100000000E-03 0. -1.
         23    2    1    2    0    0  0.00000000000E+00  0.00000000000E+00  0.44408920985E-15  0.91188000000E+02  0.91188000000E+02 0.  0.
    9900012    2    3    3    0    0 -0.35720940779E+02  0.82660607912E+01 -0.33863297412E+01  0.54367073881E+02  0.39999976526E+02 0.  0.
         12    1    3    3    0    0  0.35720940779E+02 -0.82660607912E+01  0.33863297412E+01  0.36820926119E+02  0.00000000000E+00 0. -1.
         11    1    4    4    0    0 -0.85882928297E+00  0.68055337580E+01  0.25386467246E+01  0.73142056932E+01  0.51100000000E-03 0. -1.
        -11    1    4    4    0    0 -0.36339738687E+02 -0.44507629121E+01 -0.11922032957E+02  0.38503516312E+02  0.51100000000E-03 0.  1.
        -12    1    4    4    0    0  0.14776271909E+01  0.59112899453E+01  0.59970564909E+01  0.85493518753E+01  0.00000000000E+00 0.  1.
</event>
<event>
 8    1  0.2466538E-006  0.9118800E+02  0.7816164E-02  0.1184000E+00
        -11   -1    0    0    0    0  0.00000000000E+00  0.00000000000E+00  0.45593999997E+02  0.45594000000E+02  0.51100000000E-03 0.  1.
         11   -1    0    0    0    0 -0.00000000000E+00 -0.00000000000E+00 -0.45593999997E+02  0.45594000000E+02  0.51100000000E-03 0. -1.
         23    2    1    2    0    0  0.00000000000E+00  0.35527136788E-14 -0.17763568394E-14  0.91188000000E+02  0.91188000000E+02 0.  0.
    9900012    2    3    3    0    0  0.23135670654E+02  0.27015858295E+02  0.95216956227E+01  0.54367101810E+02  0.40000040196E+02 0.  0.
        -12    1    3    3    0    0 -0.23135670654E+02 -0.27015858295E+02 -0.95216956227E+01  0.36820898190E+02  0.00000000000E+00 0.  1.
         11    1    4    4    0    0  0.23510508623E+02  0.18881752479E+02 -0.16772275342E+01  0.30200623915E+02  0.51100000000E-03 0. -1.
        -11    1    4    4    0    0 -0.55985047532E+01 -0.38699326443E+01 -0.19874911011E+00  0.68087543364E+01  0.51100000000E-03 0.  1.
         12    1    4    4    0    0  0.52236667839E+01  0.12004038460E+02  0.11397672267E+02  0.17357723558E+02  0.00000000000E+00 0. -1.
</event>
<event>
 8    1  0.2466538E-006  0.9118800E+02  0.7816164E-02  0.1184000E+00
        -11   -1    0    0    0    0  0.00000000000E+00  0.00000000000E+00  0.45593999997E+02  0.45594000000E+02  0.51100000000E-03 0.  1.
         11   -1    0    0    0    0 -0.00000000000E+00 -0.00000000000E+00 -0.45593999997E+02  0.45594000000E+02  0.51100000000E-03 0. -1.
         23    2    1    2    0    0 -0.35527136788E-14 -0.44408920985E-15  0.00000000000E+00  0.91188000000E+02  0.91188000000E+02 0.  0.
    9900012    2    3    3    0    0  0.21553487208E+02  0.88377384628E+00  0.29840345737E+02  0.54367080664E+02  0.39999991990E+02 0.  0.
         12    1    3    3    0    0 -0.21553487208E+02 -0.88377384628E+00 -0.29840345737E+02  0.36820919336E+02  0.00000000000E+00 0. -1.
         11    1    4    4    0    0  0.23074000631E+01 -0.20527160653E+01 -0.37314721351E+01  0.48437199395E+01  0.51100000000E-03 0. -1.
        -11    1    4    4    0    0 -0.65659829068E+01  0.45133291585E+01  0.17093740929E+02  0.18859434001E+02  0.51100000000E-03 0.  1.
         12    1    4    4    0    0  0.25812070052E+02 -0.15768392469E+01  0.16478076943E+02  0.30663926724E+02  0.00000000000E+00 0. -1.
</event>
<event>
 8    1  0.2466538E-006  0.9118800E+02  0.7816164E-02  0.1184000E+00
        -11   -1    0    0    0    0  0.00000000000E+00  0.00000000000E+00  0.45593999997E+02  0.45594000000E+02  0.51100000000E-03 0. -1.
         11   -1    0    0    0    0 -0.00000000000E+00 -0.00000000000E+00 -0.45593999997E+02  0.45594000000E+02  0.51100000000E-03 0.  1.
         23    2    1    2    0    0  0.17763568394E-14  0.00000000000E+00 -0.71054273576E-14  0.91188000000E+02  0.91188000000E+02 0.  0.
    9900012    2    3    3    0    0  0.88167046785E+01 -0.12049936892E+02 -0.33657745805E+02  0.54367094074E+02  0.40000022561E+02 0.  0.
         12    1    3    3    0    0 -0.88167046785E+01  0.12049936892E+02  0.33657745805E+02  0.36820905926E+02  0.00000000000E+00 0. -1.
         11    1    4    4    0    0  0.17738227203E+02 -0.16510435925E+01 -0.10362544825E+02  0.20609536258E+02  0.51100000000E-03 0. -1.
        -11    1    4    4    0    0  0.49742733019E+01 -0.24029306757E+01 -0.55696307041E-01  0.55245427914E+01  0.51100000000E-03 0.  1.
         12    1    4    4    0    0 -0.13895795827E+02 -0.79959626236E+01 -0.23239504674E+02  0.28233015025E+02  0.00000000000E+00 0. -1.
</event>
<event>
 8    1  0.2466538E-006  0.9118800E+02  0.7816164E-02  0.1184000E+00
        -11   -1    0    0    0    0  0.00000000000E+00  0.00000000000E+00  0.45593999997E+02  0.45594000000E+02  0.51100000000E-03 0.  1.
         11   -1    0    0    0    0 -0.00000000000E+00 -0.00000000000E+00 -0.45593999997E+02  0.45594000000E+02  0.51100000000E-03 0. -1.
         23    2    1    2    0    0 -0.35527136788E-14  0.17763568394E-14 -0.35527136788E-14  0.91188000000E+02  0.91188000000E+02 0.  0.
    9900012    2    3    3    0    0 -0.18319415949E+02  0.15350239793E+02 -0.28009858719E+02  0.54367040644E+02  0.39999900757E+02 0.  0.
        -12    1    3    3    0    0  0.18319415949E+02 -0.15350239793E+02  0.28009858719E+02  0.36820959356E+02  0.00000000000E+00 0.  1.
         11    1    4    4    0    0 -0.38713405394E+01  0.67721323023E+01 -0.30563717496E+02  0.31543460193E+02  0.51100000000E-03 0. -1.
        -11    1    4    4    0    0 -0.80423874722E+01 -0.32944414162E+01  0.33391074989E+01  0.93103694689E+01  0.51100000000E-03 0.  1.
         12    1    4    4    0    0 -0.64056879377E+01  0.11872548907E+02 -0.78524872135E+00  0.13513210982E+02  0.00000000000E+00 0. -1.
</event>
<event>
 8    1  0.2466538E-006  0.9118800E+02  0.7816164E-02  0.1184000E+00
        -11   -1    0    0    0    0  0.00000000000E+00  0.00000000000E+00  0.45593999997E+02  0.45594000000E+02  0.51100000000E-03 0. -1.
         11   -1    0    0    0    0 -0.00000000000E+00 -0.00000000000E+00 -0.45593999997E+02  0.45594000000E+02  0.51100000000E-03 0.  1.
         23    2    1    2    0    0  0.00000000000E+00  0.00000000000E+00  0.71054273576E-14  0.91188000000E+02  0.91188000000E+02 0.  0.
    9900012    2    3    3    0    0  0.88325256856E+01  0.12549213344E+02  0.33470643415E+02  0.54367078826E+02  0.39999987799E+02 0.  0.
        -12    1    3    3    0    0 -0.88325256856E+01 -0.12549213344E+02 -0.33470643415E+02  0.36820921174E+02  0.00000000000E+00 0.  1.
         11    1    4    4    0    0 -0.52061695323E+01  0.10491454278E+02  0.11957586630E+02  0.16737941700E+02  0.51100000000E-03 0. -1.
        -11    1    4    4    0    0  0.20844605208E+01  0.67263956879E+01 -0.46839881155E+01  0.84574889619E+01  0.51100000000E-03 0.  1.
        -12    1    4    4    0    0  0.11954234697E+02 -0.46686366218E+01  0.26197044900E+02  0.29171648164E+02  0.00000000000E+00 0.  1.
</event>
<event>
 8    1  0.2466538E-006  0.9118800E+02  0.7816164E-02  0.1184000E+00
        -11   -1    0    0    0    0  0.00000000000E+00  0.00000000000E+00  0.45593999997E+02  0.45594000000E+02  0.51100000000E-03 0. -1.
         11   -1    0    0    0    0 -0.00000000000E+00 -0.00000000000E+00 -0.45593999997E+02  0.45594000000E+02  0.51100000000E-03 0.  1.
         23    2    1    2    0    0  0.00000000000E+00 -0.71054273576E-14  0.00000000000E+00  0.91188000000E+02  0.91188000000E+02 0.  0.
    9900012    2    3    3    0    0  0.66189175750E+01 -0.29584141662E+02  0.20898518826E+02  0.54367087506E+02  0.40000007589E+02 0.  0.
        -12    1    3    3    0    0 -0.66189175750E+01  0.29584141662E+02 -0.20898518826E+02  0.36820912494E+02  0.00000000000E+00 0.  1.
         11    1    4    4    0    0  0.16716700256E+01  0.22127866704E-01  0.53469900077E+01  0.56022560384E+01  0.51100000000E-03 0. -1.
        -11    1    4    4    0    0  0.28097989852E+01  0.80350466766E+01  0.26022269574E+01  0.89010409971E+01  0.51100000000E-03 0.  1.
        -12    1    4    4    0    0  0.21374485641E+01 -0.37641316205E+02  0.12949301861E+02  0.39863790471E+02  0.00000000000E+00 0.  1.
</event>
<event>
 8    1  0.2466538E-006  0.9118800E+02  0.7816164E-02  0.1184000E+00
        -11   -1    0    0    0    0  0.00000000000E+00  0.00000000000E+00  0.45593999997E+02  0.45594000000E+02  0.51100000000E-03 0. -1.
         11   -1    0    0    0    0 -0.00000000000E+00 -0.00000000000E+00 -0.45593999997E+02  0.45594000000E+02  0.51100000000E-03 0.  1.
         23    2    1    2    0    0  0.00000000000E+00  0.00000000000E+00  0.88817841970E-15  0.91188000000E+02  0.91188000000E+02 0.  0.
    9900012    2    3    3    0    0 -0.33531485140E+02  0.14638458764E+02 -0.41394411143E+01  0.54367082801E+02  0.39999996861E+02 0.  0.
         12    1    3    3    0    0  0.33531485140E+02 -0.14638458764E+02  0.41394411143E+01  0.36820917199E+02  0.00000000000E+00 0. -1.
         11    1    4    4    0    0  0.75999947923E+01  0.27753815585E+01  0.59440519889E+01  0.10039642322E+02  0.51100000000E-03 0. -1.
        -11    1    4    4    0    0 -0.13206844269E+02  0.47682233347E+01 -0.82866301426E+00  0.14065680644E+02  0.51100000000E-03 0.  1.
        -12    1    4    4    0    0 -0.27924635663E+02  0.70948538711E+01 -0.92548300890E+01  0.30261759835E+02  0.00000000000E+00 0.  1.
</event>
<event>
 8    1  0.2466538E-006  0.9118800E+02  0.7816164E-02  0.1184000E+00
        -11   -1    0    0    0    0  0.00000000000E+00  0.00000000000E+00  0.45593999997E+02  0.45594000000E+02  0.51100000000E-03 0. -1.
         11   -1    0    0    0    0 -0.00000000000E+00 -0.00000000000E+00 -0.45593999997E+02  0.45594000000E+02  0.51100000000E-03 0.  1.
         23    2    1    2    0    0  0.35527136788E-14  0.00000000000E+00  0.35527136788E-14  0.91188000000E+02  0.91188000000E+02 0.  0.
    9900012    2    3    3    0    0 -0.16340255251E+02 -0.88680325090E+01 -0.31782604661E+02  0.54367083372E+02  0.39999998164E+02 0.  0.
         12    1    3    3    0    0  0.16340255251E+02  0.88680325090E+01  0.31782604661E+02  0.36820916628E+02  0.00000000000E+00 0. -1.
         11    1    4    4    0    0 -0.20156244452E+02  0.29734969029E+01 -0.18750604897E+02  0.27689367247E+02  0.51100000000E-03 0. -1.
        -11    1    4    4    0    0 -0.45571561726E+01 -0.13428901092E+02 -0.52036422278E+01  0.15105659522E+02  0.51100000000E-03 0.  1.
        -12    1    4    4    0    0  0.83731453743E+01  0.15873716798E+01 -0.78283575362E+01  0.11572056603E+02  0.00000000000E+00 0.  1.
</event>
<event>
 8    1  0.2466538E-006  0.9118800E+02  0.7816164E-02  0.1184000E+00
        -11   -1    0    0    0    0  0.00000000000E+00  0.00000000000E+00  0.45593999997E+02  0.45594000000E+02  0.51100000000E-03 0.  1.
         11   -1    0    0    0    0 -0.00000000000E+00 -0.00000000000E+00 -0.45593999997E+02  0.45594000000E+02  0.51100000000E-03 0. -1.
         23    2    1    2    0    0  0.00000000000E+00  0.00000000000E+00  0.00000000000E+00  0.91188000000E+02  0.91188000000E+02 0.  0.
    9900012    2    3    3    0    0 -0.10608566176E+02  0.31385391156E+02  0.16068486431E+02  0.54367072384E+02  0.39999973114E+02 0.  0.
         12    1    3    3    0    0  0.10608566176E+02 -0.31385391156E+02 -0.16068486431E+02  0.36820927616E+02  0.00000000000E+00 0. -1.
         11    1    4    4    0    0 -0.76498890360E+01  0.12635025726E+02  0.11687213290E+02  0.18834957714E+02  0.51100000000E-03 0.  1.
        -11    1    4    4    0    0  0.69312178028E+01  0.21376677830E+02 -0.33320036605E+01  0.22717974908E+02  0.51100000000E-03 0. -1.
        -12    1    4    4    0    0 -0.98898949432E+01 -0.26263124004E+01  0.77132768019E+01  0.12814139762E+02  0.00000000000E+00 0.  1.
</event>
<event>
 8    1  0.2466538E-006  0.9118800E+02  0.7816164E-02  0.1184000E+00
        -11   -1    0    0    0    0  0.00000000000E+00  0.00000000000E+00  0.45593999997E+02  0.45594000000E+02  0.51100000000E-03 0.  1.
         11   -1    0    0    0    0 -0.00000000000E+00 -0.00000000000E+00 -0.45593999997E+02  0.45594000000E+02  0.51100000000E-03 0. -1.
         23    2    1    2    0    0 -0.35527136788E-14  0.71054273576E-14  0.00000000000E+00  0.91188000000E+02  0.91188000000E+02 0.  0.
    9900012    2    3    3    0    0 -0.17276546399E+02  0.32193520298E+02 -0.45693192909E+01  0.54367075467E+02  0.39999980143E+02 0.  0.
         12    1    3    3    0    0  0.17276546399E+02 -0.32193520298E+02  0.45693192909E+01  0.36820924533E+02  0.00000000000E+00 0. -1.
         11    1    4    4    0    0 -0.79193870400E+01 -0.54565485582E+00 -0.99669345963E+00  0.80004892616E+01  0.51100000000E-03 0.  1.
        -11    1    4    4    0    0 -0.19730160813E+02  0.12334716526E+02 -0.30803234290E+01  0.23471533187E+02  0.51100000000E-03 0. -1.
        -12    1    4    4    0    0  0.10373001454E+02  0.20404458628E+02 -0.49230240235E+00  0.22895053018E+02  0.00000000000E+00 0.  1.
</event>
<event>
 8    1  0.2466538E-006  0.9118800E+02  0.7816164E-02  0.1184000E+00
        -11   -1    0    0    0    0  0.00000000000E+00  0.00000000000E+00  0.45593999997E+02  0.45594000000E+02  0.51100000000E-03 0. -1.
         11   -1    0    0    0    0 -0.00000000000E+00 -0.00000000000E+00 -0.45593999997E+02  0.45594000000E+02  0.51100000000E-03 0.  1.
         23    2    1    2    0    0  0.00000000000E+00  0.17763568394E-14  0.35527136788E-14  0.91188000000E+02  0.91188000000E+02 0.  0.
    9900012    2    3    3    0    0  0.19079155779E+02  0.13070287590E+02  0.28651984473E+02  0.54367043777E+02  0.39999907898E+02 0.  0.
        -12    1    3    3    0    0 -0.19079155779E+02 -0.13070287590E+02 -0.28651984473E+02  0.36820956223E+02  0.00000000000E+00 0.  1.
         11    1    4    4    0    0 -0.46496413736E+00 -0.61637519225E+01  0.41563208393E-01  0.61814041425E+01  0.51100000000E-03 0. -1.
        -11    1    4    4    0    0 -0.49148790446E+01 -0.61620394612E-02 -0.12347766994E+01  0.50676175618E+01  0.51100000000E-03 0.  1.
         12    1    4    4    0    0  0.24458998961E+02  0.19240201552E+02  0.29845197964E+02  0.43118022073E+02  0.00000000000E+00 0. -1.
</event>
<event>
 8    1  0.2466538E-006  0.9118800E+02  0.7816164E-02  0.1184000E+00
        -11   -1    0    0    0    0  0.00000000000E+00  0.00000000000E+00  0.45593999997E+02  0.45594000000E+02  0.51100000000E-03 0. -1.
         11   -1    0    0    0    0 -0.00000000000E+00 -0.00000000000E+00 -0.45593999997E+02  0.45594000000E+02  0.51100000000E-03 0.  1.
         23    2    1    2    0    0 -0.17763568394E-14  0.00000000000E+00  0.00000000000E+00  0.91188000000E+02  0.91188000000E+02 0.  0.
    9900012    2    3    3    0    0  0.13820245317E+02  0.31635566328E+02 -0.12805337382E+02  0.54367015453E+02  0.39999843328E+02 0.  0.
         12    1    3    3    0    0 -0.13820245317E+02 -0.31635566328E+02  0.12805337382E+02  0.36820984547E+02  0.00000000000E+00 0. -1.
         11    1    4    4    0    0  0.12208973483E+02  0.38710003305E+01  0.58293945061E+01  0.14072153980E+02  0.51100000000E-03 0. -1.
        -11    1    4    4    0    0  0.15143302234E+00  0.30588421914E+02 -0.11852898225E+02  0.32804964315E+02  0.51100000000E-03 0.  1.
        -12    1    4    4    0    0  0.14598388117E+01 -0.28238559162E+01 -0.67818336632E+01  0.74898971573E+01  0.00000000000E+00 0.  1.
</event>
<event>
 8    1  0.2466538E-006  0.9118800E+02  0.7816164E-02  0.1184000E+00
        -11   -1    0    0    0    0  0.00000000000E+00  0.00000000000E+00  0.45593999997E+02  0.45594000000E+02  0.51100000000E-03 0. -1.
         11   -1    0    0    0    0 -0.00000000000E+00 -0.00000000000E+00 -0.45593999997E+02  0.45594000000E+02  0.51100000000E-03 0.  1.
         23    2    1    2    0    0  0.00000000000E+00  0.00000000000E+00  0.17763568394E-14  0.91188000000E+02  0.91188000000E+02 0.  0.
    9900012    2    3    3    0    0 -0.36657070642E+02 -0.16033167636E+01 -0.30772524800E+01  0.54367069328E+02  0.39999966147E+02 0.  0.
         12    1    3    3    0    0  0.36657070642E+02  0.16033167636E+01  0.30772524800E+01  0.36820930672E+02  0.00000000000E+00 0. -1.
         11    1    4    4    0    0 -0.16339249562E+02 -0.83602678471E+01  0.46539410837E+01  0.18934738514E+02  0.51100000000E-03 0.  1.
        -11    1    4    4    0    0 -0.11436735692E+02 -0.51643708188E+01  0.71127991212E+01  0.14424339182E+02  0.51100000000E-03 0. -1.
        -12    1    4    4    0    0 -0.88810853878E+01  0.11921321902E+02 -0.14843992685E+02  0.21007991632E+02  0.00000000000E+00 0.  1.
</event>
<event>
 8    1  0.2466538E-006  0.9118800E+02  0.7816164E-02  0.1184000E+00
        -11   -1    0    0    0    0  0.00000000000E+00  0.00000000000E+00  0.45593999997E+02  0.45594000000E+02  0.51100000000E-03 0. -1.
         11   -1    0    0    0    0 -0.00000000000E+00 -0.00000000000E+00 -0.45593999997E+02  0.45594000000E+02  0.51100000000E-03 0.  1.
         23    2    1    2    0    0  0.35527136788E-14  0.35527136788E-14  0.17763568394E-14  0.91188000000E+02  0.91188000000E+02 0.  0.
    9900012    2    3    3    0    0 -0.18574684373E+02  0.29425322737E+02  0.12037961657E+02  0.54367067929E+02  0.39999962957E+02 0.  0.
         12    1    3    3    0    0  0.18574684373E+02 -0.29425322737E+02 -0.12037961657E+02  0.36820932071E+02  0.00000000000E+00 0. -1.
         11    1    4    4    0    0  0.66108805885E+01  0.95746999144E+00 -0.37404275963E+01  0.76558010556E+01  0.51100000000E-03 0. -1.
        -11    1    4    4    0    0 -0.34814366661E+01 -0.55854213127E+00 -0.40730174319E+01  0.53871923888E+01  0.51100000000E-03 0.  1.
         12    1    4    4    0    0 -0.21704128295E+02  0.29026394877E+02  0.19851406685E+02  0.41324074484E+02  0.00000000000E+00 0. -1.
</event>
<event>
 8    1  0.2466538E-006  0.9118800E+02  0.7816164E-02  0.1184000E+00
        -11   -1    0    0    0    0  0.00000000000E+00  0.00000000000E+00  0.45593999997E+02  0.45594000000E+02  0.51100000000E-03 0.  1.
         11   -1    0    0    0    0 -0.00000000000E+00 -0.00000000000E+00 -0.45593999997E+02  0.45594000000E+02  0.51100000000E-03 0. -1.
         23    2    1    2    0    0  0.00000000000E+00  0.00000000000E+00  0.00000000000E+00  0.91188000000E+02  0.91188000000E+02 0.  0.
    9900012    2    3    3    0    0  0.21713585838E+02 -0.29610056406E+02 -0.27468139090E+01  0.54367078815E+02  0.39999987774E+02 0.  0.
        -12    1    3    3    0    0 -0.21713585838E+02  0.29610056406E+02  0.27468139090E+01  0.36820921185E+02  0.00000000000E+00 0.  1.
         11    1    4    4    0    0  0.18271521200E+01 -0.21561412008E+01  0.94868216717E+00  0.29811789385E+01  0.51100000000E-03 0. -1.
        -11    1    4    4    0    0  0.18975101818E+01 -0.32509510079E+02 -0.21205099926E+01  0.32633806909E+02  0.51100000000E-03 0.  1.
        -12    1    4    4    0    0  0.17988923536E+02  0.50555948737E+01 -0.15749860836E+01  0.18752092968E+02  0.00000000000E+00 0.  1.
</event>
<event>
 8    1  0.2466538E-006  0.9118800E+02  0.7816164E-02  0.1184000E+00
        -11   -1    0    0    0    0  0.00000000000E+00  0.00000000000E+00  0.45593999997E+02  0.45594000000E+02  0.51100000000E-03 0. -1.
         11   -1    0    0    0    0 -0.00000000000E+00 -0.00000000000E+00 -0.45593999997E+02  0.45594000000E+02  0.51100000000E-03 0.  1.
         23    2    1    2    0    0  0.44408920985E-15  0.00000000000E+00  0.00000000000E+00  0.91188000000E+02  0.91188000000E+02 0.  0.
    9900012    2    3    3    0    0  0.16810939923E+01  0.17667227657E+02 -0.32261763583E+02  0.54367103764E+02  0.40000044651E+02 0.  0.
         12    1    3    3    0    0 -0.16810939923E+01 -0.17667227657E+02  0.32261763583E+02  0.36820896236E+02  0.00000000000E+00 0. -1.
         11    1    4    4    0    0 -0.67415705559E+01  0.14174122708E+02 -0.15022479181E+01  0.15767411873E+02  0.51100000000E-03 0. -1.
        -11    1    4    4    0    0 -0.37343129127E+01 -0.63029620688E+01 -0.67582392083E+01  0.99672574577E+01  0.51100000000E-03 0.  1.
        -12    1    4    4    0    0  0.12156977461E+02  0.97960670181E+01 -0.24001276457E+02  0.28632434433E+02  0.00000000000E+00 0.  1.
</event>
<event>
 8    1  0.2466538E-006  0.9118800E+02  0.7816164E-02  0.1184000E+00
        -11   -1    0    0    0    0  0.00000000000E+00  0.00000000000E+00  0.45593999997E+02  0.45594000000E+02  0.51100000000E-03 0. -1.
         11   -1    0    0    0    0 -0.00000000000E+00 -0.00000000000E+00 -0.45593999997E+02  0.45594000000E+02  0.51100000000E-03 0.  1.
         23    2    1    2    0    0  0.35527136788E-14 -0.35527136788E-14  0.00000000000E+00  0.91188000000E+02  0.91188000000E+02 0.  0.
    9900012    2    3    3    0    0 -0.20494443251E+02  0.30300693498E+02  0.41982056972E+01  0.54367093416E+02  0.40000021060E+02 0.  0.
        -12    1    3    3    0    0  0.20494443251E+02 -0.30300693498E+02 -0.41982056972E+01  0.36820906584E+02  0.00000000000E+00 0.  1.
         11    1    4    4    0    0 -0.13948075447E+02  0.23184044701E+02 -0.52649537097E+01  0.27563898041E+02  0.51100000000E-03 0. -1.
        -11    1    4    4    0    0  0.56117045072E+01  0.13917992018E+01  0.11821230919E+02  0.13159400944E+02  0.51100000000E-03 0.  1.
        -12    1    4    4    0    0 -0.12158072311E+02  0.57248495948E+01 -0.23580715125E+01  0.13643794431E+02  0.00000000000E+00 0.  1.
</event>
<event>
 8    1  0.2466538E-006  0.9118800E+02  0.7816164E-02  0.1184000E+00
        -11   -1    0    0    0    0  0.00000000000E+00  0.00000000000E+00  0.45593999997E+02  0.45594000000E+02  0.51100000000E-03 0. -1.
         11   -1    0    0    0    0 -0.00000000000E+00 -0.00000000000E+00 -0.45593999997E+02  0.45594000000E+02  0.51100000000E-03 0.  1.
         23    2    1    2    0    0  0.35527136788E-14  0.00000000000E+00  0.00000000000E+00  0.91188000000E+02  0.91188000000E+02 0.  0.
    9900012    2    3    3    0    0  0.27546109343E+02  0.17113785777E+02 -0.17438760793E+02  0.54367079567E+02  0.39999989488E+02 0.  0.
         12    1    3    3    0    0 -0.27546109343E+02 -0.17113785777E+02  0.17438760793E+02  0.36820920433E+02  0.00000000000E+00 0. -1.
         11    1    4    4    0    0 -0.34195881306E+01 -0.11908069220E+01 -0.24523866831E+01  0.43733059364E+01  0.51100000000E-03 0. -1.
        -11    1    4    4    0    0  0.80340744023E+01  0.19792555751E+02 -0.16459479553E+02  0.26966758835E+02  0.51100000000E-03 0.  1.
        -12    1    4    4    0    0  0.22931623071E+02 -0.14879630515E+01  0.14731054435E+01  0.23027014795E+02  0.00000000000E+00 0.  1.
</event>
<event>
 8    1  0.2466538E-006  0.9118800E+02  0.7816164E-02  0.1184000E+00
        -11   -1    0    0    0    0  0.00000000000E+00  0.00000000000E+00  0.45593999997E+02  0.45594000000E+02  0.51100000000E-03 0.  1.
         11   -1    0    0    0    0 -0.00000000000E+00 -0.00000000000E+00 -0.45593999997E+02  0.45594000000E+02  0.51100000000E-03 0. -1.
         23    2    1    2    0    0  0.00000000000E+00  0.00000000000E+00  0.17763568394E-14  0.91188000000E+02  0.91188000000E+02 0.  0.
    9900012    2    3    3    0    0 -0.29901710906E+02  0.16795361341E+02  0.13400864389E+02  0.54367086866E+02  0.40000006128E+02 0.  0.
         12    1    3    3    0    0  0.29901710906E+02 -0.16795361341E+02 -0.13400864389E+02  0.36820913134E+02  0.00000000000E+00 0. -1.
         11    1    4    4    0    0 -0.47827845434E+01  0.11652243353E+02  0.20331059968E+02  0.23916559177E+02  0.51100000000E-03 0.  1.
        -11    1    4    4    0    0 -0.59957866944E+01 -0.34966848348E+01  0.25890026789E+01  0.74080495443E+01  0.51100000000E-03 0. -1.
        -12    1    4    4    0    0 -0.19123139668E+02  0.86398028226E+01 -0.95191982586E+01  0.23042478145E+02  0.00000000000E+00 0.  1.
</event>
<event>
 8    1  0.2466538E-006  0.9118800E+02  0.7816164E-02  0.1184000E+00
        -11   -1    0    0    0    0  0.00000000000E+00  0.00000000000E+00  0.45593999997E+02  0.45594000000E+02  0.51100000000E-03 0. -1.
         11   -1    0    0    0    0 -0.00000000000E+00 -0.00000000000E+00 -0.45593999997E+02  0.45594000000E+02  0.51100000000E-03 0.  1.
         23    2    1    2    0    0  0.14210854715E-13 -0.17763568394E-14  0.00000000000E+00  0.91188000000E+02  0.91188000000E+02 0.  0.
    9900012    2    3    3    0    0  0.34693572850E+02 -0.11471509710E+02  0.45321071883E+01  0.54367088445E+02  0.40000009729E+02 0.  0.
        -12    1    3    3    0    0 -0.34693572850E+02  0.11471509710E+02 -0.45321071883E+01  0.36820911555E+02  0.00000000000E+00 0.  1.
         11    1    4    4    0    0  0.24009487841E+02 -0.17303475827E+02  0.87641657632E+01  0.30865456158E+02  0.51100000000E-03 0. -1.
        -11    1    4    4    0    0  0.38773604918E+00 -0.49344171865E+01  0.41047702970E+01  0.64302372947E+01  0.51100000000E-03 0.  1.
        -12    1    4    4    0    0  0.10296348960E+02  0.10766383303E+02 -0.83368288719E+01  0.17071394992E+02  0.00000000000E+00 0.  1.
</event>
<event>
 8    1  0.2466538E-006  0.9118800E+02  0.7816164E-02  0.1184000E+00
        -11   -1    0    0    0    0  0.00000000000E+00  0.00000000000E+00  0.45593999997E+02  0.45594000000E+02  0.51100000000E-03 0. -1.
         11   -1    0    0    0    0 -0.00000000000E+00 -0.00000000000E+00 -0.45593999997E+02  0.45594000000E+02  0.51100000000E-03 0.  1.
         23    2    1    2    0    0  0.17763568394E-14  0.00000000000E+00 -0.44408920985E-15  0.91188000000E+02  0.91188000000E+02 0.  0.
    9900012    2    3    3    0    0 -0.14902863077E+02 -0.33649930592E+02 -0.11686404578E+01  0.54367097279E+02  0.40000029866E+02 0.  0.
        -12    1    3    3    0    0  0.14902863077E+02  0.33649930592E+02  0.11686404578E+01  0.36820902721E+02  0.00000000000E+00 0.  1.
         11    1    4    4    0    0  0.56908287840E+01 -0.22365569519E+02  0.46614152479E+01  0.23544277957E+02  0.51100000000E-03 0. -1.
        -11    1    4    4    0    0 -0.17344537616E+01  0.16071647205E+01  0.50078150362E+01  0.55380068606E+01  0.51100000000E-03 0.  1.
         12    1    4    4    0    0 -0.18859238099E+02 -0.12891525793E+02 -0.10837870742E+02  0.25284812461E+02  0.00000000000E+00 0. -1.
</event>
<event>
 8    1  0.2466538E-006  0.9118800E+02  0.7816164E-02  0.1184000E+00
        -11   -1    0    0    0    0  0.00000000000E+00  0.00000000000E+00  0.45593999997E+02  0.45594000000E+02  0.51100000000E-03 0.  1.
         11   -1    0    0    0    0 -0.00000000000E+00 -0.00000000000E+00 -0.45593999997E+02  0.45594000000E+02  0.51100000000E-03 0. -1.
         23    2    1    2    0    0  0.17763568394E-14  0.00000000000E+00  0.00000000000E+00  0.91188000000E+02  0.91188000000E+02 0.  0.
    9900012    2    3    3    0    0 -0.12159621226E+02 -0.30537375689E+02 -0.16594948432E+02  0.54367081818E+02  0.39999994619E+02 0.  0.
        -12    1    3    3    0    0  0.12159621226E+02  0.30537375689E+02  0.16594948432E+02  0.36820918182E+02  0.00000000000E+00 0.  1.
         11    1    4    4    0    0 -0.27015429042E+01 -0.32010643782E+02 -0.21755128816E+02  0.38797748381E+02  0.51100000000E-03 0. -1.
        -11    1    4    4    0    0 -0.10714667839E+00  0.45517742668E+01  0.22918350259E+00  0.45587997023E+01  0.51100000000E-03 0.  1.
         12    1    4    4    0    0 -0.93509316438E+01 -0.30785061739E+01  0.49309968812E+01  0.11010533734E+02  0.00000000000E+00 0. -1.
</event>
<event>
 8    1  0.2466538E-006  0.9118800E+02  0.7816164E-02  0.1184000E+00
        -11   -1    0    0    0    0  0.00000000000E+00  0.00000000000E+00  0.45593999997E+02  0.45594000000E+02  0.51100000000E-03 0. -1.
         11   -1    0    0    0    0 -0.00000000000E+00 -0.00000000000E+00 -0.45593999997E+02  0.45594000000E+02  0.51100000000E-03 0.  1.
         23    2    1    2    0    0  0.17763568394E-14 -0.71054273576E-14  0.00000000000E+00  0.91188000000E+02  0.91188000000E+02 0.  0.
    9900012    2    3    3    0    0 -0.12890560271E+02  0.32740904653E+02  0.10846456070E+02  0.54367095735E+02  0.40000026348E+02 0.  0.
        -12    1    3    3    0    0  0.12890560271E+02 -0.32740904653E+02 -0.10846456070E+02  0.36820904265E+02  0.00000000000E+00 0.  1.
         11    1    4    4    0    0 -0.98483316256E+01  0.28828702629E+02  0.73964591529E+01  0.31349503015E+02  0.51100000000E-03 0. -1.
        -11    1    4    4    0    0 -0.11083642648E+02  0.20721870934E+01  0.77816918203E+01  0.13700212464E+02  0.51100000000E-03 0.  1.
        -12    1    4    4    0    0  0.80414140025E+01  0.18400149306E+01 -0.43316949029E+01  0.93173802561E+01  0.00000000000E+00 0.  1.
</event>
<event>
 8    1  0.2466538E-006  0.9118800E+02  0.7816164E-02  0.1184000E+00
        -11   -1    0    0    0    0  0.00000000000E+00  0.00000000000E+00  0.45593999997E+02  0.45594000000E+02  0.51100000000E-03 0.  1.
         11   -1    0    0    0    0 -0.00000000000E+00 -0.00000000000E+00 -0.45593999997E+02  0.45594000000E+02  0.51100000000E-03 0. -1.
         23    2    1    2    0    0  0.00000000000E+00  0.35527136788E-14 -0.35527136788E-14  0.91188000000E+02  0.91188000000E+02 0.  0.
    9900012    2    3    3    0    0  0.17290708528E+02 -0.25540017064E+02 -0.20112657071E+02  0.54367081387E+02  0.39999993638E+02 0.  0.
        -12    1    3    3    0    0 -0.17290708528E+02  0.25540017064E+02  0.20112657071E+02  0.36820918613E+02  0.00000000000E+00 0.  1.
         11    1    4    4    0    0  0.14278507849E+02 -0.29206375934E+02 -0.17594148056E+02  0.36965419349E+02  0.51100000000E-03 0. -1.
        -11    1    4    4    0    0 -0.13603756713E-01  0.38154729342E+01 -0.92575450364E+01  0.10012999507E+02  0.51100000000E-03 0.  1.
        -12    1    4    4    0    0  0.30258044361E+01 -0.14911406386E+00  0.67390360213E+01  0.73886625302E+01  0.00000000000E+00 0.  1.
</event>
<event>
 8    1  0.2466538E-006  0.9118800E+02  0.7816164E-02  0.1184000E+00
        -11   -1    0    0    0    0  0.00000000000E+00  0.00000000000E+00  0.45593999997E+02  0.45594000000E+02  0.51100000000E-03 0.  1.
         11   -1    0    0    0    0 -0.00000000000E+00 -0.00000000000E+00 -0.45593999997E+02  0.45594000000E+02  0.51100000000E-03 0. -1.
         23    2    1    2    0    0  0.00000000000E+00  0.00000000000E+00 -0.35527136788E-14  0.91188000000E+02  0.91188000000E+02 0.  0.
    9900012    2    3    3    0    0 -0.24895847726E+02 -0.18276211934E+02  0.20048859463E+02  0.54367083086E+02  0.39999997510E+02 0.  0.
         12    1    3    3    0    0  0.24895847726E+02  0.18276211934E+02 -0.20048859463E+02  0.36820916914E+02  0.00000000000E+00 0. -1.
         11    1    4    4    0    0  0.51107441558E+01 -0.67437067633E+01 -0.47515088389E+01  0.97043352808E+01  0.51100000000E-03 0. -1.
        -11    1    4    4    0    0 -0.11331541453E+02 -0.16055140835E+01 -0.78029934367E+00  0.11471284779E+02  0.51100000000E-03 0.  1.
        -12    1    4    4    0    0 -0.18675050429E+02 -0.99269910868E+01  0.25580667646E+02  0.33191463025E+02  0.00000000000E+00 0.  1.
</event>
<event>
 8    1  0.2466538E-006  0.9118800E+02  0.7816164E-02  0.1184000E+00
        -11   -1    0    0    0    0  0.00000000000E+00  0.00000000000E+00  0.45593999997E+02  0.45594000000E+02  0.51100000000E-03 0.  1.
         11   -1    0    0    0    0 -0.00000000000E+00 -0.00000000000E+00 -0.45593999997E+02  0.45594000000E+02  0.51100000000E-03 0. -1.
         23    2    1    2    0    0  0.00000000000E+00  0.88817841970E-15  0.17763568394E-14  0.91188000000E+02  0.91188000000E+02 0.  0.
    9900012    2    3    3    0    0 -0.34649859524E+02  0.34051573739E+01  0.11981741587E+02  0.54367217916E+02  0.40000304882E+02 0.  0.
         12    1    3    3    0    0  0.34649859524E+02 -0.34051573739E+01 -0.11981741587E+02  0.36820782084E+02  0.00000000000E+00 0. -1.
         11    1    4    4    0    0 -0.99634717250E+01  0.17656758414E+02  0.34353198520E+01  0.20562911011E+02  0.51100000000E-03 0. -1.
        -11    1    4    4    0    0 -0.24367596752E+02 -0.12144201751E+02  0.11994134043E+02  0.29750977452E+02  0.51100000000E-03 0.  1.
         12    1    4    4    0    0 -0.31879104743E+00 -0.21073992900E+01 -0.34477123077E+01  0.40533294532E+01  0.00000000000E+00 0. -1.
</event>
<event>
 8    1  0.2466538E-006  0.9118800E+02  0.7816164E-02  0.1184000E+00
        -11   -1    0    0    0    0  0.00000000000E+00  0.00000000000E+00  0.45593999997E+02  0.45594000000E+02  0.51100000000E-03 0.  1.
         11   -1    0    0    0    0 -0.00000000000E+00 -0.00000000000E+00 -0.45593999997E+02  0.45594000000E+02  0.51100000000E-03 0. -1.
         23    2    1    2    0    0  0.00000000000E+00 -0.17763568394E-14  0.00000000000E+00  0.91188000000E+02  0.91188000000E+02 0.  0.
    9900012    2    3    3    0    0 -0.33233476928E+02 -0.14072155203E+02  0.72999878372E+01  0.54367090679E+02  0.40000014821E+02 0.  0.
         12    1    3    3    0    0  0.33233476928E+02  0.14072155203E+02 -0.72999878372E+01  0.36820909321E+02  0.00000000000E+00 0. -1.
         11    1    4    4    0    0 -0.24582905576E+02  0.40286049026E+01 -0.33401641703E+01  0.25133754215E+02  0.51100000000E-03 0. -1.
        -11    1    4    4    0    0 -0.67075627647E+01  0.15215053964E+01  0.10849136413E+00  0.68788187613E+01  0.51100000000E-03 0.  1.
         12    1    4    4    0    0 -0.19430085880E+01 -0.19622265502E+02  0.10531660643E+02  0.22354517703E+02  0.00000000000E+00 0. -1.
</event>
<event>
 8    1  0.2466538E-006  0.9118800E+02  0.7816164E-02  0.1184000E+00
        -11   -1    0    0    0    0  0.00000000000E+00  0.00000000000E+00  0.45593999997E+02  0.45594000000E+02  0.51100000000E-03 0.  1.
         11   -1    0    0    0    0 -0.00000000000E+00 -0.00000000000E+00 -0.45593999997E+02  0.45594000000E+02  0.51100000000E-03 0. -1.
         23    2    1    2    0    0  0.71054273576E-14  0.00000000000E+00  0.00000000000E+00  0.91188000000E+02  0.91188000000E+02 0.  0.
    9900012    2    3    3    0    0 -0.33865911032E+02  0.12325424517E+02 -0.75474393078E+01  0.54367083938E+02  0.39999999454E+02 0.  0.
        -12    1    3    3    0    0  0.33865911032E+02 -0.12325424517E+02  0.75474393078E+01  0.36820916062E+02  0.00000000000E+00 0.  1.
         11    1    4    4    0    0 -0.83844945198E+01  0.17337933749E+02 -0.50178169102E+01  0.19901813532E+02  0.51100000000E-03 0. -1.
        -11    1    4    4    0    0 -0.20216518741E+02 -0.29468516765E+01  0.84546780652E+01  0.22110475939E+02  0.51100000000E-03 0.  1.
         12    1    4    4    0    0 -0.52648977713E+01 -0.20656575554E+01 -0.10984300463E+02  0.12354794468E+02  0.00000000000E+00 0. -1.
</event>
<event>
 8    1  0.2466538E-006  0.9118800E+02  0.7816164E-02  0.1184000E+00
        -11   -1    0    0    0    0  0.00000000000E+00  0.00000000000E+00  0.45593999997E+02  0.45594000000E+02  0.51100000000E-03 0.  1.
         11   -1    0    0    0    0 -0.00000000000E+00 -0.00000000000E+00 -0.45593999997E+02  0.45594000000E+02  0.51100000000E-03 0. -1.
         23    2    1    2    0    0  0.00000000000E+00  0.35527136788E-14  0.00000000000E+00  0.91188000000E+02  0.91188000000E+02 0.  0.
    9900012    2    3    3    0    0  0.16164589543E+02 -0.26694777762E+02 -0.19541610762E+02  0.54367086567E+02  0.40000005447E+02 0.  0.
        -12    1    3    3    0    0 -0.16164589543E+02  0.26694777762E+02  0.19541610762E+02  0.36820913433E+02  0.00000000000E+00 0.  1.
         11    1    4    4    0    0  0.12260232694E+02 -0.11349684074E+02 -0.11563170800E+02  0.20318355088E+02  0.51100000000E-03 0. -1.
        -11    1    4    4    0    0 -0.27833272616E+01  0.80433533898E+01 -0.39823453301E+01  0.93968887930E+01  0.51100000000E-03 0.  1.
         12    1    4    4    0    0  0.66876841103E+01 -0.23388447078E+02 -0.39960946323E+01  0.24651842686E+02  0.00000000000E+00 0. -1.
</event>
<event>
 8    1  0.2466538E-006  0.9118800E+02  0.7816164E-02  0.1184000E+00
        -11   -1    0    0    0    0  0.00000000000E+00  0.00000000000E+00  0.45593999997E+02  0.45594000000E+02  0.51100000000E-03 0. -1.
         11   -1    0    0    0    0 -0.00000000000E+00 -0.00000000000E+00 -0.45593999997E+02  0.45594000000E+02  0.51100000000E-03 0.  1.
         23    2    1    2    0    0  0.00000000000E+00  0.35527136788E-14 -0.35527136788E-14  0.91188000000E+02  0.91188000000E+02 0.  0.
    9900012    2    3    3    0    0 -0.17010998838E+02  0.22926675520E+02 -0.23254429080E+02  0.54367149878E+02  0.40000149777E+02 0.  0.
         12    1    3    3    0    0  0.17010998838E+02 -0.22926675520E+02  0.23254429080E+02  0.36820850122E+02  0.00000000000E+00 0. -1.
         11    1    4    4    0    0 -0.50974263150E+01 -0.79635108226E+01 -0.48930651141E+01  0.10646283207E+02  0.51100000000E-03 0. -1.
        -11    1    4    4    0    0 -0.12868555416E+02  0.34036798182E+02 -0.16954379445E+02  0.40144169335E+02  0.51100000000E-03 0.  1.
        -12    1    4    4    0    0  0.95498289252E+00 -0.31466118391E+01 -0.14069845212E+01  0.35766973361E+01  0.00000000000E+00 0.  1.
</event>
<event>
 8    1  0.2466538E-006  0.9118800E+02  0.7816164E-02  0.1184000E+00
        -11   -1    0    0    0    0  0.00000000000E+00  0.00000000000E+00  0.45593999997E+02  0.45594000000E+02  0.51100000000E-03 0. -1.
         11   -1    0    0    0    0 -0.00000000000E+00 -0.00000000000E+00 -0.45593999997E+02  0.45594000000E+02  0.51100000000E-03 0.  1.
         23    2    1    2    0    0  0.00000000000E+00  0.88817841970E-15 -0.71054273576E-14  0.91188000000E+02  0.91188000000E+02 0.  0.
    9900012    2    3    3    0    0 -0.15268104082E+02  0.48207681288E+01 -0.33157582116E+02  0.54367081226E+02  0.39999993271E+02 0.  0.
         12    1    3    3    0    0  0.15268104082E+02 -0.48207681288E+01  0.33157582116E+02  0.36820918774E+02  0.00000000000E+00 0. -1.
         11    1    4    4    0    0 -0.15976439898E+02 -0.67770584486E+01 -0.99795104752E+01  0.20019135412E+02  0.51100000000E-03 0. -1.
        -11    1    4    4    0    0 -0.53368538454E+01  0.13626702520E+02 -0.56349571367E+01  0.15681893148E+02  0.51100000000E-03 0.  1.
        -12    1    4    4    0    0  0.60451896620E+01 -0.20288759421E+01 -0.17543114504E+02  0.18666052666E+02  0.00000000000E+00 0.  1.
</event>
<event>
 8    1  0.2466538E-006  0.9118800E+02  0.7816164E-02  0.1184000E+00
        -11   -1    0    0    0    0  0.00000000000E+00  0.00000000000E+00  0.45593999997E+02  0.45594000000E+02  0.51100000000E-03 0. -1.
         11   -1    0    0    0    0 -0.00000000000E+00 -0.00000000000E+00 -0.45593999997E+02  0.45594000000E+02  0.51100000000E-03 0.  1.
         23    2    1    2    0    0  0.00000000000E+00  0.00000000000E+00 -0.17763568394E-14  0.91188000000E+02  0.91188000000E+02 0.  0.
    9900012    2    3    3    0    0 -0.33681341441E+02  0.99891037410E+01 -0.11025620218E+02  0.54367092135E+02  0.40000018140E+02 0.  0.
         12    1    3    3    0    0  0.33681341441E+02 -0.99891037410E+01  0.11025620218E+02  0.36820907865E+02  0.00000000000E+00 0. -1.
         11    1    4    4    0    0  0.66410815057E+00  0.31792371086E+01 -0.11320787102E+01  0.34395044258E+01  0.51100000000E-03 0. -1.
        -11    1    4    4    0    0 -0.28768054670E+02  0.15217800464E+02 -0.18700270251E+02  0.37535083964E+02  0.51100000000E-03 0.  1.
         12    1    4    4    0    0 -0.55773949211E+01 -0.84079338315E+01  0.88067287428E+01  0.13392503745E+02  0.00000000000E+00 0. -1.
</event>
<event>
 8    1  0.2466538E-006  0.9118800E+02  0.7816164E-02  0.1184000E+00
        -11   -1    0    0    0    0  0.00000000000E+00  0.00000000000E+00  0.45593999997E+02  0.45594000000E+02  0.51100000000E-03 0.  1.
         11   -1    0    0    0    0 -0.00000000000E+00 -0.00000000000E+00 -0.45593999997E+02  0.45594000000E+02  0.51100000000E-03 0. -1.
         23    2    1    2    0    0  0.00000000000E+00  0.00000000000E+00  0.00000000000E+00  0.91188000000E+02  0.91188000000E+02 0.  0.
    9900012    2    3    3    0    0  0.18017295751E+02 -0.93085766513E+01  0.30732805282E+02  0.54367111011E+02  0.40000061171E+02 0.  0.
         12    1    3    3    0    0 -0.18017295751E+02  0.93085766513E+01 -0.30732805282E+02  0.36820888989E+02  0.00000000000E+00 0. -1.
         11    1    4    4    0    0  0.44640031528E+01  0.32493415916E+00 -0.69210164810E+01  0.82421705726E+01  0.51100000000E-03 0. -1.
        -11    1    4    4    0    0  0.74471258157E+01  0.60590622708E+01  0.11029867688E+02  0.14622923784E+02  0.51100000000E-03 0.  1.
         12    1    4    4    0    0  0.61061667826E+01 -0.15692573081E+02  0.26623954075E+02  0.31502016654E+02  0.00000000000E+00 0. -1.
</event>
<event>
 8    1  0.2466538E-006  0.9118800E+02  0.7816164E-02  0.1184000E+00
        -11   -1    0    0    0    0  0.00000000000E+00  0.00000000000E+00  0.45593999997E+02  0.45594000000E+02  0.51100000000E-03 0.  1.
         11   -1    0    0    0    0 -0.00000000000E+00 -0.00000000000E+00 -0.45593999997E+02  0.45594000000E+02  0.51100000000E-03 0. -1.
         23    2    1    2    0    0 -0.17763568394E-14  0.00000000000E+00  0.35527136788E-14  0.91188000000E+02  0.91188000000E+02 0.  0.
    9900012    2    3    3    0    0  0.12757979177E+02  0.16567077625E+02 -0.30307509909E+02  0.54367092209E+02  0.40000018309E+02 0.  0.
        -12    1    3    3    0    0 -0.12757979177E+02 -0.16567077625E+02  0.30307509909E+02  0.36820907791E+02  0.00000000000E+00 0.  1.
         11    1    4    4    0    0 -0.16528924464E+00 -0.29449951239E+01  0.16545708523E+01  0.33819996719E+01  0.51100000000E-03 0. -1.
        -11    1    4    4    0    0  0.17018202046E+02 -0.25517978175E+01 -0.15419108452E+02  0.23105838628E+02  0.51100000000E-03 0.  1.
         12    1    4    4    0    0 -0.40949336247E+01  0.22063870566E+02 -0.16542972309E+02  0.27879253910E+02  0.00000000000E+00 0. -1.
</event>
<event>
 8    1  0.2466538E-006  0.9118800E+02  0.7816164E-02  0.1184000E+00
        -11   -1    0    0    0    0  0.00000000000E+00  0.00000000000E+00  0.45593999997E+02  0.45594000000E+02  0.51100000000E-03 0.  1.
         11   -1    0    0    0    0 -0.00000000000E+00 -0.00000000000E+00 -0.45593999997E+02  0.45594000000E+02  0.51100000000E-03 0. -1.
         23    2    1    2    0    0 -0.88817841970E-15  0.00000000000E+00  0.35527136788E-14  0.91188000000E+02  0.91188000000E+02 0.  0.
    9900012    2    3    3    0    0 -0.27711465420E+01  0.20412115200E+02  0.30519586971E+02  0.54367097119E+02  0.40000029502E+02 0.  0.
         12    1    3    3    0    0  0.27711465420E+01 -0.20412115200E+02 -0.30519586971E+02  0.36820902881E+02  0.00000000000E+00 0. -1.
         11    1    4    4    0    0 -0.95483793784E+01 -0.49818795505E+01 -0.21889437765E+01  0.10990093163E+02  0.51100000000E-03 0. -1.
        -11    1    4    4    0    0  0.53792815427E+01  0.11059771534E+02  0.76772039127E+01  0.14498092167E+02  0.51100000000E-03 0.  1.
        -12    1    4    4    0    0  0.13979512938E+01  0.14334223216E+02  0.25031326835E+02  0.28878911790E+02  0.00000000000E+00 0.  1.
</event>
<event>
 8    1  0.2466538E-006  0.9118800E+02  0.7816164E-02  0.1184000E+00
        -11   -1    0    0    0    0  0.00000000000E+00  0.00000000000E+00  0.45593999997E+02  0.45594000000E+02  0.51100000000E-03 0. -1.
         11   -1    0    0    0    0 -0.00000000000E+00 -0.00000000000E+00 -0.45593999997E+02  0.45594000000E+02  0.51100000000E-03 0.  1.
         23    2    1    2    0    0 -0.22204460493E-15  0.00000000000E+00  0.00000000000E+00  0.91188000000E+02  0.91188000000E+02 0.  0.
    9900012    2    3    3    0    0  0.66423780510E+00  0.17237498924E+02  0.32530106193E+02  0.54367076737E+02  0.39999983037E+02 0.  0.
        -12    1    3    3    0    0 -0.66423780510E+00 -0.17237498924E+02 -0.32530106193E+02  0.36820923263E+02  0.00000000000E+00 0.  1.
         11    1    4    4    0    0 -0.85887443192E+01  0.70146401303E+01 -0.35635786805E+00  0.11094985188E+02  0.51100000000E-03 0. -1.
        -11    1    4    4    0    0  0.99633387165E+01 -0.57126328132E+01  0.92006068642E+01  0.14715755467E+02  0.51100000000E-03 0.  1.
         12    1    4    4    0    0 -0.71035659220E+00  0.15935491607E+02  0.23685857197E+02  0.28556336081E+02  0.00000000000E+00 0. -1.
</event>
<event>
 8    1  0.2466538E-006  0.9118800E+02  0.7816164E-02  0.1184000E+00
        -11   -1    0    0    0    0  0.00000000000E+00  0.00000000000E+00  0.45593999997E+02  0.45594000000E+02  0.51100000000E-03 0. -1.
         11   -1    0    0    0    0 -0.00000000000E+00 -0.00000000000E+00 -0.45593999997E+02  0.45594000000E+02  0.51100000000E-03 0.  1.
         23    2    1    2    0    0 -0.17763568394E-14  0.71054273576E-14 -0.88817841970E-15  0.91188000000E+02  0.91188000000E+02 0.  0.
    9900012    2    3    3    0    0  0.42190054215E+01 -0.35700764477E+02 -0.79643274651E+01  0.54367148531E+02  0.40000146705E+02 0.  0.
         12    1    3    3    0    0 -0.42190054215E+01  0.35700764477E+02  0.79643274651E+01  0.36820851469E+02  0.00000000000E+00 0. -1.
         11    1    4    4    0    0 -0.12832547566E+02 -0.42048275528E+01 -0.99196468681E+01  0.16755722784E+02  0.51100000000E-03 0. -1.
        -11    1    4    4    0    0  0.36359250401E+01 -0.10919308217E+02 -0.42628658895E+01  0.12272867175E+02  0.51100000000E-03 0.  1.
         12    1    4    4    0    0  0.13415627947E+02 -0.20576628707E+02  0.62181852925E+01  0.25338558571E+02  0.00000000000E+00 0. -1.
</event>
<event>
 8    1  0.2466538E-006  0.9118800E+02  0.7816164E-02  0.1184000E+00
        -11   -1    0    0    0    0  0.00000000000E+00  0.00000000000E+00  0.45593999997E+02  0.45594000000E+02  0.51100000000E-03 0. -1.
         11   -1    0    0    0    0 -0.00000000000E+00 -0.00000000000E+00 -0.45593999997E+02  0.45594000000E+02  0.51100000000E-03 0.  1.
         23    2    1    2    0    0  0.00000000000E+00 -0.88817841970E-15  0.00000000000E+00  0.91188000000E+02  0.91188000000E+02 0.  0.
    9900012    2    3    3    0    0 -0.27611551577E+02 -0.57991171728E+01  0.23659082099E+02  0.54367086021E+02  0.40000004203E+02 0.  0.
        -12    1    3    3    0    0  0.27611551577E+02  0.57991171728E+01 -0.23659082099E+02  0.36820913979E+02  0.00000000000E+00 0.  1.
         11    1    4    4    0    0 -0.17848065580E+02  0.37447066406E+01  0.13369331416E+02  0.22612281962E+02  0.51100000000E-03 0. -1.
        -11    1    4    4    0    0 -0.13200186369E+02  0.56693493449E+01  0.37866656305E+01  0.14856826008E+02  0.51100000000E-03 0.  1.
        -12    1    4    4    0    0  0.34367003730E+01 -0.15213173158E+02  0.65030850525E+01  0.16897978051E+02  0.00000000000E+00 0.  1.
</event>
<event>
 8    1  0.2466538E-006  0.9118800E+02  0.7816164E-02  0.1184000E+00
        -11   -1    0    0    0    0  0.00000000000E+00  0.00000000000E+00  0.45593999997E+02  0.45594000000E+02  0.51100000000E-03 0. -1.
         11   -1    0    0    0    0 -0.00000000000E+00 -0.00000000000E+00 -0.45593999997E+02  0.45594000000E+02  0.51100000000E-03 0.  1.
         23    2    1    2    0    0  0.00000000000E+00 -0.35527136788E-14 -0.35527136788E-14  0.91188000000E+02  0.91188000000E+02 0.  0.
    9900012    2    3    3    0    0 -0.16774548381E+02 -0.28401024837E+02  0.16363915553E+02  0.54367062785E+02  0.39999951231E+02 0.  0.
        -12    1    3    3    0    0  0.16774548381E+02  0.28401024837E+02 -0.16363915553E+02  0.36820937215E+02  0.00000000000E+00 0.  1.
         11    1    4    4    0    0  0.23761002936E+01  0.23041340408E+01 -0.31811780518E+01  0.45907276483E+01  0.51100000000E-03 0. -1.
        -11    1    4    4    0    0  0.29981235656E+01 -0.39896622173E+01  0.13705203517E+02  0.14585566606E+02  0.51100000000E-03 0.  1.
         12    1    4    4    0    0 -0.22148772240E+02 -0.26715496660E+02  0.58398900881E+01  0.35190768531E+02  0.00000000000E+00 0. -1.
</event>
<event>
 8    1  0.2466538E-006  0.9118800E+02  0.7816164E-02  0.1184000E+00
        -11   -1    0    0    0    0  0.00000000000E+00  0.00000000000E+00  0.45593999997E+02  0.45594000000E+02  0.51100000000E-03 0.  1.
         11   -1    0    0    0    0 -0.00000000000E+00 -0.00000000000E+00 -0.45593999997E+02  0.45594000000E+02  0.51100000000E-03 0. -1.
         23    2    1    2    0    0  0.35527136788E-14  0.00000000000E+00  0.00000000000E+00  0.91188000000E+02  0.91188000000E+02 0.  0.
    9900012    2    3    3    0    0  0.26180955615E+02  0.11971335710E+02 -0.22957015033E+02  0.54367084003E+02  0.39999999602E+02 0.  0.
        -12    1    3    3    0    0 -0.26180955615E+02 -0.11971335710E+02  0.22957015033E+02  0.36820915997E+02  0.00000000000E+00 0.  1.
         11    1    4    4    0    0  0.14754546463E+02  0.31758158956E+01  0.10179177149E+01  0.15126751292E+02  0.51100000000E-03 0. -1.
        -11    1    4    4    0    0  0.16507177034E+02 -0.17051083992E+01 -0.21761320522E+02  0.27366939168E+02  0.51100000000E-03 0.  1.
        -12    1    4    4    0    0 -0.50807678813E+01  0.10500628213E+02 -0.22136122259E+01  0.11873393543E+02  0.00000000000E+00 0.  1.
</event>
<event>
 8    1  0.2466538E-006  0.9118800E+02  0.7816164E-02  0.1184000E+00
        -11   -1    0    0    0    0  0.00000000000E+00  0.00000000000E+00  0.45593999997E+02  0.45594000000E+02  0.51100000000E-03 0. -1.
         11   -1    0    0    0    0 -0.00000000000E+00 -0.00000000000E+00 -0.45593999997E+02  0.45594000000E+02  0.51100000000E-03 0.  1.
         23    2    1    2    0    0 -0.17763568394E-14  0.00000000000E+00 -0.35527136788E-14  0.91188000000E+02  0.91188000000E+02 0.  0.
    9900012    2    3    3    0    0  0.15154463683E+02  0.25430318364E+02 -0.21895642742E+02  0.54367108747E+02  0.40000056011E+02 0.  0.
         12    1    3    3    0    0 -0.15154463683E+02 -0.25430318364E+02  0.21895642742E+02  0.36820891253E+02  0.00000000000E+00 0. -1.
         11    1    4    4    0    0 -0.20928469979E+01  0.53731927344E+01  0.10240035221E+01  0.58566024444E+01  0.51100000000E-03 0. -1.
        -11    1    4    4    0    0 -0.86098853120E+01  0.10526214828E+02 -0.16490462160E+01  0.13698564793E+02  0.51100000000E-03 0.  1.
         12    1    4    4    0    0  0.25857195993E+02  0.95309108006E+01 -0.21270600048E+02  0.34811941510E+02  0.00000000000E+00 0. -1.
</event>
